<LesHouchesEvents version="3.0">
<header>
<!--
#*********************************************************************
#                                                                    *
#                        MadGraph5_aMC@NLO                           *
#                                                                    *
#                           Going Beyond                             *
#                                                                    *
#                   http://madgraph.hep.uiuc.edu                     *
#                   http://madgraph.phys.ucl.ac.be                   *
#                   http://amcatnlo.cern.ch                          *
#                                                                    *
#                     The MadGraph5_aMC@NLO team                     *
#                                                                    *
#....................................................................*
#                                                                    *
# This file contains all the information necessary to reproduce      *
# the events generated:                                              *
#                                                                    *
# 1. software version                                                *
# 2. proc_card          : code generation info including model       *
# 3. param_card         : model primary parameters in the LH format  *
# 4. run_card           : running parameters (collider and cuts)     *
# 5. pythia_card        : present only if pythia has been run        *
# 6. pgs_card           : present only if pgs has been run           *
# 7. delphes_cards      : present only if delphes has been run       *
#                                                                    *
#                                                                    *
#*********************************************************************
-->
<MGVersion>
#5.2.2.3
</MGVersion>
<MG5ProcCard>
#************************************************************
#*                     MadGraph5_aMC@NLO                    *
#*                                                          *
#*                *                       *                 *
#*                  *        * *        *                   *
#*                    * * * * 5 * * * *                     *
#*                  *        * *        *                   *
#*                *                       *                 *
#*                                                          *
#*                                                          *
#*         VERSION 2.2.3                 2015-02-10         *
#*                                                          *
#*    The MadGraph5_aMC@NLO Development Team - Find us at   *
#*    https://server06.fynu.ucl.ac.be/projects/madgraph     *
#*                                                          *
#************************************************************
#*                                                          *
#*               Command File for MadGraph5_aMC@NLO         *
#*                                                          *
#*     run as ./bin/mg5_aMC  filename                       *
#*                                                          *
#************************************************************
set group_subprocesses Auto
set ignore_six_quark_processes False
set loop_optimized_output True
set gauge unitary
set complex_mass_scheme False
import model sm
define p = g u c d s u~ c~ d~ s~
define j = g u c d s u~ c~ d~ s~
define l+ = e+ mu+
define l- = e- mu-
define vl = ve vm vt
define vl~ = ve~ vm~ vt~
import model Zprime_UFO
generate p p > zph, zph > j j
add process p p > zph, zph > b b~
output Dijet_signal
</MG5ProcCard>
<MGProcCard>
#*********************************************************************
#                        MadGraph/MadEvent                           *
#                   http://madgraph.hep.uiuc.edu                     *
#                                                                    *
#                          proc_card.dat                             *
#*********************************************************************
#                                                                    *
#            This Files is generated by MADGRAPH 5                   *
#                                                                    *
# WARNING: This Files is generated for MADEVENT (compatibility issue)*
#          This files is NOT a valid MG4 proc_card.dat               *
#          Running this in MG4 will NEVER reproduce the result of MG5*
#                                                                    *
#*********************************************************************
#*********************************************************************
# Process(es) requested : mg2 input                                  *
#*********************************************************************
# Begin PROCESS # This is TAG. Do not modify this line
p p > zph , zph > j j           #Process
# Be carefull the coupling are here in MG5 convention
          
end_coup           # End the couplings input

done               # this tells MG there are no more procs
# End PROCESS  # This is TAG. Do not modify this line
#*********************************************************************
# Model information                                                  *
#*********************************************************************
# Begin MODEL  # This is TAG. Do not modify this line
Zprime_UFO
# End   MODEL  # This is TAG. Do not modify this line
#*********************************************************************
# Start multiparticle definitions                                    *
#*********************************************************************
# Begin MULTIPARTICLES # This is TAG. Do not modify this line

# End  MULTIPARTICLES # This is TAG. Do not modify this line
</MGProcCard>
<MGRunCard>
#*********************************************************************
#                       MadGraph5_aMC@NLO                            *
#                                                                    *
#                     run_card.dat MadEvent                          *
#                                                                    *
#  This file is used to set the parameters of the run.               *
#                                                                    *
#  Some notation/conventions:                                        *
#                                                                    *
#   Lines starting with a '# ' are info or comments                  *
#                                                                    *
#   mind the format:   value    = variable     ! comment             *
#*********************************************************************
#
#*******************                                                 
# Running parameters
#*******************                                                 
#                                                                    
#*********************************************************************
# Tag name for the run (one word)                                    *
#*********************************************************************
  tag_1     = run_tag ! name of the run 
#*********************************************************************
# Run to generate the grid pack                                      *
#*********************************************************************
  .false.     = gridpack  !True = setting up the grid pack
#*********************************************************************
# Number of events and rnd seed                                      *
# Warning: Do not generate more than 1M events in a single run       *
# If you want to run Pythia, avoid more than 50k events in a run.    *
#*********************************************************************
  2000 = nevents ! Number of unweighted events requested 
 2163 = iseed   ! rnd seed (0=assigned automatically=default))
#*********************************************************************
# Collider type and energy                                           *
# lpp: 0=No PDF, 1=proton, -1=antiproton, 2=photon from proton,      *
#                                         3=photon from electron     *
#*********************************************************************
        1     = lpp1    ! beam 1 type 
        1     = lpp2    ! beam 2 type
     4000     = ebeam1  ! beam 1 total energy in GeV
     4000     = ebeam2  ! beam 2 total energy in GeV
#*********************************************************************
# Beam polarization from -100 (left-handed) to 100 (right-handed)    *
#*********************************************************************
        0     = polbeam1 ! beam polarization for beam 1
        0     = polbeam2 ! beam polarization for beam 2
#*********************************************************************
# PDF CHOICE: this automatically fixes also alpha_s and its evol.    *
#*********************************************************************
 'nn23lo1'    = pdlabel     ! PDF set                                     
 230000    = lhaid     ! if pdlabel=lhapdf, this is the lhapdf number
#*********************************************************************
# Renormalization and factorization scales                           *
#*********************************************************************
 F        = fixed_ren_scale  ! if .true. use fixed ren scale
 F        = fixed_fac_scale  ! if .true. use fixed fac scale
 91.1880  = scale            ! fixed ren scale
 91.1880  = dsqrt_q2fact1    ! fixed fact scale for pdf1
 91.1880  = dsqrt_q2fact2    ! fixed fact scale for pdf2
 1        = scalefact        ! scale factor for event-by-event scales
#*********************************************************************
# Matching - Warning! ickkw > 1 is still beta
#*********************************************************************
 0        = ickkw            ! 0 no matching, 1 MLM, 2 CKKW matching
 1        = highestmult      ! for ickkw=2, highest mult group
 1        = ktscheme         ! for ickkw=1, 1 Durham kT, 2 Pythia pTE
 1        = alpsfact         ! scale factor for QCD emission vx
 F        = chcluster        ! cluster only according to channel diag
 T        = pdfwgt           ! for ickkw=1, perform pdf reweighting
 5        = asrwgtflavor     ! highest quark flavor for a_s reweight
 T        = clusinfo         ! include clustering tag in output
 3.0      = lhe_version       ! Change the way clustering information pass to shower.        
#*********************************************************************
#**********************************************************
#
#**********************************************************
# Automatic ptj and mjj cuts if xqcut > 0
# (turn off for VBF and single top processes)
#**********************************************************
   T  = auto_ptj_mjj  ! Automatic setting of ptj and mjj
#**********************************************************
#                                                                    
#**********************************
# BW cutoff (M+/-bwcutoff*Gamma)
#**********************************
  15  = bwcutoff      ! (M+/-bwcutoff*Gamma)
#**********************************************************
# Apply pt/E/eta/dr/mij cuts on decay products or not
# (note that etmiss/ptll/ptheavy/ht/sorted cuts always apply)
#**********************************************************
   T  = cut_decays    ! Cut decay products 
#*************************************************************
# Number of helicities to sum per event (0 = all helicities)
# 0 gives more stable result, but longer run time (needed for
# long decay chains e.g.).
# Use >=2 if most helicities contribute, e.g. pure QCD.
#*************************************************************
   0  = nhel          ! Number of helicities used per event
#*******************                                                 
# Standard Cuts
#*******************                                                 
#                                                                    
#*********************************************************************
# Minimum and maximum pt's (for max, -1 means no cut)                *
#*********************************************************************
 20  = ptj       ! minimum pt for the jets 
  0  = ptb       ! minimum pt for the b 
 10  = pta       ! minimum pt for the photons 
 10  = ptl       ! minimum pt for the charged leptons 
  0  = misset    ! minimum missing Et (sum of neutrino's momenta)
  0  = ptheavy   ! minimum pt for one heavy final state
 1.0 = ptonium   ! minimum pt for the quarkonium states
 -1  = ptjmax    ! maximum pt for the jets
 -1  = ptbmax    ! maximum pt for the b
 -1  = ptamax    ! maximum pt for the photons
 -1  = ptlmax    ! maximum pt for the charged leptons
 -1  = missetmax ! maximum missing Et (sum of neutrino's momenta)
#*********************************************************************
# Minimum and maximum E's (in the center of mass frame)              *
#*********************************************************************
  0  = ej     ! minimum E for the jets 
  0  = eb     ! minimum E for the b 
  0  = ea     ! minimum E for the photons 
  0  = el     ! minimum E for the charged leptons 
 -1   = ejmax ! maximum E for the jets
 -1   = ebmax ! maximum E for the b
 -1   = eamax ! maximum E for the photons
 -1   = elmax ! maximum E for the charged leptons
#*********************************************************************
# Maximum and minimum absolute rapidity (for max, -1 means no cut)   *
#*********************************************************************
   5  = etaj    ! max rap for the jets 
  -1  = etab    ! max rap for the b
 2.5  = etaa    ! max rap for the photons 
 2.5  = etal    ! max rap for the charged leptons 
 0.6  = etaonium ! max rap for the quarkonium states
   0  = etajmin ! min rap for the jets
   0  = etabmin ! min rap for the b
   0  = etaamin ! min rap for the photons
   0  = etalmin ! main rap for the charged leptons
#*********************************************************************
# Minimum and maximum DeltaR distance                                *
#*********************************************************************
 0.4 = drjj    ! min distance between jets 
 0   = drbb    ! min distance between b's 
 0.4 = drll    ! min distance between leptons 
 0.4 = draa    ! min distance between gammas 
 0   = drbj    ! min distance between b and jet 
 0.4 = draj    ! min distance between gamma and jet 
 0.4 = drjl    ! min distance between jet and lepton 
 0   = drab    ! min distance between gamma and b 
 0   = drbl    ! min distance between b and lepton 
 0.4 = dral    ! min distance between gamma and lepton 
 -1  = drjjmax ! max distance between jets
 -1  = drbbmax ! max distance between b's
 -1  = drllmax ! max distance between leptons
 -1  = draamax ! max distance between gammas
 -1  = drbjmax ! max distance between b and jet
 -1  = drajmax ! max distance between gamma and jet
 -1  = drjlmax ! max distance between jet and lepton
 -1  = drabmax ! max distance between gamma and b
 -1  = drblmax ! max distance between b and lepton
 -1  = dralmax ! maxdistance between gamma and lepton
#*********************************************************************
# Minimum and maximum invariant mass for pairs                       *
# WARNING: for four lepton final state mmll cut require to have      *
#          different lepton masses for each flavor!                  *           
#*********************************************************************
 0   = mmjj    ! min invariant mass of a jet pair 
 0   = mmbb    ! min invariant mass of a b pair 
 0   = mmaa    ! min invariant mass of gamma gamma pair
 0   = mmll    ! min invariant mass of l+l- (same flavour) lepton pair
 -1  = mmjjmax ! max invariant mass of a jet pair
 -1  = mmbbmax ! max invariant mass of a b pair
 -1  = mmaamax ! max invariant mass of gamma gamma pair
 -1  = mmllmax ! max invariant mass of l+l- (same flavour) lepton pair
#*********************************************************************
# Minimum and maximum invariant mass for all letpons                 *
#*********************************************************************
 0   = mmnl    ! min invariant mass for all letpons (l+- and vl) 
 -1  = mmnlmax ! max invariant mass for all letpons (l+- and vl) 
#*********************************************************************
# Minimum and maximum pt for 4-momenta sum of leptons                *
#*********************************************************************
 0   = ptllmin  ! Minimum pt for 4-momenta sum of leptons(l and vl)
 -1  = ptllmax  ! Maximum pt for 4-momenta sum of leptons(l and vl)
#*********************************************************************
# Inclusive cuts                                                     *
#*********************************************************************
 0  = xptj ! minimum pt for at least one jet  
 0  = xptb ! minimum pt for at least one b 
 0  = xpta ! minimum pt for at least one photon 
 0  = xptl ! minimum pt for at least one charged lepton 
#*********************************************************************
# Control the pt's of the jets sorted by pt                          *
#*********************************************************************
 0   = ptj1min ! minimum pt for the leading jet in pt
 0   = ptj2min ! minimum pt for the second jet in pt
 0   = ptj3min ! minimum pt for the third jet in pt
 0   = ptj4min ! minimum pt for the fourth jet in pt
 -1  = ptj1max ! maximum pt for the leading jet in pt 
 -1  = ptj2max ! maximum pt for the second jet in pt
 -1  = ptj3max ! maximum pt for the third jet in pt
 -1  = ptj4max ! maximum pt for the fourth jet in pt
 0   = cutuse  ! reject event if fails any (0) / all (1) jet pt cuts
#*********************************************************************
# Control the pt's of leptons sorted by pt                           *
#*********************************************************************
 0   = ptl1min ! minimum pt for the leading lepton in pt
 0   = ptl2min ! minimum pt for the second lepton in pt
 0   = ptl3min ! minimum pt for the third lepton in pt
 0   = ptl4min ! minimum pt for the fourth lepton in pt
 -1  = ptl1max ! maximum pt for the leading lepton in pt 
 -1  = ptl2max ! maximum pt for the second lepton in pt
 -1  = ptl3max ! maximum pt for the third lepton in pt
 -1  = ptl4max ! maximum pt for the fourth lepton in pt
#*********************************************************************
# Control the Ht(k)=Sum of k leading jets                            *
#*********************************************************************
 0   = htjmin ! minimum jet HT=Sum(jet pt)
 -1  = htjmax ! maximum jet HT=Sum(jet pt)
 0   = ihtmin  !inclusive Ht for all partons (including b)
 -1  = ihtmax  !inclusive Ht for all partons (including b)
 0   = ht2min ! minimum Ht for the two leading jets
 0   = ht3min ! minimum Ht for the three leading jets
 0   = ht4min ! minimum Ht for the four leading jets
 -1  = ht2max ! maximum Ht for the two leading jets
 -1  = ht3max ! maximum Ht for the three leading jets
 -1  = ht4max ! maximum Ht for the four leading jets
#***********************************************************************
# Photon-isolation cuts, according to hep-ph/9801442                   *
# When ptgmin=0, all the other parameters are ignored                  *
# When ptgmin>0, pta and draj are not going to be used                 *
#***********************************************************************
   0 = ptgmin ! Min photon transverse momentum
 0.4 = R0gamma ! Radius of isolation code
 1.0 = xn ! n parameter of eq.(3.4) in hep-ph/9801442
 1.0 = epsgamma ! epsilon_gamma parameter of eq.(3.4) in hep-ph/9801442
 .true. = isoEM ! isolate photons from EM energy (photons and leptons)
#*********************************************************************
# WBF cuts                                                           *
#*********************************************************************
 0   = xetamin ! minimum rapidity for two jets in the WBF case  
 0   = deltaeta ! minimum rapidity for two jets in the WBF case 
#*********************************************************************
# KT DURHAM CUT                                                      *
#*********************************************************************
 -1    =  ktdurham        
 0.4  =  dparameter 
#*********************************************************************
# maximal pdg code for quark to be considered as a light jet         *
# (otherwise b cuts are applied)                                     *
#*********************************************************************
 4 = maxjetflavor    ! Maximum jet pdg code
#*********************************************************************
# Jet measure cuts                                                   *
#*********************************************************************
 0   = xqcut   ! minimum kt jet measure between partons
#*********************************************************************
#
#*********************************************************************
# Store info for systematics studies                                 *
# WARNING: If use_syst is T, matched Pythia output is                *
#          meaningful ONLY if plotted taking matchscale              *
#          reweighting into account!                                 *
#*********************************************************************
   F  = use_syst      ! Enable systematics studies
#
#**************************************
# Parameter of the systematics study
#  will be used by SysCalc (if installed)
#**************************************                                  
#
0.5 1 2 = sys_scalefact  # factorization/renormalization scale factor
0.5 1 2 = sys_alpsfact  # \alpha_s emission scale factors
30 50 = sys_matchscale # variation of merging scale
# PDF sets and number of members (0 or none for all members).
CT10nlo.LHgrid = sys_pdf # matching scales
# MSTW2008nlo68cl.LHgrid 1  = sys_pdf
</MGRunCard>
<slha>
######################################################################
## PARAM_CARD AUTOMATICALY GENERATED BY MG5 FOLLOWING UFO MODEL   ####
######################################################################
##                                                                  ##
##  Width set on Auto will be computed following the information    ##
##        present in the decay.py files of the model.               ##
##        See  arXiv:1402.1178 for more details.                    ##
##                                                                  ##
######################################################################

###################################
## INFORMATION FOR CKMBLOCK
###################################
Block ckmblock 
    1 2.277360e-01 # cabi 

###################################
## INFORMATION FOR FRBLOCK
###################################
Block frblock 
    1 1.200000e+00 # gz 

###################################
## INFORMATION FOR MASS
###################################
Block mass 
    1 5.040000e-03 # MD 
    2 2.550000e-03 # MU 
    3 1.010000e-01 # MS 
    4 1.270000e+00 # MC 
    5 4.700000e+00 # MB 
    6 1.720000e+02 # MT 
   11 5.110000e-04 # Me 
   13 1.056600e-01 # MM 
   15 1.777000e+00 # MTA 
   23 9.118760e+01 # MZ 
   25 1.200000e+02 # MH 
  10030 1.000000e+03 # MZph 
  10031 3.000000e+02 # MZpl 
## Dependent parameters, given by model restrictions.
## Those values should be edited following the 
## analytical expression. MG5 ignores those values 
## but they are important for interfacing the output of MG5
## to external program such as Pythia.
  12 0.000000 # ve : 0.0 
  14 0.000000 # vm : 0.0 
  16 0.000000 # vt : 0.0 
  21 0.000000 # g : 0.0 
  22 0.000000 # a : 0.0 
  24 79.824360 # w+ : cmath.sqrt(MZ__exp__2/2. + cmath.sqrt(MZ__exp__4/4. - (aEW*cmath.pi*MZ__exp__2)/(Gf*sqrt__2))) 

###################################
## INFORMATION FOR SMINPUTS
###################################
Block sminputs 
    1 1.279000e+02 # aEWM1 
    2 1.166370e-05 # Gf 
    3 1.184000e-01 # aS 

###################################
## INFORMATION FOR YUKAWA
###################################
Block yukawa 
    1 5.040000e-03 # ymdo 
    2 2.550000e-03 # ymup 
    3 1.010000e-01 # yms 
    4 1.270000e+00 # ymc 
    5 4.700000e+00 # ymb 
    6 1.720000e+02 # ymt 
   11 5.110000e-04 # yme 
   13 1.056600e-01 # ymm 
   15 1.777000e+00 # ymtau 

###################################
## INFORMATION FOR DECAY
###################################
DECAY   6 1.508336e+00 # WT 
DECAY  23 2.495200e+00 # WZ 
DECAY  24 2.085000e+00 # WW 
DECAY  25 5.753088e-03 # WH 
## Dependent parameters, given by model restrictions.
## Those values should be edited following the 
## analytical expression. MG5 ignores those values 
## but they are important for interfacing the output of MG5
## to external program such as Pythia.
DECAY  1 0.000000 # d : 0.0 
DECAY  2 0.000000 # u : 0.0 
DECAY  3 0.000000 # s : 0.0 
DECAY  4 0.000000 # c : 0.0 
DECAY  5 0.000000 # b : 0.0 
DECAY  11 0.000000 # e- : 0.0 
DECAY  12 0.000000 # ve : 0.0 
DECAY  13 0.000000 # mu- : 0.0 
DECAY  14 0.000000 # vm : 0.0 
DECAY  15 0.000000 # ta- : 0.0 
DECAY  16 0.000000 # vt : 0.0 
DECAY  21 0.000000 # g : 0.0 
DECAY  22 0.000000 # a : 0.0 
DECAY  10030 0.308725 # zph : (gz__exp__2*MZph*(5 + cmath.sqrt(1 - (4*MT__exp__2)/MZph__exp__2)))/(144.*cmath.pi) 
DECAY  10031 0.132629 # zpl : (5*gz__exp__2*MZpl)/(144.*cmath.pi) 
#===========================================================
# QUANTUM NUMBERS OF NEW STATE(S) (NON SM PDG CODE)
#===========================================================

Block QNUMBERS 10030  # zph 
        1 0  # 3 times electric charge
        2 3  # number of spin states (2S+1)
        3 1  # colour rep (1: singlet, 3: triplet, 8: octet)
        4 0  # Particle/Antiparticle distinction (0=own anti)
Block QNUMBERS 10031  # zpl 
        1 0  # 3 times electric charge
        2 3  # number of spin states (2S+1)
        3 1  # colour rep (1: singlet, 3: triplet, 8: octet)
        4 0  # Particle/Antiparticle distinction (0=own anti)
</slha>
## END BANNER##
<MGGenerationInfo>
#  Number of Events        :         4081
#  Integrated weight (pb)  :  0.28109E+01
#  Max wgt                 :  0.92438E-03
#  Average wgt             :  0.68878E-03
</MGGenerationInfo>
</header>
<init>
     2212     2212  0.40000000000E+04  0.40000000000E+04 0 0  247000  247000 2   1
  0.28111054172E+01  0.59560352281E-02  0.92437730000E-03   0
</init>
<event>
 5   0  0.9040674E-03  0.1035735E+04  0.7818609E-02  0.9270197E-01
        2   -1    0    0  501    0  0.00000000000E+00  0.00000000000E+00  0.10580462584E+04  0.10580462584E+04  0.25500000920E-02 0.  1.
       -2   -1    0    0    0  501  0.00000000000E+00  0.00000000000E+00 -0.25347348561E+03  0.25347348562E+03  0.25500000920E-02 0. -1.
    10030    2    1    2    0    0  0.00000000000E+00  0.00000000000E+00  0.80457277279E+03  0.13115197440E+04  0.10357348562E+04 0.  0.
        1    1    3    3  502    0 -0.33276539942E+03  0.24124779714E+03  0.80121836868E+03  0.90049107991E+03  0.50400001928E-02 0.  1.
       -1    1    3    3    0  502  0.33276539942E+03 -0.24124779714E+03  0.33544041164E+01  0.41102866412E+03  0.50400001928E-02 0. -1.
</event>
<event>
 5   0  0.3513625E-03  0.9962206E+03  0.7818609E-02  0.9312700E-01
       -3   -1    0    0    0  501  0.00000000000E+00  0.00000000000E+00  0.27766187653E+03  0.27766189490E+03  0.10100000352E+00 0.  1.
        3   -1    0    0  501    0  0.00000000000E+00  0.00000000000E+00 -0.89358273459E+03  0.89358274030E+03  0.10100000352E+00 0. -1.
    10030    2    1    2    0    0  0.00000000000E+00  0.00000000000E+00 -0.61592085806E+03  0.11712446352E+04  0.99622060412E+03 0.  0.
        5    1    3    3  502    0 -0.45386873043E+03  0.19266581785E+03 -0.39088470834E+03  0.62922959803E+03  0.46999998093E+01 0.  1.
       -5    1    3    3    0  502  0.45386873043E+03 -0.19266581785E+03 -0.22503614972E+03  0.54201503716E+03  0.46999998093E+01 0. -1.
</event>
<event>
 5   0  0.9040674E-03  0.1016755E+04  0.7818609E-02  0.9290356E-01
        2   -1    0    0  501    0  0.00000000000E+00  0.00000000000E+00  0.89375659846E+03  0.89375659846E+03  0.25500000920E-02 0.  1.
       -2   -1    0    0    0  501  0.00000000000E+00  0.00000000000E+00 -0.28917023492E+03  0.28917023493E+03  0.25500000920E-02 0. -1.
    10030    2    1    2    0    0  0.00000000000E+00  0.00000000000E+00  0.60458636353E+03  0.11829268334E+04  0.10167552420E+04 0.  0.
        1    1    3    3  502    0 -0.46902653692E+03  0.94878554938E+02  0.10260257552E+03  0.48940282085E+03  0.50400001928E-02 0. -1.
       -1    1    3    3    0  502  0.46902653692E+03 -0.94878554938E+02  0.50198378802E+03  0.69352401255E+03  0.50400001928E-02 0.  1.
</event>
<event>
 5   0  0.9243773E-03  0.1011004E+04  0.7818609E-02  0.9296558E-01
        2   -1    0    0  501    0  0.00000000000E+00  0.00000000000E+00  0.35350294875E+03  0.35350294875E+03  0.25500000920E-02 0. -1.
       -2   -1    0    0    0  501  0.00000000000E+00  0.00000000000E+00 -0.72285727147E+03  0.72285727147E+03  0.25500000920E-02 0.  1.
    10030    2    1    2    0    0  0.00000000000E+00  0.00000000000E+00 -0.36935432272E+03  0.10763602202E+04  0.10110038120E+04 0.  0.
        3    1    3    3  502    0 -0.31382910291E+03  0.34591547015E+03 -0.39053103669E+03  0.60881911857E+03  0.10100000352E+00 0.  1.
       -3    1    3    3    0  502  0.31382910291E+03 -0.34591547015E+03  0.21176713970E+02  0.46754110165E+03  0.10100000352E+00 0. -1.
</event>
<event>
 5   0  0.9040674E-03  0.1032320E+04  0.7818609E-02  0.9273790E-01
       -2   -1    0    0    0  501  0.00000000000E+00  0.00000000000E+00  0.42949890917E+03  0.42949890918E+03  0.25500000920E-02 0. -1.
        2   -1    0    0  501    0  0.00000000000E+00  0.00000000000E+00 -0.62030694472E+03  0.62030694472E+03  0.25500000920E-02 0.  1.
    10030    2    1    2    0    0  0.00000000000E+00  0.00000000000E+00 -0.19080803554E+03  0.10498058539E+04  0.10323200204E+04 0.  0.
        1    1    3    3  502    0  0.46372490247E+03 -0.13837423898E+03 -0.27798040377E+03  0.55808719757E+03  0.50400001928E-02 0.  1.
       -1    1    3    3    0  502 -0.46372490247E+03  0.13837423898E+03  0.87172368231E+02  0.49171865634E+03  0.50400001928E-02 0. -1.
</event>
<event>
 5   0  0.9243773E-03  0.1008341E+04  0.7818609E-02  0.9299443E-01
        2   -1    0    0  501    0  0.00000000000E+00  0.00000000000E+00  0.14053806427E+04  0.14053806427E+04  0.25500000920E-02 0.  1.
       -2   -1    0    0    0  501  0.00000000000E+00  0.00000000000E+00 -0.18086772535E+03  0.18086772536E+03  0.25500000920E-02 0. -1.
    10030    2    1    2    0    0  0.00000000000E+00  0.00000000000E+00  0.12245129174E+04  0.15862483681E+04  0.10083412123E+04 0.  0.
        3    1    3    3  502    0  0.35526472882E+03 -0.29867971574E+03  0.92198822417E+03  0.10322232781E+04  0.10100000352E+00 0.  1.
       -3    1    3    3    0  502 -0.35526472882E+03  0.29867971574E+03  0.30252469321E+03  0.55402508999E+03  0.10100000352E+00 0. -1.
</event>
<event>
 5   0  0.5310275E-03  0.7342258E+03  0.7818609E-02  0.9660428E-01
       -1   -1    0    0    0  501  0.00000000000E+00  0.00000000000E+00  0.35444457666E+03  0.35444457670E+03  0.50400001928E-02 0.  1.
        1   -1    0    0  501    0  0.00000000000E+00  0.00000000000E+00 -0.38023405268E+03  0.38023405272E+03  0.50400001928E-02 0. -1.
    10030    2    1    2    0    0  0.00000000000E+00  0.00000000000E+00 -0.25789476020E+02  0.73467862941E+03  0.73422584499E+03 0.  0.
        1    1    3    3  502    0  0.95488802869E+02  0.29178988035E+03 -0.21429591515E+03  0.37440911451E+03  0.50400001928E-02 0. -1.
       -1    1    3    3    0  502 -0.95488802869E+02 -0.29178988035E+03  0.18850643913E+03  0.36026951491E+03  0.50400001928E-02 0.  1.
</event>
<event>
 5   0  0.5189877E-03  0.1021284E+04  0.7818609E-02  0.9285504E-01
        1   -1    0    0  501    0  0.00000000000E+00  0.00000000000E+00  0.87569321428E+03  0.87569321429E+03  0.50400001928E-02 0.  1.
       -1   -1    0    0    0  501  0.00000000000E+00  0.00000000000E+00 -0.29777015306E+03  0.29777015311E+03  0.50400001928E-02 0. -1.
    10030    2    1    2    0    0  0.00000000000E+00  0.00000000000E+00  0.57792306121E+03  0.11734633674E+04  0.10212840985E+04 0.  0.
        3    1    3    3  502    0 -0.88933590944E+02  0.33614652167E+03  0.71865299285E+03  0.79835192864E+03  0.10100000352E+00 0.  1.
       -3    1    3    3    0  502  0.88933590944E+02 -0.33614652167E+03 -0.14072993163E+03  0.37511143876E+03  0.10100000352E+00 0. -1.
</event>
<event>
 5   0  0.9040674E-03  0.9893540E+03  0.7818609E-02  0.9320299E-01
       -2   -1    0    0    0  501  0.00000000000E+00  0.00000000000E+00  0.22034173524E+03  0.22034173526E+03  0.25500000920E-02 0.  1.
        2   -1    0    0  501    0  0.00000000000E+00  0.00000000000E+00 -0.11105718468E+04  0.11105718468E+04  0.25500000920E-02 0. -1.
    10030    2    1    2    0    0  0.00000000000E+00  0.00000000000E+00 -0.89023011159E+03  0.13309135821E+04  0.98935398691E+03 0.  0.
        1    1    3    3  502    0  0.38144169861E+03 -0.31480695642E+03 -0.45884295122E+03  0.67463919480E+03  0.50400001928E-02 0. -1.
       -1    1    3    3    0  502 -0.38144169861E+03  0.31480695642E+03 -0.43138716037E+03  0.65627438729E+03  0.50400001928E-02 0.  1.
</event>
<event>
 5   0  0.3513625E-03  0.9843542E+03  0.7818609E-02  0.9325873E-01
       -4   -1    0    0    0  501  0.00000000000E+00  0.00000000000E+00  0.37281572301E+03  0.37281788614E+03  0.12699999809E+01 0.  1.
        4   -1    0    0  501    0  0.00000000000E+00  0.00000000000E+00 -0.64974871437E+03  0.64974995554E+03  0.12699999809E+01 0. -1.
    10030    2    1    2    0    0  0.00000000000E+00  0.00000000000E+00 -0.27693299136E+03  0.10225678417E+04  0.98435415839E+03 0.  0.
        5    1    3    3  502    0  0.45460806400E+03 -0.15525122634E+03 -0.24959972809E+03  0.54138114983E+03  0.46999998093E+01 0. -1.
       -5    1    3    3    0  502 -0.45460806400E+03  0.15525122634E+03 -0.27333263269E+02  0.48118669185E+03  0.46999998093E+01 0.  1.
</event>
<event>
 5   0  0.9040674E-03  0.1000338E+04  0.7818609E-02  0.9308174E-01
       -2   -1    0    0    0  501  0.00000000000E+00  0.00000000000E+00  0.85534663458E+03  0.85534663458E+03  0.25500000920E-02 0. -1.
        2   -1    0    0  501    0  0.00000000000E+00  0.00000000000E+00 -0.29247676098E+03  0.29247676099E+03  0.25500000920E-02 0.  1.
    10030    2    1    2    0    0  0.00000000000E+00  0.00000000000E+00  0.56286987360E+03  0.11478233956E+04  0.10003379693E+04 0.  0.
        1    1    3    3  502    0 -0.42068739182E+03 -0.12650447604E+03  0.55583222854E+03  0.70847069833E+03  0.50400001928E-02 0. -1.
       -1    1    3    3    0  502  0.42068739182E+03  0.12650447604E+03  0.70376450688E+01  0.43935269724E+03  0.50400001928E-02 0.  1.
</event>
<event>
 5   0  0.3513625E-03  0.9894138E+03  0.7818609E-02  0.9320232E-01
       -4   -1    0    0    0  501  0.00000000000E+00  0.00000000000E+00  0.38584640386E+03  0.38584849394E+03  0.12699999809E+01 0.  1.
        4   -1    0    0  501    0  0.00000000000E+00  0.00000000000E+00 -0.63427620822E+03  0.63427747966E+03  0.12699999809E+01 0. -1.
    10030    2    1    2    0    0  0.00000000000E+00  0.00000000000E+00 -0.24842980435E+03  0.10201259736E+04  0.98941378317E+03 0.  0.
        4    1    3    3  502    0  0.93757986670E+02 -0.44544723427E+03 -0.32392699077E+03  0.55869858317E+03  0.12699999809E+01 0. -1.
       -4    1    3    3    0  502 -0.93757986670E+02  0.44544723427E+03  0.75497186416E+02  0.46142739043E+03  0.12699999809E+01 0.  1.
</event>
<event>
 5   0  0.8907355E-03  0.1010034E+04  0.7818609E-02  0.9297607E-01
        2   -1    0    0  501    0  0.00000000000E+00  0.00000000000E+00  0.67271513626E+03  0.67271513626E+03  0.25500000920E-02 0.  1.
       -2   -1    0    0    0  501  0.00000000000E+00  0.00000000000E+00 -0.37912377412E+03  0.37912377413E+03  0.25500000920E-02 0. -1.
    10030    2    1    2    0    0  0.00000000000E+00  0.00000000000E+00  0.29359136213E+03  0.10518389104E+04  0.10100342596E+04 0.  0.
        5    1    3    3  502    0  0.29907133047E+03  0.40637487994E+03  0.12505064318E+03  0.51984993711E+03  0.46999998093E+01 0.  1.
       -5    1    3    3    0  502 -0.29907133047E+03 -0.40637487994E+03  0.16854071895E+03  0.53198897329E+03  0.46999998093E+01 0. -1.
</event>
<event>
 5   0  0.5072205E-03  0.1000567E+04  0.7818609E-02  0.9307923E-01
       -1   -1    0    0    0  501  0.00000000000E+00  0.00000000000E+00  0.21179393085E+03  0.21179393091E+03  0.50400001928E-02 0. -1.
        1   -1    0    0  501    0  0.00000000000E+00  0.00000000000E+00 -0.11817314499E+04  0.11817314499E+04  0.50400001928E-02 0.  1.
    10030    2    1    2    0    0  0.00000000000E+00  0.00000000000E+00 -0.96993751907E+03  0.13935253808E+04  0.10005669374E+04 0.  0.
        5    1    3    3  502    0  0.21072989452E+03  0.31757441106E+03 -0.33668927891E+02  0.38264380526E+03  0.46999998093E+01 0. -1.
       -5    1    3    3    0  502 -0.21072989452E+03 -0.31757441106E+03 -0.93626859118E+03  0.10108815756E+04  0.46999998093E+01 0.  1.
</event>
<event>
 5   0  0.3513625E-03  0.9965020E+03  0.7818609E-02  0.9312390E-01
       -3   -1    0    0    0  501  0.00000000000E+00  0.00000000000E+00  0.19903189339E+03  0.19903191902E+03  0.10100000352E+00 0.  1.
        3   -1    0    0  501    0  0.00000000000E+00  0.00000000000E+00 -0.12473077970E+04  0.12473078011E+04  0.10100000352E+00 0. -1.
    10030    2    1    2    0    0  0.00000000000E+00  0.00000000000E+00 -0.10482759036E+04  0.14463397201E+04  0.99650198989E+03 0.  0.
        4    1    3    3  502    0  0.45774629836E+03 -0.14096036464E+03 -0.72341564307E+03  0.86760204218E+03  0.12699999809E+01 0. -1.
       -4    1    3    3    0  502 -0.45774629836E+03  0.14096036464E+03 -0.32486026051E+03  0.57873767790E+03  0.12699999809E+01 0.  1.
</event>
<event>
 5   0  0.5310275E-03  0.1020440E+04  0.7818609E-02  0.9286406E-01
        1   -1    0    0  501    0  0.00000000000E+00  0.00000000000E+00  0.94466822203E+03  0.94466822205E+03  0.50400001928E-02 0. -1.
       -1   -1    0    0    0  501  0.00000000000E+00  0.00000000000E+00 -0.27557241671E+03  0.27557241676E+03  0.50400001928E-02 0.  1.
    10030    2    1    2    0    0  0.00000000000E+00  0.00000000000E+00  0.66909580532E+03  0.12202406388E+04  0.10204401109E+04 0.  0.
        1    1    3    3  502    0  0.13438978912E+03 -0.73919986566E+02  0.91644817478E+03  0.92919429449E+03  0.50400001928E-02 0. -1.
       -1    1    3    3    0  502 -0.13438978912E+03  0.73919986566E+02 -0.24735236946E+03  0.29104634431E+03  0.50400001928E-02 0.  1.
</event>
<event>
 5   0  0.5189877E-03  0.9783669E+03  0.7818609E-02  0.9332595E-01
       -1   -1    0    0    0  501  0.00000000000E+00  0.00000000000E+00  0.40612067547E+03  0.40612067550E+03  0.50400001928E-02 0. -1.
        1   -1    0    0  501    0  0.00000000000E+00  0.00000000000E+00 -0.58923480167E+03  0.58923480170E+03  0.50400001928E-02 0.  1.
    10030    2    1    2    0    0  0.00000000000E+00  0.00000000000E+00 -0.18311412621E+03  0.99535547719E+03  0.97836687534E+03 0.  0.
        3    1    3    3  502    0  0.45110756370E+03  0.18915477128E+03 -0.86692406376E+02  0.49678279464E+03  0.10100000352E+00 0.  1.
       -3    1    3    3    0  502 -0.45110756370E+03 -0.18915477128E+03 -0.96421719830E+02  0.49857268255E+03  0.10100000352E+00 0. -1.
</event>
<event>
 5   0  0.5189877E-03  0.9931508E+03  0.7818609E-02  0.9316089E-01
        1   -1    0    0  501    0  0.00000000000E+00  0.00000000000E+00  0.17864317604E+04  0.17864317604E+04  0.50400001928E-02 0. -1.
       -1   -1    0    0    0  501  0.00000000000E+00  0.00000000000E+00 -0.13803333729E+03  0.13803333738E+03  0.50400001928E-02 0.  1.
    10030    2    1    2    0    0  0.00000000000E+00  0.00000000000E+00  0.16483984231E+04  0.19244650978E+04  0.99315082002E+03 0.  0.
        3    1    3    3  502    0  0.84429883448E+02 -0.28009005845E+03  0.46666013514E+02  0.29623735936E+03  0.10100000352E+00 0.  1.
       -3    1    3    3    0  502 -0.84429883448E+02  0.28009005845E+03  0.16017324096E+04  0.16282277384E+04  0.10100000352E+00 0. -1.
</event>
<event>
 5   0  0.9040674E-03  0.9934055E+03  0.7818609E-02  0.9315807E-01
        2   -1    0    0  501    0  0.00000000000E+00  0.00000000000E+00  0.91730308901E+03  0.91730308901E+03  0.25500000920E-02 0. -1.
       -2   -1    0    0    0  501  0.00000000000E+00  0.00000000000E+00 -0.26895541739E+03  0.26895541740E+03  0.25500000920E-02 0.  1.
    10030    2    1    2    0    0  0.00000000000E+00  0.00000000000E+00  0.64834767162E+03  0.11862585064E+04  0.99340552683E+03 0.  0.
        1    1    3    3  502    0  0.26732281591E+03  0.16382474093E+03 -0.13585983512E+03  0.34169859302E+03  0.50400001928E-02 0.  1.
       -1    1    3    3    0  502 -0.26732281591E+03 -0.16382474093E+03  0.78420750674E+03  0.84455991339E+03  0.50400001928E-02 0. -1.
</event>
<event>
 5   0  0.5349685E-03  0.9876800E+03  0.7818609E-02  0.9322161E-01
       -1   -1    0    0    0  501  0.00000000000E+00  0.00000000000E+00  0.14078016614E+03  0.14078016623E+03  0.50400001928E-02 0. -1.
        1   -1    0    0  501    0  0.00000000000E+00  0.00000000000E+00 -0.17323316206E+04  0.17323316206E+04  0.50400001928E-02 0.  1.
    10030    2    1    2    0    0  0.00000000000E+00  0.00000000000E+00 -0.15915514545E+04  0.18731117868E+04  0.98767997541E+03 0.  0.
        4    1    3    3  502    0  0.31508098478E+03  0.37518459045E+03 -0.67830410328E+03  0.83674223827E+03  0.12699999809E+01 0.  1.
       -4    1    3    3    0  502 -0.31508098478E+03 -0.37518459045E+03 -0.91324735118E+03  0.10363695486E+04  0.12699999809E+01 0. -1.
</event>
<event>
 5   0  0.5310275E-03  0.1001595E+04  0.7818609E-02  0.9306797E-01
        1   -1    0    0  501    0  0.00000000000E+00  0.00000000000E+00  0.72178047488E+03  0.72178047489E+03  0.50400001928E-02 0.  1.
       -1   -1    0    0    0  501  0.00000000000E+00  0.00000000000E+00 -0.34747153174E+03  0.34747153177E+03  0.50400001928E-02 0. -1.
    10030    2    1    2    0    0  0.00000000000E+00  0.00000000000E+00  0.37430894314E+03  0.10692520067E+04  0.10015950623E+04 0.  0.
        1    1    3    3  502    0  0.25937816142E+03  0.42768823351E+03  0.16091986583E+03  0.52544215566E+03  0.50400001928E-02 0.  1.
       -1    1    3    3    0  502 -0.25937816142E+03 -0.42768823351E+03  0.21338907731E+03  0.54380985100E+03  0.50400001928E-02 0. -1.
</event>
<event>
 5   0  0.8968798E-03  0.1067126E+04  0.7818609E-02  0.9237839E-01
       -2   -1    0    0    0  501  0.00000000000E+00  0.00000000000E+00  0.27953380538E+03  0.27953380540E+03  0.25500000920E-02 0.  1.
        2   -1    0    0  501    0  0.00000000000E+00  0.00000000000E+00 -0.10184442626E+04  0.10184442626E+04  0.25500000920E-02 0. -1.
    10030    2    1    2    0    0  0.00000000000E+00  0.00000000000E+00 -0.73891045726E+03  0.12979780680E+04  0.10671262349E+04 0.  0.
        2    1    3    3  502    0  0.98478094654E+02  0.52266241729E+03 -0.42128378925E+03  0.67849389729E+03  0.25500000920E-02 0. -1.
       -2    1    3    3    0  502 -0.98478094654E+02 -0.52266241729E+03 -0.31762666800E+03  0.61948417075E+03  0.25500000920E-02 0.  1.
</event>
<event>
 5   0  0.5189877E-03  0.1002654E+04  0.7818609E-02  0.9305638E-01
        1   -1    0    0  501    0  0.00000000000E+00  0.00000000000E+00  0.69738461607E+03  0.69738461609E+03  0.50400001928E-02 0. -1.
       -1   -1    0    0    0  501  0.00000000000E+00  0.00000000000E+00 -0.36038784750E+03  0.36038784754E+03  0.50400001928E-02 0.  1.
    10030    2    1    2    0    0  0.00000000000E+00  0.00000000000E+00  0.33699676857E+03  0.10577724636E+04  0.10026543586E+04 0.  0.
        3    1    3    3  502    0 -0.21248839507E+02  0.37094020555E+01  0.69689482810E+03  0.69722857406E+03  0.10100000352E+00 0. -1.
       -3    1    3    3    0  502  0.21248839507E+02 -0.37094020555E+01 -0.35989805954E+03  0.36054388957E+03  0.10100000352E+00 0.  1.
</event>
<event>
 5   0  0.3513625E-03  0.1016116E+04  0.7818609E-02  0.9291044E-01
       -3   -1    0    0    0  501  0.00000000000E+00  0.00000000000E+00  0.25615821607E+04  0.25615821627E+04  0.10100000352E+00 0. -1.
        3   -1    0    0  501    0  0.00000000000E+00  0.00000000000E+00 -0.10076687668E+03  0.10076692730E+03  0.10100000352E+00 0.  1.
    10030    2    1    2    0    0  0.00000000000E+00  0.00000000000E+00  0.24608152840E+04  0.26623490900E+04  0.10161155519E+04 0.  0.
        4    1    3    3  502    0  0.35081503574E+03 -0.53384828678E+02  0.21830668424E+04  0.22117195981E+04  0.12699999809E+01 0. -1.
       -4    1    3    3    0  502 -0.35081503574E+03  0.53384828678E+02  0.27774844155E+03  0.45062949184E+03  0.12699999809E+01 0.  1.
</event>
<event>
 5   0  0.9243773E-03  0.1082372E+04  0.7818609E-02  0.9222546E-01
       -2   -1    0    0    0  501  0.00000000000E+00  0.00000000000E+00  0.29099340248E+03  0.29099340249E+03  0.25500000920E-02 0.  1.
        2   -1    0    0  501    0  0.00000000000E+00  0.00000000000E+00 -0.10064904584E+04  0.10064904585E+04  0.25500000920E-02 0. -1.
    10030    2    1    2    0    0  0.00000000000E+00  0.00000000000E+00 -0.71549705597E+03  0.12974838609E+04  0.10823716239E+04 0.  0.
        3    1    3    3  502    0 -0.27165368813E+03  0.32445549325E+03 -0.76216168722E+03  0.87175543649E+03  0.10100000352E+00 0. -1.
       -3    1    3    3    0  502  0.27165368813E+03 -0.32445549325E+03  0.46664631250E+02  0.42572842445E+03  0.10100000352E+00 0.  1.
</event>
<event>
 5   0  0.5310275E-03  0.1004045E+04  0.7818609E-02  0.9304119E-01
       -1   -1    0    0    0  501  0.00000000000E+00  0.00000000000E+00  0.41430877817E+03  0.41430877820E+03  0.50400001928E-02 0.  1.
        1   -1    0    0  501    0  0.00000000000E+00  0.00000000000E+00 -0.60830627982E+03  0.60830627984E+03  0.50400001928E-02 0. -1.
    10030    2    1    2    0    0  0.00000000000E+00  0.00000000000E+00 -0.19399750165E+03  0.10226150580E+04  0.10040450818E+04 0.  0.
        1    1    3    3  502    0 -0.13805469760E+03 -0.35203121393E+03 -0.43332052955E+03  0.57511021245E+03  0.50400001928E-02 0. -1.
       -1    1    3    3    0  502  0.13805469760E+03  0.35203121393E+03  0.23932302791E+03  0.44750484559E+03  0.50400001928E-02 0.  1.
</event>
<event>
 5   0  0.8968798E-03  0.9320026E+03  0.7818609E-02  0.9386438E-01
       -2   -1    0    0    0  501  0.00000000000E+00  0.00000000000E+00  0.25313340085E+03  0.25313340086E+03  0.25500000920E-02 0.  1.
        2   -1    0    0  501    0  0.00000000000E+00  0.00000000000E+00 -0.85787655682E+03  0.85787655683E+03  0.25500000920E-02 0. -1.
    10030    2    1    2    0    0  0.00000000000E+00  0.00000000000E+00 -0.60474315597E+03  0.11110099577E+04  0.93200259730E+03 0.  0.
        2    1    3    3  502    0 -0.37472712995E+03 -0.19893421675E+03 -0.53217165429E+03  0.68058938734E+03  0.25500000920E-02 0.  1.
       -2    1    3    3    0  502  0.37472712995E+03  0.19893421675E+03 -0.72571501680E+02  0.43042057035E+03  0.25500000920E-02 0. -1.
</event>
<event>
 5   0  0.5201968E-03  0.1098772E+04  0.7818609E-02  0.9206390E-01
       -1   -1    0    0    0  501  0.00000000000E+00  0.00000000000E+00  0.43004656986E+03  0.43004656989E+03  0.50400001928E-02 0. -1.
        1   -1    0    0  501    0  0.00000000000E+00  0.00000000000E+00 -0.70184223635E+03  0.70184223637E+03  0.50400001928E-02 0.  1.
    10030    2    1    2    0    0  0.00000000000E+00  0.00000000000E+00 -0.27179566650E+03  0.11318888063E+04  0.10987717622E+04 0.  0.
        2    1    3    3  502    0 -0.51036941749E+03  0.19489329279E+03 -0.19565047181E+03  0.58029255123E+03  0.25500000920E-02 0.  1.
       -2    1    3    3    0  502  0.51036941749E+03 -0.19489329279E+03 -0.76145194689E+02  0.55159625503E+03  0.25500000920E-02 0. -1.
</event>
<event>
 5   0  0.9243773E-03  0.9876668E+03  0.7818609E-02  0.9322176E-01
        2   -1    0    0  501    0  0.00000000000E+00  0.00000000000E+00  0.13254172817E+03  0.13254172819E+03  0.25500000920E-02 0. -1.
       -2   -1    0    0    0  501  0.00000000000E+00  0.00000000000E+00 -0.18399595950E+04  0.18399595950E+04  0.25500000920E-02 0.  1.
    10030    2    1    2    0    0  0.00000000000E+00  0.00000000000E+00 -0.17074178668E+04  0.19725013232E+04  0.98766679503E+03 0.  0.
        3    1    3    3  502    0 -0.29073125084E+02 -0.37212085050E+03 -0.20794539245E+03  0.42727095668E+03  0.10100000352E+00 0. -1.
       -3    1    3    3    0  502  0.29073125084E+02  0.37212085050E+03 -0.14994724743E+04  0.15452303665E+04  0.10100000352E+00 0.  1.
</event>
<event>
 5   0  0.8907355E-03  0.9958561E+03  0.7818609E-02  0.9313101E-01
        2   -1    0    0  501    0  0.00000000000E+00  0.00000000000E+00  0.31260471006E+03  0.31260471007E+03  0.25500000920E-02 0.  1.
       -2   -1    0    0    0  501  0.00000000000E+00  0.00000000000E+00 -0.79311775714E+03  0.79311775714E+03  0.25500000920E-02 0. -1.
    10030    2    1    2    0    0  0.00000000000E+00  0.00000000000E+00 -0.48051304708E+03  0.11057224672E+04  0.99585610712E+03 0.  0.
        5    1    3    3  502    0 -0.40505298965E+03 -0.26506929407E+03 -0.11086404110E+03  0.49663123209E+03  0.46999998093E+01 0. -1.
       -5    1    3    3    0  502  0.40505298965E+03  0.26506929407E+03 -0.36964900598E+03  0.60909123512E+03  0.46999998093E+01 0.  1.
</event>
<event>
 5   0  0.5201968E-03  0.9336843E+03  0.7818609E-02  0.9384427E-01
       -1   -1    0    0    0  501  0.00000000000E+00  0.00000000000E+00  0.13459035253E+03  0.13459035262E+03  0.50400001928E-02 0.  1.
        1   -1    0    0  501    0  0.00000000000E+00  0.00000000000E+00 -0.16192958110E+04  0.16192958110E+04  0.50400001928E-02 0. -1.
    10030    2    1    2    0    0  0.00000000000E+00  0.00000000000E+00 -0.14847054585E+04  0.17538861636E+04  0.93368430240E+03 0.  0.
        2    1    3    3  502    0  0.38771227815E+02 -0.25382809389E+03 -0.99718895656E+01  0.25696565518E+03  0.25500000920E-02 0.  1.
       -2    1    3    3    0  502 -0.38771227815E+02  0.25382809389E+03 -0.14747335689E+04  0.14969205084E+04  0.25500000920E-02 0. -1.
</event>
<event>
 5   0  0.9243773E-03  0.1017372E+04  0.7818609E-02  0.9289694E-01
        2   -1    0    0  501    0  0.00000000000E+00  0.00000000000E+00  0.12595778395E+04  0.12595778395E+04  0.25500000920E-02 0.  1.
       -2   -1    0    0    0  501  0.00000000000E+00  0.00000000000E+00 -0.20543508414E+03  0.20543508416E+03  0.25500000920E-02 0. -1.
    10030    2    1    2    0    0  0.00000000000E+00  0.00000000000E+00  0.10541427553E+04  0.14650129236E+04  0.10173720646E+04 0.  0.
        3    1    3    3  502    0 -0.43249282011E+03 -0.25276947219E+03  0.65440348099E+03  0.82412764281E+03  0.10100000352E+00 0. -1.
       -3    1    3    3    0  502  0.43249282011E+03  0.25276947219E+03  0.39973927433E+03  0.64088528081E+03  0.10100000352E+00 0.  1.
</event>
<event>
 5   0  0.9040674E-03  0.1005009E+04  0.7818609E-02  0.9303068E-01
        2   -1    0    0  501    0  0.00000000000E+00  0.00000000000E+00  0.94716027474E+03  0.94716027474E+03  0.25500000920E-02 0. -1.
       -2   -1    0    0    0  501  0.00000000000E+00  0.00000000000E+00 -0.26659796472E+03  0.26659796473E+03  0.25500000920E-02 0.  1.
    10030    2    1    2    0    0  0.00000000000E+00  0.00000000000E+00  0.68056231002E+03  0.12137582395E+04  0.10050094557E+04 0.  0.
        1    1    3    3  502    0  0.55521570941E+02  0.40350717709E+03  0.69570523792E+03  0.80616776473E+03  0.50400001928E-02 0. -1.
       -1    1    3    3    0  502 -0.55521570941E+02 -0.40350717709E+03 -0.15142927900E+02  0.40759047474E+03  0.50400001928E-02 0.  1.
</event>
<event>
 5   0  0.5189877E-03  0.1009172E+04  0.7818609E-02  0.9298542E-01
        1   -1    0    0  501    0  0.00000000000E+00  0.00000000000E+00  0.10463641460E+04  0.10463641460E+04  0.50400001928E-02 0.  1.
       -1   -1    0    0    0  501  0.00000000000E+00  0.00000000000E+00 -0.24332530817E+03  0.24332530823E+03  0.50400001928E-02 0. -1.
    10030    2    1    2    0    0  0.00000000000E+00  0.00000000000E+00  0.80303883784E+03  0.12896894543E+04  0.10091716967E+04 0.  0.
        3    1    3    3  502    0 -0.19584825742E+03 -0.45296940267E+02 -0.18994457982E+03  0.27656338575E+03  0.10100000352E+00 0. -1.
       -3    1    3    3    0  502  0.19584825742E+03  0.45296940267E+02  0.99298341766E+03  0.10131260685E+04  0.10100000352E+00 0.  1.
</event>
<event>
 5   0  0.9243773E-03  0.1015097E+04  0.7818609E-02  0.9292140E-01
       -2   -1    0    0    0  501  0.00000000000E+00  0.00000000000E+00  0.20956111325E+03  0.20956111327E+03  0.25500000920E-02 0. -1.
        2   -1    0    0  501    0  0.00000000000E+00  0.00000000000E+00 -0.12292623038E+04  0.12292623038E+04  0.25500000920E-02 0.  1.
    10030    2    1    2    0    0  0.00000000000E+00  0.00000000000E+00 -0.10197011905E+04  0.14388234170E+04  0.10150971912E+04 0.  0.
        3    1    3    3  502    0 -0.79477517013E+02  0.29892184840E+03  0.60536542935E+02  0.31517555488E+03  0.10100000352E+00 0. -1.
       -3    1    3    3    0  502  0.79477517013E+02 -0.29892184840E+03 -0.10802377335E+04  0.11236478622E+04  0.10100000352E+00 0.  1.
</event>
<event>
 5   0  0.5349685E-03  0.9858949E+03  0.7818609E-02  0.9324152E-01
        1   -1    0    0  501    0  0.00000000000E+00  0.00000000000E+00  0.78032235476E+03  0.78032235478E+03  0.50400001928E-02 0.  1.
       -1   -1    0    0    0  501  0.00000000000E+00  0.00000000000E+00 -0.31140615649E+03  0.31140615653E+03  0.50400001928E-02 0. -1.
    10030    2    1    2    0    0  0.00000000000E+00  0.00000000000E+00  0.46891619828E+03  0.10917285113E+04  0.98589489368E+03 0.  0.
        4    1    3    3  502    0 -0.96778289500E+02 -0.39097979682E+03 -0.80239798898E+02  0.41069608845E+03  0.12699999809E+01 0. -1.
       -4    1    3    3    0  502  0.96778289500E+02  0.39097979682E+03  0.54915599717E+03  0.68103242285E+03  0.12699999809E+01 0.  1.
</event>
<event>
 5   0  0.5310275E-03  0.1000559E+04  0.7818609E-02  0.9307932E-01
       -1   -1    0    0    0  501  0.00000000000E+00  0.00000000000E+00  0.53915818712E+03  0.53915818714E+03  0.50400001928E-02 0.  1.
        1   -1    0    0  501    0  0.00000000000E+00  0.00000000000E+00 -0.46420457142E+03  0.46420457144E+03  0.50400001928E-02 0. -1.
    10030    2    1    2    0    0  0.00000000000E+00  0.00000000000E+00  0.74953615703E+02  0.10033627586E+04  0.10005592340E+04 0.  0.
        1    1    3    3  502    0  0.58366229457E+02  0.29284785063E+03 -0.36503697391E+03  0.47161262993E+03  0.50400001928E-02 0. -1.
       -1    1    3    3    0  502 -0.58366229457E+02 -0.29284785063E+03  0.43999058961E+03  0.53175012866E+03  0.50400001928E-02 0.  1.
</event>
<event>
 5   0  0.5189877E-03  0.1019245E+04  0.7818609E-02  0.9287686E-01
       -1   -1    0    0    0  501  0.00000000000E+00  0.00000000000E+00  0.41840509280E+03  0.41840509283E+03  0.50400001928E-02 0.  1.
        1   -1    0    0  501    0  0.00000000000E+00  0.00000000000E+00 -0.62072595648E+03  0.62072595650E+03  0.50400001928E-02 0. -1.
    10030    2    1    2    0    0  0.00000000000E+00  0.00000000000E+00 -0.20232086368E+03  0.10391310493E+04  0.10192446251E+04 0.  0.
        3    1    3    3  502    0 -0.77368826134E+02 -0.42331908840E+02  0.41056598710E+03  0.41993138216E+03  0.10100000352E+00 0.  1.
       -3    1    3    3    0  502  0.77368826134E+02  0.42331908840E+02 -0.61288685077E+03  0.61919966716E+03  0.10100000352E+00 0. -1.
</event>
<event>
 5   0  0.8875655E-03  0.9883533E+03  0.7818609E-02  0.9321412E-01
       -2   -1    0    0    0  501  0.00000000000E+00  0.00000000000E+00  0.23917370881E+03  0.23917370882E+03  0.25500000920E-02 0. -1.
        2   -1    0    0  501    0  0.00000000000E+00  0.00000000000E+00 -0.10210593056E+04  0.10210593056E+04  0.25500000920E-02 0.  1.
    10030    2    1    2    0    0  0.00000000000E+00  0.00000000000E+00 -0.78188559675E+03  0.12602330144E+04  0.98835325878E+03 0.  0.
        4    1    3    3  502    0  0.12607075767E+03  0.15255974462E+03  0.18643303701E+03  0.27189557151E+03  0.12699999809E+01 0. -1.
       -4    1    3    3    0  502 -0.12607075767E+03 -0.15255974462E+03 -0.96831863375E+03  0.98833744288E+03  0.12699999809E+01 0.  1.
</event>
<event>
 5   0  0.8875655E-03  0.9967033E+03  0.7818609E-02  0.9312168E-01
       -2   -1    0    0    0  501  0.00000000000E+00  0.00000000000E+00  0.74854470432E+03  0.74854470432E+03  0.25500000920E-02 0. -1.
        2   -1    0    0  501    0  0.00000000000E+00  0.00000000000E+00 -0.33178296648E+03  0.33178296648E+03  0.25500000920E-02 0.  1.
    10030    2    1    2    0    0  0.00000000000E+00  0.00000000000E+00  0.41676173784E+03  0.10803276708E+04  0.99670333108E+03 0.  0.
        4    1    3    3  502    0 -0.46533962680E+03  0.87654043323E+02  0.37674725219E+03  0.60511511674E+03  0.12699999809E+01 0.  1.
       -4    1    3    3    0  502  0.46533962680E+03 -0.87654043323E+02  0.40014485657E+02  0.47521255407E+03  0.12699999809E+01 0. -1.
</event>
<event>
 5   0  0.3513625E-03  0.9997284E+03  0.7818609E-02  0.9308843E-01
       -4   -1    0    0    0  501  0.00000000000E+00  0.00000000000E+00  0.46824693531E+03  0.46824865758E+03  0.12699999809E+01 0. -1.
        4   -1    0    0  501    0  0.00000000000E+00  0.00000000000E+00 -0.53361293407E+03  0.53361444537E+03  0.12699999809E+01 0.  1.
    10030    2    1    2    0    0  0.00000000000E+00  0.00000000000E+00 -0.65365998761E+02  0.10018631030E+04  0.99972844476E+03 0.  0.
        1    1    3    3  502    0 -0.19942484995E+03  0.37350407684E+03 -0.29893559312E+03  0.51830305329E+03  0.50400001928E-02 0.  1.
       -1    1    3    3    0  502  0.19942484995E+03 -0.37350407684E+03  0.23356959436E+03  0.48356004966E+03  0.50400001928E-02 0. -1.
</event>
<event>
 5   0  0.5189877E-03  0.1002781E+04  0.7818609E-02  0.9305500E-01
       -1   -1    0    0    0  501  0.00000000000E+00  0.00000000000E+00  0.26818933586E+03  0.26818933591E+03  0.50400001928E-02 0.  1.
        1   -1    0    0  501    0  0.00000000000E+00  0.00000000000E+00 -0.93736832140E+03  0.93736832142E+03  0.50400001928E-02 0. -1.
    10030    2    1    2    0    0  0.00000000000E+00  0.00000000000E+00 -0.66917898554E+03  0.12055576573E+04  0.10027805096E+04 0.  0.
        3    1    3    3  502    0  0.16451758857E+02 -0.12909943961E+03  0.24752942570E+03  0.27965720528E+03  0.10100000352E+00 0.  1.
       -3    1    3    3    0  502 -0.16451758857E+02  0.12909943961E+03 -0.91670841124E+03  0.92590045205E+03  0.10100000352E+00 0. -1.
</event>
<event>
 5   0  0.5072205E-03  0.9446957E+03  0.7818609E-02  0.9371372E-01
        1   -1    0    0  501    0  0.00000000000E+00  0.00000000000E+00  0.48628511988E+03  0.48628511991E+03  0.50400001928E-02 0. -1.
       -1   -1    0    0    0  501  0.00000000000E+00  0.00000000000E+00 -0.45880999905E+03  0.45880999907E+03  0.50400001928E-02 0.  1.
    10030    2    1    2    0    0  0.00000000000E+00  0.00000000000E+00  0.27475120835E+02  0.94509511898E+03  0.94469566616E+03 0.  0.
        5    1    3    3  502    0 -0.27271634338E+03 -0.37791311820E+03  0.90567536926E+02  0.47478110493E+03  0.46999998093E+01 0.  1.
       -5    1    3    3    0  502  0.27271634338E+03  0.37791311820E+03 -0.63092416091E+02  0.47031401406E+03  0.46999998093E+01 0. -1.
</event>
<event>
 5   0  0.8968798E-03  0.1000928E+04  0.7818609E-02  0.9307528E-01
       -2   -1    0    0    0  501  0.00000000000E+00  0.00000000000E+00  0.52192995633E+03  0.52192995634E+03  0.25500000920E-02 0.  1.
        2   -1    0    0  501    0  0.00000000000E+00  0.00000000000E+00 -0.47988072863E+03  0.47988072864E+03  0.25500000920E-02 0. -1.
    10030    2    1    2    0    0  0.00000000000E+00  0.00000000000E+00  0.42049227702E+02  0.10018106850E+04  0.10009278251E+04 0.  0.
        2    1    3    3  502    0  0.48602263420E+03  0.33663275139E+02 -0.93588008294E+02  0.49609468084E+03  0.25500000920E-02 0.  1.
       -2    1    3    3    0  502 -0.48602263420E+03 -0.33663275139E+02  0.13563723600E+03  0.50571600414E+03  0.25500000920E-02 0. -1.
</event>
<event>
 5   0  0.9243773E-03  0.9815288E+03  0.7818609E-02  0.9329039E-01
       -2   -1    0    0    0  501  0.00000000000E+00  0.00000000000E+00  0.12214735019E+04  0.12214735019E+04  0.25500000920E-02 0.  1.
        2   -1    0    0  501    0  0.00000000000E+00  0.00000000000E+00 -0.19717962480E+03  0.19717962481E+03  0.25500000920E-02 0. -1.
    10030    2    1    2    0    0  0.00000000000E+00  0.00000000000E+00  0.10242938771E+04  0.14186531267E+04  0.98152878067E+03 0.  0.
        3    1    3    3  502    0 -0.39414642965E+02 -0.12814974473E+02 -0.19464562845E+03  0.19900921719E+03  0.10100000352E+00 0. -1.
       -3    1    3    3    0  502  0.39414642965E+02  0.12814974473E+02  0.12189395056E+04  0.12196439095E+04  0.10100000352E+00 0.  1.
</event>
<event>
 5   0  0.9040674E-03  0.9876595E+03  0.7818609E-02  0.9322184E-01
       -2   -1    0    0    0  501  0.00000000000E+00  0.00000000000E+00  0.29671553131E+03  0.29671553132E+03  0.25500000920E-02 0. -1.
        2   -1    0    0  501    0  0.00000000000E+00  0.00000000000E+00 -0.82189095406E+03  0.82189095407E+03  0.25500000920E-02 0.  1.
    10030    2    1    2    0    0  0.00000000000E+00  0.00000000000E+00 -0.52517542275E+03  0.11186064854E+04  0.98765947801E+03 0.  0.
        1    1    3    3  502    0  0.22902590486E+03 -0.43046209711E+03 -0.35117083996E+03  0.60089220415E+03  0.50400001928E-02 0.  1.
       -1    1    3    3    0  502 -0.22902590486E+03  0.43046209711E+03 -0.17400458280E+03  0.51771428124E+03  0.50400001928E-02 0. -1.
</event>
<event>
 5   0  0.8968798E-03  0.1006229E+04  0.7818609E-02  0.9301739E-01
       -2   -1    0    0    0  501  0.00000000000E+00  0.00000000000E+00  0.16769150587E+03  0.16769150589E+03  0.25500000920E-02 0. -1.
        2   -1    0    0  501    0  0.00000000000E+00  0.00000000000E+00 -0.15094644090E+04  0.15094644090E+04  0.25500000920E-02 0.  1.
    10030    2    1    2    0    0  0.00000000000E+00  0.00000000000E+00 -0.13417729031E+04  0.16771559149E+04  0.10062293175E+04 0.  0.
        2    1    3    3  502    0 -0.41936501567E+03  0.26378535272E+03 -0.52486884440E+03  0.72175967780E+03  0.25500000920E-02 0.  1.
       -2    1    3    3    0  502  0.41936501567E+03 -0.26378535272E+03 -0.81690405874E+03  0.95539623710E+03  0.25500000920E-02 0. -1.
</event>
<event>
 5   0  0.9243773E-03  0.9597423E+03  0.7818609E-02  0.9353835E-01
        2   -1    0    0  501    0  0.00000000000E+00  0.00000000000E+00  0.11336866816E+04  0.11336866816E+04  0.25500000920E-02 0.  1.
       -2   -1    0    0    0  501  0.00000000000E+00  0.00000000000E+00 -0.20312165565E+03  0.20312165567E+03  0.25500000920E-02 0. -1.
    10030    2    1    2    0    0  0.00000000000E+00  0.00000000000E+00  0.93056502596E+03  0.13368083373E+04  0.95974228994E+03 0.  0.
        3    1    3    3  502    0 -0.46187597517E+03  0.85290637676E+02  0.60227020663E+03  0.76376260795E+03  0.10100000352E+00 0.  1.
       -3    1    3    3    0  502  0.46187597517E+03 -0.85290637676E+02  0.32829481933E+03  0.57304572934E+03  0.10100000352E+00 0. -1.
</event>
<event>
 5   0  0.5189877E-03  0.7229661E+03  0.7818609E-02  0.9678744E-01
       -1   -1    0    0    0  501  0.00000000000E+00  0.00000000000E+00  0.14011203092E+03  0.14011203101E+03  0.50400001928E-02 0.  1.
        1   -1    0    0  501    0  0.00000000000E+00  0.00000000000E+00 -0.93261073172E+03  0.93261073173E+03  0.50400001928E-02 0. -1.
    10030    2    1    2    0    0  0.00000000000E+00  0.00000000000E+00 -0.79249870080E+03  0.10727227627E+04  0.72296606763E+03 0.  0.
        3    1    3    3  502    0 -0.58027528381E+02 -0.24942994982E+03 -0.17703657237E+02  0.25670201323E+03  0.10100000352E+00 0.  1.
       -3    1    3    3    0  502  0.58027528381E+02  0.24942994982E+03 -0.77479504356E+03  0.81602074952E+03  0.10100000352E+00 0. -1.
</event>
<event>
 5   0  0.8907355E-03  0.9885108E+03  0.7818609E-02  0.9321236E-01
       -2   -1    0    0    0  501  0.00000000000E+00  0.00000000000E+00  0.25402019966E+03  0.25402019967E+03  0.25500000920E-02 0.  1.
        2   -1    0    0  501    0  0.00000000000E+00  0.00000000000E+00 -0.96168891619E+03  0.96168891620E+03  0.25500000920E-02 0. -1.
    10030    2    1    2    0    0  0.00000000000E+00  0.00000000000E+00 -0.70766871654E+03  0.12157091159E+04  0.98851082039E+03 0.  0.
        5    1    3    3  502    0 -0.16036012477E+03  0.25466001838E+03 -0.83598648400E+03  0.88851707131E+03  0.46999998093E+01 0. -1.
       -5    1    3    3    0  502  0.16036012477E+03 -0.25466001838E+03  0.12831776746E+03  0.32719204456E+03  0.46999998093E+01 0.  1.
</event>
<event>
 5   0  0.5072205E-03  0.1001788E+04  0.7818609E-02  0.9306585E-01
       -1   -1    0    0    0  501  0.00000000000E+00  0.00000000000E+00  0.24856636824E+03  0.24856636829E+03  0.50400001928E-02 0.  1.
        1   -1    0    0  501    0  0.00000000000E+00  0.00000000000E+00 -0.10093683587E+04  0.10093683587E+04  0.50400001928E-02 0. -1.
    10030    2    1    2    0    0  0.00000000000E+00  0.00000000000E+00 -0.76080199048E+03  0.12579347270E+04  0.10017884551E+04 0.  0.
        5    1    3    3  502    0  0.89317828962E+01  0.20953411405E+03 -0.95155125782E+03  0.97440043512E+03  0.46999998093E+01 0. -1.
       -5    1    3    3    0  502 -0.89317828962E+01 -0.20953411405E+03  0.19074926734E+03  0.28353429190E+03  0.46999998093E+01 0.  1.
</event>
<event>
 5   0  0.5189877E-03  0.1004645E+04  0.7818609E-02  0.9303465E-01
       -1   -1    0    0    0  501  0.00000000000E+00  0.00000000000E+00  0.23258151104E+03  0.23258151109E+03  0.50400001928E-02 0. -1.
        1   -1    0    0  501    0  0.00000000000E+00  0.00000000000E+00 -0.10849016498E+04  0.10849016498E+04  0.50400001928E-02 0.  1.
    10030    2    1    2    0    0  0.00000000000E+00  0.00000000000E+00 -0.85232013879E+03  0.13174831609E+04  0.10046453406E+04 0.  0.
        3    1    3    3  502    0  0.94818695937E+02  0.49176581802E+03 -0.47701517499E+03  0.69164130317E+03  0.10100000352E+00 0. -1.
       -3    1    3    3    0  502 -0.94818695937E+02 -0.49176581802E+03 -0.37530496380E+03  0.62584185777E+03  0.10100000352E+00 0.  1.
</event>
<event>
 5   0  0.9243773E-03  0.9917629E+03  0.7818609E-02  0.9317626E-01
        2   -1    0    0  501    0  0.00000000000E+00  0.00000000000E+00  0.63604603881E+03  0.63604603882E+03  0.25500000920E-02 0. -1.
       -2   -1    0    0    0  501  0.00000000000E+00  0.00000000000E+00 -0.38660472061E+03  0.38660472062E+03  0.25500000920E-02 0.  1.
    10030    2    1    2    0    0  0.00000000000E+00  0.00000000000E+00  0.24944131820E+03  0.10226507594E+04  0.99176287718E+03 0.  0.
        3    1    3    3  502    0  0.29461672658E+03 -0.35326586095E+03 -0.66257217331E+02  0.46474273867E+03  0.10100000352E+00 0.  1.
       -3    1    3    3    0  502 -0.29461672658E+03  0.35326586095E+03  0.31569853554E+03  0.55790802077E+03  0.10100000352E+00 0. -1.
</event>
<event>
 5   0  0.5310275E-03  0.9992732E+03  0.7818609E-02  0.9309342E-01
        1   -1    0    0  501    0  0.00000000000E+00  0.00000000000E+00  0.55025024233E+03  0.55025024235E+03  0.50400001928E-02 0. -1.
       -1   -1    0    0    0  501  0.00000000000E+00  0.00000000000E+00 -0.45367858895E+03  0.45367858898E+03  0.50400001928E-02 0.  1.
    10030    2    1    2    0    0  0.00000000000E+00  0.00000000000E+00  0.96571653380E+02  0.10039288313E+04  0.99927324298E+03 0.  0.
        1    1    3    3  502    0  0.68366452650E+02  0.48304686935E+03 -0.60052116226E+02  0.49154298543E+03  0.50400001928E-02 0.  1.
       -1    1    3    3    0  502 -0.68366452650E+02 -0.48304686935E+03  0.15662376961E+03  0.51238584589E+03  0.50400001928E-02 0. -1.
</event>
<event>
 5   0  0.5189877E-03  0.1013389E+04  0.7818609E-02  0.9293980E-01
        1   -1    0    0  501    0  0.00000000000E+00  0.00000000000E+00  0.49824163718E+03  0.49824163721E+03  0.50400001928E-02 0. -1.
       -1   -1    0    0    0  501  0.00000000000E+00  0.00000000000E+00 -0.51529105786E+03  0.51529105788E+03  0.50400001928E-02 0.  1.
    10030    2    1    2    0    0  0.00000000000E+00  0.00000000000E+00 -0.17049420677E+02  0.10135326951E+04  0.10133892842E+04 0.  0.
        3    1    3    3  502    0 -0.47352218135E+03  0.51062403241E+02 -0.18149086489E+03  0.50967594558E+03  0.10100000352E+00 0. -1.
       -3    1    3    3    0  502  0.47352218135E+03 -0.51062403241E+02  0.16444144421E+03  0.50385674952E+03  0.10100000352E+00 0.  1.
</event>
<event>
 5   0  0.5201968E-03  0.1005270E+04  0.7818609E-02  0.9302783E-01
        1   -1    0    0  501    0  0.00000000000E+00  0.00000000000E+00  0.59445034437E+03  0.59445034439E+03  0.50400001928E-02 0. -1.
       -1   -1    0    0    0  501  0.00000000000E+00  0.00000000000E+00 -0.42500120988E+03  0.42500120991E+03  0.50400001928E-02 0.  1.
    10030    2    1    2    0    0  0.00000000000E+00  0.00000000000E+00  0.16944913449E+03  0.10194515543E+04  0.10052703429E+04 0.  0.
        2    1    3    3  502    0 -0.44429598531E+02  0.16574050257E+03 -0.39437863957E+03  0.43009117031E+03  0.25500000920E-02 0.  1.
       -2    1    3    3    0  502  0.44429598531E+02 -0.16574050257E+03  0.56382777406E+03  0.58936038400E+03  0.25500000920E-02 0. -1.
</event>
<event>
 5   0  0.5072205E-03  0.9984785E+03  0.7818609E-02  0.9310215E-01
       -1   -1    0    0    0  501  0.00000000000E+00  0.00000000000E+00  0.47059763134E+03  0.47059763136E+03  0.50400001928E-02 0. -1.
        1   -1    0    0  501    0  0.00000000000E+00  0.00000000000E+00 -0.52962401473E+03  0.52962401476E+03  0.50400001928E-02 0.  1.
    10030    2    1    2    0    0  0.00000000000E+00  0.00000000000E+00 -0.59026383395E+02  0.10002216461E+04  0.99847845617E+03 0.  0.
        5    1    3    3  502    0  0.27904283856E+03  0.31170938224E+03  0.24334088504E+03  0.48400880267E+03  0.46999998093E+01 0. -1.
       -5    1    3    3    0  502 -0.27904283856E+03 -0.31170938224E+03 -0.30236726844E+03  0.51621284346E+03  0.46999998093E+01 0.  1.
</event>
<event>
 5   0  0.8875655E-03  0.9712292E+03  0.7818609E-02  0.9340675E-01
        2   -1    0    0  501    0  0.00000000000E+00  0.00000000000E+00  0.23256752530E+04  0.23256752530E+04  0.25500000920E-02 0. -1.
       -2   -1    0    0    0  501  0.00000000000E+00  0.00000000000E+00 -0.10139916729E+03  0.10139916733E+03  0.25500000920E-02 0.  1.
    10030    2    1    2    0    0  0.00000000000E+00  0.00000000000E+00  0.22242760857E+04  0.24270744203E+04  0.97122918838E+03 0.  0.
        4    1    3    3  502    0 -0.12471173265E+03  0.45955124544E+03  0.13502568591E+04  0.14317596034E+04  0.12699999809E+01 0. -1.
       -4    1    3    3    0  502  0.12471173265E+03 -0.45955124544E+03  0.87401922660E+03  0.99531481694E+03  0.12699999809E+01 0.  1.
</event>
<event>
 5   0  0.9040674E-03  0.1029359E+04  0.7818609E-02  0.9276918E-01
        2   -1    0    0  501    0  0.00000000000E+00  0.00000000000E+00  0.81290576868E+03  0.81290576868E+03  0.25500000920E-02 0. -1.
       -2   -1    0    0    0  501  0.00000000000E+00  0.00000000000E+00 -0.32586155956E+03  0.32586155957E+03  0.25500000920E-02 0.  1.
    10030    2    1    2    0    0  0.00000000000E+00  0.00000000000E+00  0.48704420912E+03  0.11387673282E+04  0.10293585217E+04 0.  0.
        1    1    3    3  502    0 -0.44914717129E+03  0.80376775744E+01 -0.34367651544E+02  0.45053182044E+03  0.50400001928E-02 0. -1.
       -1    1    3    3    0  502  0.44914717129E+03 -0.80376775744E+01  0.52141186066E+03  0.68823550780E+03  0.50400001928E-02 0.  1.
</event>
<event>
 5   0  0.5349685E-03  0.9949083E+03  0.7818609E-02  0.9314147E-01
        1   -1    0    0  501    0  0.00000000000E+00  0.00000000000E+00  0.37494666298E+03  0.37494666302E+03  0.50400001928E-02 0. -1.
       -1   -1    0    0    0  501  0.00000000000E+00  0.00000000000E+00 -0.65998887122E+03  0.65998887124E+03  0.50400001928E-02 0.  1.
    10030    2    1    2    0    0  0.00000000000E+00  0.00000000000E+00 -0.28504220824E+03  0.10349355343E+04  0.99490828703E+03 0.  0.
        4    1    3    3  502    0 -0.20740714653E+03 -0.27227760336E+03  0.23298135091E+03  0.41404678540E+03  0.12699999809E+01 0. -1.
       -4    1    3    3    0  502  0.20740714653E+03  0.27227760336E+03 -0.51802355915E+03  0.62088874886E+03  0.12699999809E+01 0.  1.
</event>
<event>
 5   0  0.8968798E-03  0.1021157E+04  0.7818609E-02  0.9285640E-01
        2   -1    0    0  501    0  0.00000000000E+00  0.00000000000E+00  0.69678056873E+03  0.69678056873E+03  0.25500000920E-02 0.  1.
       -2   -1    0    0    0  501  0.00000000000E+00  0.00000000000E+00 -0.37413557780E+03  0.37413557781E+03  0.25500000920E-02 0. -1.
    10030    2    1    2    0    0  0.00000000000E+00  0.00000000000E+00  0.32264499093E+03  0.10709161465E+04  0.10211569922E+04 0.  0.
        2    1    3    3  502    0  0.30766872345E+01  0.30825792661E+03 -0.26552146304E+03  0.40685877484E+03  0.25500000920E-02 0. -1.
       -2    1    3    3    0  502 -0.30766872345E+01 -0.30825792661E+03  0.58816645397E+03  0.66405737170E+03  0.25500000920E-02 0.  1.
</event>
<event>
 5   0  0.5072205E-03  0.1005310E+04  0.7818609E-02  0.9302739E-01
        1   -1    0    0  501    0  0.00000000000E+00  0.00000000000E+00  0.27271477804E+03  0.27271477809E+03  0.50400001928E-02 0.  1.
       -1   -1    0    0    0  501  0.00000000000E+00  0.00000000000E+00 -0.92647079431E+03  0.92647079433E+03  0.50400001928E-02 0. -1.
    10030    2    1    2    0    0  0.00000000000E+00  0.00000000000E+00 -0.65375601627E+03  0.11991855724E+04  0.10053104537E+04 0.  0.
        5    1    3    3  502    0  0.31038653434E+03 -0.33986729323E+03 -0.56779436816E+03  0.73093235817E+03  0.46999998093E+01 0. -1.
       -5    1    3    3    0  502 -0.31038653434E+03  0.33986729323E+03 -0.85961648114E+02  0.46825321425E+03  0.46999998093E+01 0.  1.
</event>
<event>
 5   0  0.8968798E-03  0.9956071E+03  0.7818609E-02  0.9313376E-01
       -2   -1    0    0    0  501  0.00000000000E+00  0.00000000000E+00  0.17682310409E+03  0.17682310410E+03  0.25500000920E-02 0.  1.
        2   -1    0    0  501    0  0.00000000000E+00  0.00000000000E+00 -0.14014479463E+04  0.14014479463E+04  0.25500000920E-02 0. -1.
    10030    2    1    2    0    0  0.00000000000E+00  0.00000000000E+00 -0.12246248422E+04  0.15782710504E+04  0.99560710342E+03 0.  0.
        2    1    3    3  502    0  0.30609809985E+01 -0.36506372110E+03 -0.11487861603E+04  0.12054005692E+04  0.25500000920E-02 0. -1.
       -2    1    3    3    0  502 -0.30609809985E+01  0.36506372110E+03 -0.75838681879E+02  0.37287048120E+03  0.25500000920E-02 0.  1.
</event>
<event>
 5   0  0.5201968E-03  0.1010397E+04  0.7818609E-02  0.9297214E-01
        1   -1    0    0  501    0  0.00000000000E+00  0.00000000000E+00  0.40441204747E+03  0.40441204750E+03  0.50400001928E-02 0. -1.
       -1   -1    0    0    0  501  0.00000000000E+00  0.00000000000E+00 -0.63110298332E+03  0.63110298334E+03  0.50400001928E-02 0.  1.
    10030    2    1    2    0    0  0.00000000000E+00  0.00000000000E+00 -0.22669093585E+03  0.10355150308E+04  0.10103972480E+04 0.  0.
        2    1    3    3  502    0  0.28279023904E+03 -0.18470923148E+03  0.27167690896E+03  0.43346990941E+03  0.25500000920E-02 0. -1.
       -2    1    3    3    0  502 -0.28279023904E+03  0.18470923148E+03 -0.49836784481E+03  0.60204512143E+03  0.25500000920E-02 0.  1.
</event>
<event>
 5   0  0.5201968E-03  0.9731318E+03  0.7818609E-02  0.9338514E-01
        1   -1    0    0  501    0  0.00000000000E+00  0.00000000000E+00  0.80474361622E+03  0.80474361624E+03  0.50400001928E-02 0. -1.
       -1   -1    0    0    0  501  0.00000000000E+00  0.00000000000E+00 -0.29418860079E+03  0.29418860083E+03  0.50400001928E-02 0.  1.
    10030    2    1    2    0    0  0.00000000000E+00  0.00000000000E+00  0.51055501543E+03  0.10989322171E+04  0.97313184817E+03 0.  0.
        2    1    3    3  502    0  0.11566395859E+02 -0.39880206112E+03 -0.59239987204E+02  0.40334382549E+03  0.25500000920E-02 0.  1.
       -2    1    3    3    0  502 -0.11566395859E+02  0.39880206112E+03  0.56979500264E+03  0.69558839158E+03  0.25500000920E-02 0. -1.
</event>
<event>
 5   0  0.5201968E-03  0.9817995E+03  0.7818609E-02  0.9328735E-01
        1   -1    0    0  501    0  0.00000000000E+00  0.00000000000E+00  0.83454795425E+03  0.83454795427E+03  0.50400001928E-02 0.  1.
       -1   -1    0    0    0  501  0.00000000000E+00  0.00000000000E+00 -0.28875817140E+03  0.28875817144E+03  0.50400001928E-02 0. -1.
    10030    2    1    2    0    0  0.00000000000E+00  0.00000000000E+00  0.54578978285E+03  0.11233061257E+04  0.98179945253E+03 0.  0.
        2    1    3    3  502    0  0.16946131940E+03 -0.32508837641E+03 -0.10062970900E+03  0.38016566072E+03  0.25500000920E-02 0. -1.
       -2    1    3    3    0  502 -0.16946131940E+03  0.32508837641E+03  0.64641949186E+03  0.74314046499E+03  0.25500000920E-02 0.  1.
</event>
<event>
 5   0  0.8968798E-03  0.9144538E+03  0.7818609E-02  0.9407692E-01
        2   -1    0    0  501    0  0.00000000000E+00  0.00000000000E+00  0.24774865844E+03  0.24774865845E+03  0.25500000920E-02 0. -1.
       -2   -1    0    0    0  501  0.00000000000E+00  0.00000000000E+00 -0.84382461303E+03  0.84382461303E+03  0.25500000920E-02 0.  1.
    10030    2    1    2    0    0  0.00000000000E+00  0.00000000000E+00 -0.59607595459E+03  0.10915732715E+04  0.91445375136E+03 0.  0.
        2    1    3    3  502    0 -0.79960109585E+02 -0.29025803189E+03 -0.70880064949E+03  0.77009201069E+03  0.25500000920E-02 0.  1.
       -2    1    3    3    0  502  0.79960109585E+02  0.29025803189E+03  0.11272469490E+03  0.32148126080E+03  0.25500000920E-02 0. -1.
</event>
<event>
 5   0  0.5072205E-03  0.1021800E+04  0.7818609E-02  0.9284953E-01
        1   -1    0    0  501    0  0.00000000000E+00  0.00000000000E+00  0.12009462479E+04  0.12009462479E+04  0.50400001928E-02 0. -1.
       -1   -1    0    0    0  501  0.00000000000E+00  0.00000000000E+00 -0.21734426753E+03  0.21734426759E+03  0.50400001928E-02 0.  1.
    10030    2    1    2    0    0  0.00000000000E+00  0.00000000000E+00  0.98360198033E+03  0.14182905155E+04  0.10217999464E+04 0.  0.
        5    1    3    3  502    0  0.48216843915E+03 -0.12829350669E+03  0.33942657961E+03  0.60347172305E+03  0.46999998093E+01 0. -1.
       -5    1    3    3    0  502 -0.48216843915E+03  0.12829350669E+03  0.64417540073E+03  0.81481879242E+03  0.46999998093E+01 0.  1.
</event>
<event>
 5   0  0.8907355E-03  0.1027495E+04  0.7818609E-02  0.9278892E-01
       -2   -1    0    0    0  501  0.00000000000E+00  0.00000000000E+00  0.15353923727E+04  0.15353923727E+04  0.25500000920E-02 0. -1.
        2   -1    0    0  501    0  0.00000000000E+00  0.00000000000E+00 -0.17190174859E+03  0.17190174861E+03  0.25500000920E-02 0.  1.
    10030    2    1    2    0    0  0.00000000000E+00  0.00000000000E+00  0.13634906241E+04  0.17072941213E+04  0.10274952723E+04 0.  0.
        5    1    3    3  502    0 -0.10225913467E+03 -0.20100457765E+03  0.14487078411E+04  0.14661637936E+04  0.46999998093E+01 0. -1.
       -5    1    3    3    0  502  0.10225913467E+03  0.20100457765E+03 -0.85217216990E+02  0.24113032769E+03  0.46999998093E+01 0.  1.
</event>
<event>
 5   0  0.8907355E-03  0.9612134E+03  0.7818609E-02  0.9352139E-01
       -2   -1    0    0    0  501  0.00000000000E+00  0.00000000000E+00  0.57583087583E+03  0.57583087583E+03  0.25500000920E-02 0. -1.
        2   -1    0    0  501    0  0.00000000000E+00  0.00000000000E+00 -0.40112962476E+03  0.40112962477E+03  0.25500000920E-02 0.  1.
    10030    2    1    2    0    0  0.00000000000E+00  0.00000000000E+00  0.17470125107E+03  0.97696050061E+03  0.96121344800E+03 0.  0.
        5    1    3    3  502    0  0.39375460871E+03  0.21858003028E+03 -0.83149803638E+02  0.45799115861E+03  0.46999998093E+01 0. -1.
       -5    1    3    3    0  502 -0.39375460871E+03 -0.21858003028E+03  0.25785105470E+03  0.51896934200E+03  0.46999998093E+01 0.  1.
</event>
<event>
 5   0  0.8875655E-03  0.1019872E+04  0.7818609E-02  0.9287014E-01
        2   -1    0    0  501    0  0.00000000000E+00  0.00000000000E+00  0.10680827629E+04  0.10680827629E+04  0.25500000920E-02 0. -1.
       -2   -1    0    0    0  501  0.00000000000E+00  0.00000000000E+00 -0.24345921189E+03  0.24345921190E+03  0.25500000920E-02 0.  1.
    10030    2    1    2    0    0  0.00000000000E+00  0.00000000000E+00  0.82462355106E+03  0.13115419749E+04  0.10198717325E+04 0.  0.
        4    1    3    3  502    0 -0.20755082755E+03  0.28423062439E+03  0.88685425537E+03  0.95413650859E+03  0.12699999809E+01 0. -1.
       -4    1    3    3    0  502  0.20755082755E+03 -0.28423062439E+03 -0.62230704313E+02  0.35740546626E+03  0.12699999809E+01 0.  1.
</event>
<event>
 5   0  0.5349685E-03  0.9972518E+03  0.7818609E-02  0.9311564E-01
       -1   -1    0    0    0  501  0.00000000000E+00  0.00000000000E+00  0.10538143048E+04  0.10538143048E+04  0.50400001928E-02 0. -1.
        1   -1    0    0  501    0  0.00000000000E+00  0.00000000000E+00 -0.23593132159E+03  0.23593132164E+03  0.50400001928E-02 0.  1.
    10030    2    1    2    0    0  0.00000000000E+00  0.00000000000E+00  0.81788298322E+03  0.12897456265E+04  0.99725182714E+03 0.  0.
        4    1    3    3  502    0  0.30377234613E+03 -0.13532851383E+03 -0.71558550438E+02  0.34016714122E+03  0.12699999809E+01 0.  1.
       -4    1    3    3    0  502 -0.30377234613E+03  0.13532851383E+03  0.88944153366E+03  0.94957848524E+03  0.12699999809E+01 0. -1.
</event>
<event>
 5   0  0.5201968E-03  0.9366187E+03  0.7818609E-02  0.9380929E-01
       -1   -1    0    0    0  501  0.00000000000E+00  0.00000000000E+00  0.13442434555E+03  0.13442434564E+03  0.50400001928E-02 0.  1.
        1   -1    0    0  501    0  0.00000000000E+00  0.00000000000E+00 -0.16315023713E+04  0.16315023713E+04  0.50400001928E-02 0. -1.
    10030    2    1    2    0    0  0.00000000000E+00  0.00000000000E+00 -0.14970780258E+04  0.17659267170E+04  0.93661868146E+03 0.  0.
        2    1    3    3  502    0 -0.40344981262E+03  0.23480654704E+03 -0.67779720704E+03  0.82299144571E+03  0.25500000920E-02 0.  1.
       -2    1    3    3    0  502  0.40344981262E+03 -0.23480654704E+03 -0.81928081876E+03  0.94293527128E+03  0.25500000920E-02 0. -1.
</event>
<event>
 5   0  0.3513625E-03  0.9938763E+03  0.7818609E-02  0.9315287E-01
        3   -1    0    0  501    0  0.00000000000E+00  0.00000000000E+00  0.70380060884E+03  0.70380061609E+03  0.10100000352E+00 0. -1.
       -3   -1    0    0    0  501  0.00000000000E+00  0.00000000000E+00 -0.35087706324E+03  0.35087707778E+03  0.10100000352E+00 0.  1.
    10030    2    1    2    0    0  0.00000000000E+00  0.00000000000E+00  0.35292354560E+03  0.10546776939E+04  0.99387625432E+03 0.  0.
        1    1    3    3  502    0 -0.89333508555E+02  0.36192254475E+03  0.52516606575E+03  0.64402468958E+03  0.50400001928E-02 0. -1.
       -1    1    3    3    0  502  0.89333508555E+02 -0.36192254475E+03 -0.17224252015E+03  0.41065300428E+03  0.50400001928E-02 0.  1.
</event>
<event>
 5   0  0.8968798E-03  0.9952191E+03  0.7818609E-02  0.9313804E-01
       -2   -1    0    0    0  501  0.00000000000E+00  0.00000000000E+00  0.28756018733E+03  0.28756018734E+03  0.25500000920E-02 0.  1.
        2   -1    0    0  501    0  0.00000000000E+00  0.00000000000E+00 -0.86109014914E+03  0.86109014915E+03  0.25500000920E-02 0. -1.
    10030    2    1    2    0    0  0.00000000000E+00  0.00000000000E+00 -0.57352996182E+03  0.11486503365E+04  0.99521906051E+03 0.  0.
        2    1    3    3  502    0  0.32989406095E+02 -0.28594516760E+03 -0.75525256789E+03  0.80824462949E+03  0.25500000920E-02 0. -1.
       -2    1    3    3    0  502 -0.32989406095E+02  0.28594516760E+03  0.18172260607E+03  0.34040570700E+03  0.25500000920E-02 0.  1.
</event>
<event>
 5   0  0.5201968E-03  0.9811828E+03  0.7818609E-02  0.9329427E-01
        1   -1    0    0  501    0  0.00000000000E+00  0.00000000000E+00  0.90711819894E+03  0.90711819896E+03  0.50400001928E-02 0. -1.
       -1   -1    0    0    0  501  0.00000000000E+00  0.00000000000E+00 -0.26532363791E+03  0.26532363796E+03  0.50400001928E-02 0.  1.
    10030    2    1    2    0    0  0.00000000000E+00  0.00000000000E+00  0.64179456103E+03  0.11724418369E+04  0.98118275688E+03 0.  0.
        2    1    3    3  502    0  0.19379963847E+03 -0.26994601894E+03 -0.11035510671E+03  0.35015339866E+03  0.25500000920E-02 0.  1.
       -2    1    3    3    0  502 -0.19379963847E+03  0.26994601894E+03  0.75214966774E+03  0.82228843826E+03  0.25500000920E-02 0. -1.
</event>
<event>
 5   0  0.9243773E-03  0.1000194E+04  0.7818609E-02  0.9308332E-01
        2   -1    0    0  501    0  0.00000000000E+00  0.00000000000E+00  0.50277909648E+03  0.50277909648E+03  0.25500000920E-02 0.  1.
       -2   -1    0    0    0  501  0.00000000000E+00  0.00000000000E+00 -0.49742930429E+03  0.49742930430E+03  0.25500000920E-02 0. -1.
    10030    2    1    2    0    0  0.00000000000E+00  0.00000000000E+00  0.53497921870E+01  0.10002084008E+04  0.10001940935E+04 0.  0.
        3    1    3    3  502    0 -0.36941225508E+03 -0.22072273561E+03  0.25745904565E+03  0.50146695864E+03  0.10100000352E+00 0.  1.
       -3    1    3    3    0  502  0.36941225508E+03  0.22072273561E+03 -0.25210925346E+03  0.49874144214E+03  0.10100000352E+00 0. -1.
</event>
<event>
 5   0  0.8907355E-03  0.1023975E+04  0.7818609E-02  0.9282633E-01
       -2   -1    0    0    0  501  0.00000000000E+00  0.00000000000E+00  0.36209558264E+03  0.36209558265E+03  0.25500000920E-02 0. -1.
        2   -1    0    0  501    0  0.00000000000E+00  0.00000000000E+00 -0.72392874383E+03  0.72392874383E+03  0.25500000920E-02 0.  1.
    10030    2    1    2    0    0  0.00000000000E+00  0.00000000000E+00 -0.36183316118E+03  0.10860243265E+04  0.10239753909E+04 0.  0.
        5    1    3    3  502    0 -0.28244423475E+03 -0.36077465193E+03  0.61345989287E+02  0.46229699936E+03  0.46999998093E+01 0. -1.
       -5    1    3    3    0  502  0.28244423475E+03  0.36077465193E+03 -0.42317915047E+03  0.62372732713E+03  0.46999998093E+01 0.  1.
</event>
<event>
 5   0  0.5072205E-03  0.1006272E+04  0.7818609E-02  0.9301692E-01
       -1   -1    0    0    0  501  0.00000000000E+00  0.00000000000E+00  0.23223793816E+03  0.23223793822E+03  0.50400001928E-02 0. -1.
        1   -1    0    0  501    0  0.00000000000E+00  0.00000000000E+00 -0.10900284354E+04  0.10900284354E+04  0.50400001928E-02 0.  1.
    10030    2    1    2    0    0  0.00000000000E+00  0.00000000000E+00 -0.85779049725E+03  0.13222663736E+04  0.10062722423E+04 0.  0.
        5    1    3    3  502    0 -0.20968011540E+03  0.48683356376E+01  0.17202413550E+03  0.27130028507E+03  0.46999998093E+01 0. -1.
       -5    1    3    3    0  502  0.20968011540E+03 -0.48683356376E+01 -0.10298146328E+04  0.10509660886E+04  0.46999998093E+01 0.  1.
</event>
<event>
 5   0  0.5189877E-03  0.1003028E+04  0.7818609E-02  0.9305230E-01
       -1   -1    0    0    0  501  0.00000000000E+00  0.00000000000E+00  0.39606451088E+03  0.39606451091E+03  0.50400001928E-02 0.  1.
        1   -1    0    0  501    0  0.00000000000E+00  0.00000000000E+00 -0.63503878245E+03  0.63503878247E+03  0.50400001928E-02 0. -1.
    10030    2    1    2    0    0  0.00000000000E+00  0.00000000000E+00 -0.23897427157E+03  0.10311032934E+04  0.10030280650E+04 0.  0.
        3    1    3    3  502    0 -0.42205677424E+03 -0.22391011229E+03  0.37255812104E+02  0.47922402361E+03  0.10100000352E+00 0.  1.
       -3    1    3    3    0  502  0.42205677424E+03  0.22391011229E+03 -0.27623008367E+03  0.55187926976E+03  0.10100000352E+00 0. -1.
</event>
<event>
 5   0  0.9243773E-03  0.9916090E+03  0.7818609E-02  0.9317796E-01
       -2   -1    0    0    0  501  0.00000000000E+00  0.00000000000E+00  0.77873591913E+03  0.77873591913E+03  0.25500000920E-02 0.  1.
        2   -1    0    0  501    0  0.00000000000E+00  0.00000000000E+00 -0.31566809699E+03  0.31566809700E+03  0.25500000920E-02 0. -1.
    10030    2    1    2    0    0  0.00000000000E+00  0.00000000000E+00  0.46306782213E+03  0.10944040161E+04  0.99160896660E+03 0.  0.
        3    1    3    3  502    0 -0.21054967129E+03  0.28766482880E+03 -0.14877411846E+03  0.38628482540E+03  0.10100000352E+00 0. -1.
       -3    1    3    3    0  502  0.21054967129E+03 -0.28766482880E+03  0.61184194059E+03  0.70811919073E+03  0.10100000352E+00 0.  1.
</event>
<event>
 5   0  0.9040674E-03  0.1000626E+04  0.7818609E-02  0.9307858E-01
       -2   -1    0    0    0  501  0.00000000000E+00  0.00000000000E+00  0.10315223332E+04  0.10315223332E+04  0.25500000920E-02 0.  1.
        2   -1    0    0  501    0  0.00000000000E+00  0.00000000000E+00 -0.24266383020E+03  0.24266383021E+03  0.25500000920E-02 0. -1.
    10030    2    1    2    0    0  0.00000000000E+00  0.00000000000E+00  0.78885850297E+03  0.12741861634E+04  0.10006261246E+04 0.  0.
        1    1    3    3  502    0 -0.89463980575E+02  0.77448845107E+01  0.10211764168E+04  0.10251170964E+04  0.50400001928E-02 0.  1.
       -1    1    3    3    0  502  0.89463980575E+02 -0.77448845107E+01 -0.23231791379E+03  0.24906906703E+03  0.50400001928E-02 0. -1.
</event>
<event>
 5   0  0.9040674E-03  0.1007192E+04  0.7818609E-02  0.9300692E-01
       -2   -1    0    0    0  501  0.00000000000E+00  0.00000000000E+00  0.39297446825E+03  0.39297446826E+03  0.25500000920E-02 0. -1.
        2   -1    0    0  501    0  0.00000000000E+00  0.00000000000E+00 -0.64535743485E+03  0.64535743485E+03  0.25500000920E-02 0.  1.
    10030    2    1    2    0    0  0.00000000000E+00  0.00000000000E+00 -0.25238296660E+03  0.10383319031E+04  0.10071921263E+04 0.  0.
        1    1    3    3  502    0  0.15619550999E+03 -0.37475857846E+03 -0.43334253642E+03  0.59382386561E+03  0.50400001928E-02 0.  1.
       -1    1    3    3    0  502 -0.15619550999E+03  0.37475857846E+03  0.18095956982E+03  0.44450803750E+03  0.50400001928E-02 0. -1.
</event>
<event>
 5   0  0.8968798E-03  0.9660374E+03  0.7818609E-02  0.9346599E-01
        2   -1    0    0  501    0  0.00000000000E+00  0.00000000000E+00  0.37410352275E+03  0.37410352276E+03  0.25500000920E-02 0.  1.
       -2   -1    0    0    0  501  0.00000000000E+00  0.00000000000E+00 -0.62364305482E+03  0.62364305483E+03  0.25500000920E-02 0. -1.
    10030    2    1    2    0    0  0.00000000000E+00  0.00000000000E+00 -0.24953953207E+03  0.99774657759E+03  0.96603739836E+03 0.  0.
        2    1    3    3  502    0 -0.99923155049E+02  0.39944815401E+03 -0.38557284749E+03  0.56410095318E+03  0.25500000920E-02 0. -1.
       -2    1    3    3    0  502  0.99923155049E+02 -0.39944815401E+03  0.13603331542E+03  0.43364562440E+03  0.25500000920E-02 0.  1.
</event>
<event>
 5   0  0.5310275E-03  0.1003204E+04  0.7818609E-02  0.9305038E-01
       -1   -1    0    0    0  501  0.00000000000E+00  0.00000000000E+00  0.17999013471E+03  0.17999013478E+03  0.50400001928E-02 0.  1.
        1   -1    0    0  501    0  0.00000000000E+00  0.00000000000E+00 -0.13978801928E+04  0.13978801929E+04  0.50400001928E-02 0. -1.
    10030    2    1    2    0    0  0.00000000000E+00  0.00000000000E+00 -0.12178900581E+04  0.15778703276E+04  0.10032041552E+04 0.  0.
        1    1    3    3  502    0  0.61020151013E+01  0.32183145041E+03 -0.12140085911E+04  0.12559576331E+04  0.50400001928E-02 0. -1.
       -1    1    3    3    0  502 -0.61020151013E+01 -0.32183145041E+03 -0.38814670884E+01  0.32191269449E+03  0.50400001928E-02 0.  1.
</event>
<event>
 5   0  0.9040674E-03  0.1023203E+04  0.7818609E-02  0.9283456E-01
        2   -1    0    0  501    0  0.00000000000E+00  0.00000000000E+00  0.38169686650E+03  0.38169686651E+03  0.25500000920E-02 0. -1.
       -2   -1    0    0    0  501  0.00000000000E+00  0.00000000000E+00 -0.68571762348E+03  0.68571762348E+03  0.25500000920E-02 0.  1.
    10030    2    1    2    0    0  0.00000000000E+00  0.00000000000E+00 -0.30402075697E+03  0.10674144900E+04  0.10232033389E+04 0.  0.
        1    1    3    3  502    0 -0.46210533410E+03 -0.21836446574E+03 -0.12840783433E+03  0.52698477364E+03  0.50400001928E-02 0.  1.
       -1    1    3    3    0  502  0.46210533410E+03  0.21836446574E+03 -0.17561292264E+03  0.54042971636E+03  0.50400001928E-02 0. -1.
</event>
<event>
 5   0  0.8875655E-03  0.9639260E+03  0.7818609E-02  0.9349020E-01
       -2   -1    0    0    0  501  0.00000000000E+00  0.00000000000E+00  0.16437501399E+03  0.16437501401E+03  0.25500000920E-02 0.  1.
        2   -1    0    0  501    0  0.00000000000E+00  0.00000000000E+00 -0.14131608286E+04  0.14131608286E+04  0.25500000920E-02 0. -1.
    10030    2    1    2    0    0  0.00000000000E+00  0.00000000000E+00 -0.12487858146E+04  0.15775358426E+04  0.96392599507E+03 0.  0.
        4    1    3    3  502    0 -0.36909064416E+03  0.21564432664E+03 -0.98871469983E+03  0.10771670018E+04  0.12699999809E+01 0. -1.
       -4    1    3    3    0  502  0.36909064416E+03 -0.21564432664E+03 -0.26007111480E+03  0.50036884083E+03  0.12699999809E+01 0.  1.
</event>
<event>
 5   0  0.9243773E-03  0.9942526E+03  0.7818609E-02  0.9314871E-01
        2   -1    0    0  501    0  0.00000000000E+00  0.00000000000E+00  0.10010246910E+04  0.10010246910E+04  0.25500000920E-02 0. -1.
       -2   -1    0    0    0  501  0.00000000000E+00  0.00000000000E+00 -0.24688156845E+03  0.24688156846E+03  0.25500000920E-02 0.  1.
    10030    2    1    2    0    0  0.00000000000E+00  0.00000000000E+00  0.75414312258E+03  0.12479062595E+04  0.99425257512E+03 0.  0.
        3    1    3    3  502    0 -0.18141066350E+03  0.89637628823E+02 -0.19285491086E+03  0.27953132235E+03  0.10100000352E+00 0.  1.
       -3    1    3    3    0  502  0.18141066350E+03 -0.89637628823E+02  0.94699803344E+03  0.96837493714E+03  0.10100000352E+00 0. -1.
</event>
<event>
 5   0  0.5189877E-03  0.1062993E+04  0.7818609E-02  0.9242032E-01
        1   -1    0    0  501    0  0.00000000000E+00  0.00000000000E+00  0.13135641365E+04  0.13135641365E+04  0.50400001928E-02 0.  1.
       -1   -1    0    0    0  501  0.00000000000E+00  0.00000000000E+00 -0.21505480284E+03  0.21505480290E+03  0.50400001928E-02 0. -1.
    10030    2    1    2    0    0  0.00000000000E+00  0.00000000000E+00  0.10985093336E+04  0.15286189394E+04  0.10629925239E+04 0.  0.
        3    1    3    3  502    0  0.37307398750E+03  0.36535245944E+03  0.69176986298E+03  0.86672496981E+03  0.10100000352E+00 0.  1.
       -3    1    3    3    0  502 -0.37307398750E+03 -0.36535245944E+03  0.40673947066E+03  0.66189396958E+03  0.10100000352E+00 0. -1.
</event>
<event>
 5   0  0.3513625E-03  0.1009549E+04  0.7818609E-02  0.9298133E-01
       -4   -1    0    0    0  501  0.00000000000E+00  0.00000000000E+00  0.48923432365E+03  0.48923597204E+03  0.12699999809E+01 0.  1.
        4   -1    0    0  501    0  0.00000000000E+00  0.00000000000E+00 -0.52080482535E+03  0.52080637382E+03  0.12699999809E+01 0. -1.
    10030    2    1    2    0    0  0.00000000000E+00  0.00000000000E+00 -0.31570501705E+02  0.10100423459E+04  0.10095488318E+04 0.  0.
        3    1    3    3  502    0 -0.55798403916E+02  0.34200948586E+03  0.35142720912E+03  0.49354335555E+03  0.10100000352E+00 0.  1.
       -3    1    3    3    0  502  0.55798403916E+02 -0.34200948586E+03 -0.38299771082E+03  0.51649899031E+03  0.10100000352E+00 0. -1.
</event>
<event>
 5   0  0.9040674E-03  0.1004719E+04  0.7818609E-02  0.9303385E-01
       -2   -1    0    0    0  501  0.00000000000E+00  0.00000000000E+00  0.10643877485E+04  0.10643877485E+04  0.25500000920E-02 0.  1.
        2   -1    0    0  501    0  0.00000000000E+00  0.00000000000E+00 -0.23709859779E+03  0.23709859780E+03  0.25500000920E-02 0. -1.
    10030    2    1    2    0    0  0.00000000000E+00  0.00000000000E+00  0.82728915074E+03  0.13014863463E+04  0.10047185530E+04 0.  0.
        1    1    3    3  502    0 -0.20139450154E+03 -0.14663685133E+02  0.10095026643E+04  0.10295000719E+04  0.50400001928E-02 0.  1.
       -1    1    3    3    0  502  0.20139450154E+03  0.14663685133E+02 -0.18221351354E+03  0.27198627439E+03  0.50400001928E-02 0. -1.
</event>
<event>
 5   0  0.8875655E-03  0.9674171E+03  0.7818609E-02  0.9345021E-01
       -2   -1    0    0    0  501  0.00000000000E+00  0.00000000000E+00  0.45155652034E+03  0.45155652035E+03  0.25500000920E-02 0.  1.
        2   -1    0    0  501    0  0.00000000000E+00  0.00000000000E+00 -0.51814986213E+03  0.51814986214E+03  0.25500000920E-02 0. -1.
    10030    2    1    2    0    0  0.00000000000E+00  0.00000000000E+00 -0.66593341792E+02  0.96970638249E+03  0.96741707400E+03 0.  0.
        4    1    3    3  502    0 -0.78142197877E+02  0.18492417714E+03  0.40782334522E+03  0.45455984005E+03  0.12699999809E+01 0.  1.
       -4    1    3    3    0  502  0.78142197877E+02 -0.18492417714E+03 -0.47441668701E+03  0.51514654244E+03  0.12699999809E+01 0. -1.
</event>
<event>
 5   0  0.9243773E-03  0.9982939E+03  0.7818609E-02  0.9310418E-01
        2   -1    0    0  501    0  0.00000000000E+00  0.00000000000E+00  0.11753273129E+04  0.11753273129E+04  0.25500000920E-02 0. -1.
       -2   -1    0    0    0  501  0.00000000000E+00  0.00000000000E+00 -0.21198153117E+03  0.21198153119E+03  0.25500000920E-02 0.  1.
    10030    2    1    2    0    0  0.00000000000E+00  0.00000000000E+00  0.96334578174E+03  0.13873088441E+04  0.99829391150E+03 0.  0.
        3    1    3    3  502    0  0.10090398397E+03 -0.20362705965E+02 -0.19707068958E+03  0.22233560369E+03  0.10100000352E+00 0.  1.
       -3    1    3    3    0  502 -0.10090398397E+03  0.20362705965E+02  0.11604164713E+04  0.11649732404E+04  0.10100000352E+00 0. -1.
</event>
<event>
 5   0  0.5310275E-03  0.9993293E+03  0.7818609E-02  0.9309281E-01
        1   -1    0    0  501    0  0.00000000000E+00  0.00000000000E+00  0.76960873370E+03  0.76960873372E+03  0.50400001928E-02 0.  1.
       -1   -1    0    0    0  501  0.00000000000E+00  0.00000000000E+00 -0.32440480310E+03  0.32440480314E+03  0.50400001928E-02 0. -1.
    10030    2    1    2    0    0  0.00000000000E+00  0.00000000000E+00  0.44520393060E+03  0.10940135369E+04  0.99932931459E+03 0.  0.
        1    1    3    3  502    0 -0.35647045868E+03  0.32922841486E+03  0.35306647307E+03  0.60009871812E+03  0.50400001928E-02 0. -1.
       -1    1    3    3    0  502  0.35647045868E+03 -0.32922841486E+03  0.92137457537E+02  0.49391481874E+03  0.50400001928E-02 0.  1.
</event>
<event>
 5   0  0.8968798E-03  0.9503457E+03  0.7818609E-02  0.9364747E-01
       -2   -1    0    0    0  501  0.00000000000E+00  0.00000000000E+00  0.20968343795E+03  0.20968343796E+03  0.25500000920E-02 0. -1.
        2   -1    0    0  501    0  0.00000000000E+00  0.00000000000E+00 -0.10768100120E+04  0.10768100120E+04  0.25500000920E-02 0.  1.
    10030    2    1    2    0    0  0.00000000000E+00  0.00000000000E+00 -0.86712657409E+03  0.12864934500E+04  0.95034567470E+03 0.  0.
        2    1    3    3  502    0  0.40964639755E+03  0.40735806057E+02 -0.11230381265E+03  0.42671035054E+03  0.25500000920E-02 0. -1.
       -2    1    3    3    0  502 -0.40964639755E+03 -0.40735806057E+02 -0.75482276144E+03  0.85978309946E+03  0.25500000920E-02 0.  1.
</event>
<event>
 5   0  0.5310275E-03  0.9872462E+03  0.7818609E-02  0.9322645E-01
        1   -1    0    0  501    0  0.00000000000E+00  0.00000000000E+00  0.59147663025E+03  0.59147663027E+03  0.50400001928E-02 0.  1.
       -1   -1    0    0    0  501  0.00000000000E+00  0.00000000000E+00 -0.41195841192E+03  0.41195841195E+03  0.50400001928E-02 0. -1.
    10030    2    1    2    0    0  0.00000000000E+00  0.00000000000E+00  0.17951821833E+03  0.10034350422E+04  0.98724621714E+03 0.  0.
        1    1    3    3  502    0  0.69571065703E+02  0.14350200157E+03 -0.38505304030E+03  0.41677188185E+03  0.50400001928E-02 0. -1.
       -1    1    3    3    0  502 -0.69571065703E+02 -0.14350200157E+03  0.56457125863E+03  0.58666316037E+03  0.50400001928E-02 0.  1.
</event>
<event>
 5   0  0.5201968E-03  0.1040153E+04  0.7818609E-02  0.9265570E-01
       -1   -1    0    0    0  501  0.00000000000E+00  0.00000000000E+00  0.34417605545E+03  0.34417605549E+03  0.50400001928E-02 0.  1.
        1   -1    0    0  501    0  0.00000000000E+00  0.00000000000E+00 -0.78587601394E+03  0.78587601396E+03  0.50400001928E-02 0. -1.
    10030    2    1    2    0    0  0.00000000000E+00  0.00000000000E+00 -0.44169995849E+03  0.11300520695E+04  0.10401532706E+04 0.  0.
        2    1    3    3  502    0  0.11598891354E+01  0.11054854369E+03  0.33126240275E+03  0.34922357500E+03  0.25500000920E-02 0.  1.
       -2    1    3    3    0  502 -0.11598891354E+01 -0.11054854369E+03 -0.77296236124E+03  0.78082849445E+03  0.25500000920E-02 0. -1.
</event>
<event>
 5   0  0.8907355E-03  0.9960437E+03  0.7818609E-02  0.9312895E-01
        2   -1    0    0  501    0  0.00000000000E+00  0.00000000000E+00  0.51435561106E+03  0.51435561106E+03  0.25500000920E-02 0. -1.
       -2   -1    0    0    0  501  0.00000000000E+00  0.00000000000E+00 -0.48220677720E+03  0.48220677721E+03  0.25500000920E-02 0.  1.
    10030    2    1    2    0    0  0.00000000000E+00  0.00000000000E+00  0.32148833858E+02  0.99656238827E+03  0.99604369693E+03 0.  0.
        5    1    3    3  502    0  0.26191661577E+03  0.33754211442E+03 -0.23992730674E+03  0.49002264758E+03  0.46999998093E+01 0.  1.
       -5    1    3    3    0  502 -0.26191661577E+03 -0.33754211442E+03  0.27207614059E+03  0.50653974069E+03  0.46999998093E+01 0. -1.
</event>
<event>
 5   0  0.5310275E-03  0.9932029E+03  0.7818609E-02  0.9316031E-01
       -1   -1    0    0    0  501  0.00000000000E+00  0.00000000000E+00  0.29267783767E+03  0.29267783772E+03  0.50400001928E-02 0.  1.
        1   -1    0    0  501    0  0.00000000000E+00  0.00000000000E+00 -0.84260902978E+03  0.84260902980E+03  0.50400001928E-02 0. -1.
    10030    2    1    2    0    0  0.00000000000E+00  0.00000000000E+00 -0.54993119211E+03  0.11352868675E+04  0.99320287731E+03 0.  0.
        1    1    3    3  502    0  0.33158757435E+03 -0.20134778910E+03  0.79421949424E+02  0.39597865816E+03  0.50400001928E-02 0.  1.
       -1    1    3    3    0  502 -0.33158757435E+03  0.20134778910E+03 -0.62935314153E+03  0.73930820936E+03  0.50400001928E-02 0. -1.
</event>
<event>
 5   0  0.8875655E-03  0.1015063E+04  0.7818609E-02  0.9292176E-01
       -2   -1    0    0    0  501  0.00000000000E+00  0.00000000000E+00  0.87856432281E+03  0.87856432282E+03  0.25500000920E-02 0. -1.
        2   -1    0    0  501    0  0.00000000000E+00  0.00000000000E+00 -0.29319230164E+03  0.29319230165E+03  0.25500000920E-02 0.  1.
    10030    2    1    2    0    0  0.00000000000E+00  0.00000000000E+00  0.58537202117E+03  0.11717566245E+04  0.10150631428E+04 0.  0.
        4    1    3    3  502    0 -0.24116452608E+03 -0.48401209535E+02 -0.21978545312E+03  0.32986400838E+03  0.12699999809E+01 0.  1.
       -4    1    3    3    0  502  0.24116452608E+03  0.48401209535E+02  0.80515747429E+03  0.84189261609E+03  0.12699999809E+01 0. -1.
</event>
<event>
 5   0  0.5072205E-03  0.9763015E+03  0.7818609E-02  0.9334926E-01
       -1   -1    0    0    0  501  0.00000000000E+00  0.00000000000E+00  0.26294755093E+03  0.26294755098E+03  0.50400001928E-02 0. -1.
        1   -1    0    0  501    0  0.00000000000E+00  0.00000000000E+00 -0.90623075517E+03  0.90623075518E+03  0.50400001928E-02 0.  1.
    10030    2    1    2    0    0  0.00000000000E+00  0.00000000000E+00 -0.64328320424E+03  0.11691783062E+04  0.97630150606E+03 0.  0.
        5    1    3    3  502    0 -0.37397279090E+03  0.24595381952E+03 -0.88439884979E+02  0.45628130898E+03  0.46999998093E+01 0. -1.
       -5    1    3    3    0  502  0.37397279090E+03 -0.24595381952E+03 -0.55484331926E+03  0.71289699718E+03  0.46999998093E+01 0.  1.
</event>
<event>
 5   0  0.9243773E-03  0.1035962E+04  0.7818609E-02  0.9269958E-01
       -2   -1    0    0    0  501  0.00000000000E+00  0.00000000000E+00  0.63076671680E+03  0.63076671681E+03  0.25500000920E-02 0.  1.
        2   -1    0    0  501    0  0.00000000000E+00  0.00000000000E+00 -0.42536235553E+03  0.42536235554E+03  0.25500000920E-02 0. -1.
    10030    2    1    2    0    0  0.00000000000E+00  0.00000000000E+00  0.20540436127E+03  0.10561290724E+04  0.10359621932E+04 0.  0.
        3    1    3    3  502    0  0.44024085357E+03 -0.19209389687E+03 -0.94959609592E+02  0.48962170297E+03  0.10100000352E+00 0. -1.
       -3    1    3    3    0  502 -0.44024085357E+03  0.19209389687E+03  0.30036397086E+03  0.56650736938E+03  0.10100000352E+00 0.  1.
</event>
<event>
 5   0  0.9243773E-03  0.1005853E+04  0.7818609E-02  0.9302149E-01
        2   -1    0    0  501    0  0.00000000000E+00  0.00000000000E+00  0.11633930415E+04  0.11633930415E+04  0.25500000920E-02 0. -1.
       -2   -1    0    0    0  501  0.00000000000E+00  0.00000000000E+00 -0.21741133368E+03  0.21741133369E+03  0.25500000920E-02 0.  1.
    10030    2    1    2    0    0  0.00000000000E+00  0.00000000000E+00  0.94598170777E+03  0.13808043751E+04  0.10058525394E+04 0.  0.
        3    1    3    3  502    0 -0.25128828275E+03 -0.42163520409E+03  0.62345032482E+03  0.79348116808E+03  0.10100000352E+00 0.  1.
       -3    1    3    3    0  502  0.25128828275E+03  0.42163520409E+03  0.32253138295E+03  0.58732320707E+03  0.10100000352E+00 0. -1.
</event>
<event>
 5   0  0.5189877E-03  0.1028285E+04  0.7818609E-02  0.9278055E-01
       -1   -1    0    0    0  501  0.00000000000E+00  0.00000000000E+00  0.33832952599E+03  0.33832952602E+03  0.50400001928E-02 0.  1.
        1   -1    0    0  501    0  0.00000000000E+00  0.00000000000E+00 -0.78131676912E+03  0.78131676913E+03  0.50400001928E-02 0. -1.
    10030    2    1    2    0    0  0.00000000000E+00  0.00000000000E+00 -0.44298724313E+03  0.11196462952E+04  0.10282850425E+04 0.  0.
        3    1    3    3  502    0 -0.22915002861E+03 -0.15433345621E+02  0.27937014714E+03  0.36165676143E+03  0.10100000352E+00 0.  1.
       -3    1    3    3    0  502  0.22915002861E+03  0.15433345621E+02 -0.72235739027E+03  0.75798953373E+03  0.10100000352E+00 0. -1.
</event>
<event>
 5   0  0.8968798E-03  0.8030152E+03  0.7818609E-02  0.9555663E-01
       -2   -1    0    0    0  501  0.00000000000E+00  0.00000000000E+00  0.11549521314E+03  0.11549521317E+03  0.25500000920E-02 0.  1.
        2   -1    0    0  501    0  0.00000000000E+00  0.00000000000E+00 -0.13958010942E+04  0.13958010942E+04  0.25500000920E-02 0. -1.
    10030    2    1    2    0    0  0.00000000000E+00  0.00000000000E+00 -0.12803058811E+04  0.15112963074E+04  0.80301518019E+03 0.  0.
        2    1    3    3  502    0 -0.30094072176E+03  0.25985684406E+03 -0.53507164005E+03  0.66662775026E+03  0.25500000920E-02 0.  1.
       -2    1    3    3    0  502  0.30094072176E+03 -0.25985684406E+03 -0.74523424100E+03  0.84466855712E+03  0.25500000920E-02 0. -1.
</event>
<event>
 5   0  0.8875655E-03  0.9841255E+03  0.7818609E-02  0.9326129E-01
       -2   -1    0    0    0  501  0.00000000000E+00  0.00000000000E+00  0.19051760961E+03  0.19051760962E+03  0.25500000920E-02 0.  1.
        2   -1    0    0  501    0  0.00000000000E+00  0.00000000000E+00 -0.12708839372E+04  0.12708839372E+04  0.25500000920E-02 0. -1.
    10030    2    1    2    0    0  0.00000000000E+00  0.00000000000E+00 -0.10803663276E+04  0.14614015468E+04  0.98412554041E+03 0.  0.
        4    1    3    3  502    0  0.45542590145E+03 -0.97159235611E+02 -0.30411660561E+03  0.55618449411E+03  0.12699999809E+01 0.  1.
       -4    1    3    3    0  502 -0.45542590145E+03  0.97159235611E+02 -0.77624972200E+03  0.90521705274E+03  0.12699999809E+01 0. -1.
</event>
<event>
 5   0  0.8875655E-03  0.1006956E+04  0.7818609E-02  0.9300948E-01
        2   -1    0    0  501    0  0.00000000000E+00  0.00000000000E+00  0.59978119678E+03  0.59978119679E+03  0.25500000920E-02 0.  1.
       -2   -1    0    0    0  501  0.00000000000E+00  0.00000000000E+00 -0.42263796110E+03  0.42263796111E+03  0.25500000920E-02 0. -1.
    10030    2    1    2    0    0  0.00000000000E+00  0.00000000000E+00  0.17714323568E+03  0.10224191579E+04  0.10069564084E+04 0.  0.
        4    1    3    3  502    0  0.22837642108E+03 -0.11486386205E+03 -0.35183916805E+03  0.43490448329E+03  0.12699999809E+01 0. -1.
       -4    1    3    3    0  502 -0.22837642108E+03  0.11486386205E+03  0.52898240373E+03  0.58751467460E+03  0.12699999809E+01 0.  1.
</event>
<event>
 5   0  0.5349685E-03  0.9976652E+03  0.7818609E-02  0.9311109E-01
        1   -1    0    0  501    0  0.00000000000E+00  0.00000000000E+00  0.14699558550E+04  0.14699558550E+04  0.50400001928E-02 0.  1.
       -1   -1    0    0    0  501  0.00000000000E+00  0.00000000000E+00 -0.16927988912E+03  0.16927988919E+03  0.50400001928E-02 0. -1.
    10030    2    1    2    0    0  0.00000000000E+00  0.00000000000E+00  0.13006759659E+04  0.16392357442E+04  0.99766520278E+03 0.  0.
        4    1    3    3  502    0 -0.32558584945E+02 -0.14640382327E+03  0.14320297347E+04  0.14398628112E+04  0.12699999809E+01 0.  1.
       -4    1    3    3    0  502  0.32558584945E+02  0.14640382327E+03 -0.13135376887E+03  0.19937293301E+03  0.12699999809E+01 0. -1.
</event>
<event>
 5   0  0.5189877E-03  0.9949041E+03  0.7818609E-02  0.9314152E-01
        1   -1    0    0  501    0  0.00000000000E+00  0.00000000000E+00  0.59897845655E+03  0.59897845657E+03  0.50400001928E-02 0.  1.
       -1   -1    0    0    0  501  0.00000000000E+00  0.00000000000E+00 -0.41313431115E+03  0.41313431118E+03  0.50400001928E-02 0. -1.
    10030    2    1    2    0    0  0.00000000000E+00  0.00000000000E+00  0.18584414540E+03  0.10121127678E+04  0.99490412014E+03 0.  0.
        3    1    3    3  502    0 -0.16857897538E+03  0.28109054178E+03 -0.28775329261E+03  0.43615677368E+03  0.10100000352E+00 0. -1.
       -3    1    3    3    0  502  0.16857897538E+03 -0.28109054178E+03  0.47359743801E+03  0.57595599407E+03  0.10100000352E+00 0.  1.
</event>
<event>
 5   0  0.5310275E-03  0.9492715E+03  0.7818609E-02  0.9366003E-01
        1   -1    0    0  501    0  0.00000000000E+00  0.00000000000E+00  0.16447245037E+04  0.16447245037E+04  0.50400001928E-02 0. -1.
       -1   -1    0    0    0  501  0.00000000000E+00  0.00000000000E+00 -0.13697070621E+03  0.13697070630E+03  0.50400001928E-02 0.  1.
    10030    2    1    2    0    0  0.00000000000E+00  0.00000000000E+00  0.15077537974E+04  0.17816952100E+04  0.94927146143E+03 0.  0.
        1    1    3    3  502    0  0.27870387876E+03  0.34611978029E+03  0.44090946669E+03  0.62599992986E+03  0.50400001928E-02 0.  1.
       -1    1    3    3    0  502 -0.27870387876E+03 -0.34611978029E+03  0.10668443308E+04  0.11556952801E+04  0.50400001928E-02 0. -1.
</event>
<event>
 5   0  0.5201968E-03  0.1000044E+04  0.7818609E-02  0.9308497E-01
        1   -1    0    0  501    0  0.00000000000E+00  0.00000000000E+00  0.61207833830E+03  0.61207833832E+03  0.50400001928E-02 0. -1.
       -1   -1    0    0    0  501  0.00000000000E+00  0.00000000000E+00 -0.40848018700E+03  0.40848018703E+03  0.50400001928E-02 0.  1.
    10030    2    1    2    0    0  0.00000000000E+00  0.00000000000E+00  0.20359815130E+03  0.10205585253E+04  0.10000437473E+04 0.  0.
        2    1    3    3  502    0  0.28226604356E+03 -0.38853858466E+03 -0.40289014637E+02  0.48193314456E+03  0.25500000920E-02 0.  1.
       -2    1    3    3    0  502 -0.28226604356E+03  0.38853858466E+03  0.24388716594E+03  0.53862538079E+03  0.25500000920E-02 0. -1.
</event>
<event>
 5   0  0.5310275E-03  0.1002799E+04  0.7818609E-02  0.9305481E-01
        1   -1    0    0  501    0  0.00000000000E+00  0.00000000000E+00  0.13305673601E+03  0.13305673610E+03  0.50400001928E-02 0. -1.
       -1   -1    0    0    0  501  0.00000000000E+00  0.00000000000E+00 -0.18894289233E+04  0.18894289233E+04  0.50400001928E-02 0.  1.
    10030    2    1    2    0    0  0.00000000000E+00  0.00000000000E+00 -0.17563721873E+04  0.20224856594E+04  0.10027985751E+04 0.  0.
        1    1    3    3  502    0  0.41370250409E+03 -0.16709153159E+03 -0.41681008300E+03  0.61057349037E+03  0.50400001928E-02 0. -1.
       -1    1    3    3    0  502 -0.41370250409E+03  0.16709153159E+03 -0.13395621043E+04  0.14119121690E+04  0.50400001928E-02 0.  1.
</event>
<event>
 5   0  0.8968798E-03  0.9467326E+03  0.7818609E-02  0.9368978E-01
        2   -1    0    0  501    0  0.00000000000E+00  0.00000000000E+00  0.98638518444E+03  0.98638518444E+03  0.25500000920E-02 0. -1.
       -2   -1    0    0    0  501  0.00000000000E+00  0.00000000000E+00 -0.22716848879E+03  0.22716848881E+03  0.25500000920E-02 0.  1.
    10030    2    1    2    0    0  0.00000000000E+00  0.00000000000E+00  0.75921669565E+03  0.12135536732E+04  0.94673255300E+03 0.  0.
        2    1    3    3  502    0 -0.53636800768E+01 -0.38942636508E+03  0.72450015027E+03  0.82254612675E+03  0.25500000920E-02 0. -1.
       -2    1    3    3    0  502  0.53636800768E+01  0.38942636508E+03  0.34716545375E+02  0.39100754649E+03  0.25500000920E-02 0.  1.
</event>
<event>
 5   0  0.5349685E-03  0.9921064E+03  0.7818609E-02  0.9317245E-01
       -1   -1    0    0    0  501  0.00000000000E+00  0.00000000000E+00  0.11671279981E+04  0.11671279981E+04  0.50400001928E-02 0.  1.
        1   -1    0    0  501    0  0.00000000000E+00  0.00000000000E+00 -0.21083273121E+03  0.21083273127E+03  0.50400001928E-02 0. -1.
    10030    2    1    2    0    0  0.00000000000E+00  0.00000000000E+00  0.95629526684E+03  0.13779607293E+04  0.99210641274E+03 0.  0.
        4    1    3    3  502    0 -0.39203328563E+03  0.22910718192E+03  0.75553975516E+03  0.88148858891E+03  0.12699999809E+01 0.  1.
       -4    1    3    3    0  502  0.39203328563E+03 -0.22910718192E+03  0.20075551168E+03  0.49647214042E+03  0.12699999809E+01 0. -1.
</event>
<event>
 5   0  0.8968798E-03  0.9195063E+03  0.7818609E-02  0.9401521E-01
        2   -1    0    0  501    0  0.00000000000E+00  0.00000000000E+00  0.17719124673E+04  0.17719124673E+04  0.25500000920E-02 0.  1.
       -2   -1    0    0    0  501  0.00000000000E+00  0.00000000000E+00 -0.11929086526E+03  0.11929086528E+03  0.25500000920E-02 0. -1.
    10030    2    1    2    0    0  0.00000000000E+00  0.00000000000E+00  0.16526216020E+04  0.18912033326E+04  0.91950632713E+03 0.  0.
        2    1    3    3  502    0 -0.18393287339E+03  0.42109774869E+03  0.79591835814E+03  0.91904333341E+03  0.25500000920E-02 0.  1.
       -2    1    3    3    0  502  0.18393287339E+03 -0.42109774869E+03  0.85670324389E+03  0.97215999916E+03  0.25500000920E-02 0. -1.
</event>
<event>
 5   0  0.5310275E-03  0.9573276E+03  0.7818609E-02  0.9356626E-01
        1   -1    0    0  501    0  0.00000000000E+00  0.00000000000E+00  0.45790326381E+03  0.45790326384E+03  0.50400001928E-02 0. -1.
       -1   -1    0    0    0  501  0.00000000000E+00  0.00000000000E+00 -0.50036561240E+03  0.50036561242E+03  0.50400001928E-02 0.  1.
    10030    2    1    2    0    0  0.00000000000E+00  0.00000000000E+00 -0.42462348588E+02  0.95826887626E+03  0.95732762844E+03 0.  0.
        1    1    3    3  502    0  0.21182923860E+03 -0.42140867965E+03 -0.10293339175E+03  0.48275478741E+03  0.50400001928E-02 0. -1.
       -1    1    3    3    0  502 -0.21182923860E+03  0.42140867965E+03  0.60471043163E+02  0.47551408885E+03  0.50400001928E-02 0.  1.
</event>
<event>
 5   0  0.5189877E-03  0.9627511E+03  0.7818609E-02  0.9350369E-01
        1   -1    0    0  501    0  0.00000000000E+00  0.00000000000E+00  0.13856381984E+04  0.13856381984E+04  0.50400001928E-02 0.  1.
       -1   -1    0    0    0  501  0.00000000000E+00  0.00000000000E+00 -0.16723155179E+03  0.16723155187E+03  0.50400001928E-02 0. -1.
    10030    2    1    2    0    0  0.00000000000E+00  0.00000000000E+00  0.12184066466E+04  0.15528697503E+04  0.96275111261E+03 0.  0.
        3    1    3    3  502    0 -0.17761132092E+03  0.32159578379E+03  0.10749334139E+03  0.38278513309E+03  0.10100000352E+00 0. -1.
       -3    1    3    3    0  502  0.17761132092E+03 -0.32159578379E+03  0.11109133052E+04  0.11700846172E+04  0.10100000352E+00 0.  1.
</event>
<event>
 5   0  0.8968798E-03  0.9705177E+03  0.7818609E-02  0.9341485E-01
        2   -1    0    0  501    0  0.00000000000E+00  0.00000000000E+00  0.85945233909E+03  0.85945233910E+03  0.25500000920E-02 0. -1.
       -2   -1    0    0    0  501  0.00000000000E+00  0.00000000000E+00 -0.27398394489E+03  0.27398394490E+03  0.25500000920E-02 0.  1.
    10030    2    1    2    0    0  0.00000000000E+00  0.00000000000E+00  0.58546839420E+03  0.11334362840E+04  0.97051768107E+03 0.  0.
        2    1    3    3  502    0 -0.44918756847E+03  0.95987121249E+02  0.10995956424E+03  0.47230721452E+03  0.25500000920E-02 0.  1.
       -2    1    3    3    0  502  0.44918756847E+03 -0.95987121249E+02  0.47550882997E+03  0.66112906947E+03  0.25500000920E-02 0. -1.
</event>
<event>
 5   0  0.9040674E-03  0.1024770E+04  0.7818609E-02  0.9281787E-01
       -2   -1    0    0    0  501  0.00000000000E+00  0.00000000000E+00  0.27167388976E+03  0.27167388977E+03  0.25500000920E-02 0. -1.
        2   -1    0    0  501    0  0.00000000000E+00  0.00000000000E+00 -0.96637390442E+03  0.96637390442E+03  0.25500000920E-02 0.  1.
    10030    2    1    2    0    0  0.00000000000E+00  0.00000000000E+00 -0.69470001466E+03  0.12380477942E+04  0.10247703305E+04 0.  0.
        1    1    3    3  502    0  0.76973975717E+02 -0.18719508593E+03 -0.91602990903E+03  0.93812461187E+03  0.50400001928E-02 0.  1.
       -1    1    3    3    0  502 -0.76973975717E+02  0.18719508593E+03  0.22132989436E+03  0.29992318233E+03  0.50400001928E-02 0. -1.
</event>
<event>
 5   0  0.8907355E-03  0.1000098E+04  0.7818609E-02  0.9308438E-01
       -2   -1    0    0    0  501  0.00000000000E+00  0.00000000000E+00  0.30541540257E+03  0.30541540258E+03  0.25500000920E-02 0.  1.
        2   -1    0    0  501    0  0.00000000000E+00  0.00000000000E+00 -0.81871730401E+03  0.81871730401E+03  0.25500000920E-02 0. -1.
    10030    2    1    2    0    0  0.00000000000E+00  0.00000000000E+00 -0.51330190143E+03  0.11241327066E+04  0.10000977452E+04 0.  0.
        5    1    3    3  502    0 -0.23658291449E+03  0.28327613516E+03  0.12254634757E+03  0.38891713960E+03  0.46999998093E+01 0.  1.
       -5    1    3    3    0  502  0.23658291449E+03 -0.28327613516E+03 -0.63584824901E+03  0.73521556699E+03  0.46999998093E+01 0. -1.
</event>
<event>
 5   0  0.5349685E-03  0.9819981E+03  0.7818609E-02  0.9328512E-01
       -1   -1    0    0    0  501  0.00000000000E+00  0.00000000000E+00  0.34769411676E+03  0.34769411680E+03  0.50400001928E-02 0. -1.
        1   -1    0    0  501    0  0.00000000000E+00  0.00000000000E+00 -0.69336831203E+03  0.69336831205E+03  0.50400001928E-02 0.  1.
    10030    2    1    2    0    0  0.00000000000E+00  0.00000000000E+00 -0.34567419527E+03  0.10410624288E+04  0.98199813212E+03 0.  0.
        4    1    3    3  502    0 -0.27001294682E+03 -0.73754255394E+02 -0.60050072009E+03  0.66253257231E+03  0.12699999809E+01 0.  1.
       -4    1    3    3    0  502  0.27001294682E+03  0.73754255394E+02  0.25482652482E+03  0.37852985654E+03  0.12699999809E+01 0. -1.
</event>
<event>
 5   0  0.5310275E-03  0.9963979E+03  0.7818609E-02  0.9312504E-01
       -1   -1    0    0    0  501  0.00000000000E+00  0.00000000000E+00  0.64371402639E+03  0.64371402641E+03  0.50400001928E-02 0. -1.
        1   -1    0    0  501    0  0.00000000000E+00  0.00000000000E+00 -0.38557835148E+03  0.38557835152E+03  0.50400001928E-02 0.  1.
    10030    2    1    2    0    0  0.00000000000E+00  0.00000000000E+00  0.25813567490E+03  0.10292923779E+04  0.99639789873E+03 0.  0.
        1    1    3    3  502    0  0.15028764974E+03  0.77215833589E+01  0.61967437527E+03  0.63768513539E+03  0.50400001928E-02 0. -1.
       -1    1    3    3    0  502 -0.15028764974E+03 -0.77215833589E+01 -0.36153870036E+03  0.39160724253E+03  0.50400001928E-02 0.  1.
</event>
<event>
 5   0  0.5189877E-03  0.9857917E+03  0.7818609E-02  0.9324267E-01
       -1   -1    0    0    0  501  0.00000000000E+00  0.00000000000E+00  0.27791763895E+03  0.27791763899E+03  0.50400001928E-02 0. -1.
        1   -1    0    0  501    0  0.00000000000E+00  0.00000000000E+00 -0.87416667985E+03  0.87416667987E+03  0.50400001928E-02 0.  1.
    10030    2    1    2    0    0  0.00000000000E+00  0.00000000000E+00 -0.59624904090E+03  0.11520843189E+04  0.98579174220E+03 0.  0.
        3    1    3    3  502    0  0.18278303877E+03 -0.31617602926E+03 -0.68497554269E+03  0.77625280999E+03  0.10100000352E+00 0.  1.
       -3    1    3    3    0  502 -0.18278303877E+03  0.31617602926E+03  0.88726501782E+02  0.37583150887E+03  0.10100000352E+00 0. -1.
</event>
<event>
 5   0  0.9243773E-03  0.1033001E+04  0.7818609E-02  0.9273072E-01
       -2   -1    0    0    0  501  0.00000000000E+00  0.00000000000E+00  0.63173535174E+03  0.63173535174E+03  0.25500000920E-02 0.  1.
        2   -1    0    0  501    0  0.00000000000E+00  0.00000000000E+00 -0.42228565770E+03  0.42228565771E+03  0.25500000920E-02 0. -1.
    10030    2    1    2    0    0  0.00000000000E+00  0.00000000000E+00  0.20944969403E+03  0.10540210095E+04  0.10330010233E+04 0.  0.
        3    1    3    3  502    0  0.46831093014E+03 -0.94162538575E+02 -0.95718596373E+02  0.48717940315E+03  0.10100000352E+00 0. -1.
       -3    1    3    3    0  502 -0.46831093014E+03  0.94162538575E+02  0.30516829041E+03  0.56684160630E+03  0.10100000352E+00 0.  1.
</event>
<event>
 5   0  0.8968798E-03  0.9976310E+03  0.7818609E-02  0.9311147E-01
        2   -1    0    0  501    0  0.00000000000E+00  0.00000000000E+00  0.15343525137E+04  0.15343525137E+04  0.25500000920E-02 0.  1.
       -2   -1    0    0    0  501  0.00000000000E+00  0.00000000000E+00 -0.16216409914E+03  0.16216409916E+03  0.25500000920E-02 0. -1.
    10030    2    1    2    0    0  0.00000000000E+00  0.00000000000E+00  0.13721884146E+04  0.16965166129E+04  0.99763098022E+03 0.  0.
        2    1    3    3  502    0 -0.23914022024E+03  0.36284844728E+03  0.11025363574E+04  0.11850879545E+04  0.25500000920E-02 0.  1.
       -2    1    3    3    0  502  0.23914022024E+03 -0.36284844728E+03  0.26965205721E+03  0.51142865836E+03  0.25500000920E-02 0. -1.
</event>
<event>
 5   0  0.3513625E-03  0.1004763E+04  0.7818609E-02  0.9303336E-01
       -4   -1    0    0    0  501  0.00000000000E+00  0.00000000000E+00  0.38921186695E+03  0.38921393896E+03  0.12699999809E+01 0. -1.
        4   -1    0    0  501    0  0.00000000000E+00  0.00000000000E+00 -0.64845251372E+03  0.64845375737E+03  0.12699999809E+01 0.  1.
    10030    2    1    2    0    0  0.00000000000E+00  0.00000000000E+00 -0.25924064676E+03  0.10376676963E+04  0.10047629248E+04 0.  0.
        3    1    3    3  502    0 -0.40065964607E+02  0.10066456569E+03 -0.63624491123E+03  0.64540393056E+03  0.10100000352E+00 0.  1.
       -3    1    3    3    0  502  0.40065964607E+02 -0.10066456569E+03  0.37700426447E+03  0.39226376577E+03  0.10100000352E+00 0. -1.
</event>
<event>
 5   0  0.5201968E-03  0.9774041E+03  0.7818609E-02  0.9333681E-01
        1   -1    0    0  501    0  0.00000000000E+00  0.00000000000E+00  0.32659081879E+03  0.32659081883E+03  0.50400001928E-02 0. -1.
       -1   -1    0    0    0  501  0.00000000000E+00  0.00000000000E+00 -0.73128103741E+03  0.73128103743E+03  0.50400001928E-02 0.  1.
    10030    2    1    2    0    0  0.00000000000E+00  0.00000000000E+00 -0.40469021862E+03  0.10578718563E+04  0.97740405730E+03 0.  0.
        2    1    3    3  502    0  0.23578643389E+03  0.30476409629E+03 -0.52768017659E+03  0.65339327022E+03  0.25500000920E-02 0.  1.
       -2    1    3    3    0  502 -0.23578643389E+03 -0.30476409629E+03  0.12298995798E+03  0.40447858604E+03  0.25500000920E-02 0. -1.
</event>
<event>
 5   0  0.8875655E-03  0.9761700E+03  0.7818609E-02  0.9335074E-01
        2   -1    0    0  501    0  0.00000000000E+00  0.00000000000E+00  0.10077287214E+04  0.10077287214E+04  0.25500000920E-02 0.  1.
       -2   -1    0    0    0  501  0.00000000000E+00  0.00000000000E+00 -0.23639991082E+03  0.23639991083E+03  0.25500000920E-02 0. -1.
    10030    2    1    2    0    0  0.00000000000E+00  0.00000000000E+00  0.77132881062E+03  0.12441286323E+04  0.97617002593E+03 0.  0.
        4    1    3    3  502    0 -0.23209669486E+03  0.43021254757E+02 -0.15881065173E+03  0.28450332183E+03  0.12699999809E+01 0. -1.
       -4    1    3    3    0  502  0.23209669486E+03 -0.43021254757E+02  0.93013946234E+03  0.95962531044E+03  0.12699999809E+01 0.  1.
</event>
<event>
 5   0  0.5189877E-03  0.9683898E+03  0.7818609E-02  0.9343910E-01
        1   -1    0    0  501    0  0.00000000000E+00  0.00000000000E+00  0.10380216319E+04  0.10380216319E+04  0.50400001928E-02 0.  1.
       -1   -1    0    0    0  501  0.00000000000E+00  0.00000000000E+00 -0.22585725987E+03  0.22585725993E+03  0.50400001928E-02 0. -1.
    10030    2    1    2    0    0  0.00000000000E+00  0.00000000000E+00  0.81216437200E+03  0.12638788918E+04  0.96838984196E+03 0.  0.
        3    1    3    3  502    0 -0.31669223677E+03  0.18165552978E+02  0.88352016946E+03  0.93873950604E+03  0.10100000352E+00 0.  1.
       -3    1    3    3    0  502  0.31669223677E+03 -0.18165552978E+02 -0.71355797465E+02  0.32513938577E+03  0.10100000352E+00 0. -1.
</event>
<event>
 5   0  0.9040674E-03  0.1015582E+04  0.7818609E-02  0.9291618E-01
       -2   -1    0    0    0  501  0.00000000000E+00  0.00000000000E+00  0.25714505209E+03  0.25714505210E+03  0.25500000920E-02 0.  1.
        2   -1    0    0  501    0  0.00000000000E+00  0.00000000000E+00 -0.10027478602E+04  0.10027478602E+04  0.25500000920E-02 0. -1.
    10030    2    1    2    0    0  0.00000000000E+00  0.00000000000E+00 -0.74560280814E+03  0.12598929123E+04  0.10155819037E+04 0.  0.
        1    1    3    3  502    0 -0.50288461883E+03 -0.70404580454E+02 -0.37108873761E+03  0.62893290263E+03  0.50400001928E-02 0. -1.
       -1    1    3    3    0  502  0.50288461883E+03  0.70404580454E+02 -0.37451407053E+03  0.63096000971E+03  0.50400001928E-02 0.  1.
</event>
<event>
 5   0  0.3513625E-03  0.9934458E+03  0.7818609E-02  0.9315763E-01
       -4   -1    0    0    0  501  0.00000000000E+00  0.00000000000E+00  0.24869473505E+03  0.24869797776E+03  0.12699999809E+01 0.  1.
        4   -1    0    0  501    0  0.00000000000E+00  0.00000000000E+00 -0.99210441402E+03  0.99210522689E+03  0.12699999809E+01 0. -1.
    10030    2    1    2    0    0  0.00000000000E+00  0.00000000000E+00 -0.74340967897E+03  0.12408032046E+04  0.99344584245E+03 0.  0.
        5    1    3    3  502    0 -0.88058004335E+02 -0.14692696203E+03  0.21061064530E+03  0.27151552113E+03  0.46999998093E+01 0.  1.
       -5    1    3    3    0  502  0.88058004335E+02  0.14692696203E+03 -0.95402032427E+03  0.96928768352E+03  0.46999998093E+01 0. -1.
</event>
<event>
 5   0  0.5349685E-03  0.1000126E+04  0.7818609E-02  0.9308407E-01
        1   -1    0    0  501    0  0.00000000000E+00  0.00000000000E+00  0.51247180581E+03  0.51247180584E+03  0.50400001928E-02 0. -1.
       -1   -1    0    0    0  501  0.00000000000E+00  0.00000000000E+00 -0.48795438934E+03  0.48795438936E+03  0.50400001928E-02 0.  1.
    10030    2    1    2    0    0  0.00000000000E+00  0.00000000000E+00  0.24517416475E+02  0.10004261952E+04  0.10001257263E+04 0.  0.
        4    1    3    3  502    0  0.42838253565E+03 -0.14427134675E+03 -0.20166398964E+03  0.49497050009E+03  0.12699999809E+01 0. -1.
       -4    1    3    3    0  502 -0.42838253565E+03  0.14427134675E+03  0.22618140611E+03  0.50545569511E+03  0.12699999809E+01 0.  1.
</event>
<event>
 5   0  0.8875655E-03  0.1011797E+04  0.7818609E-02  0.9295699E-01
        2   -1    0    0  501    0  0.00000000000E+00  0.00000000000E+00  0.81929054799E+03  0.81929054799E+03  0.25500000920E-02 0.  1.
       -2   -1    0    0    0  501  0.00000000000E+00  0.00000000000E+00 -0.31238433765E+03  0.31238433766E+03  0.25500000920E-02 0. -1.
    10030    2    1    2    0    0  0.00000000000E+00  0.00000000000E+00  0.50690621034E+03  0.11316748857E+04  0.10117974801E+04 0.  0.
        4    1    3    3  502    0 -0.36253450298E+03 -0.32008784149E+03  0.87388329524E+02  0.49145277002E+03  0.12699999809E+01 0. -1.
       -4    1    3    3    0  502  0.36253450298E+03  0.32008784149E+03  0.41951788082E+03  0.64022211564E+03  0.12699999809E+01 0.  1.
</event>
<event>
 5   0  0.8968798E-03  0.1047380E+04  0.7818609E-02  0.9258053E-01
       -2   -1    0    0    0  501  0.00000000000E+00  0.00000000000E+00  0.24849300054E+03  0.24849300055E+03  0.25500000920E-02 0. -1.
        2   -1    0    0  501    0  0.00000000000E+00  0.00000000000E+00 -0.11036571798E+04  0.11036571798E+04  0.25500000920E-02 0.  1.
    10030    2    1    2    0    0  0.00000000000E+00  0.00000000000E+00 -0.85516417921E+03  0.13521501803E+04  0.10473797481E+04 0.  0.
        2    1    3    3  502    0  0.30427160217E+03 -0.10302337362E+03  0.10635487894E+03  0.33838791894E+03  0.25500000920E-02 0. -1.
       -2    1    3    3    0  502 -0.30427160217E+03  0.10302337362E+03 -0.96151905814E+03  0.10137622614E+04  0.25500000920E-02 0.  1.
</event>
<event>
 5   0  0.5072205E-03  0.9837062E+03  0.7818609E-02  0.9326598E-01
       -1   -1    0    0    0  501  0.00000000000E+00  0.00000000000E+00  0.40153590229E+03  0.40153590232E+03  0.50400001928E-02 0. -1.
        1   -1    0    0  501    0  0.00000000000E+00  0.00000000000E+00 -0.60248524196E+03  0.60248524198E+03  0.50400001928E-02 0.  1.
    10030    2    1    2    0    0  0.00000000000E+00  0.00000000000E+00 -0.20094933968E+03  0.10040211443E+04  0.98370616603E+03 0.  0.
        5    1    3    3  502    0 -0.20325248896E+03  0.36040908596E+03 -0.37184338546E+03  0.55632353610E+03  0.46999998093E+01 0.  1.
       -5    1    3    3    0  502  0.20325248896E+03 -0.36040908596E+03  0.17089404579E+03  0.44769760820E+03  0.46999998093E+01 0. -1.
</event>
<event>
 5   0  0.8907355E-03  0.1004767E+04  0.7818609E-02  0.9303331E-01
       -2   -1    0    0    0  501  0.00000000000E+00  0.00000000000E+00  0.19246723534E+03  0.19246723536E+03  0.25500000920E-02 0. -1.
        2   -1    0    0  501    0  0.00000000000E+00  0.00000000000E+00 -0.13113366700E+04  0.13113366700E+04  0.25500000920E-02 0.  1.
    10030    2    1    2    0    0  0.00000000000E+00  0.00000000000E+00 -0.11188694346E+04  0.15038039053E+04  0.10047673233E+04 0.  0.
        5    1    3    3  502    0 -0.20365007990E+03 -0.45107889569E+03 -0.43049751832E+03  0.65596930451E+03  0.46999998093E+01 0. -1.
       -5    1    3    3    0  502  0.20365007990E+03  0.45107889569E+03 -0.68837191633E+03  0.84783460084E+03  0.46999998093E+01 0.  1.
</event>
<event>
 5   0  0.8968798E-03  0.9305216E+03  0.7818609E-02  0.9388212E-01
       -2   -1    0    0    0  501  0.00000000000E+00  0.00000000000E+00  0.29097139437E+03  0.29097139438E+03  0.25500000920E-02 0. -1.
        2   -1    0    0  501    0  0.00000000000E+00  0.00000000000E+00 -0.74394807094E+03  0.74394807095E+03  0.25500000920E-02 0.  1.
    10030    2    1    2    0    0  0.00000000000E+00  0.00000000000E+00 -0.45297667658E+03  0.10349194653E+04  0.93052159039E+03 0.  0.
        2    1    3    3  502    0 -0.17358167171E+03  0.45781479098E+02  0.25090166577E+03  0.30850962136E+03  0.25500000920E-02 0. -1.
       -2    1    3    3    0  502  0.17358167171E+03 -0.45781479098E+02 -0.70387834234E+03  0.72640984396E+03  0.25500000920E-02 0.  1.
</event>
<event>
 5   0  0.3513625E-03  0.1022142E+04  0.7818609E-02  0.9284588E-01
       -4   -1    0    0    0  501  0.00000000000E+00  0.00000000000E+00  0.42314719015E+03  0.42314909598E+03  0.12699999809E+01 0. -1.
        4   -1    0    0  501    0  0.00000000000E+00  0.00000000000E+00 -0.61725975767E+03  0.61726106417E+03  0.12699999809E+01 0.  1.
    10030    2    1    2    0    0  0.00000000000E+00  0.00000000000E+00 -0.19411256752E+03  0.10404101602E+04  0.10221416793E+04 0.  0.
        2    1    3    3  502    0 -0.18485900472E+03  0.21074462291E+03 -0.53201947022E+03  0.60135751797E+03  0.25500000920E-02 0.  1.
       -2    1    3    3    0  502  0.18485900472E+03 -0.21074462291E+03  0.33790690270E+03  0.43905264219E+03  0.25500000920E-02 0. -1.
</event>
<event>
 5   0  0.5189877E-03  0.9912113E+03  0.7818609E-02  0.9318237E-01
        1   -1    0    0  501    0  0.00000000000E+00  0.00000000000E+00  0.26799887060E+03  0.26799887065E+03  0.50400001928E-02 0. -1.
       -1   -1    0    0    0  501  0.00000000000E+00  0.00000000000E+00 -0.91651498824E+03  0.91651498826E+03  0.50400001928E-02 0.  1.
    10030    2    1    2    0    0  0.00000000000E+00  0.00000000000E+00 -0.64851611764E+03  0.11845138589E+04  0.99121134331E+03 0.  0.
        3    1    3    3  502    0 -0.13852873824E+02 -0.48801622577E+03 -0.42617294618E+03  0.64805488115E+03  0.10100000352E+00 0.  1.
       -3    1    3    3    0  502  0.13852873824E+02  0.48801622577E+03 -0.22234317146E+03  0.53645897776E+03  0.10100000352E+00 0. -1.
</event>
<event>
 5   0  0.9040674E-03  0.9986394E+03  0.7818609E-02  0.9310038E-01
        2   -1    0    0  501    0  0.00000000000E+00  0.00000000000E+00  0.83243501828E+03  0.83243501828E+03  0.25500000920E-02 0. -1.
       -2   -1    0    0    0  501  0.00000000000E+00  0.00000000000E+00 -0.29950708193E+03  0.29950708194E+03  0.25500000920E-02 0.  1.
    10030    2    1    2    0    0  0.00000000000E+00  0.00000000000E+00  0.53292793635E+03  0.11319421002E+04  0.99863944090E+03 0.  0.
        1    1    3    3  502    0  0.28434173957E+03  0.37371496512E+03  0.74081655181E+02  0.47539582631E+03  0.50400001928E-02 0.  1.
       -1    1    3    3    0  502 -0.28434173957E+03 -0.37371496512E+03  0.45884628117E+03  0.65654627391E+03  0.50400001928E-02 0. -1.
</event>
<event>
 5   0  0.5189877E-03  0.1025683E+04  0.7818609E-02  0.9280816E-01
        1   -1    0    0  501    0  0.00000000000E+00  0.00000000000E+00  0.83033234381E+03  0.83033234382E+03  0.50400001928E-02 0.  1.
       -1   -1    0    0    0  501  0.00000000000E+00  0.00000000000E+00 -0.31674843484E+03  0.31674843488E+03  0.50400001928E-02 0. -1.
    10030    2    1    2    0    0  0.00000000000E+00  0.00000000000E+00  0.51358390897E+03  0.11470807787E+04  0.10256831291E+04 0.  0.
        3    1    3    3  502    0  0.47009196825E+03 -0.14400863188E+03  0.93643837449E+02  0.50049387925E+03  0.10100000352E+00 0. -1.
       -3    1    3    3    0  502 -0.47009196825E+03  0.14400863188E+03  0.41994007152E+03  0.64658689945E+03  0.10100000352E+00 0.  1.
</event>
<event>
 5   0  0.8968798E-03  0.9558824E+03  0.7818609E-02  0.9358301E-01
        2   -1    0    0  501    0  0.00000000000E+00  0.00000000000E+00  0.61063161304E+03  0.61063161305E+03  0.25500000920E-02 0. -1.
       -2   -1    0    0    0  501  0.00000000000E+00  0.00000000000E+00 -0.37408446178E+03  0.37408446179E+03  0.25500000920E-02 0.  1.
    10030    2    1    2    0    0  0.00000000000E+00  0.00000000000E+00  0.23654715127E+03  0.98471607483E+03  0.95588241602E+03 0.  0.
        2    1    3    3  502    0 -0.40308286365E+03  0.10487596995E+03  0.35976537840E+03  0.55036886862E+03  0.25500000920E-02 0.  1.
       -2    1    3    3    0  502  0.40308286365E+03 -0.10487596995E+03 -0.12321822714E+03  0.43434720622E+03  0.25500000920E-02 0. -1.
</event>
<event>
 5   0  0.9243773E-03  0.9814160E+03  0.7818609E-02  0.9329166E-01
        2   -1    0    0  501    0  0.00000000000E+00  0.00000000000E+00  0.85606180382E+03  0.85606180383E+03  0.25500000920E-02 0. -1.
       -2   -1    0    0    0  501  0.00000000000E+00  0.00000000000E+00 -0.28128151019E+03  0.28128151021E+03  0.25500000920E-02 0.  1.
    10030    2    1    2    0    0  0.00000000000E+00  0.00000000000E+00  0.57478029363E+03  0.11373433140E+04  0.98141603208E+03 0.  0.
        3    1    3    3  502    0  0.50323155628E+02 -0.37570778317E+03  0.64851763152E+03  0.75117500419E+03  0.10100000352E+00 0. -1.
       -3    1    3    3    0  502 -0.50323155628E+02  0.37570778317E+03 -0.73737337885E+02  0.38616830985E+03  0.10100000352E+00 0.  1.
</event>
<event>
 5   0  0.9040674E-03  0.1027704E+04  0.7818609E-02  0.9278671E-01
        2   -1    0    0  501    0  0.00000000000E+00  0.00000000000E+00  0.20865105498E+04  0.20865105498E+04  0.25500000920E-02 0.  1.
       -2   -1    0    0    0  501  0.00000000000E+00  0.00000000000E+00 -0.12654794592E+03  0.12654794594E+03  0.25500000920E-02 0. -1.
    10030    2    1    2    0    0  0.00000000000E+00  0.00000000000E+00  0.19599626039E+04  0.22130584957E+04  0.10277035063E+04 0.  0.
        1    1    3    3  502    0  0.44468799293E+03  0.19952403652E+02  0.42718955535E+03  0.61695739374E+03  0.50400001928E-02 0. -1.
       -1    1    3    3    0  502 -0.44468799293E+03 -0.19952403652E+02  0.15327730485E+04  0.15961011020E+04  0.50400001928E-02 0.  1.
</event>
<event>
 5   0  0.8907355E-03  0.9887713E+03  0.7818609E-02  0.9320947E-01
        2   -1    0    0  501    0  0.00000000000E+00  0.00000000000E+00  0.86039617797E+03  0.86039617797E+03  0.25500000920E-02 0. -1.
       -2   -1    0    0    0  501  0.00000000000E+00  0.00000000000E+00 -0.28407511992E+03  0.28407511993E+03  0.25500000920E-02 0.  1.
    10030    2    1    2    0    0  0.00000000000E+00  0.00000000000E+00  0.57632105805E+03  0.11444712979E+04  0.98877125250E+03 0.  0.
        5    1    3    3  502    0 -0.83384231726E+02 -0.27495410938E+03  0.75380578472E+03  0.80672048656E+03  0.46999998093E+01 0. -1.
       -5    1    3    3    0  502  0.83384231726E+02  0.27495410938E+03 -0.17748472667E+03  0.33775081134E+03  0.46999998093E+01 0.  1.
</event>
<event>
 5   0  0.5349685E-03  0.9947629E+03  0.7818609E-02  0.9314307E-01
        1   -1    0    0  501    0  0.00000000000E+00  0.00000000000E+00  0.90323914368E+03  0.90323914369E+03  0.50400001928E-02 0.  1.
       -1   -1    0    0    0  501  0.00000000000E+00  0.00000000000E+00 -0.27389014572E+03  0.27389014577E+03  0.50400001928E-02 0. -1.
    10030    2    1    2    0    0  0.00000000000E+00  0.00000000000E+00  0.62934899796E+03  0.11771292895E+04  0.99476288777E+03 0.  0.
        4    1    3    3  502    0  0.33985722775E+03  0.71059583601E+02  0.73610205492E+03  0.81387975023E+03  0.12699999809E+01 0.  1.
       -4    1    3    3    0  502 -0.33985722775E+03 -0.71059583601E+02 -0.10675305696E+03  0.36324953923E+03  0.12699999809E+01 0. -1.
</event>
<event>
 5   0  0.5072205E-03  0.9976683E+03  0.7818609E-02  0.9311106E-01
       -1   -1    0    0    0  501  0.00000000000E+00  0.00000000000E+00  0.60393111766E+03  0.60393111768E+03  0.50400001928E-02 0. -1.
        1   -1    0    0  501    0  0.00000000000E+00  0.00000000000E+00 -0.41202629654E+03  0.41202629658E+03  0.50400001928E-02 0.  1.
    10030    2    1    2    0    0  0.00000000000E+00  0.00000000000E+00  0.19190482112E+03  0.10159574143E+04  0.99766828516E+03 0.  0.
        5    1    3    3  502    0 -0.47850242894E+03  0.12160335426E+03  0.16840056190E+03  0.52166348301E+03  0.46999998093E+01 0. -1.
       -5    1    3    3    0  502  0.47850242894E+03 -0.12160335426E+03  0.23504259216E+02  0.49429393124E+03  0.46999998093E+01 0.  1.
</event>
<event>
 5   0  0.3513625E-03  0.1001740E+04  0.7818609E-02  0.9306639E-01
       -3   -1    0    0    0  501  0.00000000000E+00  0.00000000000E+00  0.23198138438E+03  0.23198140637E+03  0.10100000352E+00 0.  1.
        3   -1    0    0  501    0  0.00000000000E+00  0.00000000000E+00 -0.10814257533E+04  0.10814257580E+04  0.10100000352E+00 0. -1.
    10030    2    1    2    0    0  0.00000000000E+00  0.00000000000E+00 -0.84944436893E+03  0.13134071644E+04  0.10017398083E+04 0.  0.
        1    1    3    3  502    0 -0.47975417819E+03 -0.10134874649E+03 -0.29078810062E+03  0.57008188832E+03  0.50400001928E-02 0.  1.
       -1    1    3    3    0  502  0.47975417819E+03  0.10134874649E+03 -0.55865626832E+03  0.74332527608E+03  0.50400001928E-02 0. -1.
</event>
<event>
 5   0  0.8875655E-03  0.1001245E+04  0.7818609E-02  0.9307180E-01
        2   -1    0    0  501    0  0.00000000000E+00  0.00000000000E+00  0.11158040410E+04  0.11158040410E+04  0.25500000920E-02 0.  1.
       -2   -1    0    0    0  501  0.00000000000E+00  0.00000000000E+00 -0.22461206454E+03  0.22461206455E+03  0.25500000920E-02 0. -1.
    10030    2    1    2    0    0  0.00000000000E+00  0.00000000000E+00  0.89119197648E+03  0.13404161056E+04  0.10012453232E+04 0.  0.
        4    1    3    3  502    0  0.24037432385E+03  0.20424825364E+03 -0.74838714050E+02  0.32419070113E+03  0.12699999809E+01 0. -1.
       -4    1    3    3    0  502 -0.24037432385E+03 -0.20424825364E+03  0.96603069053E+03  0.10162254044E+04  0.12699999809E+01 0.  1.
</event>
<event>
 5   0  0.5349685E-03  0.1003394E+04  0.7818609E-02  0.9304830E-01
        1   -1    0    0  501    0  0.00000000000E+00  0.00000000000E+00  0.89527819464E+03  0.89527819465E+03  0.50400001928E-02 0. -1.
       -1   -1    0    0    0  501  0.00000000000E+00  0.00000000000E+00 -0.28114166588E+03  0.28114166593E+03  0.50400001928E-02 0.  1.
    10030    2    1    2    0    0  0.00000000000E+00  0.00000000000E+00  0.61413652875E+03  0.11764198606E+04  0.10033942458E+04 0.  0.
        4    1    3    3  502    0  0.67356306256E+02  0.41866875618E+02  0.88788042934E+03  0.89141627592E+03  0.12699999809E+01 0. -1.
       -4    1    3    3    0  502 -0.67356306256E+02 -0.41866875618E+02 -0.27374390058E+03  0.28500358467E+03  0.12699999809E+01 0.  1.
</event>
<event>
 5   0  0.3513625E-03  0.1011700E+04  0.7818609E-02  0.9295804E-01
       -3   -1    0    0    0  501  0.00000000000E+00  0.00000000000E+00  0.11291930469E+04  0.11291930514E+04  0.10100000352E+00 0. -1.
        3   -1    0    0  501    0  0.00000000000E+00  0.00000000000E+00 -0.22660821025E+03  0.22660823275E+03  0.10100000352E+00 0.  1.
    10030    2    1    2    0    0  0.00000000000E+00  0.00000000000E+00  0.90258483664E+03  0.13558012842E+04  0.10117004175E+04 0.  0.
        1    1    3    3  502    0  0.38295293116E+03 -0.32686317175E+03  0.38575030421E+03  0.63426790692E+03  0.50400001928E-02 0. -1.
       -1    1    3    3    0  502 -0.38295293116E+03  0.32686317175E+03  0.51683453243E+03  0.72153337723E+03  0.50400001928E-02 0.  1.
</event>
<event>
 5   0  0.5310275E-03  0.9972745E+03  0.7818609E-02  0.9311539E-01
        1   -1    0    0  501    0  0.00000000000E+00  0.00000000000E+00  0.10408253052E+04  0.10408253052E+04  0.50400001928E-02 0. -1.
       -1   -1    0    0    0  501  0.00000000000E+00  0.00000000000E+00 -0.23888648138E+03  0.23888648143E+03  0.50400001928E-02 0.  1.
    10030    2    1    2    0    0  0.00000000000E+00  0.00000000000E+00  0.80193882379E+03  0.12797117866E+04  0.99727447561E+03 0.  0.
        1    1    3    3  502    0  0.79273008360E+02 -0.33547509986E+03  0.86330123398E+03  0.92957881489E+03  0.50400001928E-02 0. -1.
       -1    1    3    3    0  502 -0.79273008360E+02  0.33547509986E+03 -0.61362410187E+02  0.35013297172E+03  0.50400001928E-02 0.  1.
</event>
<event>
 5   0  0.9040674E-03  0.1018213E+04  0.7818609E-02  0.9288791E-01
       -2   -1    0    0    0  501  0.00000000000E+00  0.00000000000E+00  0.22813251256E+03  0.22813251258E+03  0.25500000920E-02 0. -1.
        2   -1    0    0  501    0  0.00000000000E+00  0.00000000000E+00 -0.11361357214E+04  0.11361357214E+04  0.25500000920E-02 0.  1.
    10030    2    1    2    0    0  0.00000000000E+00  0.00000000000E+00 -0.90800320880E+03  0.13642682339E+04  0.10182131343E+04 0.  0.
        1    1    3    3  502    0 -0.35596010899E+02  0.44445030815E+03 -0.12474807306E+03  0.46299593320E+03  0.50400001928E-02 0. -1.
       -1    1    3    3    0  502  0.35596010899E+02 -0.44445030815E+03 -0.78325513574E+03  0.90127230074E+03  0.50400001928E-02 0.  1.
</event>
<event>
 5   0  0.5072205E-03  0.1013287E+04  0.7818609E-02  0.9294090E-01
        1   -1    0    0  501    0  0.00000000000E+00  0.00000000000E+00  0.11365673981E+04  0.11365673981E+04  0.50400001928E-02 0. -1.
       -1   -1    0    0    0  501  0.00000000000E+00  0.00000000000E+00 -0.22584475452E+03  0.22584475458E+03  0.50400001928E-02 0.  1.
    10030    2    1    2    0    0  0.00000000000E+00  0.00000000000E+00  0.91072264359E+03  0.13624121527E+04  0.10132872940E+04 0.  0.
        5    1    3    3  502    0 -0.12190113309E+03  0.47451808520E+03  0.28192836213E+03  0.56527249252E+03  0.46999998093E+01 0.  1.
       -5    1    3    3    0  502  0.12190113309E+03 -0.47451808520E+03  0.62879428146E+03  0.79713966017E+03  0.46999998093E+01 0. -1.
</event>
<event>
 5   0  0.8875655E-03  0.1008481E+04  0.7818609E-02  0.9299291E-01
       -2   -1    0    0    0  501  0.00000000000E+00  0.00000000000E+00  0.62780553728E+03  0.62780553729E+03  0.25500000920E-02 0.  1.
        2   -1    0    0  501    0  0.00000000000E+00  0.00000000000E+00 -0.40499595588E+03  0.40499595589E+03  0.25500000920E-02 0. -1.
    10030    2    1    2    0    0  0.00000000000E+00  0.00000000000E+00  0.22280958140E+03  0.10328014932E+04  0.10084814400E+04 0.  0.
        4    1    3    3  502    0 -0.28277906764E+03  0.32163223828E+03  0.38399231804E+03  0.57520692886E+03  0.12699999809E+01 0.  1.
       -4    1    3    3    0  502  0.28277906764E+03 -0.32163223828E+03 -0.16118273664E+03  0.45759456431E+03  0.12699999809E+01 0. -1.
</event>
<event>
 5   0  0.9040674E-03  0.8943242E+03  0.7818609E-02  0.9432704E-01
       -2   -1    0    0    0  501  0.00000000000E+00  0.00000000000E+00  0.46784752381E+03  0.46784752381E+03  0.25500000920E-02 0.  1.
        2   -1    0    0  501    0  0.00000000000E+00  0.00000000000E+00 -0.42739129625E+03  0.42739129626E+03  0.25500000920E-02 0. -1.
    10030    2    1    2    0    0  0.00000000000E+00  0.00000000000E+00  0.40456227554E+02  0.89523882008E+03  0.89432423573E+03 0.  0.
        1    1    3    3  502    0  0.11387506709E+03  0.42721661497E+03 -0.46716226700E+02  0.44459416648E+03  0.50400001928E-02 0. -1.
       -1    1    3    3    0  502 -0.11387506709E+03 -0.42721661497E+03  0.87172454254E+02  0.45064465359E+03  0.50400001928E-02 0.  1.
</event>
<event>
 5   0  0.9243773E-03  0.1009665E+04  0.7818609E-02  0.9298008E-01
       -2   -1    0    0    0  501  0.00000000000E+00  0.00000000000E+00  0.49668160917E+03  0.49668160918E+03  0.25500000920E-02 0.  1.
        2   -1    0    0  501    0  0.00000000000E+00  0.00000000000E+00 -0.51311707523E+03  0.51311707524E+03  0.25500000920E-02 0. -1.
    10030    2    1    2    0    0  0.00000000000E+00  0.00000000000E+00 -0.16435466059E+02  0.10097986844E+04  0.10096649239E+04 0.  0.
        3    1    3    3  502    0 -0.73460971273E+02 -0.43342223546E+03 -0.25645306441E+03  0.50893961620E+03  0.10100000352E+00 0. -1.
       -3    1    3    3    0  502  0.73460971273E+02  0.43342223546E+03  0.24001759835E+03  0.50085906821E+03  0.10100000352E+00 0.  1.
</event>
<event>
 5   0  0.8968798E-03  0.1019717E+04  0.7818609E-02  0.9287180E-01
        2   -1    0    0  501    0  0.00000000000E+00  0.00000000000E+00  0.43661620092E+03  0.43661620093E+03  0.25500000920E-02 0. -1.
       -2   -1    0    0    0  501  0.00000000000E+00  0.00000000000E+00 -0.59538711846E+03  0.59538711846E+03  0.25500000920E-02 0.  1.
    10030    2    1    2    0    0  0.00000000000E+00  0.00000000000E+00 -0.15877091754E+03  0.10320033194E+04  0.10197169445E+04 0.  0.
        2    1    3    3  502    0 -0.78324750521E+02  0.42007857626E+01 -0.58924440788E+03  0.59444207907E+03  0.25500000920E-02 0.  1.
       -2    1    3    3    0  502  0.78324750521E+02 -0.42007857626E+01  0.43047349034E+03  0.43756124032E+03  0.25500000920E-02 0. -1.
</event>
<event>
 5   0  0.9040674E-03  0.1014185E+04  0.7818609E-02  0.9293122E-01
       -2   -1    0    0    0  501  0.00000000000E+00  0.00000000000E+00  0.10483679247E+04  0.10483679247E+04  0.25500000920E-02 0. -1.
        2   -1    0    0  501    0  0.00000000000E+00  0.00000000000E+00 -0.24527918052E+03  0.24527918054E+03  0.25500000920E-02 0.  1.
    10030    2    1    2    0    0  0.00000000000E+00  0.00000000000E+00  0.80308874416E+03  0.12936471052E+04  0.10141850432E+04 0.  0.
        1    1    3    3  502    0 -0.63776176879E+02 -0.77027611690E+02  0.10356652452E+04  0.10404821737E+04  0.50400001928E-02 0. -1.
       -1    1    3    3    0  502  0.63776176879E+02  0.77027611690E+02 -0.23257650102E+03  0.25316493152E+03  0.50400001928E-02 0.  1.
</event>
<event>
 5   0  0.8907355E-03  0.9837202E+03  0.7818609E-02  0.9326583E-01
        2   -1    0    0  501    0  0.00000000000E+00  0.00000000000E+00  0.68397439207E+03  0.68397439208E+03  0.25500000920E-02 0. -1.
       -2   -1    0    0    0  501  0.00000000000E+00  0.00000000000E+00 -0.35370672611E+03  0.35370672612E+03  0.25500000920E-02 0.  1.
    10030    2    1    2    0    0  0.00000000000E+00  0.00000000000E+00  0.33026766596E+03  0.10376811182E+04  0.98372016950E+03 0.  0.
        5    1    3    3  502    0 -0.88482475460E+02  0.26828747188E+03 -0.25956370419E+03  0.38367006993E+03  0.46999998093E+01 0.  1.
       -5    1    3    3    0  502  0.88482475460E+02 -0.26828747188E+03  0.58983137015E+03  0.65401104826E+03  0.46999998093E+01 0. -1.
</event>
<event>
 5   0  0.8968798E-03  0.1023409E+04  0.7818609E-02  0.9283237E-01
       -2   -1    0    0    0  501  0.00000000000E+00  0.00000000000E+00  0.14273145749E+03  0.14273145751E+03  0.25500000920E-02 0.  1.
        2   -1    0    0  501    0  0.00000000000E+00  0.00000000000E+00 -0.18345028645E+04  0.18345028645E+04  0.25500000920E-02 0. -1.
    10030    2    1    2    0    0  0.00000000000E+00  0.00000000000E+00 -0.16917714070E+04  0.19772343220E+04  0.10234085551E+04 0.  0.
        2    1    3    3  502    0 -0.12677723170E+03 -0.42269151061E+03 -0.13463494055E+04  0.14168264895E+04  0.25500000920E-02 0. -1.
       -2    1    3    3    0  502  0.12677723170E+03  0.42269151061E+03 -0.34542200150E+03  0.56040783252E+03  0.25500000920E-02 0.  1.
</event>
<event>
 5   0  0.5189877E-03  0.1001820E+04  0.7818609E-02  0.9306551E-01
        1   -1    0    0  501    0  0.00000000000E+00  0.00000000000E+00  0.45540202788E+03  0.45540202791E+03  0.50400001928E-02 0.  1.
       -1   -1    0    0    0  501  0.00000000000E+00  0.00000000000E+00 -0.55096519756E+03  0.55096519759E+03  0.50400001928E-02 0. -1.
    10030    2    1    2    0    0  0.00000000000E+00  0.00000000000E+00 -0.95563169678E+02  0.10063672255E+04  0.10018196810E+04 0.  0.
        3    1    3    3  502    0  0.85355501973E+02  0.18061952622E+03  0.41365272703E+03  0.45936648087E+03  0.10100000352E+00 0.  1.
       -3    1    3    3    0  502 -0.85355501973E+02 -0.18061952622E+03 -0.50921589670E+03  0.54700074463E+03  0.10100000352E+00 0. -1.
</event>
<event>
 5   0  0.5310275E-03  0.9874791E+03  0.7818609E-02  0.9322385E-01
        1   -1    0    0  501    0  0.00000000000E+00  0.00000000000E+00  0.96124817517E+03  0.96124817518E+03  0.50400001928E-02 0. -1.
       -1   -1    0    0    0  501  0.00000000000E+00  0.00000000000E+00 -0.25360645104E+03  0.25360645109E+03  0.50400001928E-02 0.  1.
    10030    2    1    2    0    0  0.00000000000E+00  0.00000000000E+00  0.70764172413E+03  0.12148546263E+04  0.98747909003E+03 0.  0.
        1    1    3    3  502    0 -0.13296690936E+03 -0.23473741857E+03  0.86255455498E+03  0.90376004283E+03  0.50400001928E-02 0. -1.
       -1    1    3    3    0  502  0.13296690936E+03  0.23473741857E+03 -0.15491283085E+03  0.31109458344E+03  0.50400001928E-02 0.  1.
</event>
<event>
 5   0  0.8968798E-03  0.1017504E+04  0.7818609E-02  0.9289552E-01
       -2   -1    0    0    0  501  0.00000000000E+00  0.00000000000E+00  0.23520299936E+03  0.23520299938E+03  0.25500000920E-02 0. -1.
        2   -1    0    0  501    0  0.00000000000E+00  0.00000000000E+00 -0.11004475397E+04  0.11004475397E+04  0.25500000920E-02 0.  1.
    10030    2    1    2    0    0  0.00000000000E+00  0.00000000000E+00 -0.86524454031E+03  0.13356505390E+04  0.10175039302E+04 0.  0.
        2    1    3    3  502    0  0.31075933830E+01  0.45583091284E+03 -0.13607107834E+03  0.47571716030E+03  0.25500000920E-02 0. -1.
       -2    1    3    3    0  502 -0.31075933830E+01 -0.45583091284E+03 -0.72917346197E+03  0.85993337875E+03  0.25500000920E-02 0.  1.
</event>
<event>
 5   0  0.8907355E-03  0.1005072E+04  0.7818609E-02  0.9303000E-01
        2   -1    0    0  501    0  0.00000000000E+00  0.00000000000E+00  0.23545758639E+03  0.23545758640E+03  0.25500000920E-02 0. -1.
       -2   -1    0    0    0  501  0.00000000000E+00  0.00000000000E+00 -0.10725596333E+04  0.10725596333E+04  0.25500000920E-02 0.  1.
    10030    2    1    2    0    0  0.00000000000E+00  0.00000000000E+00 -0.83710204695E+03  0.13080172197E+04  0.10050717438E+04 0.  0.
        5    1    3    3  502    0 -0.29970350128E+00  0.28107565372E+02 -0.10715070900E+04  0.10718860289E+04  0.46999998093E+01 0.  1.
       -5    1    3    3    0  502  0.29970350128E+00 -0.28107565372E+02  0.23440504308E+03  0.23613119081E+03  0.46999998093E+01 0. -1.
</event>
<event>
 5   0  0.8907355E-03  0.9927720E+03  0.7818609E-02  0.9316508E-01
       -2   -1    0    0    0  501  0.00000000000E+00  0.00000000000E+00  0.34578878761E+03  0.34578878762E+03  0.25500000920E-02 0. -1.
        2   -1    0    0  501    0  0.00000000000E+00  0.00000000000E+00 -0.71257093018E+03  0.71257093018E+03  0.25500000920E-02 0.  1.
    10030    2    1    2    0    0  0.00000000000E+00  0.00000000000E+00 -0.36678214257E+03  0.10583597178E+04  0.99277195375E+03 0.  0.
        5    1    3    3  502    0 -0.31425713311E+03 -0.29670698905E+03 -0.44361663607E+03  0.61936289270E+03  0.46999998093E+01 0.  1.
       -5    1    3    3    0  502  0.31425713311E+03  0.29670698905E+03  0.76834493494E+02  0.43899682510E+03  0.46999998093E+01 0. -1.
</event>
<event>
 5   0  0.5349685E-03  0.1008639E+04  0.7818609E-02  0.9299121E-01
       -1   -1    0    0    0  501  0.00000000000E+00  0.00000000000E+00  0.32604701648E+03  0.32604701652E+03  0.50400001928E-02 0.  1.
        1   -1    0    0  501    0  0.00000000000E+00  0.00000000000E+00 -0.78006526771E+03  0.78006526772E+03  0.50400001928E-02 0. -1.
    10030    2    1    2    0    0  0.00000000000E+00  0.00000000000E+00 -0.45401825123E+03  0.11061122842E+04  0.10086385938E+04 0.  0.
        4    1    3    3  502    0  0.44673024336E+03 -0.15652302772E+03 -0.41780213936E+03  0.63136962953E+03  0.12699999809E+01 0. -1.
       -4    1    3    3    0  502 -0.44673024336E+03  0.15652302772E+03 -0.36216111864E+02  0.47474265471E+03  0.12699999809E+01 0.  1.
</event>
<event>
 5   0  0.5072205E-03  0.1039831E+04  0.7818609E-02  0.9265906E-01
       -1   -1    0    0    0  501  0.00000000000E+00  0.00000000000E+00  0.78274572783E+03  0.78274572785E+03  0.50400001928E-02 0.  1.
        1   -1    0    0  501    0  0.00000000000E+00  0.00000000000E+00 -0.34533858495E+03  0.34533858499E+03  0.50400001928E-02 0. -1.
    10030    2    1    2    0    0  0.00000000000E+00  0.00000000000E+00  0.43740714288E+03  0.11280843128E+04  0.10398313364E+04 0.  0.
        5    1    3    3  502    0  0.30805453986E+03  0.56778298464E+02 -0.23144505789E+03  0.38950003790E+03  0.46999998093E+01 0. -1.
       -5    1    3    3    0  502 -0.30805453986E+03 -0.56778298464E+02  0.66885220077E+03  0.73858427493E+03  0.46999998093E+01 0.  1.
</event>
<event>
 5   0  0.9040674E-03  0.9993265E+03  0.7818609E-02  0.9309284E-01
        2   -1    0    0  501    0  0.00000000000E+00  0.00000000000E+00  0.12892549511E+04  0.12892549511E+04  0.25500000920E-02 0.  1.
       -2   -1    0    0    0  501  0.00000000000E+00  0.00000000000E+00 -0.19364933345E+03  0.19364933347E+03  0.25500000920E-02 0. -1.
    10030    2    1    2    0    0  0.00000000000E+00  0.00000000000E+00  0.10956056177E+04  0.14829042846E+04  0.99932649708E+03 0.  0.
        1    1    3    3  502    0  0.16938395231E+03  0.71624785069E+02 -0.14160155194E+03  0.23210349561E+03  0.50400001928E-02 0. -1.
       -1    1    3    3    0  502 -0.16938395231E+03 -0.71624785069E+02  0.12372071696E+04  0.12508007890E+04  0.50400001928E-02 0.  1.
</event>
<event>
 5   0  0.8875655E-03  0.1024885E+04  0.7818609E-02  0.9281665E-01
        2   -1    0    0  501    0  0.00000000000E+00  0.00000000000E+00  0.41565715287E+03  0.41565715288E+03  0.25500000920E-02 0.  1.
       -2   -1    0    0    0  501  0.00000000000E+00  0.00000000000E+00 -0.63176375060E+03  0.63176375061E+03  0.25500000920E-02 0. -1.
    10030    2    1    2    0    0  0.00000000000E+00  0.00000000000E+00 -0.21610659773E+03  0.10474209035E+04  0.10248846215E+04 0.  0.
        4    1    3    3  502    0  0.22735708291E+02 -0.17141526801E+03 -0.60104562785E+03  0.62542590784E+03  0.12699999809E+01 0. -1.
       -4    1    3    3    0  502 -0.22735708291E+02  0.17141526801E+03  0.38493903012E+03  0.42199499564E+03  0.12699999809E+01 0.  1.
</event>
<event>
 5   0  0.8968798E-03  0.1001442E+04  0.7818609E-02  0.9306964E-01
        2   -1    0    0  501    0  0.00000000000E+00  0.00000000000E+00  0.98626380495E+03  0.98626380495E+03  0.25500000920E-02 0. -1.
       -2   -1    0    0    0  501  0.00000000000E+00  0.00000000000E+00 -0.25421358928E+03  0.25421358929E+03  0.25500000920E-02 0.  1.
    10030    2    1    2    0    0  0.00000000000E+00  0.00000000000E+00  0.73205021567E+03  0.12404773942E+04  0.10014422836E+04 0.  0.
        2    1    3    3  502    0 -0.10151711167E+03 -0.12048728574E+02  0.97319942950E+03  0.97855404828E+03  0.25500000920E-02 0. -1.
       -2    1    3    3    0  502  0.10151711167E+03  0.12048728574E+02 -0.24114921383E+03  0.26192334596E+03  0.25500000920E-02 0.  1.
</event>
<event>
 5   0  0.8968798E-03  0.1001794E+04  0.7818609E-02  0.9306579E-01
       -2   -1    0    0    0  501  0.00000000000E+00  0.00000000000E+00  0.35512523108E+03  0.35512523109E+03  0.25500000920E-02 0.  1.
        2   -1    0    0  501    0  0.00000000000E+00  0.00000000000E+00 -0.70650538874E+03  0.70650538875E+03  0.25500000920E-02 0. -1.
    10030    2    1    2    0    0  0.00000000000E+00  0.00000000000E+00 -0.35138015766E+03  0.10616306198E+04  0.10017941694E+04 0.  0.
        2    1    3    3  502    0  0.11611863682E+03  0.48108320648E+02 -0.68952213699E+03  0.70088424560E+03  0.25500000920E-02 0. -1.
       -2    1    3    3    0  502 -0.11611863682E+03 -0.48108320648E+02  0.33814197932E+03  0.36074637423E+03  0.25500000920E-02 0.  1.
</event>
<event>
 5   0  0.3513625E-03  0.1071747E+04  0.7818609E-02  0.9233176E-01
        4   -1    0    0  501    0  0.00000000000E+00  0.00000000000E+00  0.35639677253E+03  0.35639903531E+03  0.12699999809E+01 0. -1.
       -4   -1    0    0    0  501  0.00000000000E+00  0.00000000000E+00 -0.80572636418E+03  0.80572736507E+03  0.12699999809E+01 0.  1.
    10030    2    1    2    0    0  0.00000000000E+00  0.00000000000E+00 -0.44932959165E+03  0.11621264004E+04  0.10717465598E+04 0.  0.
        1    1    3    3  502    0  0.34010388305E+02  0.23774002960E+03  0.29477672894E+03  0.38022407621E+03  0.50400001928E-02 0. -1.
       -1    1    3    3    0  502 -0.34010388305E+02 -0.23774002960E+03 -0.74410632058E+03  0.78190232417E+03  0.50400001928E-02 0.  1.
</event>
<event>
 5   0  0.5310275E-03  0.9840757E+03  0.7818609E-02  0.9326185E-01
        1   -1    0    0  501    0  0.00000000000E+00  0.00000000000E+00  0.55664057708E+03  0.55664057711E+03  0.50400001928E-02 0. -1.
       -1   -1    0    0    0  501  0.00000000000E+00  0.00000000000E+00 -0.43493278436E+03  0.43493278439E+03  0.50400001928E-02 0.  1.
    10030    2    1    2    0    0  0.00000000000E+00  0.00000000000E+00  0.12170779272E+03  0.99157336150E+03  0.98407568023E+03 0.  0.
        1    1    3    3  502    0 -0.36285718736E+03  0.33095022177E+03  0.91213983325E+02  0.49951314146E+03  0.50400001928E-02 0.  1.
       -1    1    3    3    0  502  0.36285718736E+03 -0.33095022177E+03  0.30493809400E+02  0.49206022004E+03  0.50400001928E-02 0. -1.
</event>
<event>
 5   0  0.8907355E-03  0.9967090E+03  0.7818609E-02  0.9312162E-01
       -2   -1    0    0    0  501  0.00000000000E+00  0.00000000000E+00  0.24533906723E+03  0.24533906725E+03  0.25500000920E-02 0. -1.
        2   -1    0    0  501    0  0.00000000000E+00  0.00000000000E+00 -0.10123019627E+04  0.10123019627E+04  0.25500000920E-02 0.  1.
    10030    2    1    2    0    0  0.00000000000E+00  0.00000000000E+00 -0.76696289543E+03  0.12576410299E+04  0.99670902332E+03 0.  0.
        5    1    3    3  502    0  0.25001040501E+03  0.42887227430E+03 -0.43846002478E+03  0.66234878547E+03  0.46999998093E+01 0.  1.
       -5    1    3    3    0  502 -0.25001040501E+03 -0.42887227430E+03 -0.32850287065E+03  0.59529224445E+03  0.46999998093E+01 0. -1.
</event>
<event>
 5   0  0.9040674E-03  0.1033831E+04  0.7818609E-02  0.9272199E-01
       -2   -1    0    0    0  501  0.00000000000E+00  0.00000000000E+00  0.44775007011E+03  0.44775007012E+03  0.25500000920E-02 0.  1.
        2   -1    0    0  501    0  0.00000000000E+00  0.00000000000E+00 -0.59676456521E+03  0.59676456522E+03  0.25500000920E-02 0. -1.
    10030    2    1    2    0    0  0.00000000000E+00  0.00000000000E+00 -0.14901449510E+03  0.10445146353E+04  0.10338305005E+04 0.  0.
        1    1    3    3  502    0  0.14234922487E+02 -0.42767687118E+03  0.21847449563E+03  0.48045940976E+03  0.50400001928E-02 0.  1.
       -1    1    3    3    0  502 -0.14234922487E+02  0.42767687118E+03 -0.36748899073E+03  0.56405522557E+03  0.50400001928E-02 0. -1.
</event>
<event>
 5   0  0.5349685E-03  0.9944698E+03  0.7818609E-02  0.9314631E-01
        1   -1    0    0  501    0  0.00000000000E+00  0.00000000000E+00  0.20872820967E+03  0.20872820973E+03  0.50400001928E-02 0.  1.
       -1   -1    0    0    0  501  0.00000000000E+00  0.00000000000E+00 -0.11845191509E+04  0.11845191509E+04  0.50400001928E-02 0. -1.
    10030    2    1    2    0    0  0.00000000000E+00  0.00000000000E+00 -0.97579094126E+03  0.13932473607E+04  0.99446983210E+03 0.  0.
        4    1    3    3  502    0  0.20454881221E+03 -0.44741713571E+03 -0.58910356352E+03  0.76750695851E+03  0.12699999809E+01 0.  1.
       -4    1    3    3    0  502 -0.20454881221E+03  0.44741713571E+03 -0.38668737774E+03  0.62574040216E+03  0.12699999809E+01 0. -1.
</event>
<event>
 5   0  0.5189877E-03  0.9949755E+03  0.7818609E-02  0.9314073E-01
        1   -1    0    0  501    0  0.00000000000E+00  0.00000000000E+00  0.68052389756E+03  0.68052389758E+03  0.50400001928E-02 0. -1.
       -1   -1    0    0    0  501  0.00000000000E+00  0.00000000000E+00 -0.36368166310E+03  0.36368166313E+03  0.50400001928E-02 0.  1.
    10030    2    1    2    0    0  0.00000000000E+00  0.00000000000E+00  0.31684223447E+03  0.10442055607E+04  0.99497550296E+03 0.  0.
        3    1    3    3  502    0  0.21824134103E+03  0.44238479574E+03  0.90728016813E+02  0.50156273154E+03  0.10100000352E+00 0. -1.
       -3    1    3    3    0  502 -0.21824134103E+03 -0.44238479574E+03  0.22611421765E+03  0.54264282918E+03  0.10100000352E+00 0.  1.
</event>
<event>
 5   0  0.8907355E-03  0.1061725E+04  0.7818609E-02  0.9243321E-01
        2   -1    0    0  501    0  0.00000000000E+00  0.00000000000E+00  0.10622661631E+04  0.10622661631E+04  0.25500000920E-02 0. -1.
       -2   -1    0    0    0  501  0.00000000000E+00  0.00000000000E+00 -0.26529616469E+03  0.26529616471E+03  0.25500000920E-02 0.  1.
    10030    2    1    2    0    0  0.00000000000E+00  0.00000000000E+00  0.79696999837E+03  0.13275623278E+04  0.10617252732E+04 0.  0.
        5    1    3    3  502    0 -0.50074920568E+02  0.23600329788E+03 -0.19275935269E+03  0.30884188888E+03  0.46999998093E+01 0.  1.
       -5    1    3    3    0  502  0.50074920568E+02 -0.23600329788E+03  0.98972935105E+03  0.10187204389E+04  0.46999998093E+01 0. -1.
</event>
<event>
 5   0  0.8907355E-03  0.1010650E+04  0.7818609E-02  0.9296941E-01
        2   -1    0    0  501    0  0.00000000000E+00  0.00000000000E+00  0.47112137517E+03  0.47112137517E+03  0.25500000920E-02 0. -1.
       -2   -1    0    0    0  501  0.00000000000E+00  0.00000000000E+00 -0.54201174566E+03  0.54201174566E+03  0.25500000920E-02 0.  1.
    10030    2    1    2    0    0  0.00000000000E+00  0.00000000000E+00 -0.70890370490E+02  0.10131331208E+04  0.10106499275E+04 0.  0.
        5    1    3    3  502    0 -0.23641126519E+03 -0.26362749466E+03  0.32591448387E+03  0.48128170861E+03  0.46999998093E+01 0. -1.
       -5    1    3    3    0  502  0.23641126519E+03  0.26362749466E+03 -0.39680485436E+03  0.53185141223E+03  0.46999998093E+01 0.  1.
</event>
<event>
 5   0  0.8968798E-03  0.9895915E+03  0.7818609E-02  0.9320035E-01
        2   -1    0    0  501    0  0.00000000000E+00  0.00000000000E+00  0.13701393503E+04  0.13701393503E+04  0.25500000920E-02 0.  1.
       -2   -1    0    0    0  501  0.00000000000E+00  0.00000000000E+00 -0.17868462592E+03  0.17868462594E+03  0.25500000920E-02 0. -1.
    10030    2    1    2    0    0  0.00000000000E+00  0.00000000000E+00  0.11914547244E+04  0.15488239763E+04  0.98959150620E+03 0.  0.
        2    1    3    3  502    0 -0.62020713683E+02 -0.47962997326E+03  0.43208974573E+03  0.64853143990E+03  0.25500000920E-02 0.  1.
       -2    1    3    3    0  502  0.62020713683E+02  0.47962997326E+03  0.75936497869E+03  0.90029253637E+03  0.25500000920E-02 0. -1.
</event>
<event>
 5   0  0.8875655E-03  0.1022646E+04  0.7818609E-02  0.9284050E-01
       -2   -1    0    0    0  501  0.00000000000E+00  0.00000000000E+00  0.34613536935E+03  0.34613536936E+03  0.25500000920E-02 0. -1.
        2   -1    0    0  501    0  0.00000000000E+00  0.00000000000E+00 -0.75534374797E+03  0.75534374797E+03  0.25500000920E-02 0.  1.
    10030    2    1    2    0    0  0.00000000000E+00  0.00000000000E+00 -0.40920837862E+03  0.11014791173E+04  0.10226459548E+04 0.  0.
        4    1    3    3  502    0 -0.49195018005E+02  0.38450776085E+03  0.15454141905E+03  0.41731406764E+03  0.12699999809E+01 0. -1.
       -4    1    3    3    0  502  0.49195018005E+02 -0.38450776085E+03 -0.56374979767E+03  0.68416504969E+03  0.12699999809E+01 0.  1.
</event>
<event>
 5   0  0.5310275E-03  0.1260577E+04  0.7818609E-02  0.9061426E-01
        1   -1    0    0  501    0  0.00000000000E+00  0.00000000000E+00  0.77934183811E+03  0.77934183813E+03  0.50400001928E-02 0. -1.
       -1   -1    0    0    0  501  0.00000000000E+00  0.00000000000E+00 -0.50974221774E+03  0.50974221777E+03  0.50400001928E-02 0.  1.
    10030    2    1    2    0    0  0.00000000000E+00  0.00000000000E+00  0.26959962037E+03  0.12890840559E+04  0.12605767521E+04 0.  0.
        1    1    3    3  502    0 -0.13626593381E+03 -0.60056541329E+03  0.27205972986E+03  0.67324862941E+03  0.50400001928E-02 0. -1.
       -1    1    3    3    0  502  0.13626593381E+03  0.60056541329E+03 -0.24601094906E+01  0.61583542649E+03  0.50400001928E-02 0.  1.
</event>
<event>
 5   0  0.5310275E-03  0.9802020E+03  0.7818609E-02  0.9330529E-01
        1   -1    0    0  501    0  0.00000000000E+00  0.00000000000E+00  0.43371072649E+03  0.43371072652E+03  0.50400001928E-02 0. -1.
       -1   -1    0    0    0  501  0.00000000000E+00  0.00000000000E+00 -0.55382308308E+03  0.55382308310E+03  0.50400001928E-02 0.  1.
    10030    2    1    2    0    0  0.00000000000E+00  0.00000000000E+00 -0.12011235659E+03  0.98753380963E+03  0.98020204394E+03 0.  0.
        1    1    3    3  502    0  0.46997936905E+02 -0.23841500555E+03 -0.48885514436E+03  0.54592112355E+03  0.50400001928E-02 0.  1.
       -1    1    3    3    0  502 -0.46997936905E+02  0.23841500555E+03  0.36874278777E+03  0.44161268608E+03  0.50400001928E-02 0. -1.
</event>
<event>
 5   0  0.5189877E-03  0.1000205E+04  0.7818609E-02  0.9308321E-01
        1   -1    0    0  501    0  0.00000000000E+00  0.00000000000E+00  0.18912010918E+03  0.18912010924E+03  0.50400001928E-02 0.  1.
       -1   -1    0    0    0  501  0.00000000000E+00  0.00000000000E+00 -0.13224519899E+04  0.13224519899E+04  0.50400001928E-02 0. -1.
    10030    2    1    2    0    0  0.00000000000E+00  0.00000000000E+00 -0.11333318807E+04  0.15115720991E+04  0.10002045086E+04 0.  0.
        3    1    3    3  502    0 -0.41187429247E+03  0.28073877715E+03 -0.62800834274E+03  0.80177876159E+03  0.10100000352E+00 0.  1.
       -3    1    3    3    0  502  0.41187429247E+03 -0.28073877715E+03 -0.50532353795E+03  0.70979333753E+03  0.10100000352E+00 0. -1.
</event>
<event>
 5   0  0.9040674E-03  0.1002202E+04  0.7818609E-02  0.9306133E-01
        2   -1    0    0  501    0  0.00000000000E+00  0.00000000000E+00  0.50345124323E+03  0.50345124324E+03  0.25500000920E-02 0.  1.
       -2   -1    0    0    0  501  0.00000000000E+00  0.00000000000E+00 -0.49876146745E+03  0.49876146745E+03  0.25500000920E-02 0. -1.
    10030    2    1    2    0    0  0.00000000000E+00  0.00000000000E+00  0.46897757841E+01  0.10022127107E+04  0.10022017379E+04 0.  0.
        1    1    3    3  502    0 -0.11695253665E+03 -0.45146688916E+03  0.18565492254E+03  0.50196414028E+03  0.50400001928E-02 0.  1.
       -1    1    3    3    0  502  0.11695253665E+03  0.45146688916E+03 -0.18096514675E+03  0.50024857041E+03  0.50400001928E-02 0. -1.
</event>
<event>
 5   0  0.3513625E-03  0.1019178E+04  0.7818609E-02  0.9287757E-01
       -3   -1    0    0    0  501  0.00000000000E+00  0.00000000000E+00  0.17125113300E+04  0.17125113330E+04  0.10100000352E+00 0.  1.
        3   -1    0    0  501    0  0.00000000000E+00  0.00000000000E+00 -0.15163751761E+03  0.15163755125E+03  0.10100000352E+00 0. -1.
    10030    2    1    2    0    0  0.00000000000E+00  0.00000000000E+00  0.15608738124E+04  0.18641488842E+04  0.10191781024E+04 0.  0.
        2    1    3    3  502    0 -0.98872923600E+02 -0.29280950263E+03  0.15215328267E+04  0.15526027833E+04  0.25500000920E-02 0.  1.
       -2    1    3    3    0  502  0.98872923600E+02  0.29280950263E+03  0.39340985664E+02  0.31154610094E+03  0.25500000920E-02 0. -1.
</event>
<event>
 5   0  0.8875655E-03  0.9910300E+03  0.7818609E-02  0.9318438E-01
        2   -1    0    0  501    0  0.00000000000E+00  0.00000000000E+00  0.21634591309E+04  0.21634591309E+04  0.25500000920E-02 0. -1.
       -2   -1    0    0    0  501  0.00000000000E+00  0.00000000000E+00 -0.11349191497E+03  0.11349191500E+03  0.25500000920E-02 0.  1.
    10030    2    1    2    0    0  0.00000000000E+00  0.00000000000E+00  0.20499672159E+04  0.22769510459E+04  0.99103000917E+03 0.  0.
        4    1    3    3  502    0  0.22854377763E+03  0.21342589980E+03  0.19081276926E+04  0.19335810759E+04  0.12699999809E+01 0. -1.
       -4    1    3    3    0  502 -0.22854377763E+03 -0.21342589980E+03  0.14183952331E+03  0.34336996996E+03  0.12699999809E+01 0.  1.
</event>
<event>
 5   0  0.5349685E-03  0.1000134E+04  0.7818609E-02  0.9308397E-01
       -1   -1    0    0    0  501  0.00000000000E+00  0.00000000000E+00  0.66261000058E+03  0.66261000060E+03  0.50400001928E-02 0. -1.
        1   -1    0    0  501    0  0.00000000000E+00  0.00000000000E+00 -0.37739729537E+03  0.37739729541E+03  0.50400001928E-02 0.  1.
    10030    2    1    2    0    0  0.00000000000E+00  0.00000000000E+00  0.28521270521E+03  0.10400072960E+04  0.10001344352E+04 0.  0.
        4    1    3    3  502    0 -0.58185045807E+02 -0.49072765138E+03  0.62959820435E+02  0.49816129845E+03  0.12699999809E+01 0.  1.
       -4    1    3    3    0  502  0.58185045807E+02  0.49072765138E+03  0.22225288477E+03  0.54184599756E+03  0.12699999809E+01 0. -1.
</event>
<event>
 5   0  0.5072205E-03  0.1045940E+04  0.7818609E-02  0.9259546E-01
       -1   -1    0    0    0  501  0.00000000000E+00  0.00000000000E+00  0.41994534122E+03  0.41994534125E+03  0.50400001928E-02 0.  1.
        1   -1    0    0  501    0  0.00000000000E+00  0.00000000000E+00 -0.65126925656E+03  0.65126925658E+03  0.50400001928E-02 0. -1.
    10030    2    1    2    0    0  0.00000000000E+00  0.00000000000E+00 -0.23132391533E+03  0.10712145978E+04  0.10459397501E+04 0.  0.
        5    1    3    3  502    0  0.25503421023E+03 -0.83750554791E+02  0.34398015510E+03  0.43634967734E+03  0.46999998093E+01 0.  1.
       -5    1    3    3    0  502 -0.25503421023E+03  0.83750554791E+02 -0.57530407043E+03  0.63486492049E+03  0.46999998093E+01 0. -1.
</event>
<event>
 5   0  0.9040674E-03  0.1017508E+04  0.7818609E-02  0.9289548E-01
       -2   -1    0    0    0  501  0.00000000000E+00  0.00000000000E+00  0.58066106381E+03  0.58066106382E+03  0.25500000920E-02 0. -1.
        2   -1    0    0  501    0  0.00000000000E+00  0.00000000000E+00 -0.44575181859E+03  0.44575181859E+03  0.25500000920E-02 0.  1.
    10030    2    1    2    0    0  0.00000000000E+00  0.00000000000E+00  0.13490924523E+03  0.10264128824E+04  0.10175081821E+04 0.  0.
        1    1    3    3  502    0  0.83864425206E+02  0.16534832140E+03  0.54537017474E+03  0.57602251408E+03  0.50400001928E-02 0. -1.
       -1    1    3    3    0  502 -0.83864425206E+02 -0.16534832140E+03 -0.41046092951E+03  0.45039036833E+03  0.50400001928E-02 0.  1.
</event>
<event>
 5   0  0.5189877E-03  0.1078575E+04  0.7818609E-02  0.9226329E-01
        1   -1    0    0  501    0  0.00000000000E+00  0.00000000000E+00  0.15605247807E+04  0.15605247807E+04  0.50400001928E-02 0. -1.
       -1   -1    0    0    0  501  0.00000000000E+00  0.00000000000E+00 -0.18636753531E+03  0.18636753538E+03  0.50400001928E-02 0.  1.
    10030    2    1    2    0    0  0.00000000000E+00  0.00000000000E+00  0.13741572454E+04  0.17468923161E+04  0.10785752774E+04 0.  0.
        3    1    3    3  502    0  0.47929409478E+03  0.82698776634E+02  0.30977367234E+03  0.57664690689E+03  0.10100000352E+00 0.  1.
       -3    1    3    3    0  502 -0.47929409478E+03 -0.82698776634E+02  0.10643835730E+04  0.11702454092E+04  0.10100000352E+00 0. -1.
</event>
<event>
 5   0  0.8968798E-03  0.9999638E+03  0.7818609E-02  0.9308585E-01
        2   -1    0    0  501    0  0.00000000000E+00  0.00000000000E+00  0.21815385349E+03  0.21815385351E+03  0.25500000920E-02 0. -1.
       -2   -1    0    0    0  501  0.00000000000E+00  0.00000000000E+00 -0.11458971943E+04  0.11458971943E+04  0.25500000920E-02 0.  1.
    10030    2    1    2    0    0  0.00000000000E+00  0.00000000000E+00 -0.92774334077E+03  0.13640510478E+04  0.99996377664E+03 0.  0.
        2    1    3    3  502    0 -0.42740985639E+03 -0.20919508041E+03 -0.67316274444E+03  0.82437239614E+03  0.25500000920E-02 0. -1.
       -2    1    3    3    0  502  0.42740985639E+03  0.20919508041E+03 -0.25458059633E+03  0.53967865164E+03  0.25500000920E-02 0.  1.
</event>
<event>
 5   0  0.8968798E-03  0.1005785E+04  0.7818609E-02  0.9302223E-01
       -2   -1    0    0    0  501  0.00000000000E+00  0.00000000000E+00  0.52995454728E+03  0.52995454729E+03  0.25500000920E-02 0.  1.
        2   -1    0    0  501    0  0.00000000000E+00  0.00000000000E+00 -0.47721225774E+03  0.47721225775E+03  0.25500000920E-02 0. -1.
    10030    2    1    2    0    0  0.00000000000E+00  0.00000000000E+00  0.52742289538E+02  0.10071668050E+04  0.10057848796E+04 0.  0.
        2    1    3    3  502    0 -0.24774257818E+02  0.49759229444E+03  0.94941142172E+02  0.50717420658E+03  0.25500000920E-02 0.  1.
       -2    1    3    3    0  502  0.24774257818E+02 -0.49759229444E+03 -0.42198852634E+02  0.49999259846E+03  0.25500000920E-02 0. -1.
</event>
<event>
 5   0  0.8875655E-03  0.1045525E+04  0.7818609E-02  0.9259977E-01
        2   -1    0    0  501    0  0.00000000000E+00  0.00000000000E+00  0.10636284119E+04  0.10636284119E+04  0.25500000920E-02 0.  1.
       -2   -1    0    0    0  501  0.00000000000E+00  0.00000000000E+00 -0.25693233078E+03  0.25693233079E+03  0.25500000920E-02 0. -1.
    10030    2    1    2    0    0  0.00000000000E+00  0.00000000000E+00  0.80669608114E+03  0.13205607427E+04  0.10455248002E+04 0.  0.
        4    1    3    3  502    0  0.13728917424E+03  0.28215664501E+02  0.10394521248E+04  0.10488597493E+04  0.12699999809E+01 0.  1.
       -4    1    3    3    0  502 -0.13728917424E+03 -0.28215664501E+02 -0.23275604363E+03  0.27170099343E+03  0.12699999809E+01 0. -1.
</event>
<event>
 5   0  0.9243773E-03  0.1008942E+04  0.7818609E-02  0.9298791E-01
        2   -1    0    0  501    0  0.00000000000E+00  0.00000000000E+00  0.39600968996E+03  0.39600968997E+03  0.25500000920E-02 0.  1.
       -2   -1    0    0    0  501  0.00000000000E+00  0.00000000000E+00 -0.64263882370E+03  0.64263882370E+03  0.25500000920E-02 0. -1.
    10030    2    1    2    0    0  0.00000000000E+00  0.00000000000E+00 -0.24662913374E+03  0.10386485137E+04  0.10089424192E+04 0.  0.
        3    1    3    3  502    0  0.20684367034E+03  0.36685398134E+03  0.16257607092E+03  0.45143896223E+03  0.10100000352E+00 0.  1.
       -3    1    3    3    0  502 -0.20684367034E+03 -0.36685398134E+03 -0.40920520466E+03  0.58720955144E+03  0.10100000352E+00 0. -1.
</event>
<event>
 5   0  0.9040674E-03  0.1008275E+04  0.7818609E-02  0.9299516E-01
        2   -1    0    0  501    0  0.00000000000E+00  0.00000000000E+00  0.79650523786E+03  0.79650523787E+03  0.25500000920E-02 0.  1.
       -2   -1    0    0    0  501  0.00000000000E+00  0.00000000000E+00 -0.31908701172E+03  0.31908701173E+03  0.25500000920E-02 0. -1.
    10030    2    1    2    0    0  0.00000000000E+00  0.00000000000E+00  0.47741822615E+03  0.11155922496E+04  0.10082747169E+04 0.  0.
        1    1    3    3  502    0  0.47643698362E+03  0.15382154379E+03  0.30417810559E+03  0.58581361083E+03  0.50400001928E-02 0.  1.
       -1    1    3    3    0  502 -0.47643698362E+03 -0.15382154379E+03  0.17324012056E+03  0.52977863876E+03  0.50400001928E-02 0. -1.
</event>
<event>
 5   0  0.8907355E-03  0.1052577E+04  0.7818609E-02  0.9252688E-01
        2   -1    0    0  501    0  0.00000000000E+00  0.00000000000E+00  0.60984324235E+03  0.60984324235E+03  0.25500000920E-02 0. -1.
       -2   -1    0    0    0  501  0.00000000000E+00  0.00000000000E+00 -0.45418137165E+03  0.45418137166E+03  0.25500000920E-02 0.  1.
    10030    2    1    2    0    0  0.00000000000E+00  0.00000000000E+00  0.15566187070E+03  0.10640246140E+04  0.10525767246E+04 0.  0.
        5    1    3    3  502    0  0.32294680938E+03  0.20175224160E+03  0.44504304529E+03  0.58573373715E+03  0.46999998093E+01 0. -1.
       -5    1    3    3    0  502 -0.32294680938E+03 -0.20175224160E+03 -0.28938117459E+03  0.47829087686E+03  0.46999998093E+01 0.  1.
</event>
<event>
 5   0  0.5349685E-03  0.9289889E+03  0.7818609E-02  0.9390052E-01
        1   -1    0    0  501    0  0.00000000000E+00  0.00000000000E+00  0.87388398805E+03  0.87388398806E+03  0.50400001928E-02 0.  1.
       -1   -1    0    0    0  501  0.00000000000E+00  0.00000000000E+00 -0.24689216138E+03  0.24689216144E+03  0.50400001928E-02 0. -1.
    10030    2    1    2    0    0  0.00000000000E+00  0.00000000000E+00  0.62699182666E+03  0.11207761495E+04  0.92898892705E+03 0.  0.
        4    1    3    3  502    0 -0.20785670799E+03 -0.53886947821E+02  0.81040762508E+03  0.83837363143E+03  0.12699999809E+01 0.  1.
       -4    1    3    3    0  502  0.20785670799E+03  0.53886947821E+02 -0.18341579841E+03  0.28240251807E+03  0.12699999809E+01 0. -1.
</event>
<event>
 5   0  0.5072205E-03  0.9948717E+03  0.7818609E-02  0.9314187E-01
       -1   -1    0    0    0  501  0.00000000000E+00  0.00000000000E+00  0.37082192508E+03  0.37082192511E+03  0.50400001928E-02 0. -1.
        1   -1    0    0  501    0  0.00000000000E+00  0.00000000000E+00 -0.66728098849E+03  0.66728098851E+03  0.50400001928E-02 0.  1.
    10030    2    1    2    0    0  0.00000000000E+00  0.00000000000E+00 -0.29645906341E+03  0.10381029136E+04  0.99487169172E+03 0.  0.
        5    1    3    3  502    0 -0.43131995033E+02  0.32797448451E+03 -0.53584526025E+03  0.62974587288E+03  0.46999998093E+01 0.  1.
       -5    1    3    3    0  502  0.43131995033E+02 -0.32797448451E+03  0.23938619684E+03  0.40835704074E+03  0.46999998093E+01 0. -1.
</event>
<event>
 5   0  0.8875655E-03  0.9970797E+03  0.7818609E-02  0.9311754E-01
       -2   -1    0    0    0  501  0.00000000000E+00  0.00000000000E+00  0.18413480245E+03  0.18413480247E+03  0.25500000920E-02 0.  1.
        2   -1    0    0  501    0  0.00000000000E+00  0.00000000000E+00 -0.13497826776E+04  0.13497826776E+04  0.25500000920E-02 0. -1.
    10030    2    1    2    0    0  0.00000000000E+00  0.00000000000E+00 -0.11656478751E+04  0.15339174801E+04  0.99707966925E+03 0.  0.
        4    1    3    3  502    0  0.25924577588E+03  0.29598525174E+03 -0.11184748580E+03  0.40905637086E+03  0.12699999809E+01 0.  1.
       -4    1    3    3    0  502 -0.25924577588E+03 -0.29598525174E+03 -0.10538003893E+04  0.11248611092E+04  0.12699999809E+01 0. -1.
</event>
<event>
 5   0  0.8968798E-03  0.1022679E+04  0.7818609E-02  0.9284015E-01
       -2   -1    0    0    0  501  0.00000000000E+00  0.00000000000E+00  0.11092840037E+04  0.11092840037E+04  0.25500000920E-02 0.  1.
        2   -1    0    0  501    0  0.00000000000E+00  0.00000000000E+00 -0.23570866749E+03  0.23570866750E+03  0.25500000920E-02 0. -1.
    10030    2    1    2    0    0  0.00000000000E+00  0.00000000000E+00  0.87357533618E+03  0.13449926712E+04  0.10226785504E+04 0.  0.
        2    1    3    3  502    0  0.65924083147E+02  0.49608658060E+03  0.57484868223E+03  0.76216723077E+03  0.25500000920E-02 0.  1.
       -2    1    3    3    0  502 -0.65924083147E+02 -0.49608658060E+03  0.29872665395E+03  0.58282544040E+03  0.25500000920E-02 0. -1.
</event>
<event>
 5   0  0.5072205E-03  0.1006248E+04  0.7818609E-02  0.9301719E-01
        1   -1    0    0  501    0  0.00000000000E+00  0.00000000000E+00  0.39804174169E+03  0.39804174172E+03  0.50400001928E-02 0. -1.
       -1   -1    0    0    0  501  0.00000000000E+00  0.00000000000E+00 -0.63594723369E+03  0.63594723371E+03  0.50400001928E-02 0.  1.
    10030    2    1    2    0    0  0.00000000000E+00  0.00000000000E+00 -0.23790549200E+03  0.10339889754E+04  0.10062475730E+04 0.  0.
        5    1    3    3  502    0  0.14449846885E+03  0.95463194368E+02  0.36642379313E+03  0.40531656165E+03  0.46999998093E+01 0. -1.
       -5    1    3    3    0  502 -0.14449846885E+03 -0.95463194368E+02 -0.60432928513E+03  0.62867241378E+03  0.46999998093E+01 0.  1.
</event>
<event>
 5   0  0.5201968E-03  0.9959320E+03  0.7818609E-02  0.9313018E-01
        1   -1    0    0  501    0  0.00000000000E+00  0.00000000000E+00  0.37400605431E+03  0.37400605435E+03  0.50400001928E-02 0.  1.
       -1   -1    0    0    0  501  0.00000000000E+00  0.00000000000E+00 -0.66301097958E+03  0.66301097960E+03  0.50400001928E-02 0. -1.
    10030    2    1    2    0    0  0.00000000000E+00  0.00000000000E+00 -0.28900492527E+03  0.10370170340E+04  0.99593196649E+03 0.  0.
        2    1    3    3  502    0 -0.10647268590E+03  0.48411009504E+03 -0.19412451022E+03  0.53233762073E+03  0.25500000920E-02 0.  1.
       -2    1    3    3    0  502  0.10647268590E+03 -0.48411009504E+03 -0.94880415054E+02  0.50467941323E+03  0.25500000920E-02 0. -1.
</event>
<event>
 5   0  0.8907355E-03  0.9941459E+03  0.7818609E-02  0.9314989E-01
        2   -1    0    0  501    0  0.00000000000E+00  0.00000000000E+00  0.73836471117E+03  0.73836471117E+03  0.25500000920E-02 0.  1.
       -2   -1    0    0    0  501  0.00000000000E+00  0.00000000000E+00 -0.33463344414E+03  0.33463344415E+03  0.25500000920E-02 0. -1.
    10030    2    1    2    0    0  0.00000000000E+00  0.00000000000E+00  0.40373126702E+03  0.10729981553E+04  0.99414591753E+03 0.  0.
        5    1    3    3  502    0 -0.31453150677E+02  0.16600566391E+03 -0.30266407200E+03  0.34666238852E+03  0.46999998093E+01 0. -1.
       -5    1    3    3    0  502  0.31453150677E+02 -0.16600566391E+03  0.70639533902E+03  0.72633576680E+03  0.46999998093E+01 0.  1.
</event>
<event>
 5   0  0.5201968E-03  0.9998211E+03  0.7818609E-02  0.9308741E-01
        1   -1    0    0  501    0  0.00000000000E+00  0.00000000000E+00  0.83004565647E+03  0.83004565648E+03  0.50400001928E-02 0.  1.
       -1   -1    0    0    0  501  0.00000000000E+00  0.00000000000E+00 -0.30108051827E+03  0.30108051831E+03  0.50400001928E-02 0. -1.
    10030    2    1    2    0    0  0.00000000000E+00  0.00000000000E+00  0.52896513820E+03  0.11311261748E+04  0.99982113694E+03 0.  0.
        2    1    3    3  502    0  0.34367878141E+03 -0.10536678812E+03 -0.12855162916E+03  0.38176273547E+03  0.25500000920E-02 0. -1.
       -2    1    3    3    0  502 -0.34367878141E+03  0.10536678812E+03  0.65751676736E+03  0.74936343932E+03  0.25500000920E-02 0.  1.
</event>
<event>
 5   0  0.5189877E-03  0.8224372E+03  0.7818609E-02  0.9528096E-01
       -1   -1    0    0    0  501  0.00000000000E+00  0.00000000000E+00  0.24794871461E+03  0.24794871466E+03  0.50400001928E-02 0. -1.
        1   -1    0    0  501    0  0.00000000000E+00  0.00000000000E+00 -0.68199883507E+03  0.68199883509E+03  0.50400001928E-02 0.  1.
    10030    2    1    2    0    0  0.00000000000E+00  0.00000000000E+00 -0.43405012046E+03  0.92994754975E+03  0.82243719408E+03 0.  0.
        3    1    3    3  502    0  0.39923764140E+02 -0.14513711105E+03  0.21567662984E+03  0.26301160965E+03  0.10100000352E+00 0. -1.
       -3    1    3    3    0  502 -0.39923764140E+02  0.14513711105E+03 -0.64972675030E+03  0.66693594010E+03  0.10100000352E+00 0.  1.
</event>
<event>
 5   0  0.5310275E-03  0.9840370E+03  0.7818609E-02  0.9326228E-01
        1   -1    0    0  501    0  0.00000000000E+00  0.00000000000E+00  0.40526467177E+03  0.40526467180E+03  0.50400001928E-02 0. -1.
       -1   -1    0    0    0  501  0.00000000000E+00  0.00000000000E+00 -0.59734346367E+03  0.59734346369E+03  0.50400001928E-02 0.  1.
    10030    2    1    2    0    0  0.00000000000E+00  0.00000000000E+00 -0.19207879190E+03  0.10026081355E+04  0.98403699679E+03 0.  0.
        1    1    3    3  502    0  0.41784783763E+02  0.11107945813E+03  0.39046293369E+03  0.40810037586E+03  0.50400001928E-02 0. -1.
       -1    1    3    3    0  502 -0.41784783763E+02 -0.11107945813E+03 -0.58254172559E+03  0.59450775962E+03  0.50400001928E-02 0.  1.
</event>
<event>
 5   0  0.9040674E-03  0.1006870E+04  0.7818609E-02  0.9301042E-01
        2   -1    0    0  501    0  0.00000000000E+00  0.00000000000E+00  0.14403512430E+04  0.14403512430E+04  0.25500000920E-02 0. -1.
       -2   -1    0    0    0  501  0.00000000000E+00  0.00000000000E+00 -0.17596164550E+03  0.17596164552E+03  0.25500000920E-02 0.  1.
    10030    2    1    2    0    0  0.00000000000E+00  0.00000000000E+00  0.12643895975E+04  0.16163128885E+04  0.10068695543E+04 0.  0.
        1    1    3    3  502    0 -0.88982744205E+02 -0.29095139141E+03  0.12760641720E+04  0.13118347503E+04  0.50400001928E-02 0. -1.
       -1    1    3    3    0  502  0.88982744205E+02  0.29095139141E+03 -0.11674574543E+02  0.30447813820E+03  0.50400001928E-02 0.  1.
</event>
<event>
 5   0  0.3513625E-03  0.1005027E+04  0.7818609E-02  0.9303048E-01
        3   -1    0    0  501    0  0.00000000000E+00  0.00000000000E+00  0.22649297699E+03  0.22649299951E+03  0.10100000352E+00 0. -1.
       -3   -1    0    0    0  501  0.00000000000E+00  0.00000000000E+00 -0.11149131914E+04  0.11149131960E+04  0.10100000352E+00 0.  1.
    10030    2    1    2    0    0  0.00000000000E+00  0.00000000000E+00 -0.88842021444E+03  0.13414061955E+04  0.10050274145E+04 0.  0.
        4    1    3    3  502    0  0.59045601300E+02  0.58158775055E+02  0.21730599295E+03  0.23257758624E+03  0.12699999809E+01 0. -1.
       -4    1    3    3    0  502 -0.59045601300E+02 -0.58158775055E+02 -0.11057262074E+04  0.11088286093E+04  0.12699999809E+01 0.  1.
</event>
<event>
 5   0  0.9243773E-03  0.9412528E+03  0.7818609E-02  0.9375434E-01
       -2   -1    0    0    0  501  0.00000000000E+00  0.00000000000E+00  0.19194928136E+03  0.19194928138E+03  0.25500000920E-02 0. -1.
        2   -1    0    0  501    0  0.00000000000E+00  0.00000000000E+00 -0.11538944856E+04  0.11538944856E+04  0.25500000920E-02 0.  1.
    10030    2    1    2    0    0  0.00000000000E+00  0.00000000000E+00 -0.96194520424E+03  0.13458437670E+04  0.94125281893E+03 0.  0.
        3    1    3    3  502    0  0.14501811895E+03  0.33642946190E+03 -0.90337971227E+03  0.97483842374E+03  0.10100000352E+00 0.  1.
       -3    1    3    3    0  502 -0.14501811895E+03 -0.33642946190E+03 -0.58565491969E+02  0.37100534324E+03  0.10100000352E+00 0. -1.
</event>
<event>
 5   0  0.8907355E-03  0.1004285E+04  0.7818609E-02  0.9303858E-01
       -2   -1    0    0    0  501  0.00000000000E+00  0.00000000000E+00  0.20542465285E+03  0.20542465287E+03  0.25500000920E-02 0. -1.
        2   -1    0    0  501    0  0.00000000000E+00  0.00000000000E+00 -0.12274429273E+04  0.12274429273E+04  0.25500000920E-02 0.  1.
    10030    2    1    2    0    0  0.00000000000E+00  0.00000000000E+00 -0.10220182744E+04  0.14328675801E+04  0.10042848943E+04 0.  0.
        5    1    3    3  502    0 -0.38294051405E+03 -0.78184665458E+02 -0.61256353251E+02  0.39563962141E+03  0.46999998093E+01 0. -1.
       -5    1    3    3    0  502  0.38294051405E+03  0.78184665458E+02 -0.96076192115E+03  0.10372279587E+04  0.46999998093E+01 0.  1.
</event>
<event>
 5   0  0.8875655E-03  0.9921447E+03  0.7818609E-02  0.9317202E-01
        2   -1    0    0  501    0  0.00000000000E+00  0.00000000000E+00  0.14308465894E+04  0.14308465894E+04  0.25500000920E-02 0. -1.
       -2   -1    0    0    0  501  0.00000000000E+00  0.00000000000E+00 -0.17198755106E+03  0.17198755107E+03  0.25500000920E-02 0.  1.
    10030    2    1    2    0    0  0.00000000000E+00  0.00000000000E+00  0.12588590383E+04  0.16028341404E+04  0.99214474923E+03 0.  0.
        4    1    3    3  502    0 -0.24687038542E+03  0.12332017801E+03  0.12953967126E+04  0.13244648389E+04  0.12699999809E+01 0. -1.
       -4    1    3    3    0  502  0.24687038542E+03 -0.12332017801E+03 -0.36537674306E+02  0.27836930155E+03  0.12699999809E+01 0.  1.
</event>
<event>
 5   0  0.9040674E-03  0.1042409E+04  0.7818609E-02  0.9263217E-01
       -2   -1    0    0    0  501  0.00000000000E+00  0.00000000000E+00  0.27635962617E+03  0.27635962619E+03  0.25500000920E-02 0. -1.
        2   -1    0    0  501    0  0.00000000000E+00  0.00000000000E+00 -0.98297251559E+03  0.98297251560E+03  0.25500000920E-02 0.  1.
    10030    2    1    2    0    0  0.00000000000E+00  0.00000000000E+00 -0.70661288942E+03  0.12593321418E+04  0.10424085897E+04 0.  0.
        1    1    3    3  502    0 -0.34735971645E+01 -0.50275471232E+03 -0.51930263821E+03  0.72280674922E+03  0.50400001928E-02 0.  1.
       -1    1    3    3    0  502  0.34735971645E+01  0.50275471232E+03 -0.18731025121E+03  0.53652539256E+03  0.50400001928E-02 0. -1.
</event>
<event>
 5   0  0.5201968E-03  0.1013152E+04  0.7818609E-02  0.9294236E-01
        1   -1    0    0  501    0  0.00000000000E+00  0.00000000000E+00  0.56357649146E+03  0.56357649148E+03  0.50400001928E-02 0.  1.
       -1   -1    0    0    0  501  0.00000000000E+00  0.00000000000E+00 -0.45534059034E+03  0.45534059037E+03  0.50400001928E-02 0. -1.
    10030    2    1    2    0    0  0.00000000000E+00  0.00000000000E+00  0.10823590112E+03  0.10189170818E+04  0.10131520169E+04 0.  0.
        2    1    3    3  502    0 -0.12072836683E+02  0.42485468123E+03  0.33131653371E+03  0.53890435057E+03  0.25500000920E-02 0.  1.
       -2    1    3    3    0  502  0.12072836683E+02 -0.42485468123E+03 -0.22308063259E+03  0.48001273128E+03  0.25500000920E-02 0. -1.
</event>
<event>
 5   0  0.5189877E-03  0.9995210E+03  0.7818609E-02  0.9309070E-01
       -1   -1    0    0    0  501  0.00000000000E+00  0.00000000000E+00  0.23291729699E+03  0.23291729704E+03  0.50400001928E-02 0. -1.
        1   -1    0    0  501    0  0.00000000000E+00  0.00000000000E+00 -0.10723143011E+04  0.10723143011E+04  0.50400001928E-02 0.  1.
    10030    2    1    2    0    0  0.00000000000E+00  0.00000000000E+00 -0.83939700413E+03  0.13052315982E+04  0.99952098243E+03 0.  0.
        3    1    3    3  502    0 -0.13652840158E+03 -0.29984153705E+03  0.71025138687E+02  0.33703046198E+03  0.10100000352E+00 0. -1.
       -3    1    3    3    0  502  0.13652840158E+03  0.29984153705E+03 -0.91042214282E+03  0.96820113618E+03  0.10100000352E+00 0.  1.
</event>
<event>
 5   0  0.3513625E-03  0.1020061E+04  0.7818609E-02  0.9286812E-01
       -3   -1    0    0    0  501  0.00000000000E+00  0.00000000000E+00  0.36811260328E+03  0.36811261714E+03  0.10100000352E+00 0. -1.
        3   -1    0    0  501    0  0.00000000000E+00  0.00000000000E+00 -0.70666163678E+03  0.70666164399E+03  0.10100000352E+00 0.  1.
    10030    2    1    2    0    0  0.00000000000E+00  0.00000000000E+00 -0.33854903349E+03  0.10747742611E+04  0.10200609121E+04 0.  0.
        3    1    3    3  502    0  0.14403626791E+03  0.48745695954E+03 -0.12494252083E+03  0.52342275226E+03  0.10100000352E+00 0. -1.
       -3    1    3    3    0  502 -0.14403626791E+03 -0.48745695954E+03 -0.21360651267E+03  0.55135150887E+03  0.10100000352E+00 0.  1.
</event>
<event>
 5   0  0.9243773E-03  0.9970107E+03  0.7818609E-02  0.9311830E-01
        2   -1    0    0  501    0  0.00000000000E+00  0.00000000000E+00  0.96142648296E+03  0.96142648296E+03  0.25500000920E-02 0.  1.
       -2   -1    0    0    0  501  0.00000000000E+00  0.00000000000E+00 -0.25847798325E+03  0.25847798327E+03  0.25500000920E-02 0. -1.
    10030    2    1    2    0    0  0.00000000000E+00  0.00000000000E+00  0.70294849971E+03  0.12199044662E+04  0.99701068875E+03 0.  0.
        3    1    3    3  502    0 -0.18404310761E+02 -0.42837116788E+03  0.66262248159E+03  0.78924593089E+03  0.10100000352E+00 0.  1.
       -3    1    3    3    0  502  0.18404310761E+02  0.42837116788E+03  0.40326018119E+02  0.43065853534E+03  0.10100000352E+00 0. -1.
</event>
<event>
 5   0  0.9243773E-03  0.1006723E+04  0.7818609E-02  0.9301202E-01
        2   -1    0    0  501    0  0.00000000000E+00  0.00000000000E+00  0.18368068470E+04  0.18368068470E+04  0.25500000920E-02 0.  1.
       -2   -1    0    0    0  501  0.00000000000E+00  0.00000000000E+00 -0.13794198887E+03  0.13794198889E+03  0.25500000920E-02 0. -1.
    10030    2    1    2    0    0  0.00000000000E+00  0.00000000000E+00  0.16988648582E+04  0.19747488359E+04  0.10067229801E+04 0.  0.
        3    1    3    3  502    0  0.14974854332E+03 -0.46819913345E+03  0.10619495107E+04  0.11702016187E+04  0.10100000352E+00 0.  1.
       -3    1    3    3    0  502 -0.14974854332E+03  0.46819913345E+03  0.63691534742E+03  0.80454721724E+03  0.10100000352E+00 0. -1.
</event>
<event>
 5   0  0.5201968E-03  0.8138093E+03  0.7818609E-02  0.9540241E-01
       -1   -1    0    0    0  501  0.00000000000E+00  0.00000000000E+00  0.52846027125E+03  0.52846027128E+03  0.50400001928E-02 0. -1.
        1   -1    0    0  501    0  0.00000000000E+00  0.00000000000E+00 -0.31330908600E+03  0.31330908604E+03  0.50400001928E-02 0.  1.
    10030    2    1    2    0    0  0.00000000000E+00  0.00000000000E+00  0.21515118526E+03  0.84176935731E+03  0.81380932558E+03 0.  0.
        2    1    3    3  502    0  0.76292946988E+02 -0.15934295211E+03  0.48672155954E+03  0.51779210758E+03  0.25500000920E-02 0. -1.
       -2    1    3    3    0  502 -0.76292946988E+02  0.15934295211E+03 -0.27157037428E+03  0.32397724973E+03  0.25500000920E-02 0.  1.
</event>
<event>
 5   0  0.5310275E-03  0.9971051E+03  0.7818609E-02  0.9311726E-01
        1   -1    0    0  501    0  0.00000000000E+00  0.00000000000E+00  0.18057886158E+04  0.18057886158E+04  0.50400001928E-02 0. -1.
       -1   -1    0    0    0  501  0.00000000000E+00  0.00000000000E+00 -0.13764326267E+03  0.13764326276E+03  0.50400001928E-02 0.  1.
    10030    2    1    2    0    0  0.00000000000E+00  0.00000000000E+00  0.16681453531E+04  0.19434318786E+04  0.99710508347E+03 0.  0.
        1    1    3    3  502    0 -0.19252754842E+03 -0.87784585970E+02  0.17139273096E+04  0.17269394353E+04  0.50400001928E-02 0. -1.
       -1    1    3    3    0  502  0.19252754842E+03  0.87784585970E+02 -0.45781956494E+02  0.21649244329E+03  0.50400001928E-02 0.  1.
</event>
<event>
 5   0  0.8907355E-03  0.1002728E+04  0.7818609E-02  0.9305558E-01
        2   -1    0    0  501    0  0.00000000000E+00  0.00000000000E+00  0.62506677511E+03  0.62506677511E+03  0.25500000920E-02 0. -1.
       -2   -1    0    0    0  501  0.00000000000E+00  0.00000000000E+00 -0.40214210039E+03  0.40214210040E+03  0.25500000920E-02 0.  1.
    10030    2    1    2    0    0  0.00000000000E+00  0.00000000000E+00  0.22292467472E+03  0.10272088755E+04  0.10027276117E+04 0.  0.
        5    1    3    3  502    0 -0.25374585132E+03 -0.26127677146E+03  0.46438927438E+03  0.59019657447E+03  0.46999998093E+01 0. -1.
       -5    1    3    3    0  502  0.25374585132E+03  0.26127677146E+03 -0.24146459966E+03  0.43701230103E+03  0.46999998093E+01 0.  1.
</event>
<event>
 5   0  0.5349685E-03  0.1001012E+04  0.7818609E-02  0.9307435E-01
        1   -1    0    0  501    0  0.00000000000E+00  0.00000000000E+00  0.10949506991E+04  0.10949506991E+04  0.50400001928E-02 0.  1.
       -1   -1    0    0    0  501  0.00000000000E+00  0.00000000000E+00 -0.22878320299E+03  0.22878320305E+03  0.50400001928E-02 0. -1.
    10030    2    1    2    0    0  0.00000000000E+00  0.00000000000E+00  0.86616749610E+03  0.13237339021E+04  0.10010121440E+04 0.  0.
        4    1    3    3  502    0  0.22615713554E+03 -0.22935018308E+03 -0.73509635623E+02  0.33038437594E+03  0.12699999809E+01 0. -1.
       -4    1    3    3    0  502 -0.22615713554E+03  0.22935018308E+03  0.93967713172E+03  0.99334952621E+03  0.12699999809E+01 0.  1.
</event>
<event>
 5   0  0.5310275E-03  0.9999810E+03  0.7818609E-02  0.9308566E-01
       -1   -1    0    0    0  501  0.00000000000E+00  0.00000000000E+00  0.76532387287E+03  0.76532387289E+03  0.50400001928E-02 0. -1.
        1   -1    0    0  501    0  0.00000000000E+00  0.00000000000E+00 -0.32664667423E+03  0.32664667427E+03  0.50400001928E-02 0.  1.
    10030    2    1    2    0    0  0.00000000000E+00  0.00000000000E+00  0.43867719864E+03  0.10919705472E+04  0.99998099545E+03 0.  0.
        1    1    3    3  502    0  0.39496448553E+03 -0.29838311070E+03  0.14242432403E+03  0.51508651087E+03  0.50400001928E-02 0.  1.
       -1    1    3    3    0  502 -0.39496448553E+03  0.29838311070E+03  0.29625287461E+03  0.57688403629E+03  0.50400001928E-02 0. -1.
</event>
<event>
 5   0  0.8875655E-03  0.1008698E+04  0.7818609E-02  0.9299056E-01
       -2   -1    0    0    0  501  0.00000000000E+00  0.00000000000E+00  0.61814204833E+03  0.61814204834E+03  0.25500000920E-02 0.  1.
        2   -1    0    0  501    0  0.00000000000E+00  0.00000000000E+00 -0.41150393391E+03  0.41150393392E+03  0.25500000920E-02 0. -1.
    10030    2    1    2    0    0  0.00000000000E+00  0.00000000000E+00  0.20663811442E+03  0.10296459823E+04  0.10086979421E+04 0.  0.
        4    1    3    3  502    0  0.21229286964E+03 -0.22819010880E+03  0.50807268480E+03  0.59605239216E+03  0.12699999809E+01 0.  1.
       -4    1    3    3    0  502 -0.21229286964E+03  0.22819010880E+03 -0.30143457038E+03  0.43359359010E+03  0.12699999809E+01 0. -1.
</event>
<event>
 5   0  0.5310275E-03  0.1002582E+04  0.7818609E-02  0.9305718E-01
        1   -1    0    0  501    0  0.00000000000E+00  0.00000000000E+00  0.51040914577E+03  0.51040914580E+03  0.50400001928E-02 0. -1.
       -1   -1    0    0    0  501  0.00000000000E+00  0.00000000000E+00 -0.49233532610E+03  0.49233532612E+03  0.50400001928E-02 0.  1.
    10030    2    1    2    0    0  0.00000000000E+00  0.00000000000E+00  0.18073819674E+02  0.10027444719E+04  0.10025815742E+04 0.  0.
        1    1    3    3  502    0  0.22379437830E+03 -0.58523656717E+02 -0.43576393023E+03  0.49335498889E+03  0.50400001928E-02 0.  1.
       -1    1    3    3    0  502 -0.22379437830E+03  0.58523656717E+02  0.45383774990E+03  0.50938948302E+03  0.50400001928E-02 0. -1.
</event>
<event>
 5   0  0.5310275E-03  0.9773412E+03  0.7818609E-02  0.9333752E-01
       -1   -1    0    0    0  501  0.00000000000E+00  0.00000000000E+00  0.14075039924E+03  0.14075039933E+03  0.50400001928E-02 0.  1.
        1   -1    0    0  501    0  0.00000000000E+00  0.00000000000E+00 -0.16966128345E+04  0.16966128345E+04  0.50400001928E-02 0. -1.
    10030    2    1    2    0    0  0.00000000000E+00  0.00000000000E+00 -0.15558624353E+04  0.18373632338E+04  0.97734115621E+03 0.  0.
        1    1    3    3  502    0  0.44581921681E+03 -0.70559727307E+02 -0.42589385605E+03  0.62057958864E+03  0.50400001928E-02 0. -1.
       -1    1    3    3    0  502 -0.44581921681E+03  0.70559727307E+02 -0.11299685792E+04  0.12167836452E+04  0.50400001928E-02 0.  1.
</event>
<event>
 5   0  0.5310275E-03  0.1001981E+04  0.7818609E-02  0.9306374E-01
       -1   -1    0    0    0  501  0.00000000000E+00  0.00000000000E+00  0.13980696322E+03  0.13980696331E+03  0.50400001928E-02 0.  1.
        1   -1    0    0  501    0  0.00000000000E+00  0.00000000000E+00 -0.17952731057E+04  0.17952731057E+04  0.50400001928E-02 0. -1.
    10030    2    1    2    0    0  0.00000000000E+00  0.00000000000E+00 -0.16554661425E+04  0.19350800690E+04  0.10019813993E+04 0.  0.
        1    1    3    3  502    0  0.35935541341E+03 -0.10174802755E+02 -0.15386163284E+03  0.39104122780E+03  0.50400001928E-02 0.  1.
       -1    1    3    3    0  502 -0.35935541341E+03  0.10174802755E+02 -0.15016045096E+04  0.15440388412E+04  0.50400001928E-02 0. -1.
</event>
<event>
 5   0  0.5072205E-03  0.9978681E+03  0.7818609E-02  0.9310886E-01
       -1   -1    0    0    0  501  0.00000000000E+00  0.00000000000E+00  0.13651770714E+03  0.13651770723E+03  0.50400001928E-02 0.  1.
        1   -1    0    0  501    0  0.00000000000E+00  0.00000000000E+00 -0.18234644035E+04  0.18234644035E+04  0.50400001928E-02 0. -1.
    10030    2    1    2    0    0  0.00000000000E+00  0.00000000000E+00 -0.16869466964E+04  0.19599821107E+04  0.99786808649E+03 0.  0.
        5    1    3    3  502    0  0.26695539619E+03 -0.40691338724E+03 -0.62768805762E+03  0.79426574643E+03  0.46999998093E+01 0.  1.
       -5    1    3    3    0  502 -0.26695539619E+03  0.40691338724E+03 -0.10592586387E+04  0.11657163643E+04  0.46999998093E+01 0. -1.
</event>
<event>
 5   0  0.5072205E-03  0.9687652E+03  0.7818609E-02  0.9343482E-01
        1   -1    0    0  501    0  0.00000000000E+00  0.00000000000E+00  0.47509101471E+03  0.47509101473E+03  0.50400001928E-02 0. -1.
       -1   -1    0    0    0  501  0.00000000000E+00  0.00000000000E+00 -0.49385595083E+03  0.49385595085E+03  0.50400001928E-02 0.  1.
    10030    2    1    2    0    0  0.00000000000E+00  0.00000000000E+00 -0.18764936121E+02  0.96894696559E+03  0.96876524468E+03 0.  0.
        5    1    3    3  502    0  0.23281618324E+03  0.73457041667E+02  0.40903213939E+03  0.47637033199E+03  0.46999998093E+01 0. -1.
       -5    1    3    3    0  502 -0.23281618324E+03 -0.73457041667E+02 -0.42779707551E+03  0.49257663360E+03  0.46999998093E+01 0.  1.
</event>
<event>
 5   0  0.5201968E-03  0.1008081E+04  0.7818609E-02  0.9299725E-01
        1   -1    0    0  501    0  0.00000000000E+00  0.00000000000E+00  0.53946937880E+03  0.53946937883E+03  0.50400001928E-02 0. -1.
       -1   -1    0    0    0  501  0.00000000000E+00  0.00000000000E+00 -0.47093882466E+03  0.47093882469E+03  0.50400001928E-02 0.  1.
    10030    2    1    2    0    0  0.00000000000E+00  0.00000000000E+00  0.68530554144E+02  0.10104082035E+04  0.10080814952E+04 0.  0.
        2    1    3    3  502    0  0.79670930239E+01 -0.35865056366E+03  0.38914938912E+03  0.52927398240E+03  0.25500000920E-02 0. -1.
       -2    1    3    3    0  502 -0.79670930239E+01  0.35865056366E+03 -0.32061883498E+03  0.48113422112E+03  0.25500000920E-02 0.  1.
</event>
<event>
 5   0  0.5201968E-03  0.9974087E+03  0.7818609E-02  0.9311392E-01
        1   -1    0    0  501    0  0.00000000000E+00  0.00000000000E+00  0.53030225363E+03  0.53030225365E+03  0.50400001928E-02 0. -1.
       -1   -1    0    0    0  501  0.00000000000E+00  0.00000000000E+00 -0.46898915475E+03  0.46898915478E+03  0.50400001928E-02 0.  1.
    10030    2    1    2    0    0  0.00000000000E+00  0.00000000000E+00  0.61313098881E+02  0.99929140843E+03  0.99740865390E+03 0.  0.
        2    1    3    3  502    0  0.88958004347E+02 -0.32713355040E+03  0.39710114277E+03  0.52212948962E+03  0.25500000920E-02 0. -1.
       -2    1    3    3    0  502 -0.88958004347E+02  0.32713355040E+03 -0.33578804389E+03  0.47716191881E+03  0.25500000920E-02 0.  1.
</event>
<event>
 5   0  0.5201968E-03  0.9918629E+03  0.7818609E-02  0.9317515E-01
        1   -1    0    0  501    0  0.00000000000E+00  0.00000000000E+00  0.88864591880E+03  0.88864591882E+03  0.50400001928E-02 0.  1.
       -1   -1    0    0    0  501  0.00000000000E+00  0.00000000000E+00 -0.27676715375E+03  0.27676715379E+03  0.50400001928E-02 0. -1.
    10030    2    1    2    0    0  0.00000000000E+00  0.00000000000E+00  0.61187876506E+03  0.11654130726E+04  0.99186289712E+03 0.  0.
        2    1    3    3  502    0  0.41170552646E+03 -0.94257058655E+00  0.63080570628E+03  0.75327164292E+03  0.25500000920E-02 0.  1.
       -2    1    3    3    0  502 -0.41170552646E+03  0.94257058655E+00 -0.18926941222E+02  0.41214142969E+03  0.25500000920E-02 0. -1.
</event>
<event>
 5   0  0.8907355E-03  0.1011657E+04  0.7818609E-02  0.9295851E-01
       -2   -1    0    0    0  501  0.00000000000E+00  0.00000000000E+00  0.62595389747E+03  0.62595389747E+03  0.25500000920E-02 0. -1.
        2   -1    0    0  501    0  0.00000000000E+00  0.00000000000E+00 -0.40875636224E+03  0.40875636224E+03  0.25500000920E-02 0.  1.
    10030    2    1    2    0    0  0.00000000000E+00  0.00000000000E+00  0.21719753523E+03  0.10347102597E+04  0.10116573295E+04 0.  0.
        5    1    3    3  502    0 -0.43936651937E+03  0.24572811315E+03  0.15886440975E+03  0.52790646389E+03  0.46999998093E+01 0.  1.
       -5    1    3    3    0  502  0.43936651937E+03 -0.24572811315E+03  0.58333125481E+02  0.50680379582E+03  0.46999998093E+01 0. -1.
</event>
<event>
 5   0  0.5310275E-03  0.1002305E+04  0.7818609E-02  0.9306021E-01
       -1   -1    0    0    0  501  0.00000000000E+00  0.00000000000E+00  0.11778968503E+04  0.11778968503E+04  0.50400001928E-02 0.  1.
        1   -1    0    0  501    0  0.00000000000E+00  0.00000000000E+00 -0.21322207114E+03  0.21322207120E+03  0.50400001928E-02 0. -1.
    10030    2    1    2    0    0  0.00000000000E+00  0.00000000000E+00  0.96467477919E+03  0.13911189215E+04  0.10023045566E+04 0.  0.
        1    1    3    3  502    0  0.49099876309E+03 -0.98421990760E+02  0.45503616582E+03  0.67662736114E+03  0.50400001928E-02 0. -1.
       -1    1    3    3    0  502 -0.49099876309E+03  0.98421990760E+02  0.50963861338E+03  0.71449156041E+03  0.50400001928E-02 0.  1.
</event>
<event>
 5   0  0.5072205E-03  0.1002372E+04  0.7818609E-02  0.9305947E-01
        1   -1    0    0  501    0  0.00000000000E+00  0.00000000000E+00  0.28111846536E+03  0.28111846541E+03  0.50400001928E-02 0.  1.
       -1   -1    0    0    0  501  0.00000000000E+00  0.00000000000E+00 -0.89352913948E+03  0.89352913950E+03  0.50400001928E-02 0. -1.
    10030    2    1    2    0    0  0.00000000000E+00  0.00000000000E+00 -0.61241067412E+03  0.11746476049E+04  0.10023722671E+04 0.  0.
        5    1    3    3  502    0 -0.22239767398E+03 -0.17932908025E+03 -0.78873284959E+03  0.83889286708E+03  0.46999998093E+01 0. -1.
       -5    1    3    3    0  502  0.22239767398E+03  0.17932908025E+03  0.17632217547E+03  0.33575473783E+03  0.46999998093E+01 0.  1.
</event>
<event>
 5   0  0.9243773E-03  0.9994702E+03  0.7818609E-02  0.9309126E-01
        2   -1    0    0  501    0  0.00000000000E+00  0.00000000000E+00  0.18125948387E+04  0.18125948387E+04  0.25500000920E-02 0. -1.
       -2   -1    0    0    0  501  0.00000000000E+00  0.00000000000E+00 -0.13777770390E+03  0.13777770392E+03  0.25500000920E-02 0.  1.
    10030    2    1    2    0    0  0.00000000000E+00  0.00000000000E+00  0.16748171348E+04  0.19503725426E+04  0.99947016962E+03 0.  0.
        3    1    3    3  502    0  0.77990490308E+02 -0.56696750183E+02 -0.11945360833E+03  0.15351290761E+03  0.10100000352E+00 0.  1.
       -3    1    3    3    0  502 -0.77990490308E+02  0.56696750183E+02  0.17942707431E+04  0.17968596350E+04  0.10100000352E+00 0. -1.
</event>
<event>
 5   0  0.5349685E-03  0.9896040E+03  0.7818609E-02  0.9320021E-01
       -1   -1    0    0    0  501  0.00000000000E+00  0.00000000000E+00  0.67223837120E+03  0.67223837122E+03  0.50400001928E-02 0.  1.
        1   -1    0    0  501    0  0.00000000000E+00  0.00000000000E+00 -0.36419973059E+03  0.36419973062E+03  0.50400001928E-02 0. -1.
    10030    2    1    2    0    0  0.00000000000E+00  0.00000000000E+00  0.30803864062E+03  0.10364381018E+04  0.98960402932E+03 0.  0.
        4    1    3    3  502    0  0.48083180337E+03  0.10509566597E+03  0.10078981701E+03  0.50239876816E+03  0.12699999809E+01 0. -1.
       -4    1    3    3    0  502 -0.48083180337E+03 -0.10509566597E+03  0.20724882361E+03  0.53403933368E+03  0.12699999809E+01 0.  1.
</event>
<event>
 5   0  0.8875655E-03  0.9941958E+03  0.7818609E-02  0.9314934E-01
       -2   -1    0    0    0  501  0.00000000000E+00  0.00000000000E+00  0.32921357716E+03  0.32921357717E+03  0.25500000920E-02 0.  1.
        2   -1    0    0  501    0  0.00000000000E+00  0.00000000000E+00 -0.75059585032E+03  0.75059585032E+03  0.25500000920E-02 0. -1.
    10030    2    1    2    0    0  0.00000000000E+00  0.00000000000E+00 -0.42138227316E+03  0.10798094275E+04  0.99419584568E+03 0.  0.
        4    1    3    3  502    0  0.12486645323E+03  0.20217295431E+03 -0.68491267080E+03  0.72496380193E+03  0.12699999809E+01 0. -1.
       -4    1    3    3    0  502 -0.12486645323E+03 -0.20217295431E+03  0.26353039764E+03  0.35484562555E+03  0.12699999809E+01 0.  1.
</event>
<event>
 5   0  0.9040674E-03  0.1007325E+04  0.7818609E-02  0.9300548E-01
        2   -1    0    0  501    0  0.00000000000E+00  0.00000000000E+00  0.60117442762E+03  0.60117442763E+03  0.25500000920E-02 0. -1.
       -2   -1    0    0    0  501  0.00000000000E+00  0.00000000000E+00 -0.42196696497E+03  0.42196696498E+03  0.25500000920E-02 0.  1.
    10030    2    1    2    0    0  0.00000000000E+00  0.00000000000E+00  0.17920746265E+03  0.10231413926E+04  0.10073246719E+04 0.  0.
        1    1    3    3  502    0  0.48442477933E+02  0.22080436311E+02  0.59830861140E+03  0.60067246802E+03  0.50400001928E-02 0. -1.
       -1    1    3    3    0  502 -0.48442477933E+02 -0.22080436311E+02 -0.41910114874E+03  0.42246892459E+03  0.50400001928E-02 0.  1.
</event>
<event>
 5   0  0.5189877E-03  0.9955143E+03  0.7818609E-02  0.9313478E-01
        1   -1    0    0  501    0  0.00000000000E+00  0.00000000000E+00  0.44462022229E+03  0.44462022232E+03  0.50400001928E-02 0.  1.
       -1   -1    0    0    0  501  0.00000000000E+00  0.00000000000E+00 -0.55724454415E+03  0.55724454418E+03  0.50400001928E-02 0. -1.
    10030    2    1    2    0    0  0.00000000000E+00  0.00000000000E+00 -0.11262432186E+03  0.10018647665E+04  0.99551432560E+03 0.  0.
        3    1    3    3  502    0  0.39308698309E+03  0.16853898489E+03 -0.31257234929E+03  0.52973979409E+03  0.10100000352E+00 0.  1.
       -3    1    3    3    0  502 -0.39308698309E+03 -0.16853898489E+03  0.19994802743E+03  0.47212497241E+03  0.10100000352E+00 0. -1.
</event>
<event>
 5   0  0.9243773E-03  0.1012448E+04  0.7818609E-02  0.9294997E-01
       -2   -1    0    0    0  501  0.00000000000E+00  0.00000000000E+00  0.42182693415E+03  0.42182693416E+03  0.25500000920E-02 0. -1.
        2   -1    0    0  501    0  0.00000000000E+00  0.00000000000E+00 -0.60750635951E+03  0.60750635951E+03  0.25500000920E-02 0.  1.
    10030    2    1    2    0    0  0.00000000000E+00  0.00000000000E+00 -0.18567942535E+03  0.10293332937E+04  0.10124476186E+04 0.  0.
        3    1    3    3  502    0  0.25027613882E+03 -0.26168549769E+03 -0.45249824169E+03  0.57954474745E+03  0.10100000352E+00 0.  1.
       -3    1    3    3    0  502 -0.25027613882E+03  0.26168549769E+03  0.26681881633E+03  0.44978854622E+03  0.10100000352E+00 0. -1.
</event>
<event>
 5   0  0.5349685E-03  0.9509756E+03  0.7818609E-02  0.9364011E-01
        1   -1    0    0  501    0  0.00000000000E+00  0.00000000000E+00  0.99780305963E+03  0.99780305964E+03  0.50400001928E-02 0. -1.
       -1   -1    0    0    0  501  0.00000000000E+00  0.00000000000E+00 -0.22658642576E+03  0.22658642581E+03  0.50400001928E-02 0.  1.
    10030    2    1    2    0    0  0.00000000000E+00  0.00000000000E+00  0.77121663387E+03  0.12243894855E+04  0.95097556001E+03 0.  0.
        4    1    3    3  502    0  0.87451516335E+02 -0.42145528838E+03  0.12549746154E+03  0.44835650276E+03  0.12699999809E+01 0.  1.
       -4    1    3    3    0  502 -0.87451516335E+02  0.42145528838E+03  0.64571917233E+03  0.77603298269E+03  0.12699999809E+01 0. -1.
</event>
<event>
 5   0  0.8968798E-03  0.1015155E+04  0.7818609E-02  0.9292077E-01
       -2   -1    0    0    0  501  0.00000000000E+00  0.00000000000E+00  0.28320203301E+03  0.28320203302E+03  0.25500000920E-02 0.  1.
        2   -1    0    0  501    0  0.00000000000E+00  0.00000000000E+00 -0.90972183733E+03  0.90972183733E+03  0.25500000920E-02 0. -1.
    10030    2    1    2    0    0  0.00000000000E+00  0.00000000000E+00 -0.62651980431E+03  0.11929238704E+04  0.10151553060E+04 0.  0.
        2    1    3    3  502    0 -0.12017618410E+03  0.22356964999E+03  0.20326864923E+03  0.32518279073E+03  0.25500000920E-02 0.  1.
       -2    1    3    3    0  502  0.12017618410E+03 -0.22356964999E+03 -0.82978845355E+03  0.86774107962E+03  0.25500000920E-02 0. -1.
</event>
<event>
 5   0  0.5349685E-03  0.9515534E+03  0.7818609E-02  0.9363337E-01
        1   -1    0    0  501    0  0.00000000000E+00  0.00000000000E+00  0.11841575247E+04  0.11841575247E+04  0.50400001928E-02 0.  1.
       -1   -1    0    0    0  501  0.00000000000E+00  0.00000000000E+00 -0.19115994334E+03  0.19115994341E+03  0.50400001928E-02 0. -1.
    10030    2    1    2    0    0  0.00000000000E+00  0.00000000000E+00  0.99299758132E+03  0.13753174681E+04  0.95155343596E+03 0.  0.
        4    1    3    3  502    0  0.30105932123E+03 -0.91511463360E+02  0.10122860764E+04  0.10600640434E+04  0.12699999809E+01 0.  1.
       -4    1    3    3    0  502 -0.30105932123E+03  0.91511463360E+02 -0.19288495040E+02  0.31525342467E+03  0.12699999809E+01 0. -1.
</event>
<event>
 5   0  0.5349685E-03  0.8832957E+03  0.7818609E-02  0.9446707E-01
       -1   -1    0    0    0  501  0.00000000000E+00  0.00000000000E+00  0.13552562061E+04  0.13552562061E+04  0.50400001928E-02 0. -1.
        1   -1    0    0  501    0  0.00000000000E+00  0.00000000000E+00 -0.14392321195E+03  0.14392321203E+03  0.50400001928E-02 0.  1.
    10030    2    1    2    0    0  0.00000000000E+00  0.00000000000E+00  0.12113329942E+04  0.14991794182E+04  0.88329570647E+03 0.  0.
        4    1    3    3  502    0 -0.23583499972E+03  0.24535071780E+03  0.12790734595E+03  0.36356158194E+03  0.12699999809E+01 0.  1.
       -4    1    3    3    0  502  0.23583499972E+03 -0.24535071780E+03  0.10834256482E+04  0.11356178362E+04  0.12699999809E+01 0. -1.
</event>
<event>
 5   0  0.5201968E-03  0.1007889E+04  0.7818609E-02  0.9299934E-01
        1   -1    0    0  501    0  0.00000000000E+00  0.00000000000E+00  0.28018663050E+03  0.28018663054E+03  0.50400001928E-02 0. -1.
       -1   -1    0    0    0  501  0.00000000000E+00  0.00000000000E+00 -0.90639613797E+03  0.90639613799E+03  0.50400001928E-02 0.  1.
    10030    2    1    2    0    0  0.00000000000E+00  0.00000000000E+00 -0.62620950748E+03  0.11865827685E+04  0.10078890412E+04 0.  0.
        2    1    3    3  502    0  0.27645738914E+03  0.98590380739E+02  0.16917158149E+03  0.33877392930E+03  0.25500000920E-02 0. -1.
       -2    1    3    3    0  502 -0.27645738914E+03 -0.98590380739E+02 -0.79538108897E+03  0.84780883923E+03  0.25500000920E-02 0.  1.
</event>
<event>
 5   0  0.8968798E-03  0.1000590E+04  0.7818609E-02  0.9307898E-01
        2   -1    0    0  501    0  0.00000000000E+00  0.00000000000E+00  0.52132267993E+03  0.52132267993E+03  0.25500000920E-02 0.  1.
       -2   -1    0    0    0  501  0.00000000000E+00  0.00000000000E+00 -0.48011512783E+03  0.48011512783E+03  0.25500000920E-02 0. -1.
    10030    2    1    2    0    0  0.00000000000E+00  0.00000000000E+00  0.41207552100E+02  0.10014378078E+04  0.10005896364E+04 0.  0.
        2    1    3    3  502    0 -0.33696234208E+03  0.17889232874E+03 -0.30331979565E+03  0.48738997087E+03  0.25500000920E-02 0. -1.
       -2    1    3    3    0  502  0.33696234208E+03 -0.17889232874E+03  0.34452734775E+03  0.51404783690E+03  0.25500000920E-02 0.  1.
</event>
<event>
 5   0  0.9040674E-03  0.1010936E+04  0.7818609E-02  0.9296631E-01
        2   -1    0    0  501    0  0.00000000000E+00  0.00000000000E+00  0.19411362724E+04  0.19411362724E+04  0.25500000920E-02 0.  1.
       -2   -1    0    0    0  501  0.00000000000E+00  0.00000000000E+00 -0.13162285384E+03  0.13162285387E+03  0.25500000920E-02 0. -1.
    10030    2    1    2    0    0  0.00000000000E+00  0.00000000000E+00  0.18095134186E+04  0.20727591263E+04  0.10109359938E+04 0.  0.
        1    1    3    3  502    0 -0.12589148350E+03 -0.48903574619E+03  0.85921941970E+03  0.99662562574E+03  0.50400001928E-02 0. -1.
       -1    1    3    3    0  502  0.12589148350E+03  0.48903574619E+03  0.95029399889E+03  0.10761335006E+04  0.50400001928E-02 0.  1.
</event>
<event>
 5   0  0.8907355E-03  0.8686183E+03  0.7818609E-02  0.9465683E-01
        2   -1    0    0  501    0  0.00000000000E+00  0.00000000000E+00  0.84869292338E+03  0.84869292339E+03  0.25500000920E-02 0.  1.
       -2   -1    0    0    0  501  0.00000000000E+00  0.00000000000E+00 -0.22225288565E+03  0.22225288567E+03  0.25500000920E-02 0. -1.
    10030    2    1    2    0    0  0.00000000000E+00  0.00000000000E+00  0.62644003773E+03  0.10709458091E+04  0.86861833106E+03 0.  0.
        5    1    3    3  502    0  0.19856086553E+03  0.35843094305E+03  0.13581852373E+03  0.43170350895E+03  0.46999998093E+01 0. -1.
       -5    1    3    3    0  502 -0.19856086553E+03 -0.35843094305E+03  0.49062151399E+03  0.63924230011E+03  0.46999998093E+01 0.  1.
</event>
<event>
 5   0  0.9040674E-03  0.9932467E+03  0.7818609E-02  0.9315983E-01
        2   -1    0    0  501    0  0.00000000000E+00  0.00000000000E+00  0.96867416749E+03  0.96867416749E+03  0.25500000920E-02 0. -1.
       -2   -1    0    0    0  501  0.00000000000E+00  0.00000000000E+00 -0.25461064705E+03  0.25461064707E+03  0.25500000920E-02 0.  1.
    10030    2    1    2    0    0  0.00000000000E+00  0.00000000000E+00  0.71406352043E+03  0.12232848146E+04  0.99324670969E+03 0.  0.
        1    1    3    3  502    0 -0.10925028950E+03  0.69000856238E+02 -0.23354429722E+03  0.26690762954E+03  0.50400001928E-02 0.  1.
       -1    1    3    3    0  502  0.10925028950E+03 -0.69000856238E+02  0.94760781765E+03  0.95637718502E+03  0.50400001928E-02 0. -1.
</event>
<event>
 5   0  0.5310275E-03  0.9970913E+03  0.7818609E-02  0.9311741E-01
       -1   -1    0    0    0  501  0.00000000000E+00  0.00000000000E+00  0.25363653248E+03  0.25363653253E+03  0.50400001928E-02 0.  1.
        1   -1    0    0  501    0  0.00000000000E+00  0.00000000000E+00 -0.97993679466E+03  0.97993679468E+03  0.50400001928E-02 0. -1.
    10030    2    1    2    0    0  0.00000000000E+00  0.00000000000E+00 -0.72630026218E+03  0.12335733272E+04  0.99709131115E+03 0.  0.
        1    1    3    3  502    0  0.25782257732E+01 -0.98047684676E+02 -0.96788269863E+03  0.97283961373E+03  0.50400001928E-02 0. -1.
       -1    1    3    3    0  502 -0.25782257732E+01  0.98047684676E+02  0.24158243645E+03  0.26073371348E+03  0.50400001928E-02 0.  1.
</event>
<event>
 5   0  0.8907355E-03  0.9992123E+03  0.7818609E-02  0.9309409E-01
        2   -1    0    0  501    0  0.00000000000E+00  0.00000000000E+00  0.37809669759E+03  0.37809669759E+03  0.25500000920E-02 0. -1.
       -2   -1    0    0    0  501  0.00000000000E+00  0.00000000000E+00 -0.66016524585E+03  0.66016524585E+03  0.25500000920E-02 0.  1.
    10030    2    1    2    0    0  0.00000000000E+00  0.00000000000E+00 -0.28206854826E+03  0.10382619434E+04  0.99921228840E+03 0.  0.
        5    1    3    3  502    0 -0.20260100886E+03 -0.42083472233E+03  0.43194356650E+02  0.46908088296E+03  0.46999998093E+01 0.  1.
       -5    1    3    3    0  502  0.20260100886E+03  0.42083472233E+03 -0.32526290491E+03  0.56918106049E+03  0.46999998093E+01 0. -1.
</event>
<event>
 5   0  0.3513625E-03  0.9945056E+03  0.7818609E-02  0.9314592E-01
        3   -1    0    0  501    0  0.00000000000E+00  0.00000000000E+00  0.44088056815E+03  0.44088057971E+03  0.10100000352E+00 0.  1.
       -3   -1    0    0    0  501  0.00000000000E+00  0.00000000000E+00 -0.56083295161E+03  0.56083296070E+03  0.10100000352E+00 0. -1.
    10030    2    1    2    0    0  0.00000000000E+00  0.00000000000E+00 -0.11995238346E+03  0.10017135404E+04  0.99450562731E+03 0.  0.
        2    1    3    3  502    0  0.31060023676E+03 -0.22787112551E+03  0.25672691350E+03  0.46293246272E+03  0.25500000920E-02 0.  1.
       -2    1    3    3    0  502 -0.31060023676E+03  0.22787112551E+03 -0.37667929696E+03  0.53878107770E+03  0.25500000920E-02 0. -1.
</event>
<event>
 5   0  0.8875655E-03  0.1018695E+04  0.7818609E-02  0.9288275E-01
       -2   -1    0    0    0  501  0.00000000000E+00  0.00000000000E+00  0.18075732726E+03  0.18075732727E+03  0.25500000920E-02 0.  1.
        2   -1    0    0  501    0  0.00000000000E+00  0.00000000000E+00 -0.14352657438E+04  0.14352657438E+04  0.25500000920E-02 0. -1.
    10030    2    1    2    0    0  0.00000000000E+00  0.00000000000E+00 -0.12545084165E+04  0.16160230710E+04  0.10186948508E+04 0.  0.
        4    1    3    3  502    0 -0.18069835869E+03 -0.42854275804E+03 -0.29779228420E+03  0.55225234244E+03  0.12699999809E+01 0.  1.
       -4    1    3    3    0  502  0.18069835869E+03  0.42854275804E+03 -0.95671613230E+03  0.10637707286E+04  0.12699999809E+01 0. -1.
</event>
<event>
 5   0  0.8875655E-03  0.1005769E+04  0.7818609E-02  0.9302239E-01
       -2   -1    0    0    0  501  0.00000000000E+00  0.00000000000E+00  0.46348535211E+03  0.46348535212E+03  0.25500000920E-02 0.  1.
        2   -1    0    0  501    0  0.00000000000E+00  0.00000000000E+00 -0.54563332752E+03  0.54563332752E+03  0.25500000920E-02 0. -1.
    10030    2    1    2    0    0  0.00000000000E+00  0.00000000000E+00 -0.82147975409E+02  0.10091186796E+04  0.10057694665E+04 0.  0.
        4    1    3    3  502    0 -0.40684045338E+03 -0.82129047869E+02 -0.32596866606E+03  0.52775138007E+03  0.12699999809E+01 0. -1.
       -4    1    3    3    0  502  0.40684045338E+03  0.82129047869E+02  0.24382069065E+03  0.48136729957E+03  0.12699999809E+01 0.  1.
</event>
<event>
 5   0  0.5201968E-03  0.9588776E+03  0.7818609E-02  0.9354834E-01
        1   -1    0    0  501    0  0.00000000000E+00  0.00000000000E+00  0.88592485397E+03  0.88592485399E+03  0.50400001928E-02 0.  1.
       -1   -1    0    0    0  501  0.00000000000E+00  0.00000000000E+00 -0.25945945665E+03  0.25945945670E+03  0.50400001928E-02 0. -1.
    10030    2    1    2    0    0  0.00000000000E+00  0.00000000000E+00  0.62646539732E+03  0.11453843107E+04  0.95887763825E+03 0.  0.
        2    1    3    3  502    0  0.58327849367E+02 -0.47276691994E+03  0.24834475510E+03  0.53720183916E+03  0.25500000920E-02 0. -1.
       -2    1    3    3    0  502 -0.58327849367E+02  0.47276691994E+03  0.37812064221E+03  0.60818247153E+03  0.25500000920E-02 0.  1.
</event>
<event>
 5   0  0.5310275E-03  0.9996633E+03  0.7818609E-02  0.9308914E-01
       -1   -1    0    0    0  501  0.00000000000E+00  0.00000000000E+00  0.29542228416E+03  0.29542228420E+03  0.50400001928E-02 0. -1.
        1   -1    0    0  501    0  0.00000000000E+00  0.00000000000E+00 -0.84567645937E+03  0.84567645938E+03  0.50400001928E-02 0.  1.
    10030    2    1    2    0    0  0.00000000000E+00  0.00000000000E+00 -0.55025417521E+03  0.11410987436E+04  0.99966328595E+03 0.  0.
        1    1    3    3  502    0 -0.49078361251E+03  0.17071920249E+02 -0.16883014603E+03  0.51929146248E+03  0.50400001928E-02 0.  1.
       -1    1    3    3    0  502  0.49078361251E+03 -0.17071920249E+02 -0.38142402917E+03  0.62180728110E+03  0.50400001928E-02 0. -1.
</event>
<event>
 5   0  0.5072205E-03  0.9978327E+03  0.7818609E-02  0.9310925E-01
       -1   -1    0    0    0  501  0.00000000000E+00  0.00000000000E+00  0.43836726458E+03  0.43836726461E+03  0.50400001928E-02 0. -1.
        1   -1    0    0  501    0  0.00000000000E+00  0.00000000000E+00 -0.56782867895E+03  0.56782867897E+03  0.50400001928E-02 0.  1.
    10030    2    1    2    0    0  0.00000000000E+00  0.00000000000E+00 -0.12946141437E+03  0.10061959436E+04  0.99783266086E+03 0.  0.
        5    1    3    3  502    0  0.36560860596E+03  0.24483241031E+03  0.17236302356E+03  0.47259249230E+03  0.46999998093E+01 0. -1.
       -5    1    3    3    0  502 -0.36560860596E+03 -0.24483241031E+03 -0.30182443793E+03  0.53360345128E+03  0.46999998093E+01 0.  1.
</event>
<event>
 5   0  0.8875655E-03  0.9864175E+03  0.7818609E-02  0.9323569E-01
        2   -1    0    0  501    0  0.00000000000E+00  0.00000000000E+00  0.20762733545E+04  0.20762733545E+04  0.25500000920E-02 0.  1.
       -2   -1    0    0    0  501  0.00000000000E+00  0.00000000000E+00 -0.11715937374E+03  0.11715937377E+03  0.25500000920E-02 0. -1.
    10030    2    1    2    0    0  0.00000000000E+00  0.00000000000E+00  0.19591139808E+04  0.21934327283E+04  0.98641753017E+03 0.  0.
        4    1    3    3  502    0 -0.41544537312E+03  0.24497651611E+03  0.75013514413E+03  0.89180306057E+03  0.12699999809E+01 0. -1.
       -4    1    3    3    0  502  0.41544537312E+03 -0.24497651611E+03  0.12089788366E+04  0.13016296677E+04  0.12699999809E+01 0.  1.
</event>
<event>
 5   0  0.8907355E-03  0.8396605E+03  0.7818609E-02  0.9504320E-01
        2   -1    0    0  501    0  0.00000000000E+00  0.00000000000E+00  0.16537119899E+04  0.16537119899E+04  0.25500000920E-02 0.  1.
       -2   -1    0    0    0  501  0.00000000000E+00  0.00000000000E+00 -0.10658290300E+03  0.10658290303E+03  0.25500000920E-02 0. -1.
    10030    2    1    2    0    0  0.00000000000E+00  0.00000000000E+00  0.15471290869E+04  0.17602948929E+04  0.83966046621E+03 0.  0.
        5    1    3    3  502    0 -0.95078360279E+02 -0.91220937510E+02 -0.62054608185E+02  0.14571897072E+03  0.46999998093E+01 0. -1.
       -5    1    3    3    0  502  0.95078360279E+02  0.91220937510E+02  0.16091836951E+04  0.16145759222E+04  0.46999998093E+01 0.  1.
</event>
<event>
 5   0  0.9040674E-03  0.1001698E+04  0.7818609E-02  0.9306685E-01
        2   -1    0    0  501    0  0.00000000000E+00  0.00000000000E+00  0.44611752482E+03  0.44611752482E+03  0.25500000920E-02 0.  1.
       -2   -1    0    0    0  501  0.00000000000E+00  0.00000000000E+00 -0.56229492355E+03  0.56229492356E+03  0.25500000920E-02 0. -1.
    10030    2    1    2    0    0  0.00000000000E+00  0.00000000000E+00 -0.11617739873E+03  0.10084124484E+04  0.10016977978E+04 0.  0.
        1    1    3    3  502    0 -0.45949777205E+03 -0.18780423444E+03  0.89987384711E+01  0.49647720019E+03  0.50400001928E-02 0. -1.
       -1    1    3    3    0  502  0.45949777205E+03  0.18780423444E+03 -0.12517613720E+03  0.51193524819E+03  0.50400001928E-02 0.  1.
</event>
<event>
 5   0  0.9040674E-03  0.1005922E+04  0.7818609E-02  0.9302073E-01
       -2   -1    0    0    0  501  0.00000000000E+00  0.00000000000E+00  0.12335091539E+03  0.12335091542E+03  0.25500000920E-02 0.  1.
        2   -1    0    0  501    0  0.00000000000E+00  0.00000000000E+00 -0.20508153805E+04  0.20508153805E+04  0.25500000920E-02 0. -1.
    10030    2    1    2    0    0  0.00000000000E+00  0.00000000000E+00 -0.19274644651E+04  0.21741662959E+04  0.10059223718E+04 0.  0.
        1    1    3    3  502    0  0.44545217809E+03 -0.22429976664E+03 -0.82312834275E+03  0.96243352858E+03  0.50400001928E-02 0.  1.
       -1    1    3    3    0  502 -0.44545217809E+03  0.22429976664E+03 -0.11043361224E+04  0.12117327674E+04  0.50400001928E-02 0. -1.
</event>
<event>
 5   0  0.5072205E-03  0.9925698E+03  0.7818609E-02  0.9316732E-01
        1   -1    0    0  501    0  0.00000000000E+00  0.00000000000E+00  0.37564868811E+03  0.37564868814E+03  0.50400001928E-02 0.  1.
       -1   -1    0    0    0  501  0.00000000000E+00  0.00000000000E+00 -0.65566237746E+03  0.65566237748E+03  0.50400001928E-02 0. -1.
    10030    2    1    2    0    0  0.00000000000E+00  0.00000000000E+00 -0.28001368935E+03  0.10313110656E+04  0.99256982014E+03 0.  0.
        5    1    3    3  502    0  0.34547492581E+03 -0.17106275382E+03 -0.46471239375E+03  0.60381709898E+03  0.46999998093E+01 0. -1.
       -5    1    3    3    0  502 -0.34547492581E+03  0.17106275382E+03  0.18469870440E+03  0.42749396665E+03  0.46999998093E+01 0.  1.
</event>
<event>
 5   0  0.5072205E-03  0.1021765E+04  0.7818609E-02  0.9284991E-01
       -1   -1    0    0    0  501  0.00000000000E+00  0.00000000000E+00  0.25137921778E+03  0.25137921783E+03  0.50400001928E-02 0.  1.
        1   -1    0    0  501    0  0.00000000000E+00  0.00000000000E+00 -0.10382747911E+04  0.10382747911E+04  0.50400001928E-02 0. -1.
    10030    2    1    2    0    0  0.00000000000E+00  0.00000000000E+00 -0.78689557333E+03  0.12896540089E+04  0.10217645617E+04 0.  0.
        5    1    3    3  502    0  0.38863960581E+03 -0.75626133470E+02  0.14021529077E+02  0.39620543730E+03  0.46999998093E+01 0.  1.
       -5    1    3    3    0  502 -0.38863960581E+03  0.75626133470E+02 -0.80091710240E+03  0.89344857165E+03  0.46999998093E+01 0. -1.
</event>
<event>
 5   0  0.8875655E-03  0.1008927E+04  0.7818609E-02  0.9298807E-01
        2   -1    0    0  501    0  0.00000000000E+00  0.00000000000E+00  0.14795555591E+04  0.14795555591E+04  0.25500000920E-02 0. -1.
       -2   -1    0    0    0  501  0.00000000000E+00  0.00000000000E+00 -0.17199996298E+03  0.17199996300E+03  0.25500000920E-02 0.  1.
    10030    2    1    2    0    0  0.00000000000E+00  0.00000000000E+00  0.13075555961E+04  0.16515555221E+04  0.10089271557E+04 0.  0.
        4    1    3    3  502    0 -0.21207240710E+03 -0.21016638294E+03 -0.11830539843E+02  0.29880794659E+03  0.12699999809E+01 0.  1.
       -4    1    3    3    0  502  0.21207240710E+03  0.21016638294E+03  0.13193861359E+04  0.13527475755E+04  0.12699999809E+01 0. -1.
</event>
<event>
 5   0  0.5349685E-03  0.9393234E+03  0.7818609E-02  0.9377718E-01
        1   -1    0    0  501    0  0.00000000000E+00  0.00000000000E+00  0.63496062869E+03  0.63496062871E+03  0.50400001928E-02 0.  1.
       -1   -1    0    0    0  501  0.00000000000E+00  0.00000000000E+00 -0.34739492823E+03  0.34739492826E+03  0.50400001928E-02 0. -1.
    10030    2    1    2    0    0  0.00000000000E+00  0.00000000000E+00  0.28756570046E+03  0.98235555698E+03  0.93932337788E+03 0.  0.
        4    1    3    3  502    0 -0.12938964142E+03 -0.92459280491E+02 -0.31837855947E+03  0.35588891229E+03  0.12699999809E+01 0. -1.
       -4    1    3    3    0  502  0.12938964142E+03  0.92459280491E+02  0.60594425994E+03  0.62646664469E+03  0.12699999809E+01 0.  1.
</event>
<event>
 5   0  0.8875655E-03  0.9852313E+03  0.7818609E-02  0.9324893E-01
        2   -1    0    0  501    0  0.00000000000E+00  0.00000000000E+00  0.13264329704E+04  0.13264329704E+04  0.25500000920E-02 0.  1.
       -2   -1    0    0    0  501  0.00000000000E+00  0.00000000000E+00 -0.18294943690E+03  0.18294943692E+03  0.25500000920E-02 0. -1.
    10030    2    1    2    0    0  0.00000000000E+00  0.00000000000E+00  0.11434835335E+04  0.15093824073E+04  0.98523127241E+03 0.  0.
        4    1    3    3  502    0 -0.61818116783E+02 -0.47498486299E+03  0.39548455397E+03  0.62116160938E+03  0.12699999809E+01 0. -1.
       -4    1    3    3    0  502  0.61818116783E+02  0.47498486299E+03  0.74799897950E+03  0.88822079793E+03  0.12699999809E+01 0.  1.
</event>
<event>
 5   0  0.5189877E-03  0.1000508E+04  0.7818609E-02  0.9307988E-01
        1   -1    0    0  501    0  0.00000000000E+00  0.00000000000E+00  0.92317968672E+03  0.92317968673E+03  0.50400001928E-02 0. -1.
       -1   -1    0    0    0  501  0.00000000000E+00  0.00000000000E+00 -0.27107814326E+03  0.27107814331E+03  0.50400001928E-02 0.  1.
    10030    2    1    2    0    0  0.00000000000E+00  0.00000000000E+00  0.65210154346E+03  0.11942578300E+04  0.10005075420E+04 0.  0.
        3    1    3    3  502    0  0.22843959937E+03  0.28727536344E+03  0.73179069857E+03  0.81867540681E+03  0.10100000352E+00 0. -1.
       -3    1    3    3    0  502 -0.22843959937E+03 -0.28727536344E+03 -0.79689155110E+02  0.37558242324E+03  0.10100000352E+00 0.  1.
</event>
<event>
 5   0  0.5349685E-03  0.1040280E+04  0.7818609E-02  0.9265438E-01
       -1   -1    0    0    0  501  0.00000000000E+00  0.00000000000E+00  0.30242222787E+03  0.30242222791E+03  0.50400001928E-02 0. -1.
        1   -1    0    0  501    0  0.00000000000E+00  0.00000000000E+00 -0.89459514786E+03  0.89459514788E+03  0.50400001928E-02 0.  1.
    10030    2    1    2    0    0  0.00000000000E+00  0.00000000000E+00 -0.59217292000E+03  0.11970173758E+04  0.10402796887E+04 0.  0.
        4    1    3    3  502    0 -0.20081605162E+03 -0.39390820658E+03 -0.61132158590E+03  0.75445772319E+03  0.12699999809E+01 0.  1.
       -4    1    3    3    0  502  0.20081605162E+03  0.39390820658E+03  0.19148665902E+02  0.44255965259E+03  0.12699999809E+01 0. -1.
</event>
<event>
 5   0  0.5201968E-03  0.1032305E+04  0.7818609E-02  0.9273807E-01
        1   -1    0    0  501    0  0.00000000000E+00  0.00000000000E+00  0.29071966586E+03  0.29071966591E+03  0.50400001928E-02 0. -1.
       -1   -1    0    0    0  501  0.00000000000E+00  0.00000000000E+00 -0.91639197016E+03  0.91639197017E+03  0.50400001928E-02 0.  1.
    10030    2    1    2    0    0  0.00000000000E+00  0.00000000000E+00 -0.62567230429E+03  0.12071116361E+04  0.10323045430E+04 0.  0.
        2    1    3    3  502    0  0.49618485872E+03  0.20173678023E+02 -0.47740456992E+03  0.68885522042E+03  0.25500000920E-02 0.  1.
       -2    1    3    3    0  502 -0.49618485872E+03 -0.20173678023E+02 -0.14826773437E+03  0.51825641566E+03  0.25500000920E-02 0. -1.
</event>
<event>
 5   0  0.9040674E-03  0.1013837E+04  0.7818609E-02  0.9293498E-01
        2   -1    0    0  501    0  0.00000000000E+00  0.00000000000E+00  0.16189939148E+04  0.16189939148E+04  0.25500000920E-02 0. -1.
       -2   -1    0    0    0  501  0.00000000000E+00  0.00000000000E+00 -0.15871969819E+03  0.15871969822E+03  0.25500000920E-02 0.  1.
    10030    2    1    2    0    0  0.00000000000E+00  0.00000000000E+00  0.14602742166E+04  0.17777136130E+04  0.10138367236E+04 0.  0.
        1    1    3    3  502    0 -0.11610137360E+03  0.43979174896E+03  0.33777938758E+03  0.56656087590E+03  0.50400001928E-02 0.  1.
       -1    1    3    3    0  502  0.11610137360E+03 -0.43979174896E+03  0.11224948290E+04  0.12111527371E+04  0.50400001928E-02 0. -1.
</event>
<event>
 5   0  0.5310275E-03  0.9874517E+03  0.7818609E-02  0.9322416E-01
       -1   -1    0    0    0  501  0.00000000000E+00  0.00000000000E+00  0.39512538047E+03  0.39512538050E+03  0.50400001928E-02 0. -1.
        1   -1    0    0  501    0  0.00000000000E+00  0.00000000000E+00 -0.61693126460E+03  0.61693126462E+03  0.50400001928E-02 0.  1.
    10030    2    1    2    0    0  0.00000000000E+00  0.00000000000E+00 -0.22180588413E+03  0.10120566451E+04  0.98745167107E+03 0.  0.
        1    1    3    3  502    0 -0.17183721487E+03 -0.34925103536E+03  0.20041043556E+03  0.43779979079E+03  0.50400001928E-02 0. -1.
       -1    1    3    3    0  502  0.17183721487E+03  0.34925103536E+03 -0.42221631968E+03  0.57425685433E+03  0.50400001928E-02 0.  1.
</event>
<event>
 5   0  0.9040674E-03  0.9879506E+03  0.7818609E-02  0.9321860E-01
       -2   -1    0    0    0  501  0.00000000000E+00  0.00000000000E+00  0.71252231589E+03  0.71252231589E+03  0.25500000920E-02 0. -1.
        2   -1    0    0  501    0  0.00000000000E+00  0.00000000000E+00 -0.34246172272E+03  0.34246172273E+03  0.25500000920E-02 0.  1.
    10030    2    1    2    0    0  0.00000000000E+00  0.00000000000E+00  0.37006059317E+03  0.10549840386E+04  0.98795064610E+03 0.  0.
        1    1    3    3  502    0 -0.97485836090E+02  0.23159655827E+03 -0.26911550982E+03  0.36818964093E+03  0.50400001928E-02 0.  1.
       -1    1    3    3    0  502  0.97485836090E+02 -0.23159655827E+03  0.63917610299E+03  0.68679439769E+03  0.50400001928E-02 0. -1.
</event>
<event>
 5   0  0.8968798E-03  0.1003941E+04  0.7818609E-02  0.9304233E-01
        2   -1    0    0  501    0  0.00000000000E+00  0.00000000000E+00  0.19557795918E+04  0.19557795918E+04  0.25500000920E-02 0. -1.
       -2   -1    0    0    0  501  0.00000000000E+00  0.00000000000E+00 -0.12883585754E+03  0.12883585757E+03  0.25500000920E-02 0.  1.
    10030    2    1    2    0    0  0.00000000000E+00  0.00000000000E+00  0.18269437343E+04  0.20846154494E+04  0.10039413148E+04 0.  0.
        2    1    3    3  502    0  0.32373037491E+03  0.37854235880E+03  0.10427931837E+04  0.11556441049E+04  0.25500000920E-02 0.  1.
       -2    1    3    3    0  502 -0.32373037491E+03 -0.37854235880E+03  0.78415055055E+03  0.92897134454E+03  0.25500000920E-02 0. -1.
</event>
<event>
 5   0  0.8875655E-03  0.1012942E+04  0.7818609E-02  0.9294463E-01
        2   -1    0    0  501    0  0.00000000000E+00  0.00000000000E+00  0.80923212850E+03  0.80923212851E+03  0.25500000920E-02 0. -1.
       -2   -1    0    0    0  501  0.00000000000E+00  0.00000000000E+00 -0.31698320507E+03  0.31698320508E+03  0.25500000920E-02 0.  1.
    10030    2    1    2    0    0  0.00000000000E+00  0.00000000000E+00  0.49224892343E+03  0.11262153336E+04  0.10129422368E+04 0.  0.
        4    1    3    3  502    0 -0.19516066848E+03 -0.70295794894E+02 -0.26758502508E+03  0.33857428114E+03  0.12699999809E+01 0.  1.
       -4    1    3    3    0  502  0.19516066848E+03  0.70295794894E+02  0.75983394851E+03  0.78764105245E+03  0.12699999809E+01 0. -1.
</event>
<event>
 5   0  0.5201968E-03  0.1009548E+04  0.7818609E-02  0.9298135E-01
        1   -1    0    0  501    0  0.00000000000E+00  0.00000000000E+00  0.10308811431E+04  0.10308811431E+04  0.50400001928E-02 0.  1.
       -1   -1    0    0    0  501  0.00000000000E+00  0.00000000000E+00 -0.24716395680E+03  0.24716395685E+03  0.50400001928E-02 0. -1.
    10030    2    1    2    0    0  0.00000000000E+00  0.00000000000E+00  0.78371718630E+03  0.12780451000E+04  0.10095477450E+04 0.  0.
        2    1    3    3  502    0 -0.97675401198E+02  0.30347891105E+03 -0.10357717524E+03  0.33521361053E+03  0.25500000920E-02 0. -1.
       -2    1    3    3    0  502  0.97675401198E+02 -0.30347891105E+03  0.88729436154E+03  0.94283148944E+03  0.25500000920E-02 0.  1.
</event>
<event>
 5   0  0.5310275E-03  0.9994386E+03  0.7818609E-02  0.9309161E-01
        1   -1    0    0  501    0  0.00000000000E+00  0.00000000000E+00  0.10317229589E+04  0.10317229590E+04  0.50400001928E-02 0. -1.
       -1   -1    0    0    0  501  0.00000000000E+00  0.00000000000E+00 -0.24204112352E+03  0.24204112357E+03  0.50400001928E-02 0.  1.
    10030    2    1    2    0    0  0.00000000000E+00  0.00000000000E+00  0.78968183542E+03  0.12737640825E+04  0.99943861078E+03 0.  0.
        1    1    3    3  502    0  0.37482595791E+02 -0.23142767856E+03 -0.16760132203E+03  0.28819076766E+03  0.50400001928E-02 0.  1.
       -1    1    3    3    0  502 -0.37482595791E+02  0.23142767856E+03  0.95728315745E+03  0.98557331486E+03  0.50400001928E-02 0. -1.
</event>
<event>
 5   0  0.8875655E-03  0.9938350E+03  0.7818609E-02  0.9315332E-01
       -2   -1    0    0    0  501  0.00000000000E+00  0.00000000000E+00  0.14811066037E+03  0.14811066039E+03  0.25500000920E-02 0. -1.
        2   -1    0    0  501    0  0.00000000000E+00  0.00000000000E+00 -0.16671792861E+04  0.16671792861E+04  0.25500000920E-02 0.  1.
    10030    2    1    2    0    0  0.00000000000E+00  0.00000000000E+00 -0.15190686257E+04  0.18152899465E+04  0.99383504675E+03 0.  0.
        4    1    3    3  502    0  0.15293157992E+03 -0.23954988695E+03 -0.15040708997E+04  0.15306871335E+04  0.12699999809E+01 0.  1.
       -4    1    3    3    0  502 -0.15293157992E+03  0.23954988695E+03 -0.14997726040E+02  0.28460281299E+03  0.12699999809E+01 0. -1.
</event>
<event>
 5   0  0.8907355E-03  0.1001509E+04  0.7818609E-02  0.9306892E-01
       -2   -1    0    0    0  501  0.00000000000E+00  0.00000000000E+00  0.18411612588E+03  0.18411612590E+03  0.25500000920E-02 0.  1.
        2   -1    0    0  501    0  0.00000000000E+00  0.00000000000E+00 -0.13619391053E+04  0.13619391053E+04  0.25500000920E-02 0. -1.
    10030    2    1    2    0    0  0.00000000000E+00  0.00000000000E+00 -0.11778229795E+04  0.15460552312E+04  0.10015087654E+04 0.  0.
        5    1    3    3  502    0 -0.13094919935E+03  0.37234190409E+03 -0.11323670407E+03  0.41064684036E+03  0.46999998093E+01 0.  1.
       -5    1    3    3    0  502  0.13094919935E+03 -0.37234190409E+03 -0.10645862754E+04  0.11354083909E+04  0.46999998093E+01 0. -1.
</event>
<event>
 5   0  0.5201968E-03  0.1009667E+04  0.7818609E-02  0.9298005E-01
       -1   -1    0    0    0  501  0.00000000000E+00  0.00000000000E+00  0.70457547412E+03  0.70457547413E+03  0.50400001928E-02 0.  1.
        1   -1    0    0  501    0  0.00000000000E+00  0.00000000000E+00 -0.36171688677E+03  0.36171688681E+03  0.50400001928E-02 0. -1.
    10030    2    1    2    0    0  0.00000000000E+00  0.00000000000E+00  0.34285858735E+03  0.10662923609E+04  0.10096669689E+04 0.  0.
        2    1    3    3  502    0  0.18516590635E+03  0.32274473197E+02 -0.32338688791E+03  0.37404162038E+03  0.25500000920E-02 0. -1.
       -2    1    3    3    0  502 -0.18516590635E+03 -0.32274473197E+02  0.66624547526E+03  0.69225074056E+03  0.25500000920E-02 0.  1.
</event>
<event>
 5   0  0.3513625E-03  0.9807828E+03  0.7818609E-02  0.9329877E-01
        3   -1    0    0  501    0  0.00000000000E+00  0.00000000000E+00  0.39676449040E+03  0.39676450325E+03  0.10100000352E+00 0.  1.
       -3   -1    0    0    0  501  0.00000000000E+00  0.00000000000E+00 -0.60611197628E+03  0.60611198470E+03  0.10100000352E+00 0. -1.
    10030    2    1    2    0    0  0.00000000000E+00  0.00000000000E+00 -0.20934748589E+03  0.10028764880E+04  0.98078278953E+03 0.  0.
        4    1    3    3  502    0 -0.76372823064E+01 -0.46987145423E+03  0.38642745789E+02  0.47152135295E+03  0.12699999809E+01 0.  1.
       -4    1    3    3    0  502  0.76372823064E+01  0.46987145423E+03 -0.24799023168E+03  0.53135513500E+03  0.12699999809E+01 0. -1.
</event>
<event>
 5   0  0.5189877E-03  0.1014616E+04  0.7818609E-02  0.9292658E-01
       -1   -1    0    0    0  501  0.00000000000E+00  0.00000000000E+00  0.12350517916E+03  0.12350517926E+03  0.50400001928E-02 0. -1.
        1   -1    0    0  501    0  0.00000000000E+00  0.00000000000E+00 -0.20838114380E+04  0.20838114380E+04  0.50400001928E-02 0.  1.
    10030    2    1    2    0    0  0.00000000000E+00  0.00000000000E+00 -0.19603062588E+04  0.22073166173E+04  0.10146161937E+04 0.  0.
        3    1    3    3  502    0 -0.11845106589E+03  0.22741806410E+02  0.91858241672E+02  0.15161065772E+03  0.10100000352E+00 0. -1.
       -3    1    3    3    0  502  0.11845106589E+03 -0.22741806410E+02 -0.20521645005E+04  0.20557059596E+04  0.10100000352E+00 0.  1.
</event>
<event>
 5   0  0.8968798E-03  0.1002451E+04  0.7818609E-02  0.9305861E-01
        2   -1    0    0  501    0  0.00000000000E+00  0.00000000000E+00  0.18763228937E+03  0.18763228939E+03  0.25500000920E-02 0.  1.
       -2   -1    0    0    0  501  0.00000000000E+00  0.00000000000E+00 -0.13389326749E+04  0.13389326749E+04  0.25500000920E-02 0. -1.
    10030    2    1    2    0    0  0.00000000000E+00  0.00000000000E+00 -0.11513003855E+04  0.15265649643E+04  0.10024510025E+04 0.  0.
        2    1    3    3  502    0  0.38617175944E+03 -0.27070964408E+03 -0.31715116406E+03  0.56832842623E+03  0.25500000920E-02 0.  1.
       -2    1    3    3    0  502 -0.38617175944E+03  0.27070964408E+03 -0.83414922146E+03  0.95823653806E+03  0.25500000920E-02 0. -1.
</event>
<event>
 5   0  0.8875655E-03  0.9982785E+03  0.7818609E-02  0.9310435E-01
        2   -1    0    0  501    0  0.00000000000E+00  0.00000000000E+00  0.14049120737E+04  0.14049120737E+04  0.25500000920E-02 0.  1.
       -2   -1    0    0    0  501  0.00000000000E+00  0.00000000000E+00 -0.17733493606E+03  0.17733493608E+03  0.25500000920E-02 0. -1.
    10030    2    1    2    0    0  0.00000000000E+00  0.00000000000E+00  0.12275771376E+04  0.15822470097E+04  0.99827850377E+03 0.  0.
        4    1    3    3  502    0 -0.11178474659E+03  0.30828550559E+03  0.12102167751E+04  0.12538588589E+04  0.12699999809E+01 0.  1.
       -4    1    3    3    0  502  0.11178474659E+03 -0.30828550559E+03  0.17360362542E+02  0.32838815084E+03  0.12699999809E+01 0. -1.
</event>
<event>
 5   0  0.5310275E-03  0.9942646E+03  0.7818609E-02  0.9314858E-01
       -1   -1    0    0    0  501  0.00000000000E+00  0.00000000000E+00  0.36231620387E+03  0.36231620391E+03  0.50400001928E-02 0. -1.
        1   -1    0    0  501    0  0.00000000000E+00  0.00000000000E+00 -0.68211282824E+03  0.68211282826E+03  0.50400001928E-02 0.  1.
    10030    2    1    2    0    0  0.00000000000E+00  0.00000000000E+00 -0.31979662437E+03  0.10444290322E+04  0.99426461381E+03 0.  0.
        1    1    3    3  502    0  0.38415158290E+02  0.46103389121E+03 -0.35104787715E+03  0.58074313195E+03  0.50400001928E-02 0.  1.
       -1    1    3    3    0  502 -0.38415158290E+02 -0.46103389121E+03  0.31251252780E+02  0.46368590022E+03  0.50400001928E-02 0. -1.
</event>
<event>
 5   0  0.5310275E-03  0.9613946E+03  0.7818609E-02  0.9351930E-01
       -1   -1    0    0    0  501  0.00000000000E+00  0.00000000000E+00  0.75347070154E+03  0.75347070155E+03  0.50400001928E-02 0.  1.
        1   -1    0    0  501    0  0.00000000000E+00  0.00000000000E+00 -0.30667404690E+03  0.30667404695E+03  0.50400001928E-02 0. -1.
    10030    2    1    2    0    0  0.00000000000E+00  0.00000000000E+00  0.44679665463E+03  0.10601447485E+04  0.96139463134E+03 0.  0.
        1    1    3    3  502    0  0.82315118696E+02  0.19916828903E+03  0.69721468394E+03  0.72976167456E+03  0.50400001928E-02 0.  1.
       -1    1    3    3    0  502 -0.82315118696E+02 -0.19916828903E+03 -0.25041802931E+03  0.33038307394E+03  0.50400001928E-02 0. -1.
</event>
<event>
 5   0  0.9243773E-03  0.1004932E+04  0.7818609E-02  0.9303152E-01
       -2   -1    0    0    0  501  0.00000000000E+00  0.00000000000E+00  0.22869172760E+03  0.22869172761E+03  0.25500000920E-02 0.  1.
        2   -1    0    0  501    0  0.00000000000E+00  0.00000000000E+00 -0.11039850899E+04  0.11039850899E+04  0.25500000920E-02 0. -1.
    10030    2    1    2    0    0  0.00000000000E+00  0.00000000000E+00 -0.87529336235E+03  0.13326768176E+04  0.10049323509E+04 0.  0.
        3    1    3    3  502    0  0.44855974529E+03 -0.11867373625E+03 -0.18192949520E+03  0.49838504411E+03  0.10100000352E+00 0.  1.
       -3    1    3    3    0  502 -0.44855974529E+03  0.11867373625E+03 -0.69336386714E+03  0.83429177344E+03  0.10100000352E+00 0. -1.
</event>
<event>
 5   0  0.5349685E-03  0.9954852E+03  0.7818609E-02  0.9313510E-01
        1   -1    0    0  501    0  0.00000000000E+00  0.00000000000E+00  0.76751528242E+03  0.76751528244E+03  0.50400001928E-02 0.  1.
       -1   -1    0    0    0  501  0.00000000000E+00  0.00000000000E+00 -0.32279184893E+03  0.32279184897E+03  0.50400001928E-02 0. -1.
    10030    2    1    2    0    0  0.00000000000E+00  0.00000000000E+00  0.44472343350E+03  0.10903071314E+04  0.99548516237E+03 0.  0.
        4    1    3    3  502    0  0.30740054332E+03  0.35369524824E+03  0.38598658481E+02  0.47019877923E+03  0.12699999809E+01 0. -1.
       -4    1    3    3    0  502 -0.30740054332E+03 -0.35369524824E+03  0.40612477502E+03  0.62010835217E+03  0.12699999809E+01 0.  1.
</event>
<event>
 5   0  0.5310275E-03  0.1007746E+04  0.7818609E-02  0.9300090E-01
       -1   -1    0    0    0  501  0.00000000000E+00  0.00000000000E+00  0.33822868119E+03  0.33822868123E+03  0.50400001928E-02 0. -1.
        1   -1    0    0  501    0  0.00000000000E+00  0.00000000000E+00 -0.75064020515E+03  0.75064020517E+03  0.50400001928E-02 0.  1.
    10030    2    1    2    0    0  0.00000000000E+00  0.00000000000E+00 -0.41241152396E+03  0.10888688864E+04  0.10077460924E+04 0.  0.
        1    1    3    3  502    0 -0.19401590011E+01 -0.13935912292E+03 -0.72939875405E+03  0.74259495810E+03  0.50400001928E-02 0.  1.
       -1    1    3    3    0  502  0.19401590011E+01  0.13935912292E+03  0.31698723009E+03  0.34627392830E+03  0.50400001928E-02 0. -1.
</event>
<event>
 5   0  0.3513625E-03  0.9867192E+03  0.7818609E-02  0.9323232E-01
       -3   -1    0    0    0  501  0.00000000000E+00  0.00000000000E+00  0.31098861024E+03  0.31098862664E+03  0.10100000352E+00 0. -1.
        3   -1    0    0  501    0  0.00000000000E+00  0.00000000000E+00 -0.78267721603E+03  0.78267722254E+03  0.10100000352E+00 0.  1.
    10030    2    1    2    0    0  0.00000000000E+00  0.00000000000E+00 -0.47168860578E+03  0.10936658492E+04  0.98671923507E+03 0.  0.
        1    1    3    3  502    0  0.95500144601E+02 -0.15500260086E+02  0.30037080806E+03  0.31556799274E+03  0.50400001928E-02 0. -1.
       -1    1    3    3    0  502 -0.95500144601E+02  0.15500260086E+02 -0.77205941384E+03  0.77809785645E+03  0.50400001928E-02 0.  1.
</event>
<event>
 5   0  0.5310275E-03  0.1006695E+04  0.7818609E-02  0.9301232E-01
       -1   -1    0    0    0  501  0.00000000000E+00  0.00000000000E+00  0.67277981372E+03  0.67277981374E+03  0.50400001928E-02 0.  1.
        1   -1    0    0  501    0  0.00000000000E+00  0.00000000000E+00 -0.37658510549E+03  0.37658510552E+03  0.50400001928E-02 0. -1.
    10030    2    1    2    0    0  0.00000000000E+00  0.00000000000E+00  0.29619470823E+03  0.10493649193E+04  0.10066953008E+04 0.  0.
        1    1    3    3  502    0  0.77876773204E+02  0.57136177643E+02 -0.36683441310E+03  0.37933734493E+03  0.50400001928E-02 0. -1.
       -1    1    3    3    0  502 -0.77876773204E+02 -0.57136177643E+02  0.66302912133E+03  0.67002757433E+03  0.50400001928E-02 0.  1.
</event>
<event>
 5   0  0.5189877E-03  0.1024303E+04  0.7818609E-02  0.9282285E-01
       -1   -1    0    0    0  501  0.00000000000E+00  0.00000000000E+00  0.14521924018E+03  0.14521924026E+03  0.50400001928E-02 0.  1.
        1   -1    0    0  501    0  0.00000000000E+00  0.00000000000E+00 -0.18062269666E+04  0.18062269666E+04  0.50400001928E-02 0. -1.
    10030    2    1    2    0    0  0.00000000000E+00  0.00000000000E+00 -0.16610077264E+04  0.19514462069E+04  0.10243025096E+04 0.  0.
        3    1    3    3  502    0 -0.49924308408E+02 -0.60416696484E+02  0.13372661386E+03  0.15500139109E+03  0.10100000352E+00 0.  1.
       -3    1    3    3    0  502  0.49924308408E+02  0.60416696484E+02 -0.17947343403E+04  0.17964448158E+04  0.10100000352E+00 0. -1.
</event>
<event>
 5   0  0.8907355E-03  0.1003897E+04  0.7818609E-02  0.9304281E-01
        2   -1    0    0  501    0  0.00000000000E+00  0.00000000000E+00  0.12794902767E+04  0.12794902767E+04  0.25500000920E-02 0. -1.
       -2   -1    0    0    0  501  0.00000000000E+00  0.00000000000E+00 -0.19691597630E+03  0.19691597631E+03  0.25500000920E-02 0.  1.
    10030    2    1    2    0    0  0.00000000000E+00  0.00000000000E+00  0.10825743004E+04  0.14764062530E+04  0.10038965624E+04 0.  0.
        5    1    3    3  502    0 -0.14020031952E+02  0.30942935185E+03  0.11221331129E+04  0.11641081987E+04  0.46999998093E+01 0. -1.
       -5    1    3    3    0  502  0.14020031952E+02 -0.30942935185E+03 -0.39558812555E+02  0.31229805432E+03  0.46999998093E+01 0.  1.
</event>
<event>
 5   0  0.5349685E-03  0.9948307E+03  0.7818609E-02  0.9314233E-01
        1   -1    0    0  501    0  0.00000000000E+00  0.00000000000E+00  0.37718453784E+03  0.37718453788E+03  0.50400001928E-02 0. -1.
       -1   -1    0    0    0  501  0.00000000000E+00  0.00000000000E+00 -0.65597072127E+03  0.65597072129E+03  0.50400001928E-02 0.  1.
    10030    2    1    2    0    0  0.00000000000E+00  0.00000000000E+00 -0.27878618343E+03  0.10331552592E+04  0.99483066573E+03 0.  0.
        4    1    3    3  502    0 -0.13009750725E+03 -0.45250609306E+03  0.27202672824E+02  0.47162349809E+03  0.12699999809E+01 0. -1.
       -4    1    3    3    0  502  0.13009750725E+03  0.45250609306E+03 -0.30598885625E+03  0.56153176107E+03  0.12699999809E+01 0.  1.
</event>
<event>
 5   0  0.5310275E-03  0.9929260E+03  0.7818609E-02  0.9316338E-01
        1   -1    0    0  501    0  0.00000000000E+00  0.00000000000E+00  0.62517715796E+03  0.62517715798E+03  0.50400001928E-02 0.  1.
       -1   -1    0    0    0  501  0.00000000000E+00  0.00000000000E+00 -0.39424909715E+03  0.39424909718E+03  0.50400001928E-02 0. -1.
    10030    2    1    2    0    0  0.00000000000E+00  0.00000000000E+00  0.23092806081E+03  0.10194262552E+04  0.99292603976E+03 0.  0.
        1    1    3    3  502    0 -0.37255845800E+03  0.68980562663E+02 -0.21390543354E+03  0.43510189286E+03  0.50400001928E-02 0. -1.
       -1    1    3    3    0  502  0.37255845800E+03 -0.68980562663E+02  0.44483349434E+03  0.58432436229E+03  0.50400001928E-02 0.  1.
</event>
<event>
 5   0  0.5310275E-03  0.1009050E+04  0.7818609E-02  0.9298675E-01
        1   -1    0    0  501    0  0.00000000000E+00  0.00000000000E+00  0.89751048006E+03  0.89751048007E+03  0.50400001928E-02 0.  1.
       -1   -1    0    0    0  501  0.00000000000E+00  0.00000000000E+00 -0.28361257207E+03  0.28361257211E+03  0.50400001928E-02 0. -1.
    10030    2    1    2    0    0  0.00000000000E+00  0.00000000000E+00  0.61389790799E+03  0.11811230522E+04  0.10090495642E+04 0.  0.
        1    1    3    3  502    0  0.48406970809E+03 -0.14100710627E+03  0.32849337071E+03  0.60175940452E+03  0.50400001928E-02 0. -1.
       -1    1    3    3    0  502 -0.48406970809E+03  0.14100710627E+03  0.28540453728E+03  0.57936364766E+03  0.50400001928E-02 0.  1.
</event>
<event>
 5   0  0.8907355E-03  0.1001988E+04  0.7818609E-02  0.9306367E-01
       -2   -1    0    0    0  501  0.00000000000E+00  0.00000000000E+00  0.16982706466E+03  0.16982706468E+03  0.25500000920E-02 0. -1.
        2   -1    0    0  501    0  0.00000000000E+00  0.00000000000E+00 -0.14779438044E+04  0.14779438044E+04  0.25500000920E-02 0.  1.
    10030    2    1    2    0    0  0.00000000000E+00  0.00000000000E+00 -0.13081167397E+04  0.16477708691E+04  0.10019877405E+04 0.  0.
        5    1    3    3  502    0 -0.39168782492E+03  0.52731638859E+01 -0.11676213964E+04  0.12315879887E+04  0.46999998093E+01 0.  1.
       -5    1    3    3    0  502  0.39168782492E+03 -0.52731638859E+01 -0.14049534330E+03  0.41618288040E+03  0.46999998093E+01 0. -1.
</event>
<event>
 5   0  0.8875655E-03  0.1005669E+04  0.7818609E-02  0.9302348E-01
       -2   -1    0    0    0  501  0.00000000000E+00  0.00000000000E+00  0.25838970564E+03  0.25838970565E+03  0.25500000920E-02 0.  1.
        2   -1    0    0  501    0  0.00000000000E+00  0.00000000000E+00 -0.97853262245E+03  0.97853262245E+03  0.25500000920E-02 0. -1.
    10030    2    1    2    0    0  0.00000000000E+00  0.00000000000E+00 -0.72014291681E+03  0.12369223281E+04  0.10056694413E+04 0.  0.
        4    1    3    3  502    0  0.12852959089E+03  0.34061892735E+03 -0.78667067200E+03  0.86682954985E+03  0.12699999809E+01 0. -1.
       -4    1    3    3    0  502 -0.12852959089E+03 -0.34061892735E+03  0.66527755185E+02  0.37009277825E+03  0.12699999809E+01 0.  1.
</event>
<event>
 5   0  0.5072205E-03  0.9786096E+03  0.7818609E-02  0.9332322E-01
       -1   -1    0    0    0  501  0.00000000000E+00  0.00000000000E+00  0.28596494832E+03  0.28596494837E+03  0.50400001928E-02 0.  1.
        1   -1    0    0  501    0  0.00000000000E+00  0.00000000000E+00 -0.83723261153E+03  0.83723261155E+03  0.50400001928E-02 0. -1.
    10030    2    1    2    0    0  0.00000000000E+00  0.00000000000E+00 -0.55126766321E+03  0.11231975599E+04  0.97860958614E+03 0.  0.
        5    1    3    3  502    0 -0.19187631276E+03  0.41625161151E+03 -0.47214754949E+03  0.65804811524E+03  0.46999998093E+01 0.  1.
       -5    1    3    3    0  502  0.19187631276E+03 -0.41625161151E+03 -0.79120113720E+02  0.46514944467E+03  0.46999998093E+01 0. -1.
</event>
<event>
 5   0  0.8875655E-03  0.9994898E+03  0.7818609E-02  0.9309105E-01
       -2   -1    0    0    0  501  0.00000000000E+00  0.00000000000E+00  0.41903595192E+03  0.41903595193E+03  0.25500000920E-02 0.  1.
        2   -1    0    0  501    0  0.00000000000E+00  0.00000000000E+00 -0.59599887828E+03  0.59599887828E+03  0.25500000920E-02 0. -1.
    10030    2    1    2    0    0  0.00000000000E+00  0.00000000000E+00 -0.17696292636E+03  0.10150348302E+04  0.99948978446E+03 0.  0.
        4    1    3    3  502    0 -0.32207090308E+02  0.32292186944E+03 -0.47442835992E+03  0.57480406403E+03  0.12699999809E+01 0. -1.
       -4    1    3    3    0  502  0.32207090308E+02 -0.32292186944E+03  0.29746543356E+03  0.44023076618E+03  0.12699999809E+01 0.  1.
</event>
<event>
 5   0  0.5189877E-03  0.9959204E+03  0.7818609E-02  0.9313031E-01
       -1   -1    0    0    0  501  0.00000000000E+00  0.00000000000E+00  0.30234302182E+03  0.30234302186E+03  0.50400001928E-02 0.  1.
        1   -1    0    0  501    0  0.00000000000E+00  0.00000000000E+00 -0.82014257361E+03  0.82014257363E+03  0.50400001928E-02 0. -1.
    10030    2    1    2    0    0  0.00000000000E+00  0.00000000000E+00 -0.51779955179E+03  0.11224855955E+04  0.99592044674E+03 0.  0.
        3    1    3    3  502    0  0.23523726369E+03  0.55059039127E+02 -0.74966192924E+03  0.78763004410E+03  0.10100000352E+00 0. -1.
       -3    1    3    3    0  502 -0.23523726369E+03 -0.55059039127E+02  0.23186237744E+03  0.33485555139E+03  0.10100000352E+00 0.  1.
</event>
<event>
 5   0  0.8968798E-03  0.1029710E+04  0.7818609E-02  0.9276546E-01
       -2   -1    0    0    0  501  0.00000000000E+00  0.00000000000E+00  0.35097946315E+03  0.35097946316E+03  0.25500000920E-02 0.  1.
        2   -1    0    0  501    0  0.00000000000E+00  0.00000000000E+00 -0.75524560269E+03  0.75524560269E+03  0.25500000920E-02 0. -1.
    10030    2    1    2    0    0  0.00000000000E+00  0.00000000000E+00 -0.40426613953E+03  0.11062250659E+04  0.10297100489E+04 0.  0.
        2    1    3    3  502    0  0.24501773448E+03  0.41695882080E+03 -0.39185510074E+03  0.62244579558E+03  0.25500000920E-02 0.  1.
       -2    1    3    3    0  502 -0.24501773448E+03 -0.41695882080E+03 -0.12411038790E+02  0.48377927027E+03  0.25500000920E-02 0. -1.
</event>
<event>
 5   0  0.9040674E-03  0.9845624E+03  0.7818609E-02  0.9325640E-01
       -2   -1    0    0    0  501  0.00000000000E+00  0.00000000000E+00  0.18625199937E+03  0.18625199938E+03  0.25500000920E-02 0.  1.
        2   -1    0    0  501    0  0.00000000000E+00  0.00000000000E+00 -0.13011445270E+04  0.13011445270E+04  0.25500000920E-02 0. -1.
    10030    2    1    2    0    0  0.00000000000E+00  0.00000000000E+00 -0.11148925277E+04  0.14873965264E+04  0.98456237921E+03 0.  0.
        1    1    3    3  502    0  0.77505759531E+02 -0.30303662516E+03 -0.11317228394E+04  0.11741528539E+04  0.50400001928E-02 0. -1.
       -1    1    3    3    0  502 -0.77505759531E+02  0.30303662516E+03  0.16830311797E+02  0.31324367251E+03  0.50400001928E-02 0.  1.
</event>
<event>
 5   0  0.5349685E-03  0.9686710E+03  0.7818609E-02  0.9343589E-01
        1   -1    0    0  501    0  0.00000000000E+00  0.00000000000E+00  0.11424611507E+04  0.11424611507E+04  0.50400001928E-02 0. -1.
       -1   -1    0    0    0  501  0.00000000000E+00  0.00000000000E+00 -0.20532942351E+03  0.20532942357E+03  0.50400001928E-02 0.  1.
    10030    2    1    2    0    0  0.00000000000E+00  0.00000000000E+00  0.93713172716E+03  0.13477905742E+04  0.96867102671E+03 0.  0.
        4    1    3    3  502    0  0.43599624990E+03  0.36495845292E+02  0.17952472969E+03  0.47292221149E+03  0.12699999809E+01 0.  1.
       -4    1    3    3    0  502 -0.43599624990E+03 -0.36495845292E+02  0.75760699747E+03  0.87486836276E+03  0.12699999809E+01 0. -1.
</event>
<event>
 5   0  0.9040674E-03  0.9977925E+03  0.7818609E-02  0.9310969E-01
       -2   -1    0    0    0  501  0.00000000000E+00  0.00000000000E+00  0.11198696297E+04  0.11198696297E+04  0.25500000920E-02 0. -1.
        2   -1    0    0  501    0  0.00000000000E+00  0.00000000000E+00 -0.22225575184E+03  0.22225575185E+03  0.25500000920E-02 0.  1.
    10030    2    1    2    0    0  0.00000000000E+00  0.00000000000E+00  0.89761387785E+03  0.13421253815E+04  0.99779249650E+03 0.  0.
        1    1    3    3  502    0 -0.49167463771E+03  0.81804371425E+02  0.47770494322E+03  0.69038968514E+03  0.50400001928E-02 0.  1.
       -1    1    3    3    0  502  0.49167463771E+03 -0.81804371425E+02  0.41990893463E+03  0.65173569640E+03  0.50400001928E-02 0. -1.
</event>
<event>
 5   0  0.3513625E-03  0.9372158E+03  0.7818609E-02  0.9380219E-01
        4   -1    0    0  501    0  0.00000000000E+00  0.00000000000E+00  0.12358021920E+04  0.12358028445E+04  0.12699999809E+01 0. -1.
       -4   -1    0    0    0  501  0.00000000000E+00  0.00000000000E+00 -0.17769000980E+03  0.17769454827E+03  0.12699999809E+01 0.  1.
    10030    2    1    2    0    0  0.00000000000E+00  0.00000000000E+00  0.10581121822E+04  0.14134973928E+04  0.93721581796E+03 0.  0.
        3    1    3    3  502    0 -0.41024652982E+03 -0.11318616616E+03  0.82490716639E+03  0.92821612074E+03  0.10100000352E+00 0. -1.
       -3    1    3    3    0  502  0.41024652982E+03  0.11318616616E+03  0.23320501578E+03  0.48528127207E+03  0.10100000352E+00 0.  1.
</event>
<event>
 5   0  0.8875655E-03  0.9741998E+03  0.7818609E-02  0.9337304E-01
        2   -1    0    0  501    0  0.00000000000E+00  0.00000000000E+00  0.12926631598E+04  0.12926631598E+04  0.25500000920E-02 0.  1.
       -2   -1    0    0    0  501  0.00000000000E+00  0.00000000000E+00 -0.18354843801E+03  0.18354843803E+03  0.25500000920E-02 0. -1.
    10030    2    1    2    0    0  0.00000000000E+00  0.00000000000E+00  0.11091147218E+04  0.14762115978E+04  0.97419978212E+03 0.  0.
        4    1    3    3  502    0  0.35170825472E+03 -0.35994799591E+02  0.10622877522E+04  0.11195763500E+04  0.12699999809E+01 0.  1.
       -4    1    3    3    0  502 -0.35170825472E+03  0.35994799591E+02  0.46826969598E+02  0.35663524786E+03  0.12699999809E+01 0. -1.
</event>
<event>
 5   0  0.9243773E-03  0.1015217E+04  0.7818609E-02  0.9292011E-01
       -2   -1    0    0    0  501  0.00000000000E+00  0.00000000000E+00  0.47478135463E+03  0.47478135464E+03  0.25500000920E-02 0.  1.
        2   -1    0    0  501    0  0.00000000000E+00  0.00000000000E+00 -0.54270493749E+03  0.54270493750E+03  0.25500000920E-02 0. -1.
    10030    2    1    2    0    0  0.00000000000E+00  0.00000000000E+00 -0.67923582860E+02  0.10174862921E+04  0.10152165984E+04 0.  0.
        3    1    3    3  502    0  0.43490618110E+03 -0.24834313277E+03  0.48978749963E+02  0.50320634545E+03  0.10100000352E+00 0.  1.
       -3    1    3    3    0  502 -0.43490618110E+03  0.24834313277E+03 -0.11690233282E+03  0.51427994669E+03  0.10100000352E+00 0. -1.
</event>
<event>
 5   0  0.5201968E-03  0.1042379E+04  0.7818609E-02  0.9263248E-01
        1   -1    0    0  501    0  0.00000000000E+00  0.00000000000E+00  0.10022415944E+04  0.10022415944E+04  0.50400001928E-02 0.  1.
       -1   -1    0    0    0  501  0.00000000000E+00  0.00000000000E+00 -0.27103086078E+03  0.27103086082E+03  0.50400001928E-02 0. -1.
    10030    2    1    2    0    0  0.00000000000E+00  0.00000000000E+00  0.73121073364E+03  0.12732724553E+04  0.10423788219E+04 0.  0.
        2    1    3    3  502    0 -0.30060754296E+03  0.32493455546E+03  0.70166628256E+03  0.82962818919E+03  0.25500000920E-02 0.  1.
       -2    1    3    3    0  502  0.30060754296E+03 -0.32493455546E+03  0.29544451080E+02  0.44364426606E+03  0.25500000920E-02 0. -1.
</event>
<event>
 5   0  0.5349685E-03  0.9992800E+03  0.7818609E-02  0.9309335E-01
        1   -1    0    0  501    0  0.00000000000E+00  0.00000000000E+00  0.24787772267E+03  0.24787772272E+03  0.50400001928E-02 0.  1.
       -1   -1    0    0    0  501  0.00000000000E+00  0.00000000000E+00 -0.10071099556E+04  0.10071099556E+04  0.50400001928E-02 0. -1.
    10030    2    1    2    0    0  0.00000000000E+00  0.00000000000E+00 -0.75923223296E+03  0.12549876784E+04  0.99927998543E+03 0.  0.
        4    1    3    3  502    0  0.17830909514E+03  0.15081326873E+03 -0.93434478573E+03  0.96308907529E+03  0.12699999809E+01 0. -1.
       -4    1    3    3    0  502 -0.17830909514E+03 -0.15081326873E+03  0.17511255277E+03  0.29189860307E+03  0.12699999809E+01 0.  1.
</event>
<event>
 5   0  0.5189877E-03  0.1012794E+04  0.7818609E-02  0.9294623E-01
       -1   -1    0    0    0  501  0.00000000000E+00  0.00000000000E+00  0.24706914381E+03  0.24706914386E+03  0.50400001928E-02 0.  1.
        1   -1    0    0  501    0  0.00000000000E+00  0.00000000000E+00 -0.10379189016E+04  0.10379189016E+04  0.50400001928E-02 0. -1.
    10030    2    1    2    0    0  0.00000000000E+00  0.00000000000E+00 -0.79084975780E+03  0.12849880455E+04  0.10127936303E+04 0.  0.
        3    1    3    3  502    0 -0.64324083592E+02 -0.19610857038E+03 -0.98213582151E+03  0.10035870372E+04  0.10100000352E+00 0. -1.
       -3    1    3    3    0  502  0.64324083592E+02  0.19610857038E+03  0.19128606371E+03  0.28140100831E+03  0.10100000352E+00 0.  1.
</event>
<event>
 5   0  0.5189877E-03  0.9915827E+03  0.7818609E-02  0.9317825E-01
        1   -1    0    0  501    0  0.00000000000E+00  0.00000000000E+00  0.85023155662E+03  0.85023155663E+03  0.50400001928E-02 0.  1.
       -1   -1    0    0    0  501  0.00000000000E+00  0.00000000000E+00 -0.28910838698E+03  0.28910838703E+03  0.50400001928E-02 0. -1.
    10030    2    1    2    0    0  0.00000000000E+00  0.00000000000E+00  0.56112316963E+03  0.11393399437E+04  0.99158272258E+03 0.  0.
        3    1    3    3  502    0  0.10920122756E+03 -0.12401647842E+03 -0.25653715890E+03  0.30514966675E+03  0.10100000352E+00 0. -1.
       -3    1    3    3    0  502 -0.10920122756E+03  0.12401647842E+03  0.81766032854E+03  0.83419027691E+03  0.10100000352E+00 0.  1.
</event>
<event>
 5   0  0.9040674E-03  0.1042669E+04  0.7818609E-02  0.9262946E-01
       -2   -1    0    0    0  501  0.00000000000E+00  0.00000000000E+00  0.40115579457E+03  0.40115579458E+03  0.25500000920E-02 0. -1.
        2   -1    0    0  501    0  0.00000000000E+00  0.00000000000E+00 -0.67751614345E+03  0.67751614345E+03  0.25500000920E-02 0.  1.
    10030    2    1    2    0    0  0.00000000000E+00  0.00000000000E+00 -0.27636034887E+03  0.10786719380E+04  0.10426687429E+04 0.  0.
        1    1    3    3  502    0  0.40283409962E+03 -0.29984550075E+03  0.66794617171E+01  0.50222231270E+03  0.50400001928E-02 0.  1.
       -1    1    3    3    0  502 -0.40283409962E+03  0.29984550075E+03 -0.28303981059E+03  0.57644962533E+03  0.50400001928E-02 0. -1.
</event>
<event>
 5   0  0.8907355E-03  0.9716444E+03  0.7818609E-02  0.9340203E-01
        2   -1    0    0  501    0  0.00000000000E+00  0.00000000000E+00  0.99803774931E+03  0.99803774931E+03  0.25500000920E-02 0. -1.
       -2   -1    0    0    0  501  0.00000000000E+00  0.00000000000E+00 -0.23648726371E+03  0.23648726372E+03  0.25500000920E-02 0.  1.
    10030    2    1    2    0    0  0.00000000000E+00  0.00000000000E+00  0.76155048560E+03  0.12345250130E+04  0.97164441319E+03 0.  0.
        5    1    3    3  502    0 -0.17040727607E+03 -0.31998010072E+02 -0.19580721972E+03  0.26158186037E+03  0.46999998093E+01 0.  1.
       -5    1    3    3    0  502  0.17040727607E+03  0.31998010072E+02  0.95735770531E+03  0.97294315266E+03  0.46999998093E+01 0. -1.
</event>
<event>
 5   0  0.8968798E-03  0.8859161E+03  0.7818609E-02  0.9443360E-01
       -2   -1    0    0    0  501  0.00000000000E+00  0.00000000000E+00  0.34104746347E+03  0.34104746348E+03  0.25500000920E-02 0. -1.
        2   -1    0    0  501    0  0.00000000000E+00  0.00000000000E+00 -0.57532125306E+03  0.57532125306E+03  0.25500000920E-02 0.  1.
    10030    2    1    2    0    0  0.00000000000E+00  0.00000000000E+00 -0.23427378959E+03  0.91636871654E+03  0.88591614511E+03 0.  0.
        2    1    3    3  502    0 -0.40094477588E+03 -0.88529722257E+02 -0.28903489879E+03  0.50213085720E+03  0.25500000920E-02 0. -1.
       -2    1    3    3    0  502  0.40094477588E+03  0.88529722257E+02  0.54761109203E+02  0.41423785934E+03  0.25500000920E-02 0.  1.
</event>
<event>
 5   0  0.5310275E-03  0.1015436E+04  0.7818609E-02  0.9291775E-01
       -1   -1    0    0    0  501  0.00000000000E+00  0.00000000000E+00  0.93944914090E+03  0.93944914092E+03  0.50400001928E-02 0.  1.
        1   -1    0    0  501    0  0.00000000000E+00  0.00000000000E+00 -0.27439220587E+03  0.27439220591E+03  0.50400001928E-02 0. -1.
    10030    2    1    2    0    0  0.00000000000E+00  0.00000000000E+00  0.66505693504E+03  0.12138413468E+04  0.10154359105E+04 0.  0.
        1    1    3    3  502    0 -0.42381640803E+02  0.47295227587E+03  0.54735781818E+03  0.72462448198E+03  0.50400001928E-02 0.  1.
       -1    1    3    3    0  502  0.42381640803E+02 -0.47295227587E+03  0.11769911685E+03  0.48921686485E+03  0.50400001928E-02 0. -1.
</event>
<event>
 5   0  0.8968798E-03  0.9897225E+03  0.7818609E-02  0.9319889E-01
       -2   -1    0    0    0  501  0.00000000000E+00  0.00000000000E+00  0.15056376306E+03  0.15056376308E+03  0.25500000920E-02 0.  1.
        2   -1    0    0  501    0  0.00000000000E+00  0.00000000000E+00 -0.16264714982E+04  0.16264714982E+04  0.25500000920E-02 0. -1.
    10030    2    1    2    0    0  0.00000000000E+00  0.00000000000E+00 -0.14759077351E+04  0.17770352612E+04  0.98972252533E+03 0.  0.
        2    1    3    3  502    0 -0.16617543743E+03  0.41206811197E+03 -0.11291613374E+04  0.12134330352E+04  0.25500000920E-02 0. -1.
       -2    1    3    3    0  502  0.16617543743E+03 -0.41206811197E+03 -0.34674639765E+03  0.56360222604E+03  0.25500000920E-02 0.  1.
</event>
<event>
 5   0  0.5310275E-03  0.1008199E+04  0.7818609E-02  0.9299598E-01
        1   -1    0    0  501    0  0.00000000000E+00  0.00000000000E+00  0.36273003368E+03  0.36273003371E+03  0.50400001928E-02 0. -1.
       -1   -1    0    0    0  501  0.00000000000E+00  0.00000000000E+00 -0.70056553093E+03  0.70056553095E+03  0.50400001928E-02 0.  1.
    10030    2    1    2    0    0  0.00000000000E+00  0.00000000000E+00 -0.33783549726E+03  0.10632955647E+04  0.10081987079E+04 0.  0.
        1    1    3    3  502    0 -0.75399236421E+02 -0.16261147337E+01 -0.69458212657E+03  0.69866445429E+03  0.50400001928E-02 0.  1.
       -1    1    3    3    0  502  0.75399236421E+02  0.16261147337E+01  0.35674662932E+03  0.36463111038E+03  0.50400001928E-02 0. -1.
</event>
<event>
 5   0  0.5072205E-03  0.9624981E+03  0.7818609E-02  0.9350660E-01
       -1   -1    0    0    0  501  0.00000000000E+00  0.00000000000E+00  0.22617656602E+03  0.22617656608E+03  0.50400001928E-02 0. -1.
        1   -1    0    0  501    0  0.00000000000E+00  0.00000000000E+00 -0.10239816818E+04  0.10239816818E+04  0.50400001928E-02 0.  1.
    10030    2    1    2    0    0  0.00000000000E+00  0.00000000000E+00 -0.79780511577E+03  0.12501582479E+04  0.96249812572E+03 0.  0.
        5    1    3    3  502    0  0.40201503099E+03 -0.26322859892E+03 -0.36520224375E+03  0.60357282019E+03  0.46999998093E+01 0. -1.
       -5    1    3    3    0  502 -0.40201503099E+03  0.26322859892E+03 -0.43260287203E+03  0.64658542770E+03  0.46999998093E+01 0.  1.
</event>
<event>
 5   0  0.8875655E-03  0.1017118E+04  0.7818609E-02  0.9289966E-01
       -2   -1    0    0    0  501  0.00000000000E+00  0.00000000000E+00  0.38567207058E+03  0.38567207059E+03  0.25500000920E-02 0. -1.
        2   -1    0    0  501    0  0.00000000000E+00  0.00000000000E+00 -0.67060209969E+03  0.67060209970E+03  0.25500000920E-02 0.  1.
    10030    2    1    2    0    0  0.00000000000E+00  0.00000000000E+00 -0.28493002911E+03  0.10562741703E+04  0.10171184795E+04 0.  0.
        4    1    3    3  502    0 -0.18838698911E+03 -0.45860626428E+03 -0.24873782147E+02  0.49641684222E+03  0.12699999809E+01 0. -1.
       -4    1    3    3    0  502  0.18838698911E+03  0.45860626428E+03 -0.26005624696E+03  0.55985732806E+03  0.12699999809E+01 0.  1.
</event>
<event>
 5   0  0.5310275E-03  0.9861262E+03  0.7818609E-02  0.9323894E-01
       -1   -1    0    0    0  501  0.00000000000E+00  0.00000000000E+00  0.23093578318E+03  0.23093578323E+03  0.50400001928E-02 0. -1.
        1   -1    0    0  501    0  0.00000000000E+00  0.00000000000E+00 -0.10527222422E+04  0.10527222422E+04  0.50400001928E-02 0.  1.
    10030    2    1    2    0    0  0.00000000000E+00  0.00000000000E+00 -0.82178645900E+03  0.12836580254E+04  0.98612623027E+03 0.  0.
        1    1    3    3  502    0 -0.13897974045E+03  0.28149486688E+03 -0.90581396821E+03  0.95867287088E+03  0.50400001928E-02 0.  1.
       -1    1    3    3    0  502  0.13897974045E+03 -0.28149486688E+03  0.84027509215E+02  0.32498515453E+03  0.50400001928E-02 0. -1.
</event>
<event>
 5   0  0.5072205E-03  0.9975373E+03  0.7818609E-02  0.9311250E-01
        1   -1    0    0  501    0  0.00000000000E+00  0.00000000000E+00  0.97633636053E+03  0.97633636054E+03  0.50400001928E-02 0.  1.
       -1   -1    0    0    0  501  0.00000000000E+00  0.00000000000E+00 -0.25479966372E+03  0.25479966377E+03  0.50400001928E-02 0. -1.
    10030    2    1    2    0    0  0.00000000000E+00  0.00000000000E+00  0.72153669681E+03  0.12311360243E+04  0.99753732037E+03 0.  0.
        5    1    3    3  502    0  0.11757406139E+03  0.43073045013E+03  0.86471078955E+02  0.45480954044E+03  0.46999998093E+01 0.  1.
       -5    1    3    3    0  502 -0.11757406139E+03 -0.43073045013E+03  0.63506561785E+03  0.77632648387E+03  0.46999998093E+01 0. -1.
</event>
<event>
 5   0  0.5310275E-03  0.8999619E+03  0.7818609E-02  0.9425629E-01
       -1   -1    0    0    0  501  0.00000000000E+00  0.00000000000E+00  0.26626229381E+03  0.26626229386E+03  0.50400001928E-02 0.  1.
        1   -1    0    0  501    0  0.00000000000E+00  0.00000000000E+00 -0.76046383964E+03  0.76046383966E+03  0.50400001928E-02 0. -1.
    10030    2    1    2    0    0  0.00000000000E+00  0.00000000000E+00 -0.49420154583E+03  0.10267261335E+04  0.89996187994E+03 0.  0.
        1    1    3    3  502    0 -0.30986030036E+03  0.13395520733E+03  0.92340428976E+02  0.34997736806E+03  0.50400001928E-02 0.  1.
       -1    1    3    3    0  502  0.30986030036E+03 -0.13395520733E+03 -0.58654197480E+03  0.67674876545E+03  0.50400001928E-02 0. -1.
</event>
<event>
 5   0  0.5201968E-03  0.1007946E+04  0.7818609E-02  0.9299873E-01
       -1   -1    0    0    0  501  0.00000000000E+00  0.00000000000E+00  0.41651748115E+03  0.41651748118E+03  0.50400001928E-02 0. -1.
        1   -1    0    0  501    0  0.00000000000E+00  0.00000000000E+00 -0.60979120101E+03  0.60979120104E+03  0.50400001928E-02 0.  1.
    10030    2    1    2    0    0  0.00000000000E+00  0.00000000000E+00 -0.19327371986E+03  0.10263086822E+04  0.10079458222E+04 0.  0.
        2    1    3    3  502    0  0.91892284883E+02 -0.45008697074E+03 -0.30769611311E+03  0.55290086930E+03  0.25500000920E-02 0.  1.
       -2    1    3    3    0  502 -0.91892284883E+02  0.45008697074E+03  0.11442239324E+03  0.47340781291E+03  0.25500000920E-02 0. -1.
</event>
<event>
 5   0  0.5201968E-03  0.1012664E+04  0.7818609E-02  0.9294763E-01
       -1   -1    0    0    0  501  0.00000000000E+00  0.00000000000E+00  0.22385849476E+03  0.22385849481E+03  0.50400001928E-02 0. -1.
        1   -1    0    0  501    0  0.00000000000E+00  0.00000000000E+00 -0.11452425577E+04  0.11452425577E+04  0.50400001928E-02 0.  1.
    10030    2    1    2    0    0  0.00000000000E+00  0.00000000000E+00 -0.92138406297E+03  0.13691010525E+04  0.10126643573E+04 0.  0.
        2    1    3    3  502    0  0.65576778290E+02 -0.49985364527E+03 -0.39701547179E+03  0.64169717577E+03  0.25500000920E-02 0. -1.
       -2    1    3    3    0  502 -0.65576778290E+02  0.49985364527E+03 -0.52436859118E+03  0.72740387678E+03  0.25500000920E-02 0.  1.
</event>
<event>
 5   0  0.5072205E-03  0.9724304E+03  0.7818609E-02  0.9339310E-01
        1   -1    0    0  501    0  0.00000000000E+00  0.00000000000E+00  0.84420498269E+03  0.84420498271E+03  0.50400001928E-02 0.  1.
       -1   -1    0    0    0  501  0.00000000000E+00  0.00000000000E+00 -0.28003294391E+03  0.28003294396E+03  0.50400001928E-02 0. -1.
    10030    2    1    2    0    0  0.00000000000E+00  0.00000000000E+00  0.56417203878E+03  0.11242379267E+04  0.97243037098E+03 0.  0.
        5    1    3    3  502    0  0.33899978492E+03  0.42110506674E+02  0.68205543050E+03  0.76283409023E+03  0.46999998093E+01 0.  1.
       -5    1    3    3    0  502 -0.33899978492E+03 -0.42110506674E+02 -0.11788339172E+03  0.36140383643E+03  0.46999998093E+01 0. -1.
</event>
<event>
 5   0  0.9040674E-03  0.9982046E+03  0.7818609E-02  0.9310516E-01
        2   -1    0    0  501    0  0.00000000000E+00  0.00000000000E+00  0.89619300344E+03  0.89619300345E+03  0.25500000920E-02 0. -1.
       -2   -1    0    0    0  501  0.00000000000E+00  0.00000000000E+00 -0.27795696329E+03  0.27795696330E+03  0.25500000920E-02 0.  1.
    10030    2    1    2    0    0  0.00000000000E+00  0.00000000000E+00  0.61823604015E+03  0.11741499667E+04  0.99820455973E+03 0.  0.
        1    1    3    3  502    0  0.18683903749E+03  0.93029566163E+02 -0.22415786224E+03  0.30628430149E+03  0.50400001928E-02 0.  1.
       -1    1    3    3    0  502 -0.18683903749E+03 -0.93029566163E+02  0.84239390239E+03  0.86786566525E+03  0.50400001928E-02 0. -1.
</event>
<event>
 5   0  0.5201968E-03  0.1006572E+04  0.7818609E-02  0.9301366E-01
        1   -1    0    0  501    0  0.00000000000E+00  0.00000000000E+00  0.46486408083E+03  0.46486408086E+03  0.50400001928E-02 0.  1.
       -1   -1    0    0    0  501  0.00000000000E+00  0.00000000000E+00 -0.54488387352E+03  0.54488387354E+03  0.50400001928E-02 0. -1.
    10030    2    1    2    0    0  0.00000000000E+00  0.00000000000E+00 -0.80019792684E+02  0.10097479544E+04  0.10065722846E+04 0.  0.
        2    1    3    3  502    0  0.15386318293E+03  0.30464843573E+03  0.33103864856E+03  0.47546938419E+03  0.25500000920E-02 0.  1.
       -2    1    3    3    0  502 -0.15386318293E+03 -0.30464843573E+03 -0.41105844125E+03  0.53427857021E+03  0.25500000920E-02 0. -1.
</event>
<event>
 5   0  0.9243773E-03  0.9930140E+03  0.7818609E-02  0.9316240E-01
       -2   -1    0    0    0  501  0.00000000000E+00  0.00000000000E+00  0.91430923170E+03  0.91430923170E+03  0.25500000920E-02 0.  1.
        2   -1    0    0  501    0  0.00000000000E+00  0.00000000000E+00 -0.26962343962E+03  0.26962343963E+03  0.25500000920E-02 0. -1.
    10030    2    1    2    0    0  0.00000000000E+00  0.00000000000E+00  0.64468579207E+03  0.11839326713E+04  0.99301399776E+03 0.  0.
        3    1    3    3  502    0 -0.42588527233E+03 -0.53491011994E+02  0.61988242308E+03  0.75398526656E+03  0.10100000352E+00 0.  1.
       -3    1    3    3    0  502  0.42588527233E+03  0.53491011994E+02  0.24803368994E+02  0.42994740477E+03  0.10100000352E+00 0. -1.
</event>
<event>
 5   0  0.5349685E-03  0.9787138E+03  0.7818609E-02  0.9332204E-01
        1   -1    0    0  501    0  0.00000000000E+00  0.00000000000E+00  0.12233947239E+04  0.12233947239E+04  0.50400001928E-02 0.  1.
       -1   -1    0    0    0  501  0.00000000000E+00  0.00000000000E+00 -0.19574238012E+03  0.19574238018E+03  0.50400001928E-02 0. -1.
    10030    2    1    2    0    0  0.00000000000E+00  0.00000000000E+00  0.10276523438E+04  0.14191371041E+04  0.97871383995E+03 0.  0.
        4    1    3    3  502    0 -0.35161336643E+03 -0.12539127118E+03  0.55034762746E+02  0.37733985789E+03  0.12699999809E+01 0. -1.
       -4    1    3    3    0  502  0.35161336643E+03  0.12539127118E+03  0.97261758101E+03  0.10417972462E+04  0.12699999809E+01 0.  1.
</event>
<event>
 5   0  0.9040674E-03  0.9819730E+03  0.7818609E-02  0.9328540E-01
        2   -1    0    0  501    0  0.00000000000E+00  0.00000000000E+00  0.21864424188E+04  0.21864424188E+04  0.25500000920E-02 0.  1.
       -2   -1    0    0    0  501  0.00000000000E+00  0.00000000000E+00 -0.11025570398E+03  0.11025570401E+03  0.25500000920E-02 0. -1.
    10030    2    1    2    0    0  0.00000000000E+00  0.00000000000E+00  0.20761867148E+04  0.22966981228E+04  0.98197301010E+03 0.  0.
        1    1    3    3  502    0 -0.23818024330E+03  0.32988046373E+03  0.39536693808E+03  0.56733232272E+03  0.50400001928E-02 0. -1.
       -1    1    3    3    0  502  0.23818024330E+03 -0.32988046373E+03  0.16808197767E+04  0.17293658001E+04  0.50400001928E-02 0.  1.
</event>
<event>
 5   0  0.5189877E-03  0.9808004E+03  0.7818609E-02  0.9329857E-01
       -1   -1    0    0    0  501  0.00000000000E+00  0.00000000000E+00  0.25073387036E+03  0.25073387041E+03  0.50400001928E-02 0. -1.
        1   -1    0    0  501    0  0.00000000000E+00  0.00000000000E+00 -0.95915392902E+03  0.95915392903E+03  0.50400001928E-02 0.  1.
    10030    2    1    2    0    0  0.00000000000E+00  0.00000000000E+00 -0.70842005866E+03  0.12098877994E+04  0.98080044236E+03 0.  0.
        3    1    3    3  502    0 -0.34171369066E+03  0.31239826707E+03 -0.15480039315E+03  0.48818448928E+03  0.10100000352E+00 0. -1.
       -3    1    3    3    0  502  0.34171369066E+03 -0.31239826707E+03 -0.55361966551E+03  0.72170331016E+03  0.10100000352E+00 0.  1.
</event>
<event>
 5   0  0.8875655E-03  0.1015675E+04  0.7818609E-02  0.9291518E-01
        2   -1    0    0  501    0  0.00000000000E+00  0.00000000000E+00  0.25206454650E+03  0.25206454652E+03  0.25500000920E-02 0. -1.
       -2   -1    0    0    0  501  0.00000000000E+00  0.00000000000E+00 -0.10231462928E+04  0.10231462928E+04  0.25500000920E-02 0.  1.
    10030    2    1    2    0    0  0.00000000000E+00  0.00000000000E+00 -0.77108174634E+03  0.12752108394E+04  0.10156749605E+04 0.  0.
        4    1    3    3  502    0 -0.22297547673E+02  0.24443680073E+01  0.25144026945E+03  0.25244202813E+03  0.12699999809E+01 0. -1.
       -4    1    3    3    0  502  0.22297547673E+02 -0.24443680073E+01 -0.10225220158E+04  0.10227688112E+04  0.12699999809E+01 0.  1.
</event>
<event>
 5   0  0.3513625E-03  0.9985622E+03  0.7818609E-02  0.9310123E-01
        3   -1    0    0  501    0  0.00000000000E+00  0.00000000000E+00  0.26923697169E+03  0.26923699064E+03  0.10100000352E+00 0.  1.
       -3   -1    0    0    0  501  0.00000000000E+00  0.00000000000E+00 -0.92588184587E+03  0.92588185138E+03  0.10100000352E+00 0. -1.
    10030    2    1    2    0    0  0.00000000000E+00  0.00000000000E+00 -0.65664487418E+03  0.11951188420E+04  0.99856224430E+03 0.  0.
        4    1    3    3  502    0 -0.14384793721E+03 -0.27172048011E+02 -0.89961684099E+03  0.91145083396E+03  0.12699999809E+01 0. -1.
       -4    1    3    3    0  502  0.14384793721E+03  0.27172048011E+02  0.24297196682E+03  0.28366800805E+03  0.12699999809E+01 0.  1.
</event>
<event>
 5   0  0.8875655E-03  0.9520050E+03  0.7818609E-02  0.9362810E-01
        2   -1    0    0  501    0  0.00000000000E+00  0.00000000000E+00  0.50769225555E+03  0.50769225555E+03  0.25500000920E-02 0. -1.
       -2   -1    0    0    0  501  0.00000000000E+00  0.00000000000E+00 -0.44629076263E+03  0.44629076264E+03  0.25500000920E-02 0.  1.
    10030    2    1    2    0    0  0.00000000000E+00  0.00000000000E+00  0.61401492913E+02  0.95398301819E+03  0.95200496620E+03 0.  0.
        4    1    3    3  502    0  0.42476185926E+03  0.14733667168E+03 -0.12597634600E+03  0.46690725477E+03  0.12699999809E+01 0. -1.
       -4    1    3    3    0  502 -0.42476185926E+03 -0.14733667168E+03  0.18737783891E+03  0.48707576343E+03  0.12699999809E+01 0.  1.
</event>
<event>
 5   0  0.8907355E-03  0.1005079E+04  0.7818609E-02  0.9302992E-01
       -2   -1    0    0    0  501  0.00000000000E+00  0.00000000000E+00  0.10697809512E+03  0.10697809515E+03  0.25500000920E-02 0. -1.
        2   -1    0    0  501    0  0.00000000000E+00  0.00000000000E+00 -0.23607263765E+04  0.23607263765E+04  0.25500000920E-02 0.  1.
    10030    2    1    2    0    0  0.00000000000E+00  0.00000000000E+00 -0.22537482814E+04  0.24677044717E+04  0.10050791230E+04 0.  0.
        5    1    3    3  502    0  0.37916609255E+03  0.31110408946E+02 -0.32078996690E+03  0.49765758926E+03  0.46999998093E+01 0. -1.
       -5    1    3    3    0  502 -0.37916609255E+03 -0.31110408946E+02 -0.19329583145E+04  0.19700468824E+04  0.46999998093E+01 0.  1.
</event>
<event>
 5   0  0.8968798E-03  0.9344328E+03  0.7818609E-02  0.9383534E-01
       -2   -1    0    0    0  501  0.00000000000E+00  0.00000000000E+00  0.16405004025E+03  0.16405004027E+03  0.25500000920E-02 0. -1.
        2   -1    0    0  501    0  0.00000000000E+00  0.00000000000E+00 -0.13306376887E+04  0.13306376887E+04  0.25500000920E-02 0.  1.
    10030    2    1    2    0    0  0.00000000000E+00  0.00000000000E+00 -0.11665876484E+04  0.14946877290E+04  0.93443280424E+03 0.  0.
        2    1    3    3  502    0 -0.45630409277E+03  0.76224429983E+02 -0.47879940266E+03  0.66578709570E+03  0.25500000920E-02 0.  1.
       -2    1    3    3    0  502  0.45630409277E+03 -0.76224429983E+02 -0.68778824579E+03  0.82890063328E+03  0.25500000920E-02 0. -1.
</event>
<event>
 5   0  0.9243773E-03  0.1014727E+04  0.7818609E-02  0.9292539E-01
        2   -1    0    0  501    0  0.00000000000E+00  0.00000000000E+00  0.10136423287E+04  0.10136423287E+04  0.25500000920E-02 0.  1.
       -2   -1    0    0    0  501  0.00000000000E+00  0.00000000000E+00 -0.25395299855E+03  0.25395299857E+03  0.25500000920E-02 0. -1.
    10030    2    1    2    0    0  0.00000000000E+00  0.00000000000E+00  0.75968933019E+03  0.12675953273E+04  0.10147265816E+04 0.  0.
        3    1    3    3  502    0 -0.17101381762E+03  0.33800520119E+03 -0.41793286154E+02  0.38110356968E+03  0.10100000352E+00 0. -1.
       -3    1    3    3    0  502  0.17101381762E+03 -0.33800520119E+03  0.80148261635E+03  0.88649175764E+03  0.10100000352E+00 0.  1.
</event>
<event>
 5   0  0.9243773E-03  0.9938101E+03  0.7818609E-02  0.9315360E-01
       -2   -1    0    0    0  501  0.00000000000E+00  0.00000000000E+00  0.98807331355E+03  0.98807331355E+03  0.25500000920E-02 0. -1.
        2   -1    0    0  501    0  0.00000000000E+00  0.00000000000E+00 -0.24989503389E+03  0.24989503390E+03  0.25500000920E-02 0.  1.
    10030    2    1    2    0    0  0.00000000000E+00  0.00000000000E+00  0.73817827966E+03  0.12379683475E+04  0.99381007075E+03 0.  0.
        3    1    3    3  502    0 -0.18711295717E+03  0.53813558820E+02 -0.20040207211E+03  0.27940679763E+03  0.10100000352E+00 0.  1.
       -3    1    3    3    0  502  0.18711295717E+03 -0.53813558820E+02  0.93858035178E+03  0.95856154982E+03  0.10100000352E+00 0. -1.
</event>
<event>
 5   0  0.8968798E-03  0.1049343E+04  0.7818609E-02  0.9256023E-01
        2   -1    0    0  501    0  0.00000000000E+00  0.00000000000E+00  0.11447373379E+04  0.11447373380E+04  0.25500000920E-02 0.  1.
       -2   -1    0    0    0  501  0.00000000000E+00  0.00000000000E+00 -0.24047451537E+03  0.24047451539E+03  0.25500000920E-02 0. -1.
    10030    2    1    2    0    0  0.00000000000E+00  0.00000000000E+00  0.90426282258E+03  0.13852118533E+04  0.10493429498E+04 0.  0.
        2    1    3    3  502    0 -0.21730005450E+03  0.32594271099E+03  0.91287781608E+03  0.99338002378E+03  0.25500000920E-02 0.  1.
       -2    1    3    3    0  502  0.21730005450E+03 -0.32594271099E+03 -0.86149935038E+01  0.39183182956E+03  0.25500000920E-02 0. -1.
</event>
<event>
 5   0  0.3513625E-03  0.9880820E+03  0.7818609E-02  0.9321714E-01
        3   -1    0    0  501    0  0.00000000000E+00  0.00000000000E+00  0.73405180370E+03  0.73405181065E+03  0.10100000352E+00 0.  1.
       -3   -1    0    0    0  501  0.00000000000E+00  0.00000000000E+00 -0.33250582790E+03  0.33250584324E+03  0.10100000352E+00 0. -1.
    10030    2    1    2    0    0  0.00000000000E+00  0.00000000000E+00  0.40154597580E+03  0.10665576539E+04  0.98808200995E+03 0.  0.
        2    1    3    3  502    0  0.30062018389E+03 -0.25105126986E+03 -0.12426983838E+03  0.41090415889E+03  0.25500000920E-02 0. -1.
       -2    1    3    3    0  502 -0.30062018389E+03  0.25105126986E+03  0.52581581418E+03  0.65565349500E+03  0.25500000920E-02 0.  1.
</event>
<event>
 5   0  0.3513625E-03  0.1069758E+04  0.7818609E-02  0.9235179E-01
        4   -1    0    0  501    0  0.00000000000E+00  0.00000000000E+00  0.90575106229E+03  0.90575195265E+03  0.12699999809E+01 0. -1.
       -4   -1    0    0    0  501  0.00000000000E+00  0.00000000000E+00 -0.31586335378E+03  0.31586590693E+03  0.12699999809E+01 0.  1.
    10030    2    1    2    0    0  0.00000000000E+00  0.00000000000E+00  0.58988770850E+03  0.12216178596E+04  0.10697582373E+04 0.  0.
        2    1    3    3  502    0  0.22708954296E+03 -0.46428571444E+03  0.45220582426E+03  0.68674667284E+03  0.25500000920E-02 0. -1.
       -2    1    3    3    0  502 -0.22708954296E+03  0.46428571444E+03  0.13768188425E+03  0.53487118675E+03  0.25500000920E-02 0.  1.
</event>
<event>
 5   0  0.9243773E-03  0.9999411E+03  0.7818609E-02  0.9308609E-01
       -2   -1    0    0    0  501  0.00000000000E+00  0.00000000000E+00  0.33391146642E+03  0.33391146643E+03  0.25500000920E-02 0.  1.
        2   -1    0    0  501    0  0.00000000000E+00  0.00000000000E+00 -0.74861320354E+03  0.74861320355E+03  0.25500000920E-02 0. -1.
    10030    2    1    2    0    0  0.00000000000E+00  0.00000000000E+00 -0.41470173713E+03  0.10825246700E+04  0.99994106343E+03 0.  0.
        3    1    3    3  502    0 -0.22927509636E+03 -0.15405823555E+03  0.24380352567E+03  0.36843069780E+03  0.10100000352E+00 0.  1.
       -3    1    3    3    0  502  0.22927509636E+03  0.15405823555E+03 -0.65850526280E+03  0.71409397217E+03  0.10100000352E+00 0. -1.
</event>
<event>
 5   0  0.5349685E-03  0.1027604E+04  0.7818609E-02  0.9278777E-01
       -1   -1    0    0    0  501  0.00000000000E+00  0.00000000000E+00  0.13127624815E+03  0.13127624824E+03  0.50400001928E-02 0. -1.
        1   -1    0    0  501    0  0.00000000000E+00  0.00000000000E+00 -0.20109681932E+04  0.20109681932E+04  0.50400001928E-02 0.  1.
    10030    2    1    2    0    0  0.00000000000E+00  0.00000000000E+00 -0.18796919451E+04  0.21422444415E+04  0.10276037362E+04 0.  0.
        4    1    3    3  502    0  0.40276469371E+03  0.28441552691E+03 -0.12410770831E+04  0.13354345845E+04  0.12699999809E+01 0.  1.
       -4    1    3    3    0  502 -0.40276469371E+03 -0.28441552691E+03 -0.63861486201E+03  0.80680985698E+03  0.12699999809E+01 0. -1.
</event>
<event>
 5   0  0.9040674E-03  0.1011459E+04  0.7818609E-02  0.9296066E-01
       -2   -1    0    0    0  501  0.00000000000E+00  0.00000000000E+00  0.19274257436E+03  0.19274257437E+03  0.25500000920E-02 0. -1.
        2   -1    0    0  501    0  0.00000000000E+00  0.00000000000E+00 -0.13269622969E+04  0.13269622969E+04  0.25500000920E-02 0.  1.
    10030    2    1    2    0    0  0.00000000000E+00  0.00000000000E+00 -0.11342197225E+04  0.15197048713E+04  0.10114586085E+04 0.  0.
        1    1    3    3  502    0 -0.36591016117E+03  0.16644108365E+03 -0.10281786172E+04  0.11039674585E+04  0.50400001928E-02 0.  1.
       -1    1    3    3    0  502  0.36591016117E+03 -0.16644108365E+03 -0.10604110531E+03  0.41573741281E+03  0.50400001928E-02 0. -1.
</event>
<event>
 5   0  0.8968798E-03  0.1034543E+04  0.7818609E-02  0.9271450E-01
       -2   -1    0    0    0  501  0.00000000000E+00  0.00000000000E+00  0.44982919733E+03  0.44982919734E+03  0.25500000920E-02 0. -1.
        2   -1    0    0  501    0  0.00000000000E+00  0.00000000000E+00 -0.59482509749E+03  0.59482509750E+03  0.25500000920E-02 0.  1.
    10030    2    1    2    0    0  0.00000000000E+00  0.00000000000E+00 -0.14499590016E+03  0.10446542948E+04  0.10345427902E+04 0.  0.
        2    1    3    3  502    0  0.41715594341E+03  0.12453943235E+03 -0.35458573595E+03  0.56148036072E+03  0.25500000920E-02 0.  1.
       -2    1    3    3    0  502 -0.41715594341E+03 -0.12453943235E+03  0.20958983579E+03  0.48317393411E+03  0.25500000920E-02 0. -1.
</event>
<event>
 5   0  0.5201968E-03  0.9819197E+03  0.7818609E-02  0.9328600E-01
        1   -1    0    0  501    0  0.00000000000E+00  0.00000000000E+00  0.91068585499E+03  0.91068585500E+03  0.50400001928E-02 0.  1.
       -1   -1    0    0    0  501  0.00000000000E+00  0.00000000000E+00 -0.26468136509E+03  0.26468136514E+03  0.50400001928E-02 0. -1.
    10030    2    1    2    0    0  0.00000000000E+00  0.00000000000E+00  0.64600448989E+03  0.11753672201E+04  0.98191970203E+03 0.  0.
        2    1    3    3  502    0  0.22229246482E+03  0.70652762738E+02  0.84012673168E+03  0.87190520018E+03  0.25500000920E-02 0.  1.
       -2    1    3    3    0  502 -0.22229246482E+03 -0.70652762738E+02 -0.19412224179E+03  0.30346201997E+03  0.25500000920E-02 0. -1.
</event>
<event>
 5   0  0.8907355E-03  0.1009279E+04  0.7818609E-02  0.9298426E-01
        2   -1    0    0  501    0  0.00000000000E+00  0.00000000000E+00  0.82997788075E+03  0.82997788075E+03  0.25500000920E-02 0. -1.
       -2   -1    0    0    0  501  0.00000000000E+00  0.00000000000E+00 -0.30682841718E+03  0.30682841719E+03  0.25500000920E-02 0.  1.
    10030    2    1    2    0    0  0.00000000000E+00  0.00000000000E+00  0.52314946356E+03  0.11368062979E+04  0.10092785531E+04 0.  0.
        5    1    3    3  502    0  0.47471862689E+03 -0.75098600552E+02  0.43475945787E+03  0.64810142010E+03  0.46999998093E+01 0. -1.
       -5    1    3    3    0  502 -0.47471862689E+03  0.75098600552E+02  0.88390005694E+02  0.48870487785E+03  0.46999998093E+01 0.  1.
</event>
<event>
 5   0  0.5189877E-03  0.9236393E+03  0.7818609E-02  0.9396504E-01
       -1   -1    0    0    0  501  0.00000000000E+00  0.00000000000E+00  0.34854296533E+03  0.34854296537E+03  0.50400001928E-02 0. -1.
        1   -1    0    0  501    0  0.00000000000E+00  0.00000000000E+00 -0.61191135212E+03  0.61191135214E+03  0.50400001928E-02 0.  1.
    10030    2    1    2    0    0  0.00000000000E+00  0.00000000000E+00 -0.26336838679E+03  0.96045431751E+03  0.92363931751E+03 0.  0.
        3    1    3    3  502    0 -0.38112894995E+03  0.34032091510E+02 -0.40056342068E+03  0.55395714990E+03  0.10100000352E+00 0.  1.
       -3    1    3    3    0  502  0.38112894995E+03 -0.34032091510E+02  0.13719503389E+03  0.40649716760E+03  0.10100000352E+00 0. -1.
</event>
<event>
 5   0  0.5189877E-03  0.1053769E+04  0.7818609E-02  0.9251462E-01
        1   -1    0    0  501    0  0.00000000000E+00  0.00000000000E+00  0.25333559234E+03  0.25333559239E+03  0.50400001928E-02 0. -1.
       -1   -1    0    0    0  501  0.00000000000E+00  0.00000000000E+00 -0.10958081777E+04  0.10958081777E+04  0.50400001928E-02 0.  1.
    10030    2    1    2    0    0  0.00000000000E+00  0.00000000000E+00 -0.84247258539E+03  0.13491437701E+04  0.10537688814E+04 0.  0.
        3    1    3    3  502    0 -0.19892299089E+03  0.29843132013E+03  0.72926936732E+02  0.36599174504E+03  0.10100000352E+00 0. -1.
       -3    1    3    3    0  502  0.19892299089E+03 -0.29843132013E+03 -0.91539952212E+03  0.98315202509E+03  0.10100000352E+00 0.  1.
</event>
<event>
 5   0  0.5349685E-03  0.1002699E+04  0.7818609E-02  0.9305589E-01
        1   -1    0    0  501    0  0.00000000000E+00  0.00000000000E+00  0.10320594319E+04  0.10320594319E+04  0.50400001928E-02 0.  1.
       -1   -1    0    0    0  501  0.00000000000E+00  0.00000000000E+00 -0.24354352570E+03  0.24354352575E+03  0.50400001928E-02 0. -1.
    10030    2    1    2    0    0  0.00000000000E+00  0.00000000000E+00  0.78851590620E+03  0.12756029577E+04  0.10026991429E+04 0.  0.
        4    1    3    3  502    0  0.18421070708E+03 -0.22824648769E+03 -0.12300005799E+03  0.31805765344E+03  0.12699999809E+01 0. -1.
       -4    1    3    3    0  502 -0.18421070708E+03  0.22824648769E+03  0.91151596419E+03  0.95754530422E+03  0.12699999809E+01 0.  1.
</event>
<event>
 5   0  0.8875655E-03  0.9937608E+03  0.7818609E-02  0.9315414E-01
       -2   -1    0    0    0  501  0.00000000000E+00  0.00000000000E+00  0.52200173790E+03  0.52200173791E+03  0.25500000920E-02 0.  1.
        2   -1    0    0  501    0  0.00000000000E+00  0.00000000000E+00 -0.47296801907E+03  0.47296801907E+03  0.25500000920E-02 0. -1.
    10030    2    1    2    0    0  0.00000000000E+00  0.00000000000E+00  0.49033718838E+02  0.99496975698E+03  0.99376079201E+03 0.  0.
        4    1    3    3  502    0 -0.67794977254E+02 -0.48441310313E+03  0.11200910408E+03  0.50179663781E+03  0.12699999809E+01 0.  1.
       -4    1    3    3    0  502  0.67794977254E+02  0.48441310313E+03 -0.62975385238E+02  0.49317311917E+03  0.12699999809E+01 0. -1.
</event>
<event>
 5   0  0.8968798E-03  0.1012950E+04  0.7818609E-02  0.9294455E-01
       -2   -1    0    0    0  501  0.00000000000E+00  0.00000000000E+00  0.26799255884E+03  0.26799255886E+03  0.25500000920E-02 0. -1.
        2   -1    0    0  501    0  0.00000000000E+00  0.00000000000E+00 -0.95717898663E+03  0.95717898663E+03  0.25500000920E-02 0.  1.
    10030    2    1    2    0    0  0.00000000000E+00  0.00000000000E+00 -0.68918642778E+03  0.12251715455E+04  0.10129498426E+04 0.  0.
        2    1    3    3  502    0  0.20229550025E+03  0.30665800952E+03  0.77097482708E+02  0.37537531361E+03  0.25500000920E-02 0. -1.
       -2    1    3    3    0  502 -0.20229550025E+03 -0.30665800952E+03 -0.76628391049E+03  0.84979623187E+03  0.25500000920E-02 0.  1.
</event>
<event>
 5   0  0.8875655E-03  0.1017287E+04  0.7818609E-02  0.9289785E-01
        2   -1    0    0  501    0  0.00000000000E+00  0.00000000000E+00  0.40567563769E+03  0.40567563770E+03  0.25500000920E-02 0. -1.
       -2   -1    0    0    0  501  0.00000000000E+00  0.00000000000E+00 -0.63774686446E+03  0.63774686447E+03  0.25500000920E-02 0.  1.
    10030    2    1    2    0    0  0.00000000000E+00  0.00000000000E+00 -0.23207122677E+03  0.10434225022E+04  0.10172873064E+04 0.  0.
        4    1    3    3  502    0 -0.10151583520E+02  0.11629895518E+03 -0.62381821877E+03  0.63464894595E+03  0.12699999809E+01 0.  1.
       -4    1    3    3    0  502  0.10151583520E+02 -0.11629895518E+03  0.39174699200E+03  0.40877355622E+03  0.12699999809E+01 0. -1.
</event>
<event>
 5   0  0.9040674E-03  0.1082578E+04  0.7818609E-02  0.9222341E-01
       -2   -1    0    0    0  501  0.00000000000E+00  0.00000000000E+00  0.44329007660E+03  0.44329007660E+03  0.25500000920E-02 0. -1.
        2   -1    0    0  501    0  0.00000000000E+00  0.00000000000E+00 -0.66095235278E+03  0.66095235278E+03  0.25500000920E-02 0.  1.
    10030    2    1    2    0    0  0.00000000000E+00  0.00000000000E+00 -0.21766227618E+03  0.11042424294E+04  0.10825776999E+04 0.  0.
        1    1    3    3  502    0 -0.18086707054E+03  0.30484467506E+03 -0.52610270305E+03  0.63437152151E+03  0.50400001928E-02 0.  1.
       -1    1    3    3    0  502  0.18086707054E+03 -0.30484467506E+03  0.30844042687E+03  0.46987090788E+03  0.50400001928E-02 0. -1.
</event>
<event>
 5   0  0.9243773E-03  0.9480944E+03  0.7818609E-02  0.9367381E-01
        2   -1    0    0  501    0  0.00000000000E+00  0.00000000000E+00  0.29474207639E+03  0.29474207641E+03  0.25500000920E-02 0.  1.
       -2   -1    0    0    0  501  0.00000000000E+00  0.00000000000E+00 -0.76243185478E+03  0.76243185478E+03  0.25500000920E-02 0. -1.
    10030    2    1    2    0    0  0.00000000000E+00  0.00000000000E+00 -0.46768977838E+03  0.10571739312E+04  0.94809440035E+03 0.  0.
        3    1    3    3  502    0 -0.44173343190E+02  0.13107802772E+03 -0.73942938685E+03  0.75225564933E+03  0.10100000352E+00 0. -1.
       -3    1    3    3    0  502  0.44173343190E+02 -0.13107802772E+03  0.27173960847E+03  0.30491828186E+03  0.10100000352E+00 0.  1.
</event>
<event>
 5   0  0.5310275E-03  0.8257049E+03  0.7818609E-02  0.9523538E-01
       -1   -1    0    0    0  501  0.00000000000E+00  0.00000000000E+00  0.51379169668E+03  0.51379169670E+03  0.50400001928E-02 0. -1.
        1   -1    0    0  501    0  0.00000000000E+00  0.00000000000E+00 -0.33174366414E+03  0.33174366418E+03  0.50400001928E-02 0.  1.
    10030    2    1    2    0    0  0.00000000000E+00  0.00000000000E+00  0.18204803254E+03  0.84553536088E+03  0.82570488696E+03 0.  0.
        1    1    3    3  502    0  0.40445704728E+03  0.51251350468E+02  0.24384728350E+02  0.40841990527E+03  0.50400001928E-02 0.  1.
       -1    1    3    3    0  502 -0.40445704728E+03 -0.51251350468E+02  0.15766330419E+03  0.43711545561E+03  0.50400001928E-02 0. -1.
</event>
<event>
 5   0  0.8968798E-03  0.1040153E+04  0.7818609E-02  0.9265569E-01
        2   -1    0    0  501    0  0.00000000000E+00  0.00000000000E+00  0.11299801794E+04  0.11299801794E+04  0.25500000920E-02 0.  1.
       -2   -1    0    0    0  501  0.00000000000E+00  0.00000000000E+00 -0.23936686977E+03  0.23936686978E+03  0.25500000920E-02 0. -1.
    10030    2    1    2    0    0  0.00000000000E+00  0.00000000000E+00  0.89061330962E+03  0.13693470492E+04  0.10401534857E+04 0.  0.
        2    1    3    3  502    0 -0.41171723479E+03  0.29844153863E+03  0.58892663232E+03  0.77808290796E+03  0.25500000920E-02 0.  1.
       -2    1    3    3    0  502  0.41171723479E+03 -0.29844153863E+03  0.30168667730E+03  0.59126414120E+03  0.25500000920E-02 0. -1.
</event>
<event>
 5   0  0.5201968E-03  0.9792074E+03  0.7818609E-02  0.9331648E-01
        1   -1    0    0  501    0  0.00000000000E+00  0.00000000000E+00  0.10563001309E+04  0.10563001309E+04  0.50400001928E-02 0.  1.
       -1   -1    0    0    0  501  0.00000000000E+00  0.00000000000E+00 -0.22693529675E+03  0.22693529680E+03  0.50400001928E-02 0. -1.
    10030    2    1    2    0    0  0.00000000000E+00  0.00000000000E+00  0.82936483417E+03  0.12832354277E+04  0.97920740134E+03 0.  0.
        2    1    3    3  502    0  0.37304514000E+03  0.23432426400E+03  0.13471312299E+03  0.46067142595E+03  0.25500000920E-02 0. -1.
       -2    1    3    3    0  502 -0.37304514000E+03 -0.23432426400E+03  0.69465171118E+03  0.82256400178E+03  0.25500000920E-02 0.  1.
</event>
<event>
 5   0  0.8968798E-03  0.9988883E+03  0.7818609E-02  0.9309765E-01
       -2   -1    0    0    0  501  0.00000000000E+00  0.00000000000E+00  0.40627471816E+03  0.40627471817E+03  0.25500000920E-02 0.  1.
        2   -1    0    0  501    0  0.00000000000E+00  0.00000000000E+00 -0.61397973991E+03  0.61397973991E+03  0.25500000920E-02 0. -1.
    10030    2    1    2    0    0  0.00000000000E+00  0.00000000000E+00 -0.20770502175E+03  0.10202544581E+04  0.99888827362E+03 0.  0.
        2    1    3    3  502    0  0.16500599990E+02  0.34392153987E+03  0.26567354764E+03  0.43489852760E+03  0.25500000920E-02 0.  1.
       -2    1    3    3    0  502 -0.16500599990E+02 -0.34392153987E+03 -0.47337856939E+03  0.58535593048E+03  0.25500000920E-02 0. -1.
</event>
<event>
 5   0  0.8875655E-03  0.1017812E+04  0.7818609E-02  0.9289222E-01
       -2   -1    0    0    0  501  0.00000000000E+00  0.00000000000E+00  0.18086628082E+03  0.18086628083E+03  0.25500000920E-02 0. -1.
        2   -1    0    0  501    0  0.00000000000E+00  0.00000000000E+00 -0.14319155216E+04  0.14319155216E+04  0.25500000920E-02 0.  1.
    10030    2    1    2    0    0  0.00000000000E+00  0.00000000000E+00 -0.12510492408E+04  0.16127818024E+04  0.10178118389E+04 0.  0.
        4    1    3    3  502    0 -0.37236903278E+03  0.20804559221E+03 -0.10653413746E+04  0.11475606835E+04  0.12699999809E+01 0.  1.
       -4    1    3    3    0  502  0.37236903278E+03 -0.20804559221E+03 -0.18570786616E+03  0.46522111890E+03  0.12699999809E+01 0. -1.
</event>
<event>
 5   0  0.5310275E-03  0.7956901E+03  0.7818609E-02  0.9566277E-01
        1   -1    0    0  501    0  0.00000000000E+00  0.00000000000E+00  0.31822677008E+03  0.31822677012E+03  0.50400001928E-02 0. -1.
       -1   -1    0    0    0  501  0.00000000000E+00  0.00000000000E+00 -0.49738326149E+03  0.49738326152E+03  0.50400001928E-02 0.  1.
    10030    2    1    2    0    0  0.00000000000E+00  0.00000000000E+00 -0.17915649141E+03  0.81561003163E+03  0.79569006232E+03 0.  0.
        1    1    3    3  502    0 -0.33871979700E+03 -0.15450146405E+03 -0.23337154668E+03  0.43939058035E+03  0.50400001928E-02 0.  1.
       -1    1    3    3    0  502  0.33871979700E+03  0.15450146405E+03  0.54215055270E+02  0.37621945128E+03  0.50400001928E-02 0. -1.
</event>
<event>
 5   0  0.5189877E-03  0.9378378E+03  0.7818609E-02  0.9379480E-01
       -1   -1    0    0    0  501  0.00000000000E+00  0.00000000000E+00  0.15916650499E+03  0.15916650507E+03  0.50400001928E-02 0.  1.
        1   -1    0    0  501    0  0.00000000000E+00  0.00000000000E+00 -0.13814775401E+04  0.13814775401E+04  0.50400001928E-02 0. -1.
    10030    2    1    2    0    0  0.00000000000E+00  0.00000000000E+00 -0.12223110351E+04  0.15406440452E+04  0.93783783639E+03 0.  0.
        3    1    3    3  502    0 -0.30640852767E+03 -0.31884371075E+03 -0.35487709534E+03  0.56699670256E+03  0.10100000352E+00 0.  1.
       -3    1    3    3    0  502  0.30640852767E+03  0.31884371075E+03 -0.86743393976E+03  0.97364734260E+03  0.10100000352E+00 0. -1.
</event>
<event>
 5   0  0.9243773E-03  0.9967362E+03  0.7818609E-02  0.9312132E-01
       -2   -1    0    0    0  501  0.00000000000E+00  0.00000000000E+00  0.23112130712E+03  0.23112130713E+03  0.25500000920E-02 0. -1.
        2   -1    0    0  501    0  0.00000000000E+00  0.00000000000E+00 -0.10746337340E+04  0.10746337340E+04  0.25500000920E-02 0.  1.
    10030    2    1    2    0    0  0.00000000000E+00  0.00000000000E+00 -0.84351242689E+03  0.13057550411E+04  0.99673618031E+03 0.  0.
        3    1    3    3  502    0 -0.42390943936E+03 -0.51142508646E+02 -0.85060537467E+02  0.43537348817E+03  0.10100000352E+00 0. -1.
       -3    1    3    3    0  502  0.42390943936E+03  0.51142508646E+02 -0.75845188943E+03  0.87038155297E+03  0.10100000352E+00 0.  1.
</event>
<event>
 5   0  0.5072205E-03  0.1002451E+04  0.7818609E-02  0.9305861E-01
        1   -1    0    0  501    0  0.00000000000E+00  0.00000000000E+00  0.96326704899E+03  0.96326704900E+03  0.50400001928E-02 0. -1.
       -1   -1    0    0    0  501  0.00000000000E+00  0.00000000000E+00 -0.26080721711E+03  0.26080721715E+03  0.50400001928E-02 0.  1.
    10030    2    1    2    0    0  0.00000000000E+00  0.00000000000E+00  0.70245983189E+03  0.12240742662E+04  0.10024509931E+04 0.  0.
        5    1    3    3  502    0 -0.48805778214E+03 -0.57041296404E+02  0.47180699150E+03  0.68123273221E+03  0.46999998093E+01 0.  1.
       -5    1    3    3    0  502  0.48805778214E+03  0.57041296404E+02  0.23065284038E+03  0.54284153395E+03  0.46999998093E+01 0. -1.
</event>
<event>
 5   0  0.5349685E-03  0.9554039E+03  0.7818609E-02  0.9358856E-01
       -1   -1    0    0    0  501  0.00000000000E+00  0.00000000000E+00  0.14531159620E+03  0.14531159628E+03  0.50400001928E-02 0. -1.
        1   -1    0    0  501    0  0.00000000000E+00  0.00000000000E+00 -0.15704125300E+04  0.15704125300E+04  0.50400001928E-02 0.  1.
    10030    2    1    2    0    0  0.00000000000E+00  0.00000000000E+00 -0.14251009338E+04  0.17157241263E+04  0.95540389680E+03 0.  0.
        4    1    3    3  502    0 -0.47980694611E+02  0.19899709649E+03  0.62556583424E+02  0.21404889744E+03  0.12699999809E+01 0. -1.
       -4    1    3    3    0  502  0.47980694611E+02 -0.19899709649E+03 -0.14876575172E+04  0.15016752289E+04  0.12699999809E+01 0.  1.
</event>
<event>
 5   0  0.8875655E-03  0.9749664E+03  0.7818609E-02  0.9336436E-01
       -2   -1    0    0    0  501  0.00000000000E+00  0.00000000000E+00  0.21704983201E+03  0.21704983203E+03  0.25500000920E-02 0.  1.
        2   -1    0    0  501    0  0.00000000000E+00  0.00000000000E+00 -0.10948631157E+04  0.10948631157E+04  0.25500000920E-02 0. -1.
    10030    2    1    2    0    0  0.00000000000E+00  0.00000000000E+00 -0.87781328370E+03  0.13119129477E+04  0.97496636938E+03 0.  0.
        4    1    3    3  502    0  0.42525783474E+03 -0.16939635132E+03 -0.21334773292E+03  0.50503288793E+03  0.12699999809E+01 0.  1.
       -4    1    3    3    0  502 -0.42525783474E+03  0.16939635132E+03 -0.66446555078E+03  0.80688005981E+03  0.12699999809E+01 0. -1.
</event>
<event>
 5   0  0.9040674E-03  0.1003131E+04  0.7818609E-02  0.9305117E-01
        2   -1    0    0  501    0  0.00000000000E+00  0.00000000000E+00  0.14095428148E+04  0.14095428148E+04  0.25500000920E-02 0. -1.
       -2   -1    0    0    0  501  0.00000000000E+00  0.00000000000E+00 -0.17847495943E+03  0.17847495945E+03  0.25500000920E-02 0.  1.
    10030    2    1    2    0    0  0.00000000000E+00  0.00000000000E+00  0.12310678553E+04  0.15880177742E+04  0.10031312909E+04 0.  0.
        1    1    3    3  502    0 -0.43694632378E+03  0.23176784291E+02  0.10036545931E+04  0.10948889421E+04  0.50400001928E-02 0. -1.
       -1    1    3    3    0  502  0.43694632378E+03 -0.23176784291E+02  0.22741326218E+03  0.49312883209E+03  0.50400001928E-02 0.  1.
</event>
<event>
 5   0  0.5201968E-03  0.9938451E+03  0.7818609E-02  0.9315321E-01
       -1   -1    0    0    0  501  0.00000000000E+00  0.00000000000E+00  0.21879947809E+03  0.21879947814E+03  0.50400001928E-02 0. -1.
        1   -1    0    0  501    0  0.00000000000E+00  0.00000000000E+00 -0.11285767400E+04  0.11285767400E+04  0.50400001928E-02 0.  1.
    10030    2    1    2    0    0  0.00000000000E+00  0.00000000000E+00 -0.90977726189E+03  0.13473762181E+04  0.99384506183E+03 0.  0.
        2    1    3    3  502    0 -0.77494764289E+01 -0.19940379877E+03  0.16209096763E+03  0.25709027820E+03  0.25500000920E-02 0. -1.
       -2    1    3    3    0  502  0.77494764289E+01  0.19940379877E+03 -0.10718682295E+04  0.10902859399E+04  0.25500000920E-02 0.  1.
</event>
<event>
 5   0  0.8968798E-03  0.9888290E+03  0.7818609E-02  0.9320883E-01
        2   -1    0    0  501    0  0.00000000000E+00  0.00000000000E+00  0.60601739677E+03  0.60601739678E+03  0.25500000920E-02 0. -1.
       -2   -1    0    0    0  501  0.00000000000E+00  0.00000000000E+00 -0.40336416175E+03  0.40336416176E+03  0.25500000920E-02 0.  1.
    10030    2    1    2    0    0  0.00000000000E+00  0.00000000000E+00  0.20265323502E+03  0.10093815585E+04  0.98882900293E+03 0.  0.
        2    1    3    3  502    0 -0.93035555129E+02  0.12506541123E+03 -0.37762567873E+03  0.40853166933E+03  0.25500000920E-02 0.  1.
       -2    1    3    3    0  502  0.93035555129E+02 -0.12506541123E+03  0.58027891375E+03  0.60084988920E+03  0.25500000920E-02 0. -1.
</event>
<event>
 5   0  0.3513625E-03  0.1002961E+04  0.7818609E-02  0.9305303E-01
        3   -1    0    0  501    0  0.00000000000E+00  0.00000000000E+00  0.54248864248E+03  0.54248865188E+03  0.10100000352E+00 0. -1.
       -3   -1    0    0    0  501  0.00000000000E+00  0.00000000000E+00 -0.46357244020E+03  0.46357245120E+03  0.10100000352E+00 0.  1.
    10030    2    1    2    0    0  0.00000000000E+00  0.00000000000E+00  0.78916202280E+02  0.10060611031E+04  0.10029612037E+04 0.  0.
        3    1    3    3  502    0 -0.70405580968E+02 -0.25920321284E+03  0.46425197103E+03  0.53635170754E+03  0.10100000352E+00 0. -1.
       -3    1    3    3    0  502  0.70405580968E+02  0.25920321284E+03 -0.38533576875E+03  0.46970939554E+03  0.10100000352E+00 0.  1.
</event>
<event>
 5   0  0.9040674E-03  0.1003900E+04  0.7818609E-02  0.9304278E-01
        2   -1    0    0  501    0  0.00000000000E+00  0.00000000000E+00  0.64477157475E+03  0.64477157475E+03  0.25500000920E-02 0.  1.
       -2   -1    0    0    0  501  0.00000000000E+00  0.00000000000E+00 -0.39076433716E+03  0.39076433717E+03  0.25500000920E-02 0. -1.
    10030    2    1    2    0    0  0.00000000000E+00  0.00000000000E+00  0.25400723759E+03  0.10355359119E+04  0.10038998696E+04 0.  0.
        1    1    3    3  502    0  0.72242838243E+02 -0.31816431502E+03  0.52047711426E+03  0.61428331047E+03  0.50400001928E-02 0.  1.
       -1    1    3    3    0  502 -0.72242838243E+02  0.31816431502E+03 -0.26646987667E+03  0.42125260145E+03  0.50400001928E-02 0. -1.
</event>
<event>
 5   0  0.9243773E-03  0.9999829E+03  0.7818609E-02  0.9308564E-01
        2   -1    0    0  501    0  0.00000000000E+00  0.00000000000E+00  0.59893818083E+03  0.59893818084E+03  0.25500000920E-02 0. -1.
       -2   -1    0    0    0  501  0.00000000000E+00  0.00000000000E+00 -0.41739104451E+03  0.41739104452E+03  0.25500000920E-02 0.  1.
    10030    2    1    2    0    0  0.00000000000E+00  0.00000000000E+00  0.18154713632E+03  0.10163292254E+04  0.99998286566E+03 0.  0.
        3    1    3    3  502    0  0.17348376839E+03 -0.18197875743E+03 -0.34846992827E+03  0.42970244025E+03  0.10100000352E+00 0.  1.
       -3    1    3    3    0  502 -0.17348376839E+03  0.18197875743E+03  0.53001706459E+03  0.58662678511E+03  0.10100000352E+00 0. -1.
</event>
<event>
 5   0  0.8968798E-03  0.1114066E+04  0.7818609E-02  0.9191590E-01
        2   -1    0    0  501    0  0.00000000000E+00  0.00000000000E+00  0.95121747678E+03  0.95121747679E+03  0.25500000920E-02 0.  1.
       -2   -1    0    0    0  501  0.00000000000E+00  0.00000000000E+00 -0.32619856524E+03  0.32619856525E+03  0.25500000920E-02 0. -1.
    10030    2    1    2    0    0  0.00000000000E+00  0.00000000000E+00  0.62501891155E+03  0.12774160420E+04  0.11140660235E+04 0.  0.
        2    1    3    3  502    0 -0.19654080902E+03  0.15871768772E+03  0.88175561003E+03  0.91723091413E+03  0.25500000920E-02 0.  1.
       -2    1    3    3    0  502  0.19654080902E+03 -0.15871768772E+03 -0.25673669849E+03  0.36018512790E+03  0.25500000920E-02 0. -1.
</event>
<event>
 5   0  0.5072205E-03  0.1001219E+04  0.7818609E-02  0.9307208E-01
       -1   -1    0    0    0  501  0.00000000000E+00  0.00000000000E+00  0.22511716064E+03  0.22511716069E+03  0.50400001928E-02 0.  1.
        1   -1    0    0  501    0  0.00000000000E+00  0.00000000000E+00 -0.11132427388E+04  0.11132427389E+04  0.50400001928E-02 0. -1.
    10030    2    1    2    0    0  0.00000000000E+00  0.00000000000E+00 -0.88812557821E+03  0.13383598996E+04  0.10012193456E+04 0.  0.
        5    1    3    3  502    0 -0.25286502074E+03  0.14802169666E+02 -0.10212270178E+04  0.10521817974E+04  0.46999998093E+01 0. -1.
       -5    1    3    3    0  502  0.25286502074E+03 -0.14802169666E+02  0.13310143957E+03  0.28617810215E+03  0.46999998093E+01 0.  1.
</event>
<event>
 5   0  0.8875655E-03  0.1006380E+04  0.7818609E-02  0.9301575E-01
        2   -1    0    0  501    0  0.00000000000E+00  0.00000000000E+00  0.15357267055E+04  0.15357267055E+04  0.25500000920E-02 0.  1.
       -2   -1    0    0    0  501  0.00000000000E+00  0.00000000000E+00 -0.16487314251E+03  0.16487314252E+03  0.25500000920E-02 0. -1.
    10030    2    1    2    0    0  0.00000000000E+00  0.00000000000E+00  0.13708535630E+04  0.17005998481E+04  0.10063798249E+04 0.  0.
        4    1    3    3  502    0 -0.26360441036E+03  0.20911088428E+03  0.13176626733E+04  0.13599452859E+04  0.12699999809E+01 0.  1.
       -4    1    3    3    0  502  0.26360441036E+03 -0.20911088428E+03  0.53190889730E+02  0.34065456218E+03  0.12699999809E+01 0. -1.
</event>
<event>
 5   0  0.5189877E-03  0.1006072E+04  0.7818609E-02  0.9301910E-01
        1   -1    0    0  501    0  0.00000000000E+00  0.00000000000E+00  0.11685216060E+04  0.11685216060E+04  0.50400001928E-02 0. -1.
       -1   -1    0    0    0  501  0.00000000000E+00  0.00000000000E+00 -0.21655175803E+03  0.21655175809E+03  0.50400001928E-02 0.  1.
    10030    2    1    2    0    0  0.00000000000E+00  0.00000000000E+00  0.95196984793E+03  0.13850733641E+04  0.10060723793E+04 0.  0.
        3    1    3    3  502    0 -0.16386979964E+03  0.28763647830E+03  0.99742564424E+03  0.10509262490E+04  0.10100000352E+00 0. -1.
       -3    1    3    3    0  502  0.16386979964E+03 -0.28763647830E+03 -0.45455796308E+02  0.33414711506E+03  0.10100000352E+00 0.  1.
</event>
<event>
 5   0  0.5310275E-03  0.9980331E+03  0.7818609E-02  0.9310705E-01
        1   -1    0    0  501    0  0.00000000000E+00  0.00000000000E+00  0.22587399079E+03  0.22587399084E+03  0.50400001928E-02 0.  1.
       -1   -1    0    0    0  501  0.00000000000E+00  0.00000000000E+00 -0.11024620787E+04  0.11024620787E+04  0.50400001928E-02 0. -1.
    10030    2    1    2    0    0  0.00000000000E+00  0.00000000000E+00 -0.87658808789E+03  0.13283360695E+04  0.99803308452E+03 0.  0.
        1    1    3    3  502    0 -0.19836975486E+02  0.23743188410E+03  0.14528047313E+03  0.27905881294E+03  0.50400001928E-02 0.  1.
       -1    1    3    3    0  502  0.19836975486E+02 -0.23743188410E+03 -0.10218685610E+04  0.10492772566E+04  0.50400001928E-02 0. -1.
</event>
<event>
 5   0  0.9243773E-03  0.9397896E+03  0.7818609E-02  0.9377165E-01
        2   -1    0    0  501    0  0.00000000000E+00  0.00000000000E+00  0.33531662673E+03  0.33531662674E+03  0.25500000920E-02 0.  1.
       -2   -1    0    0    0  501  0.00000000000E+00  0.00000000000E+00 -0.65848542028E+03  0.65848542029E+03  0.25500000920E-02 0. -1.
    10030    2    1    2    0    0  0.00000000000E+00  0.00000000000E+00 -0.32316879355E+03  0.99380204703E+03  0.93978957196E+03 0.  0.
        3    1    3    3  502    0 -0.74542857753E+02 -0.17876710941E+03 -0.61430977388E+03  0.64412019495E+03  0.10100000352E+00 0. -1.
       -3    1    3    3    0  502  0.74542857753E+02  0.17876710941E+03  0.29114098033E+03  0.34968185208E+03  0.10100000352E+00 0.  1.
</event>
<event>
 5   0  0.5072205E-03  0.9203255E+03  0.7818609E-02  0.9400524E-01
       -1   -1    0    0    0  501  0.00000000000E+00  0.00000000000E+00  0.20816284058E+03  0.20816284064E+03  0.50400001928E-02 0. -1.
        1   -1    0    0  501    0  0.00000000000E+00  0.00000000000E+00 -0.10172312160E+04  0.10172312160E+04  0.50400001928E-02 0.  1.
    10030    2    1    2    0    0  0.00000000000E+00  0.00000000000E+00 -0.80906837539E+03  0.12253940566E+04  0.92032546306E+03 0.  0.
        5    1    3    3  502    0 -0.27240051891E+03 -0.31463437137E+03 -0.66589378515E+03  0.78526011834E+03  0.46999998093E+01 0.  1.
       -5    1    3    3    0  502  0.27240051891E+03  0.31463437137E+03 -0.14317459024E+03  0.44013393829E+03  0.46999998093E+01 0. -1.
</event>
<event>
 5   0  0.5189877E-03  0.9990615E+03  0.7818609E-02  0.9309575E-01
        1   -1    0    0  501    0  0.00000000000E+00  0.00000000000E+00  0.82847345171E+03  0.82847345172E+03  0.50400001928E-02 0. -1.
       -1   -1    0    0    0  501  0.00000000000E+00  0.00000000000E+00 -0.30119366349E+03  0.30119366353E+03  0.50400001928E-02 0.  1.
    10030    2    1    2    0    0  0.00000000000E+00  0.00000000000E+00  0.52727978822E+03  0.11296671153E+04  0.99906146769E+03 0.  0.
        3    1    3    3  502    0 -0.20063656487E+03  0.38644273282E+02 -0.25178192020E+03  0.32425692986E+03  0.10100000352E+00 0.  1.
       -3    1    3    3    0  502  0.20063656487E+03 -0.38644273282E+02  0.77906170841E+03  0.80541018540E+03  0.10100000352E+00 0. -1.
</event>
<event>
 5   0  0.5349685E-03  0.1004214E+04  0.7818609E-02  0.9303935E-01
        1   -1    0    0  501    0  0.00000000000E+00  0.00000000000E+00  0.43983309383E+03  0.43983309386E+03  0.50400001928E-02 0.  1.
       -1   -1    0    0    0  501  0.00000000000E+00  0.00000000000E+00 -0.57319836474E+03  0.57319836476E+03  0.50400001928E-02 0. -1.
    10030    2    1    2    0    0  0.00000000000E+00  0.00000000000E+00 -0.13336527091E+03  0.10130314586E+04  0.10042143400E+04 0.  0.
        4    1    3    3  502    0 -0.18557995894E+03  0.44676064261E+03  0.68941105107E+02  0.48866090679E+03  0.12699999809E+01 0. -1.
       -4    1    3    3    0  502  0.18557995894E+03 -0.44676064261E+03 -0.20230637601E+03  0.52437055183E+03  0.12699999809E+01 0.  1.
</event>
<event>
 5   0  0.5072205E-03  0.1006029E+04  0.7818609E-02  0.9301957E-01
       -1   -1    0    0    0  501  0.00000000000E+00  0.00000000000E+00  0.13666842844E+03  0.13666842853E+03  0.50400001928E-02 0.  1.
        1   -1    0    0  501    0  0.00000000000E+00  0.00000000000E+00 -0.18513688822E+04  0.18513688822E+04  0.50400001928E-02 0. -1.
    10030    2    1    2    0    0  0.00000000000E+00  0.00000000000E+00 -0.17147004537E+04  0.19880373107E+04  0.10060291759E+04 0.  0.
        5    1    3    3  502    0  0.20466028625E+03 -0.17726076573E+03 -0.19664347357E+02  0.27150688460E+03  0.46999998093E+01 0.  1.
       -5    1    3    3    0  502 -0.20466028625E+03  0.17726076573E+03 -0.16950361064E+04  0.17165304261E+04  0.46999998093E+01 0. -1.
</event>
<event>
 5   0  0.5349685E-03  0.9890562E+03  0.7818609E-02  0.9320630E-01
        1   -1    0    0  501    0  0.00000000000E+00  0.00000000000E+00  0.81305614443E+03  0.81305614445E+03  0.50400001928E-02 0.  1.
       -1   -1    0    0    0  501  0.00000000000E+00  0.00000000000E+00 -0.30078864194E+03  0.30078864198E+03  0.50400001928E-02 0. -1.
    10030    2    1    2    0    0  0.00000000000E+00  0.00000000000E+00  0.51226750249E+03  0.11138447864E+04  0.98905622395E+03 0.  0.
        4    1    3    3  502    0  0.24126463634E+03 -0.30935291465E+03  0.59519973571E+03  0.71286197039E+03  0.12699999809E+01 0. -1.
       -4    1    3    3    0  502 -0.24126463634E+03  0.30935291465E+03 -0.82932233212E+02  0.40098281603E+03  0.12699999809E+01 0.  1.
</event>
<event>
 5   0  0.9243773E-03  0.1007940E+04  0.7818609E-02  0.9299879E-01
       -2   -1    0    0    0  501  0.00000000000E+00  0.00000000000E+00  0.54577665099E+03  0.54577665100E+03  0.25500000920E-02 0. -1.
        2   -1    0    0  501    0  0.00000000000E+00  0.00000000000E+00 -0.46536590027E+03  0.46536590028E+03  0.25500000920E-02 0.  1.
    10030    2    1    2    0    0  0.00000000000E+00  0.00000000000E+00  0.80410750722E+02  0.10111425513E+04  0.10079401620E+04 0.  0.
        3    1    3    3  502    0 -0.14181259110E+03 -0.20368353577E+02 -0.44450689975E+03  0.46702470485E+03  0.10100000352E+00 0.  1.
       -3    1    3    3    0  502  0.14181259110E+03  0.20368353577E+02  0.52491765047E+03  0.54411784642E+03  0.10100000352E+00 0. -1.
</event>
<event>
 5   0  0.5349685E-03  0.1004507E+04  0.7818609E-02  0.9303615E-01
        1   -1    0    0  501    0  0.00000000000E+00  0.00000000000E+00  0.19765919877E+04  0.19765919877E+04  0.50400001928E-02 0.  1.
       -1   -1    0    0    0  501  0.00000000000E+00  0.00000000000E+00 -0.12762307933E+03  0.12762307943E+03  0.50400001928E-02 0. -1.
    10030    2    1    2    0    0  0.00000000000E+00  0.00000000000E+00  0.18489689083E+04  0.21042150671E+04  0.10045073542E+04 0.  0.
        4    1    3    3  502    0  0.38378029326E+03  0.30203530915E+03  0.67889964116E+03  0.83631272687E+03  0.12699999809E+01 0.  1.
       -4    1    3    3    0  502 -0.38378029326E+03 -0.30203530915E+03  0.11700692672E+04  0.12679023402E+04  0.12699999809E+01 0. -1.
</event>
<event>
 5   0  0.9243773E-03  0.7730813E+03  0.7818609E-02  0.9599820E-01
       -2   -1    0    0    0  501  0.00000000000E+00  0.00000000000E+00  0.16927580463E+03  0.16927580465E+03  0.25500000920E-02 0.  1.
        2   -1    0    0  501    0  0.00000000000E+00  0.00000000000E+00 -0.88266397801E+03  0.88266397801E+03  0.25500000920E-02 0. -1.
    10030    2    1    2    0    0  0.00000000000E+00  0.00000000000E+00 -0.71338817337E+03  0.10519397827E+04  0.77308125087E+03 0.  0.
        3    1    3    3  502    0 -0.27281239097E+03 -0.15785339934E+03 -0.66116913603E+03  0.73245404838E+03  0.10100000352E+00 0. -1.
       -3    1    3    3    0  502  0.27281239097E+03  0.15785339934E+03 -0.52219037344E+02  0.31948573429E+03  0.10100000352E+00 0.  1.
</event>
<event>
 5   0  0.8875655E-03  0.1003176E+04  0.7818609E-02  0.9305068E-01
       -2   -1    0    0    0  501  0.00000000000E+00  0.00000000000E+00  0.40060782257E+03  0.40060782257E+03  0.25500000920E-02 0.  1.
        2   -1    0    0  501    0  0.00000000000E+00  0.00000000000E+00 -0.62802189050E+03  0.62802189051E+03  0.25500000920E-02 0. -1.
    10030    2    1    2    0    0  0.00000000000E+00  0.00000000000E+00 -0.22741406793E+03  0.10286297131E+04  0.10031759209E+04 0.  0.
        4    1    3    3  502    0 -0.48971974776E+03 -0.43149205558E+02 -0.11675526826E+02  0.49175727357E+03  0.12699999809E+01 0.  1.
       -4    1    3    3    0  502  0.48971974776E+03  0.43149205558E+02 -0.21573854111E+03  0.53687243951E+03  0.12699999809E+01 0. -1.
</event>
<event>
 5   0  0.5349685E-03  0.9878683E+03  0.7818609E-02  0.9321952E-01
        1   -1    0    0  501    0  0.00000000000E+00  0.00000000000E+00  0.10472527021E+04  0.10472527021E+04  0.50400001928E-02 0. -1.
       -1   -1    0    0    0  501  0.00000000000E+00  0.00000000000E+00 -0.23296283132E+03  0.23296283138E+03  0.50400001928E-02 0.  1.
    10030    2    1    2    0    0  0.00000000000E+00  0.00000000000E+00  0.81428987078E+03  0.12802155335E+04  0.98786832044E+03 0.  0.
        4    1    3    3  502    0  0.21500981244E+03  0.36115559415E+03  0.70932808822E+02  0.42625773764E+03  0.12699999809E+01 0.  1.
       -4    1    3    3    0  502 -0.21500981244E+03 -0.36115559415E+03  0.74335706196E+03  0.85395779585E+03  0.12699999809E+01 0. -1.
</event>
<event>
 5   0  0.5310275E-03  0.1010141E+04  0.7818609E-02  0.9297492E-01
        1   -1    0    0  501    0  0.00000000000E+00  0.00000000000E+00  0.10531500048E+04  0.10531500048E+04  0.50400001928E-02 0. -1.
       -1   -1    0    0    0  501  0.00000000000E+00  0.00000000000E+00 -0.24222220947E+03  0.24222220952E+03  0.50400001928E-02 0.  1.
    10030    2    1    2    0    0  0.00000000000E+00  0.00000000000E+00  0.81092779531E+03  0.12953722143E+04  0.10101412200E+04 0.  0.
        1    1    3    3  502    0 -0.12521155968E+03  0.27759495483E+03 -0.11125130497E+03  0.32421250208E+03  0.50400001928E-02 0.  1.
       -1    1    3    3    0  502  0.12521155968E+03 -0.27759495483E+03  0.92217910028E+03  0.97115971222E+03  0.50400001928E-02 0. -1.
</event>
<event>
 5   0  0.8968798E-03  0.1002488E+04  0.7818609E-02  0.9305820E-01
        2   -1    0    0  501    0  0.00000000000E+00  0.00000000000E+00  0.68528645887E+03  0.68528645887E+03  0.25500000920E-02 0. -1.
       -2   -1    0    0    0  501  0.00000000000E+00  0.00000000000E+00 -0.36662868665E+03  0.36662868666E+03  0.25500000920E-02 0.  1.
    10030    2    1    2    0    0  0.00000000000E+00  0.00000000000E+00  0.31865777222E+03  0.10519151455E+04  0.10024882531E+04 0.  0.
        2    1    3    3  502    0  0.24956128310E+03  0.14531457784E+03 -0.27056390841E+03  0.39572969196E+03  0.25500000920E-02 0.  1.
       -2    1    3    3    0  502 -0.24956128310E+03 -0.14531457784E+03  0.58922168062E+03  0.65618545357E+03  0.25500000920E-02 0. -1.
</event>
<event>
 5   0  0.9243773E-03  0.9948350E+03  0.7818609E-02  0.9314228E-01
       -2   -1    0    0    0  501  0.00000000000E+00  0.00000000000E+00  0.64706777219E+03  0.64706777220E+03  0.25500000920E-02 0. -1.
        2   -1    0    0  501    0  0.00000000000E+00  0.00000000000E+00 -0.38237750161E+03  0.38237750162E+03  0.25500000920E-02 0.  1.
    10030    2    1    2    0    0  0.00000000000E+00  0.00000000000E+00  0.26469027058E+03  0.10294452738E+04  0.99483497749E+03 0.  0.
        3    1    3    3  502    0 -0.37700177312E+02 -0.42051618403E+03 -0.13980459895E+03  0.44474768182E+03  0.10100000352E+00 0.  1.
       -3    1    3    3    0  502  0.37700177312E+02  0.42051618403E+03  0.40449486953E+03  0.58469759199E+03  0.10100000352E+00 0. -1.
</event>
<event>
 5   0  0.5349685E-03  0.9200830E+03  0.7818609E-02  0.9400819E-01
       -1   -1    0    0    0  501  0.00000000000E+00  0.00000000000E+00  0.11059295749E+04  0.11059295749E+04  0.50400001928E-02 0.  1.
        1   -1    0    0  501    0  0.00000000000E+00  0.00000000000E+00 -0.19136677633E+03  0.19136677640E+03  0.50400001928E-02 0. -1.
    10030    2    1    2    0    0  0.00000000000E+00  0.00000000000E+00  0.91456279856E+03  0.12972963513E+04  0.92008299115E+03 0.  0.
        4    1    3    3  502    0 -0.87488521059E+02 -0.14026995882E+03 -0.14803537801E+03  0.22191437246E+03  0.12699999809E+01 0. -1.
       -4    1    3    3    0  502  0.87488521059E+02  0.14026995882E+03  0.10625981766E+04  0.10753819788E+04  0.12699999809E+01 0.  1.
</event>
<event>
 5   0  0.5201968E-03  0.9935512E+03  0.7818609E-02  0.9315646E-01
        1   -1    0    0  501    0  0.00000000000E+00  0.00000000000E+00  0.14114306279E+04  0.14114306279E+04  0.50400001928E-02 0. -1.
       -1   -1    0    0    0  501  0.00000000000E+00  0.00000000000E+00 -0.17484812948E+03  0.17484812955E+03  0.50400001928E-02 0.  1.
    10030    2    1    2    0    0  0.00000000000E+00  0.00000000000E+00  0.12365824985E+04  0.15862787575E+04  0.99355121710E+03 0.  0.
        2    1    3    3  502    0 -0.32990286890E+03 -0.22658718769E+03  0.10881519563E+04  0.11594189651E+04  0.25500000920E-02 0.  1.
       -2    1    3    3    0  502  0.32990286890E+03  0.22658718769E+03  0.14843054211E+03  0.42685979240E+03  0.25500000920E-02 0. -1.
</event>
<event>
 5   0  0.5310275E-03  0.9848551E+03  0.7818609E-02  0.9325313E-01
       -1   -1    0    0    0  501  0.00000000000E+00  0.00000000000E+00  0.11882696768E+04  0.11882696769E+04  0.50400001928E-02 0.  1.
        1   -1    0    0  501    0  0.00000000000E+00  0.00000000000E+00 -0.20406555681E+03  0.20406555687E+03  0.50400001928E-02 0. -1.
    10030    2    1    2    0    0  0.00000000000E+00  0.00000000000E+00  0.98420412004E+03  0.13923352337E+04  0.98485514325E+03 0.  0.
        1    1    3    3  502    0  0.47038205135E+03  0.13411412037E+03  0.41164211535E+03  0.63929265807E+03  0.50400001928E-02 0.  1.
       -1    1    3    3    0  502 -0.47038205135E+03 -0.13411412037E+03  0.57256200469E+03  0.75304257566E+03  0.50400001928E-02 0. -1.
</event>
<event>
 5   0  0.8968798E-03  0.9922590E+03  0.7818609E-02  0.9317076E-01
       -2   -1    0    0    0  501  0.00000000000E+00  0.00000000000E+00  0.13207614554E+03  0.13207614556E+03  0.25500000920E-02 0.  1.
        2   -1    0    0  501    0  0.00000000000E+00  0.00000000000E+00 -0.18636557767E+04  0.18636557767E+04  0.25500000920E-02 0. -1.
    10030    2    1    2    0    0  0.00000000000E+00  0.00000000000E+00 -0.17315796312E+04  0.19957319223E+04  0.99225898155E+03 0.  0.
        2    1    3    3  502    0 -0.26196412180E+02  0.17953315058E+03 -0.17945365805E+04  0.18036851008E+04  0.25500000920E-02 0. -1.
       -2    1    3    3    0  502  0.26196412180E+02 -0.17953315058E+03  0.62956949299E+02  0.19204682148E+03  0.25500000920E-02 0.  1.
</event>
<event>
 5   0  0.3513625E-03  0.9995380E+03  0.7818609E-02  0.9309052E-01
        3   -1    0    0  501    0  0.00000000000E+00  0.00000000000E+00  0.25131762111E+03  0.25131764140E+03  0.10100000352E+00 0. -1.
       -3   -1    0    0    0  501  0.00000000000E+00  0.00000000000E+00 -0.99383810564E+03  0.99383811077E+03  0.10100000352E+00 0.  1.
    10030    2    1    2    0    0  0.00000000000E+00  0.00000000000E+00 -0.74252048453E+03  0.12451557522E+04  0.99953798188E+03 0.  0.
        5    1    3    3  502    0 -0.75756671326E+02  0.49130614688E+03 -0.43509897135E+03  0.66064665902E+03  0.46999998093E+01 0.  1.
       -5    1    3    3    0  502  0.75756671326E+02 -0.49130614688E+03 -0.30742151318E+03  0.58450909315E+03  0.46999998093E+01 0. -1.
</event>
<event>
 5   0  0.5072205E-03  0.1001128E+04  0.7818609E-02  0.9307309E-01
        1   -1    0    0  501    0  0.00000000000E+00  0.00000000000E+00  0.50258423661E+03  0.50258423663E+03  0.50400001928E-02 0.  1.
       -1   -1    0    0    0  501  0.00000000000E+00  0.00000000000E+00 -0.49855144909E+03  0.49855144911E+03  0.50400001928E-02 0. -1.
    10030    2    1    2    0    0  0.00000000000E+00  0.00000000000E+00  0.40327875207E+01  0.10011356857E+04  0.10011275632E+04 0.  0.
        5    1    3    3  502    0 -0.76393217882E+02 -0.28172015934E+03  0.40863970899E+03  0.50220580809E+03  0.46999998093E+01 0.  1.
       -5    1    3    3    0  502  0.76393217882E+02  0.28172015934E+03 -0.40460692147E+03  0.49892987765E+03  0.46999998093E+01 0. -1.
</event>
<event>
 5   0  0.5189877E-03  0.1004042E+04  0.7818609E-02  0.9304122E-01
        1   -1    0    0  501    0  0.00000000000E+00  0.00000000000E+00  0.82106065792E+03  0.82106065794E+03  0.50400001928E-02 0. -1.
       -1   -1    0    0    0  501  0.00000000000E+00  0.00000000000E+00 -0.30695088121E+03  0.30695088125E+03  0.50400001928E-02 0.  1.
    10030    2    1    2    0    0  0.00000000000E+00  0.00000000000E+00  0.51410977671E+03  0.11280115392E+04  0.10040424145E+04 0.  0.
        3    1    3    3  502    0 -0.35448534918E+03  0.22199907873E+03  0.56897076945E+03  0.70616655289E+03  0.10100000352E+00 0. -1.
       -3    1    3    3    0  502  0.35448534918E+03 -0.22199907873E+03 -0.54860992738E+02  0.42184498629E+03  0.10100000352E+00 0.  1.
</event>
<event>
 5   0  0.9243773E-03  0.1000100E+04  0.7818609E-02  0.9308435E-01
        2   -1    0    0  501    0  0.00000000000E+00  0.00000000000E+00  0.11389550377E+04  0.11389550377E+04  0.25500000920E-02 0.  1.
       -2   -1    0    0    0  501  0.00000000000E+00  0.00000000000E+00 -0.21954334700E+03  0.21954334701E+03  0.25500000920E-02 0. -1.
    10030    2    1    2    0    0  0.00000000000E+00  0.00000000000E+00  0.91941169073E+03  0.13584983847E+04  0.10000999971E+04 0.  0.
        3    1    3    3  502    0  0.10579142540E+03  0.22603919438E+03  0.10483087250E+04  0.10776069489E+04  0.10100000352E+00 0.  1.
       -3    1    3    3    0  502 -0.10579142540E+03 -0.22603919438E+03 -0.12889703431E+03  0.28089143586E+03  0.10100000352E+00 0. -1.
</event>
<event>
 5   0  0.9243773E-03  0.9972815E+03  0.7818609E-02  0.9311531E-01
       -2   -1    0    0    0  501  0.00000000000E+00  0.00000000000E+00  0.31304419616E+03  0.31304419617E+03  0.25500000920E-02 0.  1.
        2   -1    0    0  501    0  0.00000000000E+00  0.00000000000E+00 -0.79427321819E+03  0.79427321820E+03  0.25500000920E-02 0. -1.
    10030    2    1    2    0    0  0.00000000000E+00  0.00000000000E+00 -0.48122902203E+03  0.11073174144E+04  0.99728154727E+03 0.  0.
        3    1    3    3  502    0  0.35870481011E+03  0.29076693932E+03 -0.44960571832E+03  0.64448418595E+03  0.10100000352E+00 0. -1.
       -3    1    3    3    0  502 -0.35870481011E+03 -0.29076693932E+03 -0.31623303709E+02  0.46283322842E+03  0.10100000352E+00 0.  1.
</event>
<event>
 5   0  0.5310275E-03  0.9883406E+03  0.7818609E-02  0.9321426E-01
        1   -1    0    0  501    0  0.00000000000E+00  0.00000000000E+00  0.71850554869E+03  0.71850554871E+03  0.50400001928E-02 0. -1.
       -1   -1    0    0    0  501  0.00000000000E+00  0.00000000000E+00 -0.33987811120E+03  0.33987811124E+03  0.50400001928E-02 0.  1.
    10030    2    1    2    0    0  0.00000000000E+00  0.00000000000E+00  0.37862743748E+03  0.10583836599E+04  0.98834064736E+03 0.  0.
        1    1    3    3  502    0 -0.12143061923E+03  0.43551709203E+03  0.40290792590E+03  0.60560327733E+03  0.50400001928E-02 0. -1.
       -1    1    3    3    0  502  0.12143061923E+03 -0.43551709203E+03 -0.24280488413E+02  0.45278038262E+03  0.50400001928E-02 0.  1.
</event>
<event>
 5   0  0.9040674E-03  0.9912632E+03  0.7818609E-02  0.9318179E-01
        2   -1    0    0  501    0  0.00000000000E+00  0.00000000000E+00  0.22988767174E+03  0.22988767175E+03  0.25500000920E-02 0. -1.
       -2   -1    0    0    0  501  0.00000000000E+00  0.00000000000E+00 -0.10685683112E+04  0.10685683112E+04  0.25500000920E-02 0.  1.
    10030    2    1    2    0    0  0.00000000000E+00  0.00000000000E+00 -0.83868063943E+03  0.12984559829E+04  0.99126319644E+03 0.  0.
        1    1    3    3  502    0 -0.19074251575E+03  0.45745816581E+03 -0.41936495122E+03  0.64924390110E+03  0.50400001928E-02 0.  1.
       -1    1    3    3    0  502  0.19074251575E+03 -0.45745816581E+03 -0.41931568821E+03  0.64921208182E+03  0.50400001928E-02 0. -1.
</event>
<event>
 5   0  0.5201968E-03  0.1014532E+04  0.7818609E-02  0.9292749E-01
        1   -1    0    0  501    0  0.00000000000E+00  0.00000000000E+00  0.33838707120E+03  0.33838707124E+03  0.50400001928E-02 0. -1.
       -1   -1    0    0    0  501  0.00000000000E+00  0.00000000000E+00 -0.76042691687E+03  0.76042691689E+03  0.50400001928E-02 0.  1.
    10030    2    1    2    0    0  0.00000000000E+00  0.00000000000E+00 -0.42203984567E+03  0.10988139881E+04  0.10145316896E+04 0.  0.
        2    1    3    3  502    0  0.29911169020E+03  0.12258178148E+03 -0.63442407465E+03  0.71203090022E+03  0.25500000920E-02 0.  1.
       -2    1    3    3    0  502 -0.29911169020E+03 -0.12258178148E+03  0.21238422898E+03  0.38678308791E+03  0.25500000920E-02 0. -1.
</event>
<event>
 5   0  0.5310275E-03  0.9857956E+03  0.7818609E-02  0.9324263E-01
       -1   -1    0    0    0  501  0.00000000000E+00  0.00000000000E+00  0.75504760801E+03  0.75504760802E+03  0.50400001928E-02 0.  1.
        1   -1    0    0  501    0  0.00000000000E+00  0.00000000000E+00 -0.32176543035E+03  0.32176543039E+03  0.50400001928E-02 0. -1.
    10030    2    1    2    0    0  0.00000000000E+00  0.00000000000E+00  0.43328217766E+03  0.10768130384E+04  0.98579555397E+03 0.  0.
        1    1    3    3  502    0  0.27992248582E+03  0.27143558397E+03 -0.11271800234E+03  0.40588079825E+03  0.50400001928E-02 0. -1.
       -1    1    3    3    0  502 -0.27992248582E+03 -0.27143558397E+03  0.54600018000E+03  0.67093224017E+03  0.50400001928E-02 0.  1.
</event>
<event>
 5   0  0.3513625E-03  0.1255602E+04  0.7818609E-02  0.9065534E-01
        4   -1    0    0  501    0  0.00000000000E+00  0.00000000000E+00  0.54191717506E+03  0.54191866320E+03  0.12699999809E+01 0. -1.
       -4   -1    0    0    0  501  0.00000000000E+00  0.00000000000E+00 -0.72729260201E+03  0.72729371085E+03  0.12699999809E+01 0.  1.
    10030    2    1    2    0    0  0.00000000000E+00  0.00000000000E+00 -0.18537542695E+03  0.12692123741E+04  0.12556018483E+04 0.  0.
        4    1    3    3  502    0  0.28116945471E+03 -0.50613277760E+03  0.15264821128E+03  0.59877352992E+03  0.12699999809E+01 0. -1.
       -4    1    3    3    0  502 -0.28116945471E+03  0.50613277760E+03 -0.33802363822E+03  0.67043884413E+03  0.12699999809E+01 0.  1.
</event>
<event>
 5   0  0.9040674E-03  0.9950104E+03  0.7818609E-02  0.9314034E-01
        2   -1    0    0  501    0  0.00000000000E+00  0.00000000000E+00  0.26522325586E+03  0.26522325587E+03  0.25500000920E-02 0.  1.
       -2   -1    0    0    0  501  0.00000000000E+00  0.00000000000E+00 -0.93321910800E+03  0.93321910800E+03  0.25500000920E-02 0. -1.
    10030    2    1    2    0    0  0.00000000000E+00  0.00000000000E+00 -0.66799585214E+03  0.11984423639E+04  0.99501037234E+03 0.  0.
        1    1    3    3  502    0 -0.34876474580E+01 -0.17663085652E+03 -0.89416631123E+03  0.91145159790E+03  0.50400001928E-02 0. -1.
       -1    1    3    3    0  502  0.34876474580E+01  0.17663085652E+03  0.22617045909E+03  0.28699076597E+03  0.50400001928E-02 0.  1.
</event>
<event>
 5   0  0.5201968E-03  0.1002903E+04  0.7818609E-02  0.9305367E-01
       -1   -1    0    0    0  501  0.00000000000E+00  0.00000000000E+00  0.13715164639E+04  0.13715164639E+04  0.50400001928E-02 0. -1.
        1   -1    0    0  501    0  0.00000000000E+00  0.00000000000E+00 -0.18333982586E+03  0.18333982592E+03  0.50400001928E-02 0.  1.
    10030    2    1    2    0    0  0.00000000000E+00  0.00000000000E+00  0.11881766380E+04  0.15548562898E+04  0.10029029658E+04 0.  0.
        2    1    3    3  502    0 -0.28919365766E+03 -0.15515222983E+03  0.62838895269E+01  0.32824483747E+03  0.25500000920E-02 0.  1.
       -2    1    3    3    0  502  0.28919365766E+03  0.15515222983E+03  0.11818927485E+04  0.12266114524E+04  0.25500000920E-02 0. -1.
</event>
<event>
 5   0  0.5201968E-03  0.9992580E+03  0.7818609E-02  0.9309359E-01
       -1   -1    0    0    0  501  0.00000000000E+00  0.00000000000E+00  0.25862455545E+03  0.25862455550E+03  0.50400001928E-02 0. -1.
        1   -1    0    0  501    0  0.00000000000E+00  0.00000000000E+00 -0.96521831074E+03  0.96521831075E+03  0.50400001928E-02 0.  1.
    10030    2    1    2    0    0  0.00000000000E+00  0.00000000000E+00 -0.70659375529E+03  0.12238428663E+04  0.99925803788E+03 0.  0.
        2    1    3    3  502    0 -0.17486820107E+03  0.55063895006E+02  0.21594024967E+03  0.28326862113E+03  0.25500000920E-02 0. -1.
       -2    1    3    3    0  502  0.17486820107E+03 -0.55063895006E+02 -0.92253400496E+03  0.94057424513E+03  0.25500000920E-02 0.  1.
</event>
<event>
 5   0  0.8968798E-03  0.9860086E+03  0.7818609E-02  0.9324025E-01
       -2   -1    0    0    0  501  0.00000000000E+00  0.00000000000E+00  0.17132798446E+03  0.17132798448E+03  0.25500000920E-02 0.  1.
        2   -1    0    0  501    0  0.00000000000E+00  0.00000000000E+00 -0.14186429122E+04  0.14186429123E+04  0.25500000920E-02 0. -1.
    10030    2    1    2    0    0  0.00000000000E+00  0.00000000000E+00 -0.12473149278E+04  0.15899708967E+04  0.98600858179E+03 0.  0.
        2    1    3    3  502    0  0.14166499253E+03 -0.31365555101E+03 -0.54443865304E+02  0.34844355248E+03  0.25500000920E-02 0.  1.
       -2    1    3    3    0  502 -0.14166499253E+03  0.31365555101E+03 -0.11928710625E+04  0.12415273442E+04  0.25500000920E-02 0. -1.
</event>
<event>
 5   0  0.3513625E-03  0.1001923E+04  0.7818609E-02  0.9306438E-01
       -3   -1    0    0    0  501  0.00000000000E+00  0.00000000000E+00  0.89312731210E+03  0.89312731781E+03  0.10100000352E+00 0. -1.
        3   -1    0    0  501    0  0.00000000000E+00  0.00000000000E+00 -0.28099315011E+03  0.28099316826E+03  0.10100000352E+00 0.  1.
    10030    2    1    2    0    0  0.00000000000E+00  0.00000000000E+00  0.61213416199E+03  0.11741204861E+04  0.10019234918E+04 0.  0.
        4    1    3    3  502    0 -0.48405831880E+03 -0.41194633714E+02  0.44935909972E+03  0.66176632375E+03  0.12699999809E+01 0.  1.
       -4    1    3    3    0  502  0.48405831880E+03  0.41194633714E+02  0.16277506227E+03  0.51235416231E+03  0.12699999809E+01 0. -1.
</event>
<event>
 5   0  0.5189877E-03  0.1006093E+04  0.7818609E-02  0.9301887E-01
       -1   -1    0    0    0  501  0.00000000000E+00  0.00000000000E+00  0.84033698396E+03  0.84033698397E+03  0.50400001928E-02 0.  1.
        1   -1    0    0  501    0  0.00000000000E+00  0.00000000000E+00 -0.30113630016E+03  0.30113630020E+03  0.50400001928E-02 0. -1.
    10030    2    1    2    0    0  0.00000000000E+00  0.00000000000E+00  0.53920068380E+03  0.11414732842E+04  0.10060933759E+04 0.  0.
        3    1    3    3  502    0 -0.47313355521E+01  0.44617001691E+03  0.60357072094E+01  0.44623593478E+03  0.10100000352E+00 0. -1.
       -3    1    3    3    0  502  0.47313355521E+01 -0.44617001691E+03  0.53316497659E+03  0.69523734939E+03  0.10100000352E+00 0.  1.
</event>
<event>
 5   0  0.8907355E-03  0.1014683E+04  0.7818609E-02  0.9292586E-01
       -2   -1    0    0    0  501  0.00000000000E+00  0.00000000000E+00  0.20027192900E+03  0.20027192902E+03  0.25500000920E-02 0. -1.
        2   -1    0    0  501    0  0.00000000000E+00  0.00000000000E+00 -0.12852295889E+04  0.12852295889E+04  0.25500000920E-02 0.  1.
    10030    2    1    2    0    0  0.00000000000E+00  0.00000000000E+00 -0.10849576599E+04  0.14855015180E+04  0.10146830224E+04 0.  0.
        5    1    3    3  502    0  0.10482750856E+03  0.48907040102E+03 -0.41829996043E+03  0.65205491379E+03  0.46999998093E+01 0. -1.
       -5    1    3    3    0  502 -0.10482750856E+03 -0.48907040102E+03 -0.66665769951E+03  0.83344660418E+03  0.46999998093E+01 0.  1.
</event>
<event>
 5   0  0.5189877E-03  0.1010781E+04  0.7818609E-02  0.9296798E-01
        1   -1    0    0  501    0  0.00000000000E+00  0.00000000000E+00  0.16482115289E+03  0.16482115297E+03  0.50400001928E-02 0.  1.
       -1   -1    0    0    0  501  0.00000000000E+00  0.00000000000E+00 -0.15496781513E+04  0.15496781513E+04  0.50400001928E-02 0. -1.
    10030    2    1    2    0    0  0.00000000000E+00  0.00000000000E+00 -0.13848569984E+04  0.17144993043E+04  0.10107813603E+04 0.  0.
        3    1    3    3  502    0 -0.42531681411E+03  0.12746022246E+03 -0.11019125458E+04  0.11880032700E+04  0.10100000352E+00 0. -1.
       -3    1    3    3    0  502  0.42531681411E+03 -0.12746022246E+03 -0.28294445260E+03  0.52649603430E+03  0.10100000352E+00 0.  1.
</event>
<event>
 5   0  0.8968798E-03  0.9907954E+03  0.7818609E-02  0.9318698E-01
        2   -1    0    0  501    0  0.00000000000E+00  0.00000000000E+00  0.84187717570E+03  0.84187717570E+03  0.25500000920E-02 0.  1.
       -2   -1    0    0    0  501  0.00000000000E+00  0.00000000000E+00 -0.29151388961E+03  0.29151388963E+03  0.25500000920E-02 0. -1.
    10030    2    1    2    0    0  0.00000000000E+00  0.00000000000E+00  0.55036328608E+03  0.11333910653E+04  0.99079541798E+03 0.  0.
        2    1    3    3  502    0 -0.29927659239E+03 -0.12938483618E+03  0.70183783634E+03  0.77387548295E+03  0.25500000920E-02 0.  1.
       -2    1    3    3    0  502  0.29927659239E+03  0.12938483618E+03 -0.15147455026E+03  0.35951558238E+03  0.25500000920E-02 0. -1.
</event>
<event>
 5   0  0.8968798E-03  0.9934940E+03  0.7818609E-02  0.9315709E-01
        2   -1    0    0  501    0  0.00000000000E+00  0.00000000000E+00  0.78749697002E+03  0.78749697003E+03  0.25500000920E-02 0.  1.
       -2   -1    0    0    0  501  0.00000000000E+00  0.00000000000E+00 -0.31334413941E+03  0.31334413942E+03  0.25500000920E-02 0. -1.
    10030    2    1    2    0    0  0.00000000000E+00  0.00000000000E+00  0.47415283062E+03  0.11008411094E+04  0.99349395643E+03 0.  0.
        2    1    3    3  502    0 -0.30335507907E+03 -0.16089793311E+03  0.63481102401E+03  0.72173228076E+03  0.25500000920E-02 0.  1.
       -2    1    3    3    0  502  0.30335507907E+03  0.16089793311E+03 -0.16065819339E+03  0.37910882869E+03  0.25500000920E-02 0. -1.
</event>
<event>
 5   0  0.5310275E-03  0.1004883E+04  0.7818609E-02  0.9303206E-01
        1   -1    0    0  501    0  0.00000000000E+00  0.00000000000E+00  0.35070723024E+03  0.35070723027E+03  0.50400001928E-02 0.  1.
       -1   -1    0    0    0  501  0.00000000000E+00  0.00000000000E+00 -0.71982335223E+03  0.71982335225E+03  0.50400001928E-02 0. -1.
    10030    2    1    2    0    0  0.00000000000E+00  0.00000000000E+00 -0.36911612199E+03  0.10705305825E+04  0.10048825885E+04 0.  0.
        1    1    3    3  502    0  0.32074820323E+03  0.35797221394E+03 -0.28627448603E+02  0.48150082728E+03  0.50400001928E-02 0. -1.
       -1    1    3    3    0  502 -0.32074820323E+03 -0.35797221394E+03 -0.34048867339E+03  0.58902975524E+03  0.50400001928E-02 0.  1.
</event>
<event>
 5   0  0.9243773E-03  0.1006950E+04  0.7818609E-02  0.9300955E-01
        2   -1    0    0  501    0  0.00000000000E+00  0.00000000000E+00  0.77241295522E+03  0.77241295523E+03  0.25500000920E-02 0. -1.
       -2   -1    0    0    0  501  0.00000000000E+00  0.00000000000E+00 -0.32817543473E+03  0.32817543474E+03  0.25500000920E-02 0.  1.
    10030    2    1    2    0    0  0.00000000000E+00  0.00000000000E+00  0.44423752050E+03  0.11005883900E+04  0.10069497651E+04 0.  0.
        3    1    3    3  502    0  0.35491393112E+03 -0.44921452862E+02  0.60932988792E+03  0.70658669528E+03  0.10100000352E+00 0. -1.
       -3    1    3    3    0  502 -0.35491393112E+03  0.44921452862E+02 -0.16509236742E+03  0.39400169469E+03  0.10100000352E+00 0.  1.
</event>
<event>
 5   0  0.8968798E-03  0.9961741E+03  0.7818609E-02  0.9312751E-01
       -2   -1    0    0    0  501  0.00000000000E+00  0.00000000000E+00  0.15896267384E+03  0.15896267386E+03  0.25500000920E-02 0. -1.
        2   -1    0    0  501    0  0.00000000000E+00  0.00000000000E+00 -0.15606854118E+04  0.15606854118E+04  0.25500000920E-02 0.  1.
    10030    2    1    2    0    0  0.00000000000E+00  0.00000000000E+00 -0.14017227379E+04  0.17196480856E+04  0.99617413356E+03 0.  0.
        2    1    3    3  502    0  0.27475999393E+03  0.27289679554E+03 -0.12416084436E+04  0.13005988015E+04  0.25500000920E-02 0.  1.
       -2    1    3    3    0  502 -0.27475999393E+03 -0.27289679554E+03 -0.16011429438E+03  0.41904928415E+03  0.25500000920E-02 0. -1.
</event>
<event>
 5   0  0.5189877E-03  0.1003769E+04  0.7818609E-02  0.9304421E-01
       -1   -1    0    0    0  501  0.00000000000E+00  0.00000000000E+00  0.29870580162E+03  0.29870580166E+03  0.50400001928E-02 0.  1.
        1   -1    0    0  501    0  0.00000000000E+00  0.00000000000E+00 -0.84326425183E+03  0.84326425184E+03  0.50400001928E-02 0. -1.
    10030    2    1    2    0    0  0.00000000000E+00  0.00000000000E+00 -0.54455845021E+03  0.11419700535E+04  0.10037687470E+04 0.  0.
        3    1    3    3  502    0 -0.35510399783E+03  0.18937849094E+02  0.13064417379E+03  0.37884746502E+03  0.10100000352E+00 0.  1.
       -3    1    3    3    0  502  0.35510399783E+03 -0.18937849094E+02 -0.67520262400E+03  0.76312258849E+03  0.10100000352E+00 0. -1.
</event>
<event>
 5   0  0.5189877E-03  0.1030444E+04  0.7818609E-02  0.9275770E-01
       -1   -1    0    0    0  501  0.00000000000E+00  0.00000000000E+00  0.34704087018E+03  0.34704087021E+03  0.50400001928E-02 0. -1.
        1   -1    0    0  501    0  0.00000000000E+00  0.00000000000E+00 -0.76490641080E+03  0.76490641082E+03  0.50400001928E-02 0.  1.
    10030    2    1    2    0    0  0.00000000000E+00  0.00000000000E+00 -0.41786554063E+03  0.11119472810E+04  0.10304441497E+04 0.  0.
        3    1    3    3  502    0 -0.31241975387E+03 -0.91190404536E+02  0.22207353350E+03  0.39400311797E+03  0.10100000352E+00 0. -1.
       -3    1    3    3    0  502  0.31241975387E+03  0.91190404536E+02 -0.63993907413E+03  0.71794416307E+03  0.10100000352E+00 0.  1.
</event>
<event>
 5   0  0.5349685E-03  0.9732833E+03  0.7818609E-02  0.9338342E-01
        1   -1    0    0  501    0  0.00000000000E+00  0.00000000000E+00  0.98633643413E+03  0.98633643414E+03  0.50400001928E-02 0. -1.
       -1   -1    0    0    0  501  0.00000000000E+00  0.00000000000E+00 -0.24010073229E+03  0.24010073234E+03  0.50400001928E-02 0.  1.
    10030    2    1    2    0    0  0.00000000000E+00  0.00000000000E+00  0.74623570184E+03  0.12264371665E+04  0.97328330954E+03 0.  0.
        4    1    3    3  502    0  0.69848021206E+02  0.44511021731E+03  0.60484196278E+03  0.75421301000E+03  0.12699999809E+01 0. -1.
       -4    1    3    3    0  502 -0.69848021206E+02 -0.44511021731E+03  0.14139373907E+03  0.47222415648E+03  0.12699999809E+01 0.  1.
</event>
<event>
 5   0  0.9243773E-03  0.9808069E+03  0.7818609E-02  0.9329850E-01
        2   -1    0    0  501    0  0.00000000000E+00  0.00000000000E+00  0.97922733236E+03  0.97922733236E+03  0.25500000920E-02 0.  1.
       -2   -1    0    0    0  501  0.00000000000E+00  0.00000000000E+00 -0.24559723694E+03  0.24559723695E+03  0.25500000920E-02 0. -1.
    10030    2    1    2    0    0  0.00000000000E+00  0.00000000000E+00  0.73363009542E+03  0.12248245693E+04  0.98080686616E+03 0.  0.
        3    1    3    3  502    0  0.46222207224E+03 -0.13248417275E+03  0.24642327948E+03  0.54030152968E+03  0.10100000352E+00 0. -1.
       -3    1    3    3    0  502 -0.46222207224E+03  0.13248417275E+03  0.48720681594E+03  0.68452303964E+03  0.10100000352E+00 0.  1.
</event>
<event>
 5   0  0.8968798E-03  0.1008292E+04  0.7818609E-02  0.9299496E-01
        2   -1    0    0  501    0  0.00000000000E+00  0.00000000000E+00  0.10966702313E+04  0.10966702313E+04  0.25500000920E-02 0. -1.
       -2   -1    0    0    0  501  0.00000000000E+00  0.00000000000E+00 -0.23175917945E+03  0.23175917946E+03  0.25500000920E-02 0.  1.
    10030    2    1    2    0    0  0.00000000000E+00  0.00000000000E+00  0.86491105187E+03  0.13284294108E+04  0.10082924039E+04 0.  0.
        2    1    3    3  502    0 -0.35456960845E+03  0.35750437348E+03  0.46564012175E+03  0.68582046286E+03  0.25500000920E-02 0.  1.
       -2    1    3    3    0  502  0.35456960845E+03 -0.35750437348E+03  0.39927093012E+03  0.64260894792E+03  0.25500000920E-02 0. -1.
</event>
<event>
 5   0  0.8875655E-03  0.9929226E+03  0.7818609E-02  0.9316341E-01
        2   -1    0    0  501    0  0.00000000000E+00  0.00000000000E+00  0.65772807623E+03  0.65772807623E+03  0.25500000920E-02 0.  1.
       -2   -1    0    0    0  501  0.00000000000E+00  0.00000000000E+00 -0.37473512172E+03  0.37473512173E+03  0.25500000920E-02 0. -1.
    10030    2    1    2    0    0  0.00000000000E+00  0.00000000000E+00  0.28299295451E+03  0.10324631980E+04  0.99292257646E+03 0.  0.
        4    1    3    3  502    0 -0.50087430634E+02 -0.18720475986E+02  0.65472338361E+03  0.65690450515E+03  0.12699999809E+01 0.  1.
       -4    1    3    3    0  502  0.50087430634E+02  0.18720475986E+02 -0.37173042910E+03  0.37555869281E+03  0.12699999809E+01 0. -1.
</event>
<event>
 5   0  0.5201968E-03  0.1112039E+04  0.7818609E-02  0.9193537E-01
       -1   -1    0    0    0  501  0.00000000000E+00  0.00000000000E+00  0.90267868784E+03  0.90267868785E+03  0.50400001928E-02 0. -1.
        1   -1    0    0  501    0  0.00000000000E+00  0.00000000000E+00 -0.34248903778E+03  0.34248903782E+03  0.50400001928E-02 0.  1.
    10030    2    1    2    0    0  0.00000000000E+00  0.00000000000E+00  0.56018965006E+03  0.12451677257E+04  0.11120387678E+04 0.  0.
        2    1    3    3  502    0  0.16398048419E+03 -0.48158824901E+03  0.28867071419E+02  0.50955877836E+03  0.25500000920E-02 0.  1.
       -2    1    3    3    0  502 -0.16398048419E+03  0.48158824901E+03  0.53132257864E+03  0.73560894731E+03  0.25500000920E-02 0. -1.
</event>
<event>
 5   0  0.5072205E-03  0.1010962E+04  0.7818609E-02  0.9296603E-01
        1   -1    0    0  501    0  0.00000000000E+00  0.00000000000E+00  0.79894839071E+03  0.79894839073E+03  0.50400001928E-02 0.  1.
       -1   -1    0    0    0  501  0.00000000000E+00  0.00000000000E+00 -0.31980902509E+03  0.31980902513E+03  0.50400001928E-02 0. -1.
    10030    2    1    2    0    0  0.00000000000E+00  0.00000000000E+00  0.47913936562E+03  0.11187574159E+04  0.10109617321E+04 0.  0.
        5    1    3    3  502    0 -0.15953034283E+02  0.49781682168E+03  0.14429220244E+03  0.51857344411E+03  0.46999998093E+01 0. -1.
       -5    1    3    3    0  502  0.15953034283E+02 -0.49781682168E+03  0.33484716318E+03  0.60018397175E+03  0.46999998093E+01 0.  1.
</event>
<event>
 5   0  0.9040674E-03  0.1012152E+04  0.7818609E-02  0.9295317E-01
       -2   -1    0    0    0  501  0.00000000000E+00  0.00000000000E+00  0.96324922430E+03  0.96324922431E+03  0.25500000920E-02 0.  1.
        2   -1    0    0  501    0  0.00000000000E+00  0.00000000000E+00 -0.26588416448E+03  0.26588416449E+03  0.25500000920E-02 0. -1.
    10030    2    1    2    0    0  0.00000000000E+00  0.00000000000E+00  0.69736505983E+03  0.12291333888E+04  0.10121515997E+04 0.  0.
        1    1    3    3  502    0  0.20538461496E+03  0.45789599950E+03  0.42795379318E+03  0.65954229245E+03  0.50400001928E-02 0.  1.
       -1    1    3    3    0  502 -0.20538461496E+03 -0.45789599950E+03  0.26941126665E+03  0.56959109635E+03  0.50400001928E-02 0. -1.
</event>
<event>
 5   0  0.8968798E-03  0.1082895E+04  0.7818609E-02  0.9222026E-01
       -2   -1    0    0    0  501  0.00000000000E+00  0.00000000000E+00  0.42996850024E+03  0.42996850024E+03  0.25500000920E-02 0. -1.
        2   -1    0    0  501    0  0.00000000000E+00  0.00000000000E+00 -0.68183015536E+03  0.68183015537E+03  0.25500000920E-02 0.  1.
    10030    2    1    2    0    0  0.00000000000E+00  0.00000000000E+00 -0.25186165513E+03  0.11117986556E+04  0.10828951737E+04 0.  0.
        2    1    3    3  502    0 -0.84266238731E+02 -0.44995774680E+03  0.17092796782E+03  0.48865032803E+03  0.25500000920E-02 0. -1.
       -2    1    3    3    0  502  0.84266238731E+02  0.44995774680E+03 -0.42278962295E+03  0.62314832759E+03  0.25500000920E-02 0.  1.
</event>
<event>
 5   0  0.5310275E-03  0.9895073E+03  0.7818609E-02  0.9320128E-01
        1   -1    0    0  501    0  0.00000000000E+00  0.00000000000E+00  0.16346523868E+03  0.16346523875E+03  0.50400001928E-02 0.  1.
       -1   -1    0    0    0  501  0.00000000000E+00  0.00000000000E+00 -0.14974510333E+04  0.14974510333E+04  0.50400001928E-02 0. -1.
    10030    2    1    2    0    0  0.00000000000E+00  0.00000000000E+00 -0.13339857947E+04  0.16609162721E+04  0.98950733325E+03 0.  0.
        1    1    3    3  502    0  0.48255190868E+03 -0.10850635570E+03 -0.68763380412E+03  0.84703613996E+03  0.50400001928E-02 0. -1.
       -1    1    3    3    0  502 -0.48255190868E+03  0.10850635570E+03 -0.64635199053E+03  0.81388013213E+03  0.50400001928E-02 0.  1.
</event>
<event>
 5   0  0.5189877E-03  0.1006057E+04  0.7818609E-02  0.9301926E-01
       -1   -1    0    0    0  501  0.00000000000E+00  0.00000000000E+00  0.15677241775E+03  0.15677241784E+03  0.50400001928E-02 0.  1.
        1   -1    0    0  501    0  0.00000000000E+00  0.00000000000E+00 -0.16140452410E+04  0.16140452410E+04  0.50400001928E-02 0. -1.
    10030    2    1    2    0    0  0.00000000000E+00  0.00000000000E+00 -0.14572728233E+04  0.17708176589E+04  0.10060572049E+04 0.  0.
        3    1    3    3  502    0  0.19090448704E+03 -0.13285675047E+03  0.56445124444E+02  0.23933554185E+03  0.10100000352E+00 0.  1.
       -3    1    3    3    0  502 -0.19090448704E+03  0.13285675047E+03 -0.15137179477E+04  0.15314821170E+04  0.10100000352E+00 0. -1.
</event>
<event>
 5   0  0.5349685E-03  0.9996452E+03  0.7818609E-02  0.9308934E-01
       -1   -1    0    0    0  501  0.00000000000E+00  0.00000000000E+00  0.97202423704E+03  0.97202423705E+03  0.50400001928E-02 0.  1.
        1   -1    0    0  501    0  0.00000000000E+00  0.00000000000E+00 -0.25701276521E+03  0.25701276526E+03  0.50400001928E-02 0. -1.
    10030    2    1    2    0    0  0.00000000000E+00  0.00000000000E+00  0.71501147183E+03  0.12290370023E+04  0.99964521117E+03 0.  0.
        4    1    3    3  502    0  0.28347167628E+03 -0.21759989295E+03  0.78714482569E+03  0.86446775196E+03  0.12699999809E+01 0.  1.
       -4    1    3    3    0  502 -0.28347167628E+03  0.21759989295E+03 -0.72133353866E+02  0.36456925036E+03  0.12699999809E+01 0. -1.
</event>
<event>
 5   0  0.3513625E-03  0.9940298E+03  0.7818609E-02  0.9315117E-01
        3   -1    0    0  501    0  0.00000000000E+00  0.00000000000E+00  0.36266312333E+03  0.36266313739E+03  0.10100000352E+00 0.  1.
       -3   -1    0    0    0  501  0.00000000000E+00  0.00000000000E+00 -0.68113839536E+03  0.68113840285E+03  0.10100000352E+00 0. -1.
    10030    2    1    2    0    0  0.00000000000E+00  0.00000000000E+00 -0.31847527203E+03  0.10438015402E+04  0.99402975636E+03 0.  0.
        4    1    3    3  502    0  0.40483044977E+03 -0.60652136790E+02  0.13675530541E+03  0.43159008470E+03  0.12699999809E+01 0.  1.
       -4    1    3    3    0  502 -0.40483044977E+03  0.60652136790E+02 -0.45523057745E+03  0.61221145554E+03  0.12699999809E+01 0. -1.
</event>
<event>
 5   0  0.5310275E-03  0.1007843E+04  0.7818609E-02  0.9299984E-01
       -1   -1    0    0    0  501  0.00000000000E+00  0.00000000000E+00  0.19649220402E+03  0.19649220408E+03  0.50400001928E-02 0. -1.
        1   -1    0    0  501    0  0.00000000000E+00  0.00000000000E+00 -0.12923518901E+04  0.12923518901E+04  0.50400001928E-02 0.  1.
    10030    2    1    2    0    0  0.00000000000E+00  0.00000000000E+00 -0.10958596861E+04  0.14888440942E+04  0.10078433833E+04 0.  0.
        1    1    3    3  502    0 -0.10225656994E+03 -0.16676353212E+03 -0.12339733153E+04  0.12493824974E+04  0.50400001928E-02 0.  1.
       -1    1    3    3    0  502  0.10225656994E+03  0.16676353212E+03  0.13811362926E+03  0.23946159682E+03  0.50400001928E-02 0. -1.
</event>
<event>
 5   0  0.9243773E-03  0.9882034E+03  0.7818609E-02  0.9321579E-01
        2   -1    0    0  501    0  0.00000000000E+00  0.00000000000E+00  0.70573577114E+03  0.70573577114E+03  0.25500000920E-02 0. -1.
       -2   -1    0    0    0  501  0.00000000000E+00  0.00000000000E+00 -0.34593187812E+03  0.34593187813E+03  0.25500000920E-02 0.  1.
    10030    2    1    2    0    0  0.00000000000E+00  0.00000000000E+00  0.35980389302E+03  0.10516676493E+04  0.98820342192E+03 0.  0.
        3    1    3    3  502    0 -0.11862206365E+03 -0.11873740390E+03 -0.31466556402E+03  0.35662892823E+03  0.10100000352E+00 0.  1.
       -3    1    3    3    0  502  0.11862206365E+03  0.11873740390E+03  0.67446945704E+03  0.69503872104E+03  0.10100000352E+00 0. -1.
</event>
<event>
 5   0  0.5201968E-03  0.1001930E+04  0.7818609E-02  0.9306431E-01
        1   -1    0    0  501    0  0.00000000000E+00  0.00000000000E+00  0.14067408428E+04  0.14067408428E+04  0.50400001928E-02 0. -1.
       -1   -1    0    0    0  501  0.00000000000E+00  0.00000000000E+00 -0.17840237665E+03  0.17840237672E+03  0.50400001928E-02 0.  1.
    10030    2    1    2    0    0  0.00000000000E+00  0.00000000000E+00  0.12283384661E+04  0.15851432195E+04  0.10019299571E+04 0.  0.
        2    1    3    3  502    0  0.12773873485E+03  0.22700266983E+03  0.12911826448E+04  0.13171939943E+04  0.25500000920E-02 0. -1.
       -2    1    3    3    0  502 -0.12773873485E+03 -0.22700266983E+03 -0.62844178640E+02  0.26794922520E+03  0.25500000920E-02 0.  1.
</event>
<event>
 5   0  0.9040674E-03  0.1004880E+04  0.7818609E-02  0.9303208E-01
       -2   -1    0    0    0  501  0.00000000000E+00  0.00000000000E+00  0.19524167037E+03  0.19524167039E+03  0.25500000920E-02 0.  1.
        2   -1    0    0  501    0  0.00000000000E+00  0.00000000000E+00 -0.12929925487E+04  0.12929925487E+04  0.25500000920E-02 0. -1.
    10030    2    1    2    0    0  0.00000000000E+00  0.00000000000E+00 -0.10977508784E+04  0.14882342191E+04  0.10048801421E+04 0.  0.
        1    1    3    3  502    0  0.18290045041E+03  0.40071816063E+03 -0.19091760372E+03  0.48008035833E+03  0.50400001928E-02 0.  1.
       -1    1    3    3    0  502 -0.18290045041E+03 -0.40071816063E+03 -0.90683327465E+03  0.10081538608E+04  0.50400001928E-02 0. -1.
</event>
<event>
 5   0  0.5201968E-03  0.9910563E+03  0.7818609E-02  0.9318409E-01
       -1   -1    0    0    0  501  0.00000000000E+00  0.00000000000E+00  0.17947733052E+03  0.17947733059E+03  0.50400001928E-02 0. -1.
        1   -1    0    0  501    0  0.00000000000E+00  0.00000000000E+00 -0.13681291464E+04  0.13681291464E+04  0.50400001928E-02 0.  1.
    10030    2    1    2    0    0  0.00000000000E+00  0.00000000000E+00 -0.11886518159E+04  0.15476064770E+04  0.99105633961E+03 0.  0.
        2    1    3    3  502    0 -0.47412545521E+03 -0.10436602628E+03 -0.43925810823E+03  0.65470214630E+03  0.25500000920E-02 0. -1.
       -2    1    3    3    0  502  0.47412545521E+03  0.10436602628E+03 -0.74939370767E+03  0.89290433072E+03  0.25500000920E-02 0.  1.
</event>
<event>
 5   0  0.5189877E-03  0.1007530E+04  0.7818609E-02  0.9300325E-01
        1   -1    0    0  501    0  0.00000000000E+00  0.00000000000E+00  0.44617772028E+03  0.44617772030E+03  0.50400001928E-02 0. -1.
       -1   -1    0    0    0  501  0.00000000000E+00  0.00000000000E+00 -0.56878475627E+03  0.56878475630E+03  0.50400001928E-02 0.  1.
    10030    2    1    2    0    0  0.00000000000E+00  0.00000000000E+00 -0.12260703600E+03  0.10149624766E+04  0.10075298227E+04 0.  0.
        3    1    3    3  502    0 -0.11953859231E+03 -0.31301968676E+03 -0.44025446532E+03  0.55325835175E+03  0.10100000352E+00 0.  1.
       -3    1    3    3    0  502  0.11953859231E+03  0.31301968676E+03  0.31764742932E+03  0.46170412485E+03  0.10100000352E+00 0. -1.
</event>
<event>
 5   0  0.8875655E-03  0.9959141E+03  0.7818609E-02  0.9313037E-01
        2   -1    0    0  501    0  0.00000000000E+00  0.00000000000E+00  0.84336502775E+03  0.84336502776E+03  0.25500000920E-02 0. -1.
       -2   -1    0    0    0  501  0.00000000000E+00  0.00000000000E+00 -0.29401413483E+03  0.29401413484E+03  0.25500000920E-02 0.  1.
    10030    2    1    2    0    0  0.00000000000E+00  0.00000000000E+00  0.54935089292E+03  0.11373791626E+04  0.99591413082E+03 0.  0.
        4    1    3    3  502    0 -0.44325508451E+03 -0.22535042881E+03  0.24442222639E+03  0.55407736226E+03  0.12699999809E+01 0.  1.
       -4    1    3    3    0  502  0.44325508451E+03  0.22535042881E+03  0.30492866653E+03  0.58330180034E+03  0.12699999809E+01 0. -1.
</event>
<event>
 5   0  0.5349685E-03  0.9832521E+03  0.7818609E-02  0.9327107E-01
        1   -1    0    0  501    0  0.00000000000E+00  0.00000000000E+00  0.44339514764E+03  0.44339514767E+03  0.50400001928E-02 0.  1.
       -1   -1    0    0    0  501  0.00000000000E+00  0.00000000000E+00 -0.54510330949E+03  0.54510330951E+03  0.50400001928E-02 0. -1.
    10030    2    1    2    0    0  0.00000000000E+00  0.00000000000E+00 -0.10170816184E+03  0.98849845718E+03  0.98325207839E+03 0.  0.
        4    1    3    3  502    0  0.32645959922E+03 -0.11158687860E+03  0.30125326031E+03  0.45802035014E+03  0.12699999809E+01 0.  1.
       -4    1    3    3    0  502 -0.32645959922E+03  0.11158687860E+03 -0.40296142215E+03  0.53047810703E+03  0.12699999809E+01 0. -1.
</event>
<event>
 5   0  0.8968798E-03  0.8998107E+03  0.7818609E-02  0.9425818E-01
       -2   -1    0    0    0  501  0.00000000000E+00  0.00000000000E+00  0.10285210690E+03  0.10285210693E+03  0.25500000920E-02 0.  1.
        2   -1    0    0  501    0  0.00000000000E+00  0.00000000000E+00 -0.19680181512E+04  0.19680181512E+04  0.25500000920E-02 0. -1.
    10030    2    1    2    0    0  0.00000000000E+00  0.00000000000E+00 -0.18651660443E+04  0.20708702581E+04  0.89981067629E+03 0.  0.
        2    1    3    3  502    0 -0.34860599113E+03  0.27995742929E+03 -0.81722282319E+03  0.93153391887E+03  0.25500000920E-02 0.  1.
       -2    1    3    3    0  502  0.34860599113E+03 -0.27995742929E+03 -0.10479432211E+04  0.11393363392E+04  0.25500000920E-02 0. -1.
</event>
<event>
 5   0  0.5189877E-03  0.9797849E+03  0.7818609E-02  0.9330999E-01
       -1   -1    0    0    0  501  0.00000000000E+00  0.00000000000E+00  0.13410426794E+03  0.13410426803E+03  0.50400001928E-02 0. -1.
        1   -1    0    0  501    0  0.00000000000E+00  0.00000000000E+00 -0.17896118730E+04  0.17896118730E+04  0.50400001928E-02 0.  1.
    10030    2    1    2    0    0  0.00000000000E+00  0.00000000000E+00 -0.16555076051E+04  0.19237161410E+04  0.97978485439E+03 0.  0.
        3    1    3    3  502    0  0.17316192782E+03  0.72512210910E+02  0.60677434043E+02  0.19729377887E+03  0.10100000352E+00 0. -1.
       -3    1    3    3    0  502 -0.17316192782E+03 -0.72512210910E+02 -0.17161850391E+04  0.17264223622E+04  0.10100000352E+00 0.  1.
</event>
<event>
 5   0  0.9243773E-03  0.1002213E+04  0.7818609E-02  0.9306121E-01
       -2   -1    0    0    0  501  0.00000000000E+00  0.00000000000E+00  0.47197596275E+03  0.47197596275E+03  0.25500000920E-02 0.  1.
        2   -1    0    0  501    0  0.00000000000E+00  0.00000000000E+00 -0.53203459011E+03  0.53203459011E+03  0.25500000920E-02 0. -1.
    10030    2    1    2    0    0  0.00000000000E+00  0.00000000000E+00 -0.60058627360E+02  0.10040105529E+04  0.10022126279E+04 0.  0.
        3    1    3    3  502    0  0.33099961916E+03 -0.30735577645E+03  0.18733736731E+03  0.48900267954E+03  0.10100000352E+00 0.  1.
       -3    1    3    3    0  502 -0.33099961916E+03  0.30735577645E+03 -0.24739599467E+03  0.51500787332E+03  0.10100000352E+00 0. -1.
</event>
<event>
 5   0  0.5201968E-03  0.1029791E+04  0.7818609E-02  0.9276461E-01
        1   -1    0    0  501    0  0.00000000000E+00  0.00000000000E+00  0.16297325887E+04  0.16297325887E+04  0.50400001928E-02 0. -1.
       -1   -1    0    0    0  501  0.00000000000E+00  0.00000000000E+00 -0.16267539494E+03  0.16267539502E+03  0.50400001928E-02 0.  1.
    10030    2    1    2    0    0  0.00000000000E+00  0.00000000000E+00  0.14670571937E+04  0.17924079837E+04  0.10297910324E+04 0.  0.
        2    1    3    3  502    0  0.30897988806E+03 -0.39705781800E+03  0.54290872810E+03  0.74018468582E+03  0.25500000920E-02 0. -1.
       -2    1    3    3    0  502 -0.30897988806E+03  0.39705781800E+03  0.92414846562E+03  0.10522232979E+04  0.25500000920E-02 0.  1.
</event>
<event>
 5   0  0.8968798E-03  0.9909070E+03  0.7818609E-02  0.9318574E-01
       -2   -1    0    0    0  501  0.00000000000E+00  0.00000000000E+00  0.34930747846E+03  0.34930747847E+03  0.25500000920E-02 0.  1.
        2   -1    0    0  501    0  0.00000000000E+00  0.00000000000E+00 -0.70274518879E+03  0.70274518879E+03  0.25500000920E-02 0. -1.
    10030    2    1    2    0    0  0.00000000000E+00  0.00000000000E+00 -0.35343771032E+03  0.10520526673E+04  0.99090695810E+03 0.  0.
        2    1    3    3  502    0  0.43947275123E+03 -0.41663451505E+02 -0.41554863464E+03  0.60626133806E+03  0.25500000920E-02 0. -1.
       -2    1    3    3    0  502 -0.43947275123E+03  0.41663451505E+02  0.62110924313E+02  0.44579132921E+03  0.25500000920E-02 0.  1.
</event>
<event>
 5   0  0.9040674E-03  0.9918172E+03  0.7818609E-02  0.9317565E-01
       -2   -1    0    0    0  501  0.00000000000E+00  0.00000000000E+00  0.12691311025E+04  0.12691311025E+04  0.25500000920E-02 0. -1.
        2   -1    0    0  501    0  0.00000000000E+00  0.00000000000E+00 -0.19377456346E+03  0.19377456348E+03  0.25500000920E-02 0.  1.
    10030    2    1    2    0    0  0.00000000000E+00  0.00000000000E+00  0.10753565391E+04  0.14629056660E+04  0.99181717142E+03 0.  0.
        1    1    3    3  502    0 -0.14849092460E+03  0.11687811726E+03  0.12139431518E+04  0.12285633987E+04  0.50400001928E-02 0. -1.
       -1    1    3    3    0  502  0.14849092460E+03 -0.11687811726E+03 -0.13858661270E+03  0.23434226727E+03  0.50400001928E-02 0.  1.
</event>
<event>
 5   0  0.5189877E-03  0.1013189E+04  0.7818609E-02  0.9294197E-01
       -1   -1    0    0    0  501  0.00000000000E+00  0.00000000000E+00  0.55885772739E+03  0.55885772741E+03  0.50400001928E-02 0.  1.
        1   -1    0    0  501    0  0.00000000000E+00  0.00000000000E+00 -0.45921842435E+03  0.45921842438E+03  0.50400001928E-02 0. -1.
    10030    2    1    2    0    0  0.00000000000E+00  0.00000000000E+00  0.99639303032E+02  0.10180761518E+04  0.10131885610E+04 0.  0.
        3    1    3    3  502    0  0.71258815654E+02 -0.43244659437E+03 -0.20547264071E+03  0.48405257160E+03  0.10100000352E+00 0. -1.
       -3    1    3    3    0  502 -0.71258815654E+02  0.43244659437E+03  0.30511194374E+03  0.53402358019E+03  0.10100000352E+00 0.  1.
</event>
<event>
 5   0  0.5201968E-03  0.9752022E+03  0.7818609E-02  0.9336169E-01
       -1   -1    0    0    0  501  0.00000000000E+00  0.00000000000E+00  0.12707211605E+03  0.12707211615E+03  0.50400001928E-02 0.  1.
        1   -1    0    0  501    0  0.00000000000E+00  0.00000000000E+00 -0.18710228580E+04  0.18710228580E+04  0.50400001928E-02 0. -1.
    10030    2    1    2    0    0  0.00000000000E+00  0.00000000000E+00 -0.17439507419E+04  0.19980949741E+04  0.97520220230E+03 0.  0.
        2    1    3    3  502    0  0.45191048855E+03 -0.67541539516E+02 -0.52324093289E+03  0.69466972230E+03  0.25500000920E-02 0.  1.
       -2    1    3    3    0  502 -0.45191048855E+03  0.67541539516E+02 -0.12207098090E+04  0.13034252518E+04  0.25500000920E-02 0. -1.
</event>
<event>
 5   0  0.8968798E-03  0.1005682E+04  0.7818609E-02  0.9302335E-01
        2   -1    0    0  501    0  0.00000000000E+00  0.00000000000E+00  0.19911677563E+04  0.19911677563E+04  0.25500000920E-02 0. -1.
       -2   -1    0    0    0  501  0.00000000000E+00  0.00000000000E+00 -0.12698537528E+03  0.12698537530E+03  0.25500000920E-02 0.  1.
    10030    2    1    2    0    0  0.00000000000E+00  0.00000000000E+00  0.18641823810E+04  0.21181531316E+04  0.10056822258E+04 0.  0.
        2    1    3    3  502    0  0.98583234837E+02 -0.45312136947E+03  0.52253938069E+03  0.69863082815E+03  0.25500000920E-02 0.  1.
       -2    1    3    3    0  502 -0.98583234837E+02  0.45312136947E+03  0.13416430003E+04  0.14195223034E+04  0.25500000920E-02 0. -1.
</event>
<event>
 5   0  0.8875655E-03  0.9884813E+03  0.7818609E-02  0.9321269E-01
        2   -1    0    0  501    0  0.00000000000E+00  0.00000000000E+00  0.10614974167E+04  0.10614974167E+04  0.25500000920E-02 0. -1.
       -2   -1    0    0    0  501  0.00000000000E+00  0.00000000000E+00 -0.23012192448E+03  0.23012192449E+03  0.25500000920E-02 0.  1.
    10030    2    1    2    0    0  0.00000000000E+00  0.00000000000E+00  0.83137549225E+03  0.12916193412E+04  0.98848131672E+03 0.  0.
        4    1    3    3  502    0  0.56240576369E+02 -0.19382251424E+03  0.10052004146E+04  0.10252607746E+04  0.12699999809E+01 0. -1.
       -4    1    3    3    0  502 -0.56240576369E+02  0.19382251424E+03 -0.17382492240E+03  0.26635856660E+03  0.12699999809E+01 0.  1.
</event>
<event>
 5   0  0.9243773E-03  0.9915052E+03  0.7818609E-02  0.9317911E-01
       -2   -1    0    0    0  501  0.00000000000E+00  0.00000000000E+00  0.22213872649E+03  0.22213872650E+03  0.25500000920E-02 0. -1.
        2   -1    0    0  501    0  0.00000000000E+00  0.00000000000E+00 -0.11063835574E+04  0.11063835574E+04  0.25500000920E-02 0.  1.
    10030    2    1    2    0    0  0.00000000000E+00  0.00000000000E+00 -0.88424483088E+03  0.13285222839E+04  0.99150518799E+03 0.  0.
        3    1    3    3  502    0  0.24692205264E+03 -0.14191934510E+03 -0.98583153875E+03  0.10261459124E+04  0.10100000352E+00 0.  1.
       -3    1    3    3    0  502 -0.24692205264E+03  0.14191934510E+03  0.10158670787E+03  0.30237637145E+03  0.10100000352E+00 0. -1.
</event>
<event>
 5   0  0.8907355E-03  0.1013887E+04  0.7818609E-02  0.9293444E-01
       -2   -1    0    0    0  501  0.00000000000E+00  0.00000000000E+00  0.17559300335E+03  0.17559300337E+03  0.25500000920E-02 0. -1.
        2   -1    0    0  501    0  0.00000000000E+00  0.00000000000E+00 -0.14635634744E+04  0.14635634744E+04  0.25500000920E-02 0.  1.
    10030    2    1    2    0    0  0.00000000000E+00  0.00000000000E+00 -0.12879704711E+04  0.16391564778E+04  0.10138865934E+04 0.  0.
        5    1    3    3  502    0  0.27965980121E+03 -0.13341652066E+03  0.46339711574E+01  0.30992440382E+03  0.46999998093E+01 0. -1.
       -5    1    3    3    0  502 -0.27965980121E+03  0.13341652066E+03 -0.12926044423E+04  0.13292320740E+04  0.46999998093E+01 0.  1.
</event>
<event>
 5   0  0.5349685E-03  0.1000168E+04  0.7818609E-02  0.9308361E-01
        1   -1    0    0  501    0  0.00000000000E+00  0.00000000000E+00  0.37413578792E+03  0.37413578795E+03  0.50400001928E-02 0.  1.
       -1   -1    0    0    0  501  0.00000000000E+00  0.00000000000E+00 -0.66843108313E+03  0.66843108315E+03  0.50400001928E-02 0. -1.
    10030    2    1    2    0    0  0.00000000000E+00  0.00000000000E+00 -0.29429529521E+03  0.10425668711E+04  0.10001679659E+04 0.  0.
        4    1    3    3  502    0  0.86587367935E+02 -0.25761027751E+03 -0.58473119129E+03  0.64480431631E+03  0.12699999809E+01 0. -1.
       -4    1    3    3    0  502 -0.86587367935E+02  0.25761027751E+03  0.29043589608E+03  0.39776255479E+03  0.12699999809E+01 0.  1.
</event>
<event>
 5   0  0.5189877E-03  0.1036896E+04  0.7818609E-02  0.9268978E-01
        1   -1    0    0  501    0  0.00000000000E+00  0.00000000000E+00  0.22009120280E+03  0.22009120285E+03  0.50400001928E-02 0.  1.
       -1   -1    0    0    0  501  0.00000000000E+00  0.00000000000E+00 -0.12212594775E+04  0.12212594775E+04  0.50400001928E-02 0. -1.
    10030    2    1    2    0    0  0.00000000000E+00  0.00000000000E+00 -0.10011682747E+04  0.14413506803E+04  0.10368962675E+04 0.  0.
        3    1    3    3  502    0  0.45362212473E+03 -0.25097850976E+03 -0.50756396300E+03  0.72552355658E+03  0.10100000352E+00 0. -1.
       -3    1    3    3    0  502 -0.45362212473E+03  0.25097850976E+03 -0.49360431166E+03  0.71582712375E+03  0.10100000352E+00 0.  1.
</event>
<event>
 5   0  0.5310275E-03  0.1005151E+04  0.7818609E-02  0.9302913E-01
        1   -1    0    0  501    0  0.00000000000E+00  0.00000000000E+00  0.10785484830E+04  0.10785484830E+04  0.50400001928E-02 0. -1.
       -1   -1    0    0    0  501  0.00000000000E+00  0.00000000000E+00 -0.23418729383E+03  0.23418729388E+03  0.50400001928E-02 0.  1.
    10030    2    1    2    0    0  0.00000000000E+00  0.00000000000E+00  0.84436118918E+03  0.13127357769E+04  0.10051514325E+04 0.  0.
        1    1    3    3  502    0 -0.30719110399E+03  0.26123737432E+02 -0.96180410356E+02  0.32295432400E+03  0.50400001928E-02 0.  1.
       -1    1    3    3    0  502  0.30719110399E+03 -0.26123737432E+02  0.94054159953E+03  0.98978145290E+03  0.50400001928E-02 0. -1.
</event>
<event>
 5   0  0.8875655E-03  0.9888745E+03  0.7818609E-02  0.9320832E-01
       -2   -1    0    0    0  501  0.00000000000E+00  0.00000000000E+00  0.97226866147E+02  0.97226866181E+02  0.25500000920E-02 0.  1.
        2   -1    0    0  501    0  0.00000000000E+00  0.00000000000E+00 -0.25144101438E+04  0.25144101438E+04  0.25500000920E-02 0. -1.
    10030    2    1    2    0    0  0.00000000000E+00  0.00000000000E+00 -0.24171832777E+04  0.26116370100E+04  0.98887454925E+03 0.  0.
        4    1    3    3  502    0  0.31438811983E+03 -0.13919837292E+03 -0.27019116658E+03  0.43728818451E+03  0.12699999809E+01 0.  1.
       -4    1    3    3    0  502 -0.31438811983E+03  0.13919837292E+03 -0.21469921111E+04  0.21743488255E+04  0.12699999809E+01 0. -1.
</event>
<event>
 5   0  0.8875655E-03  0.9629773E+03  0.7818609E-02  0.9350109E-01
        2   -1    0    0  501    0  0.00000000000E+00  0.00000000000E+00  0.11436644103E+04  0.11436644103E+04  0.25500000920E-02 0.  1.
       -2   -1    0    0    0  501  0.00000000000E+00  0.00000000000E+00 -0.20270922837E+03  0.20270922839E+03  0.25500000920E-02 0. -1.
    10030    2    1    2    0    0  0.00000000000E+00  0.00000000000E+00  0.94095518194E+03  0.13463736387E+04  0.96297732091E+03 0.  0.
        4    1    3    3  502    0  0.44555755657E+03  0.15711790678E+03  0.34065293314E+03  0.58245481078E+03  0.12699999809E+01 0. -1.
       -4    1    3    3    0  502 -0.44555755657E+03 -0.15711790678E+03  0.60030224881E+03  0.76391882793E+03  0.12699999809E+01 0.  1.
</event>
<event>
 5   0  0.5072205E-03  0.1026136E+04  0.7818609E-02  0.9280335E-01
       -1   -1    0    0    0  501  0.00000000000E+00  0.00000000000E+00  0.77487681245E+03  0.77487681246E+03  0.50400001928E-02 0. -1.
        1   -1    0    0  501    0  0.00000000000E+00  0.00000000000E+00 -0.33971694631E+03  0.33971694635E+03  0.50400001928E-02 0.  1.
    10030    2    1    2    0    0  0.00000000000E+00  0.00000000000E+00  0.43515986614E+03  0.11145937588E+04  0.10261360232E+04 0.  0.
        5    1    3    3  502    0 -0.36744270721E+03 -0.14545504959E+03 -0.13780223858E+03  0.41854851748E+03  0.46999998093E+01 0.  1.
       -5    1    3    3    0  502  0.36744270721E+03  0.14545504959E+03  0.57296210471E+03  0.69604524133E+03  0.46999998093E+01 0. -1.
</event>
<event>
 5   0  0.8968798E-03  0.1001840E+04  0.7818609E-02  0.9306529E-01
        2   -1    0    0  501    0  0.00000000000E+00  0.00000000000E+00  0.75463043259E+03  0.75463043259E+03  0.25500000920E-02 0. -1.
       -2   -1    0    0    0  501  0.00000000000E+00  0.00000000000E+00 -0.33250851463E+03  0.33250851464E+03  0.25500000920E-02 0.  1.
    10030    2    1    2    0    0  0.00000000000E+00  0.00000000000E+00  0.42212191795E+03  0.10871389472E+04  0.10018403950E+04 0.  0.
        2    1    3    3  502    0 -0.16792126160E+03  0.31645850639E+03  0.59098074306E+03  0.69108738596E+03  0.25500000920E-02 0. -1.
       -2    1    3    3    0  502  0.16792126160E+03 -0.31645850639E+03 -0.16885882511E+03  0.39605156127E+03  0.25500000920E-02 0.  1.
</event>
<event>
 5   0  0.5201968E-03  0.8610859E+03  0.7818609E-02  0.9475577E-01
        1   -1    0    0  501    0  0.00000000000E+00  0.00000000000E+00  0.20585367080E+03  0.20585367086E+03  0.50400001928E-02 0.  1.
       -1   -1    0    0    0  501  0.00000000000E+00  0.00000000000E+00 -0.90048066530E+03  0.90048066531E+03  0.50400001928E-02 0. -1.
    10030    2    1    2    0    0  0.00000000000E+00  0.00000000000E+00 -0.69462699450E+03  0.11063343362E+04  0.86108594339E+03 0.  0.
        2    1    3    3  502    0 -0.25543485943E+03 -0.17736307557E+03 -0.72988285161E+03  0.79336851782E+03  0.25500000920E-02 0. -1.
       -2    1    3    3    0  502  0.25543485943E+03  0.17736307557E+03  0.35255857110E+02  0.31296581835E+03  0.25500000920E-02 0.  1.
</event>
<event>
 5   0  0.5189877E-03  0.9945342E+03  0.7818609E-02  0.9314560E-01
       -1   -1    0    0    0  501  0.00000000000E+00  0.00000000000E+00  0.30374804949E+03  0.30374804953E+03  0.50400001928E-02 0. -1.
        1   -1    0    0  501    0  0.00000000000E+00  0.00000000000E+00 -0.81407783086E+03  0.81407783087E+03  0.50400001928E-02 0.  1.
    10030    2    1    2    0    0  0.00000000000E+00  0.00000000000E+00 -0.51032978137E+03  0.11178258804E+04  0.99453416892E+03 0.  0.
        3    1    3    3  502    0  0.15021236690E+03  0.39320008216E+03  0.42431286485E+02  0.42304903269E+03  0.10100000352E+00 0. -1.
       -3    1    3    3    0  502 -0.15021236690E+03 -0.39320008216E+03 -0.55276106786E+03  0.69477684772E+03  0.10100000352E+00 0.  1.
</event>
<event>
 5   0  0.8907355E-03  0.1006138E+04  0.7818609E-02  0.9301838E-01
       -2   -1    0    0    0  501  0.00000000000E+00  0.00000000000E+00  0.38896218849E+03  0.38896218850E+03  0.25500000920E-02 0.  1.
        2   -1    0    0  501    0  0.00000000000E+00  0.00000000000E+00 -0.65065048197E+03  0.65065048198E+03  0.25500000920E-02 0. -1.
    10030    2    1    2    0    0  0.00000000000E+00  0.00000000000E+00 -0.26168829348E+03  0.10396126705E+04  0.10061380331E+04 0.  0.
        5    1    3    3  502    0 -0.13777548328E+03  0.48168810939E+03 -0.17763688936E+03  0.53158486903E+03  0.46999998093E+01 0.  1.
       -5    1    3    3    0  502  0.13777548328E+03 -0.48168810939E+03 -0.84051404119E+02  0.50802780146E+03  0.46999998093E+01 0. -1.
</event>
<event>
 5   0  0.9040674E-03  0.1007426E+04  0.7818609E-02  0.9300438E-01
        2   -1    0    0  501    0  0.00000000000E+00  0.00000000000E+00  0.12709030990E+04  0.12709030990E+04  0.25500000920E-02 0. -1.
       -2   -1    0    0    0  501  0.00000000000E+00  0.00000000000E+00 -0.19964282890E+03  0.19964282891E+03  0.25500000920E-02 0.  1.
    10030    2    1    2    0    0  0.00000000000E+00  0.00000000000E+00  0.10712602701E+04  0.14705459279E+04  0.10074258086E+04 0.  0.
        1    1    3    3  502    0  0.75130179294E+02 -0.44273790449E+03  0.86870332998E+03  0.97790943929E+03  0.50400001928E-02 0. -1.
       -1    1    3    3    0  502 -0.75130179294E+02  0.44273790449E+03  0.20255694012E+03  0.49263648863E+03  0.50400001928E-02 0.  1.
</event>
<event>
 5   0  0.5349685E-03  0.9731567E+03  0.7818609E-02  0.9338486E-01
       -1   -1    0    0    0  501  0.00000000000E+00  0.00000000000E+00  0.39189650767E+03  0.39189650771E+03  0.50400001928E-02 0. -1.
        1   -1    0    0  501    0  0.00000000000E+00  0.00000000000E+00 -0.60413527463E+03  0.60413527465E+03  0.50400001928E-02 0.  1.
    10030    2    1    2    0    0  0.00000000000E+00  0.00000000000E+00 -0.21223876696E+03  0.99603178236E+03  0.97315672801E+03 0.  0.
        4    1    3    3  502    0  0.35498408839E+03 -0.21203144812E+02  0.23379190898E+03  0.42558612050E+03  0.12699999809E+01 0. -1.
       -4    1    3    3    0  502 -0.35498408839E+03  0.21203144812E+02 -0.44603067594E+03  0.57044566186E+03  0.12699999809E+01 0.  1.
</event>
<event>
 5   0  0.5349685E-03  0.1109626E+04  0.7818609E-02  0.9195860E-01
       -1   -1    0    0    0  501  0.00000000000E+00  0.00000000000E+00  0.16174176043E+04  0.16174176043E+04  0.50400001928E-02 0. -1.
        1   -1    0    0  501    0  0.00000000000E+00  0.00000000000E+00 -0.19031422069E+03  0.19031422076E+03  0.50400001928E-02 0.  1.
    10030    2    1    2    0    0  0.00000000000E+00  0.00000000000E+00  0.14271033836E+04  0.18077318250E+04  0.11096261910E+04 0.  0.
        4    1    3    3  502    0 -0.17496307437E+03 -0.29767445215E+03  0.60605415525E+01  0.34534113557E+03  0.12699999809E+01 0.  1.
       -4    1    3    3    0  502  0.17496307437E+03  0.29767445215E+03  0.14210428420E+04  0.14623906895E+04  0.12699999809E+01 0. -1.
</event>
<event>
 5   0  0.5189877E-03  0.1006896E+04  0.7818609E-02  0.9301013E-01
       -1   -1    0    0    0  501  0.00000000000E+00  0.00000000000E+00  0.12774492213E+03  0.12774492223E+03  0.50400001928E-02 0.  1.
        1   -1    0    0  501    0  0.00000000000E+00  0.00000000000E+00 -0.19841108462E+04  0.19841108462E+04  0.50400001928E-02 0. -1.
    10030    2    1    2    0    0  0.00000000000E+00  0.00000000000E+00 -0.18563659240E+04  0.21118557684E+04  0.10068963912E+04 0.  0.
        3    1    3    3  502    0 -0.38751788528E+03 -0.32118364351E+03 -0.90417436409E+03  0.10348238184E+04  0.10100000352E+00 0. -1.
       -3    1    3    3    0  502  0.38751788528E+03  0.32118364351E+03 -0.95219155995E+03  0.10770319500E+04  0.10100000352E+00 0.  1.
</event>
<event>
 5   0  0.8875655E-03  0.1003336E+04  0.7818609E-02  0.9304894E-01
       -2   -1    0    0    0  501  0.00000000000E+00  0.00000000000E+00  0.48391191029E+03  0.48391191029E+03  0.25500000920E-02 0. -1.
        2   -1    0    0  501    0  0.00000000000E+00  0.00000000000E+00 -0.52007559659E+03  0.52007559659E+03  0.25500000920E-02 0.  1.
    10030    2    1    2    0    0  0.00000000000E+00  0.00000000000E+00 -0.36163686298E+02  0.10039875069E+04  0.10033359865E+04 0.  0.
        4    1    3    3  502    0 -0.32040616486E+03  0.63949780296E+02 -0.39901195078E+03  0.51571487728E+03  0.12699999809E+01 0.  1.
       -4    1    3    3    0  502  0.32040616486E+03 -0.63949780296E+02  0.36284826448E+03  0.48827262961E+03  0.12699999809E+01 0. -1.
</event>
<event>
 5   0  0.5072205E-03  0.1002003E+04  0.7818609E-02  0.9306351E-01
        1   -1    0    0  501    0  0.00000000000E+00  0.00000000000E+00  0.52814248028E+03  0.52814248030E+03  0.50400001928E-02 0.  1.
       -1   -1    0    0    0  501  0.00000000000E+00  0.00000000000E+00 -0.47525539587E+03  0.47525539590E+03  0.50400001928E-02 0. -1.
    10030    2    1    2    0    0  0.00000000000E+00  0.00000000000E+00  0.52887084402E+02  0.10033978762E+04  0.10020031209E+04 0.  0.
        5    1    3    3  502    0 -0.26047063674E+03  0.12121698133E+03 -0.38454456237E+03  0.48003658153E+03  0.46999998093E+01 0. -1.
       -5    1    3    3    0  502  0.26047063674E+03 -0.12121698133E+03  0.43743164677E+03  0.52336129467E+03  0.46999998093E+01 0.  1.
</event>
<event>
 5   0  0.9243773E-03  0.1019421E+04  0.7818609E-02  0.9287497E-01
        2   -1    0    0  501    0  0.00000000000E+00  0.00000000000E+00  0.49597141525E+03  0.49597141526E+03  0.25500000920E-02 0.  1.
       -2   -1    0    0    0  501  0.00000000000E+00  0.00000000000E+00 -0.52382995915E+03  0.52382995915E+03  0.25500000920E-02 0. -1.
    10030    2    1    2    0    0  0.00000000000E+00  0.00000000000E+00 -0.27858543896E+02  0.10198013744E+04  0.10194207889E+04 0.  0.
        3    1    3    3  502    0  0.43948496019E+03 -0.25153147781E+02 -0.27097843648E+03  0.51692265797E+03  0.10100000352E+00 0. -1.
       -3    1    3    3    0  502 -0.43948496019E+03  0.25153147781E+02  0.24311989259E+03  0.50287871644E+03  0.10100000352E+00 0.  1.
</event>
<event>
 5   0  0.9243773E-03  0.9867776E+03  0.7818609E-02  0.9323167E-01
        2   -1    0    0  501    0  0.00000000000E+00  0.00000000000E+00  0.69862517253E+03  0.69862517254E+03  0.25500000920E-02 0.  1.
       -2   -1    0    0    0  501  0.00000000000E+00  0.00000000000E+00 -0.34844509288E+03  0.34844509288E+03  0.25500000920E-02 0. -1.
    10030    2    1    2    0    0  0.00000000000E+00  0.00000000000E+00  0.35018007966E+03  0.10470702654E+04  0.98677761048E+03 0.  0.
        3    1    3    3  502    0  0.26281788275E+03 -0.33366575735E+03 -0.91299936569E+02  0.43444420325E+03  0.10100000352E+00 0.  1.
       -3    1    3    3    0  502 -0.26281788275E+03  0.33366575735E+03  0.44148001623E+03  0.61262606217E+03  0.10100000352E+00 0. -1.
</event>
<event>
 5   0  0.5072205E-03  0.9989475E+03  0.7818609E-02  0.9309700E-01
       -1   -1    0    0    0  501  0.00000000000E+00  0.00000000000E+00  0.36303888049E+03  0.36303888053E+03  0.50400001928E-02 0.  1.
        1   -1    0    0  501    0  0.00000000000E+00  0.00000000000E+00 -0.68718272905E+03  0.68718272907E+03  0.50400001928E-02 0. -1.
    10030    2    1    2    0    0  0.00000000000E+00  0.00000000000E+00 -0.32414384856E+03  0.10502216096E+04  0.99894754352E+03 0.  0.
        5    1    3    3  502    0  0.33535095161E+03 -0.36283303512E+03 -0.23892599612E+03  0.54883129807E+03  0.46999998093E+01 0. -1.
       -5    1    3    3    0  502 -0.33535095161E+03  0.36283303512E+03 -0.85217852445E+02  0.50139031153E+03  0.46999998093E+01 0.  1.
</event>
<event>
 5   0  0.3513625E-03  0.1010329E+04  0.7818609E-02  0.9297288E-01
       -3   -1    0    0    0  501  0.00000000000E+00  0.00000000000E+00  0.12372244530E+04  0.12372244571E+04  0.10100000352E+00 0. -1.
        3   -1    0    0  501    0  0.00000000000E+00  0.00000000000E+00 -0.20626102532E+03  0.20626105005E+03  0.10100000352E+00 0.  1.
    10030    2    1    2    0    0  0.00000000000E+00  0.00000000000E+00  0.10309634276E+04  0.14434855071E+04  0.10103290653E+04 0.  0.
        3    1    3    3  502    0  0.50107304562E+03  0.22854893277E+02  0.42982173039E+03  0.66056284584E+03  0.10100000352E+00 0.  1.
       -3    1    3    3    0  502 -0.50107304562E+03 -0.22854893277E+02  0.60114169725E+03  0.78292266130E+03  0.10100000352E+00 0. -1.
</event>
<event>
 5   0  0.5072205E-03  0.9799192E+03  0.7818609E-02  0.9330847E-01
        1   -1    0    0  501    0  0.00000000000E+00  0.00000000000E+00  0.11962406195E+04  0.11962406195E+04  0.50400001928E-02 0. -1.
       -1   -1    0    0    0  501  0.00000000000E+00  0.00000000000E+00 -0.20067903716E+03  0.20067903722E+03  0.50400001928E-02 0.  1.
    10030    2    1    2    0    0  0.00000000000E+00  0.00000000000E+00  0.99556158237E+03  0.13969196568E+04  0.97991921257E+03 0.  0.
        5    1    3    3  502    0 -0.45406184095E+03 -0.18402716952E+03  0.49719083977E+03  0.69803937974E+03  0.46999998093E+01 0. -1.
       -5    1    3    3    0  502  0.45406184095E+03  0.18402716952E+03  0.49837074260E+03  0.69888027702E+03  0.46999998093E+01 0.  1.
</event>
<event>
 5   0  0.9243773E-03  0.1015460E+04  0.7818609E-02  0.9291749E-01
       -2   -1    0    0    0  501  0.00000000000E+00  0.00000000000E+00  0.19372645873E+03  0.19372645875E+03  0.25500000920E-02 0. -1.
        2   -1    0    0  501    0  0.00000000000E+00  0.00000000000E+00 -0.13306906270E+04  0.13306906270E+04  0.25500000920E-02 0.  1.
    10030    2    1    2    0    0  0.00000000000E+00  0.00000000000E+00 -0.11369641683E+04  0.15244170858E+04  0.10154604529E+04 0.  0.
        3    1    3    3  502    0  0.40321008631E+03 -0.10868430202E+02 -0.10314129678E+04  0.11074787659E+04  0.10100000352E+00 0.  1.
       -3    1    3    3    0  502 -0.40321008631E+03  0.10868430202E+02 -0.10555120047E+03  0.41693831990E+03  0.10100000352E+00 0. -1.
</event>
<event>
 5   0  0.3513625E-03  0.1014255E+04  0.7818609E-02  0.9293046E-01
        3   -1    0    0  501    0  0.00000000000E+00  0.00000000000E+00  0.70445252358E+03  0.70445253082E+03  0.10100000352E+00 0. -1.
       -3   -1    0    0    0  501  0.00000000000E+00  0.00000000000E+00 -0.36507569218E+03  0.36507570615E+03  0.10100000352E+00 0.  1.
    10030    2    1    2    0    0  0.00000000000E+00  0.00000000000E+00  0.33937683140E+03  0.10695282370E+04  0.10142553998E+04 0.  0.
        2    1    3    3  502    0  0.42881730832E+03  0.14063035016E+03  0.41363352972E+03  0.61217144348E+03  0.25500000920E-02 0. -1.
       -2    1    3    3    0  502 -0.42881730832E+03 -0.14063035016E+03 -0.74256698320E+02  0.45735679349E+03  0.25500000920E-02 0.  1.
</event>
<event>
 5   0  0.8968798E-03  0.9737493E+03  0.7818609E-02  0.9337814E-01
       -2   -1    0    0    0  501  0.00000000000E+00  0.00000000000E+00  0.22181280128E+03  0.22181280129E+03  0.25500000920E-02 0. -1.
        2   -1    0    0  501    0  0.00000000000E+00  0.00000000000E+00 -0.10686800116E+04  0.10686800116E+04  0.25500000920E-02 0.  1.
    10030    2    1    2    0    0  0.00000000000E+00  0.00000000000E+00 -0.84686721032E+03  0.12904928129E+04  0.97374926353E+03 0.  0.
        2    1    3    3  502    0 -0.42281668658E+03  0.23536035772E+03 -0.35233052039E+03  0.59858603729E+03  0.25500000920E-02 0.  1.
       -2    1    3    3    0  502  0.42281668658E+03 -0.23536035772E+03 -0.49453668993E+03  0.69190677561E+03  0.25500000920E-02 0. -1.
</event>
<event>
 5   0  0.9040674E-03  0.9883363E+03  0.7818609E-02  0.9321431E-01
       -2   -1    0    0    0  501  0.00000000000E+00  0.00000000000E+00  0.99730429457E+03  0.99730429458E+03  0.25500000920E-02 0. -1.
        2   -1    0    0  501    0  0.00000000000E+00  0.00000000000E+00 -0.24486221285E+03  0.24486221286E+03  0.25500000920E-02 0.  1.
    10030    2    1    2    0    0  0.00000000000E+00  0.00000000000E+00  0.75244208173E+03  0.12421665074E+04  0.98833625140E+03 0.  0.
        1    1    3    3  502    0  0.33180908173E+02  0.46532711670E+03  0.17134749231E+03  0.49698114789E+03  0.50400001928E-02 0.  1.
       -1    1    3    3    0  502 -0.33180908173E+02 -0.46532711670E+03  0.58109458942E+03  0.74518535955E+03  0.50400001928E-02 0. -1.
</event>
<event>
 5   0  0.5310275E-03  0.1056339E+04  0.7818609E-02  0.9248824E-01
        1   -1    0    0  501    0  0.00000000000E+00  0.00000000000E+00  0.62524522855E+03  0.62524522857E+03  0.50400001928E-02 0. -1.
       -1   -1    0    0    0  501  0.00000000000E+00  0.00000000000E+00 -0.44616598279E+03  0.44616598282E+03  0.50400001928E-02 0.  1.
    10030    2    1    2    0    0  0.00000000000E+00  0.00000000000E+00  0.17907924575E+03  0.10714112114E+04  0.10563392484E+04 0.  0.
        1    1    3    3  502    0 -0.97534370672E+01 -0.24856873359E+03 -0.38302834908E+03  0.45671901764E+03  0.50400001928E-02 0.  1.
       -1    1    3    3    0  502  0.97534370672E+01  0.24856873359E+03  0.56210759483E+03  0.61469219374E+03  0.50400001928E-02 0. -1.
</event>
<event>
 5   0  0.8875655E-03  0.9831738E+03  0.7818609E-02  0.9327194E-01
       -2   -1    0    0    0  501  0.00000000000E+00  0.00000000000E+00  0.12279446521E+03  0.12279446523E+03  0.25500000920E-02 0. -1.
        2   -1    0    0  501    0  0.00000000000E+00  0.00000000000E+00 -0.19679849705E+04  0.19679849705E+04  0.25500000920E-02 0.  1.
    10030    2    1    2    0    0  0.00000000000E+00  0.00000000000E+00 -0.18451905053E+04  0.20907794358E+04  0.98317376292E+03 0.  0.
        4    1    3    3  502    0 -0.17171081449E+03 -0.70557555479E+02  0.45382908511E+02  0.19111303915E+03  0.12699999809E+01 0. -1.
       -4    1    3    3    0  502  0.17171081449E+03  0.70557555479E+02 -0.18905734138E+04  0.18996663966E+04  0.12699999809E+01 0.  1.
</event>
<event>
 5   0  0.8875655E-03  0.1145194E+04  0.7818609E-02  0.9162229E-01
        2   -1    0    0  501    0  0.00000000000E+00  0.00000000000E+00  0.94265469131E+03  0.94265469132E+03  0.25500000920E-02 0. -1.
       -2   -1    0    0    0  501  0.00000000000E+00  0.00000000000E+00 -0.34781263091E+03  0.34781263092E+03  0.25500000920E-02 0.  1.
    10030    2    1    2    0    0  0.00000000000E+00  0.00000000000E+00  0.59484206040E+03  0.12904673222E+04  0.11451937971E+04 0.  0.
        4    1    3    3  502    0  0.31769012392E+03  0.47508215895E+03  0.25781207395E+03  0.62697587749E+03  0.12699999809E+01 0.  1.
       -4    1    3    3    0  502 -0.31769012392E+03 -0.47508215895E+03  0.33702998646E+03  0.66349144475E+03  0.12699999809E+01 0. -1.
</event>
<event>
 5   0  0.8907355E-03  0.9995047E+03  0.7818609E-02  0.9309088E-01
       -2   -1    0    0    0  501  0.00000000000E+00  0.00000000000E+00  0.11166182484E+03  0.11166182487E+03  0.25500000920E-02 0. -1.
        2   -1    0    0  501    0  0.00000000000E+00  0.00000000000E+00 -0.22366858262E+04  0.22366858262E+04  0.25500000920E-02 0.  1.
    10030    2    1    2    0    0  0.00000000000E+00  0.00000000000E+00 -0.21250240014E+04  0.23483476511E+04  0.99950471930E+03 0.  0.
        5    1    3    3  502    0 -0.26864522322E+03 -0.34488277219E+03 -0.49367814079E+03  0.65943504547E+03  0.46999998093E+01 0.  1.
       -5    1    3    3    0  502  0.26864522322E+03  0.34488277219E+03 -0.16313458606E+04  0.16889126056E+04  0.46999998093E+01 0. -1.
</event>
<event>
 5   0  0.5349685E-03  0.9989024E+03  0.7818609E-02  0.9309749E-01
        1   -1    0    0  501    0  0.00000000000E+00  0.00000000000E+00  0.25227410676E+03  0.25227410681E+03  0.50400001928E-02 0.  1.
       -1   -1    0    0    0  501  0.00000000000E+00  0.00000000000E+00 -0.98881135694E+03  0.98881135696E+03  0.50400001928E-02 0. -1.
    10030    2    1    2    0    0  0.00000000000E+00  0.00000000000E+00 -0.73653725018E+03  0.12410854638E+04  0.99890240138E+03 0.  0.
        4    1    3    3  502    0 -0.39941050242E+03  0.19054797742E+03 -0.80587016702E+02  0.44981458547E+03  0.12699999809E+01 0.  1.
       -4    1    3    3    0  502  0.39941050242E+03 -0.19054797742E+03 -0.65595023348E+03  0.79127087830E+03  0.12699999809E+01 0. -1.
</event>
<event>
 5   0  0.5201968E-03  0.1000467E+04  0.7818609E-02  0.9308033E-01
        1   -1    0    0  501    0  0.00000000000E+00  0.00000000000E+00  0.26429033537E+03  0.26429033542E+03  0.50400001928E-02 0. -1.
       -1   -1    0    0    0  501  0.00000000000E+00  0.00000000000E+00 -0.94681283936E+03  0.94681283937E+03  0.50400001928E-02 0.  1.
    10030    2    1    2    0    0  0.00000000000E+00  0.00000000000E+00 -0.68252250399E+03  0.12111031748E+04  0.10004668568E+04 0.  0.
        2    1    3    3  502    0  0.38796756463E+03  0.64250635435E+02  0.33001609318E+02  0.39463411102E+03  0.25500000920E-02 0. -1.
       -2    1    3    3    0  502 -0.38796756463E+03 -0.64250635435E+02 -0.71552411330E+03  0.81646906377E+03  0.25500000920E-02 0.  1.
</event>
<event>
 5   0  0.9243773E-03  0.9997096E+03  0.7818609E-02  0.9308863E-01
        2   -1    0    0  501    0  0.00000000000E+00  0.00000000000E+00  0.42679285235E+03  0.42679285236E+03  0.25500000920E-02 0. -1.
       -2   -1    0    0    0  501  0.00000000000E+00  0.00000000000E+00 -0.58542413546E+03  0.58542413547E+03  0.25500000920E-02 0.  1.
    10030    2    1    2    0    0  0.00000000000E+00  0.00000000000E+00 -0.15863128311E+03  0.10122169878E+04  0.99970963107E+03 0.  0.
        3    1    3    3  502    0  0.14868493878E+03 -0.13580861321E+03 -0.54253652667E+03  0.57870293192E+03  0.10100000352E+00 0.  1.
       -3    1    3    3    0  502 -0.14868493878E+03  0.13580861321E+03  0.38390524356E+03  0.43351405591E+03  0.10100000352E+00 0. -1.
</event>
<event>
 5   0  0.8875655E-03  0.9993187E+03  0.7818609E-02  0.9309292E-01
       -2   -1    0    0    0  501  0.00000000000E+00  0.00000000000E+00  0.17940617338E+03  0.17940617340E+03  0.25500000920E-02 0.  1.
        2   -1    0    0  501    0  0.00000000000E+00  0.00000000000E+00 -0.13915880724E+04  0.13915880724E+04  0.25500000920E-02 0. -1.
    10030    2    1    2    0    0  0.00000000000E+00  0.00000000000E+00 -0.12121818991E+04  0.15709942458E+04  0.99931874999E+03 0.  0.
        4    1    3    3  502    0 -0.14499495373E+03 -0.27790140507E+03  0.56124343944E+01  0.31350572541E+03  0.12699999809E+01 0.  1.
       -4    1    3    3    0  502  0.14499495373E+03  0.27790140507E+03 -0.12177943334E+04  0.12574885204E+04  0.12699999809E+01 0. -1.
</event>
<event>
 5   0  0.8875655E-03  0.9901892E+03  0.7818609E-02  0.9319371E-01
        2   -1    0    0  501    0  0.00000000000E+00  0.00000000000E+00  0.41444546119E+03  0.41444546120E+03  0.25500000920E-02 0. -1.
       -2   -1    0    0    0  501  0.00000000000E+00  0.00000000000E+00 -0.59143763044E+03  0.59143763044E+03  0.25500000920E-02 0.  1.
    10030    2    1    2    0    0  0.00000000000E+00  0.00000000000E+00 -0.17699216924E+03  0.10058830916E+04  0.99018915672E+03 0.  0.
        4    1    3    3  502    0  0.16172988963E+03 -0.36743016221E+03 -0.38283930720E+03  0.55473329568E+03  0.12699999809E+01 0.  1.
       -4    1    3    3    0  502 -0.16172988963E+03  0.36743016221E+03  0.20584713795E+03  0.45114979597E+03  0.12699999809E+01 0. -1.
</event>
<event>
 5   0  0.5189877E-03  0.7734345E+03  0.7818609E-02  0.9599286E-01
       -1   -1    0    0    0  501  0.00000000000E+00  0.00000000000E+00  0.27619915224E+03  0.27619915229E+03  0.50400001928E-02 0. -1.
        1   -1    0    0  501    0  0.00000000000E+00  0.00000000000E+00 -0.54145796539E+03  0.54145796541E+03  0.50400001928E-02 0.  1.
    10030    2    1    2    0    0  0.00000000000E+00  0.00000000000E+00 -0.26525881314E+03  0.81765711770E+03  0.77343449896E+03 0.  0.
        3    1    3    3  502    0 -0.24303762661E+03 -0.53811852841E+02 -0.44550237772E+03  0.51032870016E+03  0.10100000352E+00 0.  1.
       -3    1    3    3    0  502  0.24303762661E+03  0.53811852841E+02  0.18024356457E+03  0.30732841754E+03  0.10100000352E+00 0. -1.
</event>
<event>
 5   0  0.5310275E-03  0.1021593E+04  0.7818609E-02  0.9285174E-01
        1   -1    0    0  501    0  0.00000000000E+00  0.00000000000E+00  0.50253376039E+03  0.50253376042E+03  0.50400001928E-02 0. -1.
       -1   -1    0    0    0  501  0.00000000000E+00  0.00000000000E+00 -0.51919539830E+03  0.51919539832E+03  0.50400001928E-02 0.  1.
    10030    2    1    2    0    0  0.00000000000E+00  0.00000000000E+00 -0.16661637907E+02  0.10217291587E+04  0.10215932966E+04 0.  0.
        1    1    3    3  502    0  0.27095875305E+03 -0.40823378064E+03 -0.15270981230E+03  0.51321901008E+03  0.50400001928E-02 0.  1.
       -1    1    3    3    0  502 -0.27095875305E+03  0.40823378064E+03  0.13604817439E+03  0.50851014866E+03  0.50400001928E-02 0. -1.
</event>
<event>
 5   0  0.5201968E-03  0.9808572E+03  0.7818609E-02  0.9329793E-01
       -1   -1    0    0    0  501  0.00000000000E+00  0.00000000000E+00  0.31024449903E+03  0.31024449907E+03  0.50400001928E-02 0.  1.
        1   -1    0    0  501    0  0.00000000000E+00  0.00000000000E+00 -0.77526027252E+03  0.77526027254E+03  0.50400001928E-02 0. -1.
    10030    2    1    2    0    0  0.00000000000E+00  0.00000000000E+00 -0.46501577349E+03  0.10855047716E+04  0.98085724730E+03 0.  0.
        2    1    3    3  502    0 -0.11665327233E+03 -0.42141379672E+03  0.13273607690E+02  0.43746287006E+03  0.25500000920E-02 0.  1.
       -2    1    3    3    0  502  0.11665327233E+03  0.42141379672E+03 -0.47828938118E+03  0.64804190155E+03  0.25500000920E-02 0. -1.
</event>
<event>
 5   0  0.9040674E-03  0.1008524E+04  0.7818609E-02  0.9299245E-01
       -2   -1    0    0    0  501  0.00000000000E+00  0.00000000000E+00  0.65725511269E+03  0.65725511269E+03  0.25500000920E-02 0. -1.
        2   -1    0    0  501    0  0.00000000000E+00  0.00000000000E+00 -0.38688207752E+03  0.38688207753E+03  0.25500000920E-02 0.  1.
    10030    2    1    2    0    0  0.00000000000E+00  0.00000000000E+00  0.27037303517E+03  0.10441371902E+04  0.10085241166E+04 0.  0.
        1    1    3    3  502    0  0.40967510014E+03  0.13662445477E+03 -0.13435334427E+03  0.45227287168E+03  0.50400001928E-02 0.  1.
       -1    1    3    3    0  502 -0.40967510014E+03 -0.13662445477E+03  0.40472637944E+03  0.59186431854E+03  0.50400001928E-02 0. -1.
</event>
<event>
 5   0  0.8875655E-03  0.9936379E+03  0.7818609E-02  0.9315550E-01
       -2   -1    0    0    0  501  0.00000000000E+00  0.00000000000E+00  0.29495781504E+03  0.29495781505E+03  0.25500000920E-02 0. -1.
        2   -1    0    0  501    0  0.00000000000E+00  0.00000000000E+00 -0.83682836790E+03  0.83682836790E+03  0.25500000920E-02 0.  1.
    10030    2    1    2    0    0  0.00000000000E+00  0.00000000000E+00 -0.54187055286E+03  0.11317861830E+04  0.99363789574E+03 0.  0.
        4    1    3    3  502    0 -0.38573552199E+03 -0.31114159913E+03 -0.23104527300E+03  0.54679476836E+03  0.12699999809E+01 0. -1.
       -4    1    3    3    0  502  0.38573552199E+03  0.31114159913E+03 -0.31082527987E+03  0.58499141459E+03  0.12699999809E+01 0.  1.
</event>
<event>
 5   0  0.5072205E-03  0.9723227E+03  0.7818609E-02  0.9339433E-01
       -1   -1    0    0    0  501  0.00000000000E+00  0.00000000000E+00  0.23048883366E+03  0.23048883371E+03  0.50400001928E-02 0. -1.
        1   -1    0    0  501    0  0.00000000000E+00  0.00000000000E+00 -0.10254416969E+04  0.10254416969E+04  0.50400001928E-02 0.  1.
    10030    2    1    2    0    0  0.00000000000E+00  0.00000000000E+00 -0.79495286325E+03  0.12559305306E+04  0.97232270517E+03 0.  0.
        5    1    3    3  502    0  0.60586512745E+02 -0.35784828048E+03 -0.81524012401E+03  0.89239266422E+03  0.46999998093E+01 0.  1.
       -5    1    3    3    0  502 -0.60586512745E+02  0.35784828048E+03  0.20287260759E+02  0.36353786641E+03  0.46999998093E+01 0. -1.
</event>
<event>
 5   0  0.9040674E-03  0.1007946E+04  0.7818609E-02  0.9299873E-01
       -2   -1    0    0    0  501  0.00000000000E+00  0.00000000000E+00  0.33649735114E+03  0.33649735115E+03  0.25500000920E-02 0.  1.
        2   -1    0    0  501    0  0.00000000000E+00  0.00000000000E+00 -0.75480139153E+03  0.75480139154E+03  0.25500000920E-02 0. -1.
    10030    2    1    2    0    0  0.00000000000E+00  0.00000000000E+00 -0.41830404039E+03  0.10912987427E+04  0.10079457702E+04 0.  0.
        1    1    3    3  502    0 -0.37055782145E+03  0.23671224764E+03  0.57470238469E+02  0.44345080399E+03  0.50400001928E-02 0.  1.
       -1    1    3    3    0  502  0.37055782145E+03 -0.23671224764E+03 -0.47577427886E+03  0.64784793870E+03  0.50400001928E-02 0. -1.
</event>
<event>
 5   0  0.5189877E-03  0.1002368E+04  0.7818609E-02  0.9305952E-01
        1   -1    0    0  501    0  0.00000000000E+00  0.00000000000E+00  0.30628790181E+03  0.30628790185E+03  0.50400001928E-02 0.  1.
       -1   -1    0    0    0  501  0.00000000000E+00  0.00000000000E+00 -0.82009547031E+03  0.82009547032E+03  0.50400001928E-02 0. -1.
    10030    2    1    2    0    0  0.00000000000E+00  0.00000000000E+00 -0.51380756850E+03  0.11263833722E+04  0.10023678385E+04 0.  0.
        3    1    3    3  502    0 -0.14628323562E+03 -0.43053060761E+03 -0.49376659608E+03  0.67123829652E+03  0.10100000352E+00 0. -1.
       -3    1    3    3    0  502  0.14628323562E+03  0.43053060761E+03 -0.20040972419E+02  0.45514507565E+03  0.10100000352E+00 0.  1.
</event>
<event>
 5   0  0.5072205E-03  0.1003455E+04  0.7818609E-02  0.9304763E-01
       -1   -1    0    0    0  501  0.00000000000E+00  0.00000000000E+00  0.61919837187E+03  0.61919837189E+03  0.50400001928E-02 0.  1.
        1   -1    0    0  501    0  0.00000000000E+00  0.00000000000E+00 -0.40654277287E+03  0.40654277290E+03  0.50400001928E-02 0. -1.
    10030    2    1    2    0    0  0.00000000000E+00  0.00000000000E+00  0.21265559900E+03  0.10257411448E+04  0.10034552767E+04 0.  0.
        5    1    3    3  502    0  0.10911691913E+03  0.46492712972E+03  0.26351150861E+03  0.54545773728E+03  0.46999998093E+01 0.  1.
       -5    1    3    3    0  502 -0.10911691913E+03 -0.46492712972E+03 -0.50855909603E+02  0.48028340751E+03  0.46999998093E+01 0. -1.
</event>
<event>
 5   0  0.5072205E-03  0.1093019E+04  0.7818609E-02  0.9212023E-01
        1   -1    0    0  501    0  0.00000000000E+00  0.00000000000E+00  0.76646359819E+03  0.76646359820E+03  0.50400001928E-02 0. -1.
       -1   -1    0    0    0  501  0.00000000000E+00  0.00000000000E+00 -0.38967627082E+03  0.38967627085E+03  0.50400001928E-02 0.  1.
    10030    2    1    2    0    0  0.00000000000E+00  0.00000000000E+00  0.37678732737E+03  0.11561398691E+04  0.10930190789E+04 0.  0.
        5    1    3    3  502    0 -0.16315361509E+03 -0.32606413257E+02 -0.36221353319E+03  0.39862640897E+03  0.46999998093E+01 0.  1.
       -5    1    3    3    0  502  0.16315361509E+03  0.32606413257E+02  0.73900086056E+03  0.75751346008E+03  0.46999998093E+01 0. -1.
</event>
<event>
 5   0  0.8907355E-03  0.9985907E+03  0.7818609E-02  0.9310092E-01
        2   -1    0    0  501    0  0.00000000000E+00  0.00000000000E+00  0.19922151568E+04  0.19922151568E+04  0.25500000920E-02 0. -1.
       -2   -1    0    0    0  501  0.00000000000E+00  0.00000000000E+00 -0.12513500696E+03  0.12513500698E+03  0.25500000920E-02 0.  1.
    10030    2    1    2    0    0  0.00000000000E+00  0.00000000000E+00  0.18670801498E+04  0.21173501638E+04  0.99859072203E+03 0.  0.
        5    1    3    3  502    0  0.43336238742E+03 -0.96263377291E+02  0.14179998928E+04  0.14858719267E+04  0.46999998093E+01 0. -1.
       -5    1    3    3    0  502 -0.43336238742E+03  0.96263377291E+02  0.44908025709E+03  0.63147823710E+03  0.46999998093E+01 0.  1.
</event>
<event>
 5   0  0.8907355E-03  0.1018640E+04  0.7818609E-02  0.9288333E-01
        2   -1    0    0  501    0  0.00000000000E+00  0.00000000000E+00  0.11678026432E+04  0.11678026432E+04  0.25500000920E-02 0.  1.
       -2   -1    0    0    0  501  0.00000000000E+00  0.00000000000E+00 -0.22213257846E+03  0.22213257848E+03  0.25500000920E-02 0. -1.
    10030    2    1    2    0    0  0.00000000000E+00  0.00000000000E+00  0.94567006473E+03  0.13899352217E+04  0.10186402943E+04 0.  0.
        5    1    3    3  502    0 -0.43723425713E+02  0.20011360792E+03 -0.16341991583E+03  0.26207890591E+03  0.46999998093E+01 0. -1.
       -5    1    3    3    0  502  0.43723425713E+02 -0.20011360792E+03  0.11090899806E+04  0.11278563158E+04  0.46999998093E+01 0.  1.
</event>
<event>
 5   0  0.8875655E-03  0.1080028E+04  0.7818609E-02  0.9224879E-01
       -2   -1    0    0    0  501  0.00000000000E+00  0.00000000000E+00  0.22420646049E+03  0.22420646051E+03  0.25500000920E-02 0.  1.
        2   -1    0    0  501    0  0.00000000000E+00  0.00000000000E+00 -0.13006553902E+04  0.13006553902E+04  0.25500000920E-02 0. -1.
    10030    2    1    2    0    0  0.00000000000E+00  0.00000000000E+00 -0.10764489297E+04  0.15248618507E+04  0.10800284096E+04 0.  0.
        4    1    3    3  502    0 -0.37532498779E+03 -0.28612362919E+03 -0.16768364396E+03  0.50085426522E+03  0.12699999809E+01 0.  1.
       -4    1    3    3    0  502  0.37532498779E+03  0.28612362919E+03 -0.90876528572E+03  0.10240075855E+04  0.12699999809E+01 0. -1.
</event>
<event>
 5   0  0.5310275E-03  0.9876491E+03  0.7818609E-02  0.9322196E-01
       -1   -1    0    0    0  501  0.00000000000E+00  0.00000000000E+00  0.45368080951E+03  0.45368080954E+03  0.50400001928E-02 0. -1.
        1   -1    0    0  501    0  0.00000000000E+00  0.00000000000E+00 -0.53752038939E+03  0.53752038942E+03  0.50400001928E-02 0.  1.
    10030    2    1    2    0    0  0.00000000000E+00  0.00000000000E+00 -0.83839579884E+02  0.99120119895E+03  0.98764909844E+03 0.  0.
        1    1    3    3  502    0  0.32415594624E+03  0.90265054227E+01 -0.41568927614E+03  0.52721544894E+03  0.50400001928E-02 0.  1.
       -1    1    3    3    0  502 -0.32415594624E+03 -0.90265054227E+01  0.33184969625E+03  0.46398575001E+03  0.50400001928E-02 0. -1.
</event>
<event>
 5   0  0.8907355E-03  0.1009070E+04  0.7818609E-02  0.9298653E-01
        2   -1    0    0  501    0  0.00000000000E+00  0.00000000000E+00  0.25699565983E+04  0.25699565983E+04  0.25500000920E-02 0. -1.
       -2   -1    0    0    0  501  0.00000000000E+00  0.00000000000E+00 -0.99050509664E+02  0.99050509697E+02  0.25500000920E-02 0.  1.
    10030    2    1    2    0    0  0.00000000000E+00  0.00000000000E+00  0.24709060887E+04  0.26690071080E+04  0.10090698904E+04 0.  0.
        5    1    3    3  502    0  0.29927221470E+03  0.18089133468E+03  0.21973373851E+04  0.22249942039E+04  0.46999998093E+01 0. -1.
       -5    1    3    3    0  502 -0.29927221470E+03 -0.18089133468E+03  0.27356870354E+03  0.44401290410E+03  0.46999998093E+01 0.  1.
</event>
<event>
 5   0  0.5072205E-03  0.1002881E+04  0.7818609E-02  0.9305391E-01
        1   -1    0    0  501    0  0.00000000000E+00  0.00000000000E+00  0.62526397996E+03  0.62526397998E+03  0.50400001928E-02 0. -1.
       -1   -1    0    0    0  501  0.00000000000E+00  0.00000000000E+00 -0.40213832843E+03  0.40213832847E+03  0.50400001928E-02 0.  1.
    10030    2    1    2    0    0  0.00000000000E+00  0.00000000000E+00  0.22312565153E+03  0.10274023084E+04  0.10028810732E+04 0.  0.
        5    1    3    3  502    0  0.51919646753E+02  0.46047693643E+03 -0.84655909566E+02  0.47108743533E+03  0.46999998093E+01 0.  1.
       -5    1    3    3    0  502 -0.51919646753E+02 -0.46047693643E+03  0.30778156109E+03  0.55631487312E+03  0.46999998093E+01 0. -1.
</event>
<event>
 5   0  0.9243773E-03  0.9617176E+03  0.7818609E-02  0.9351558E-01
       -2   -1    0    0    0  501  0.00000000000E+00  0.00000000000E+00  0.21041677464E+03  0.21041677465E+03  0.25500000920E-02 0.  1.
        2   -1    0    0  501    0  0.00000000000E+00  0.00000000000E+00 -0.10988913500E+04  0.10988913500E+04  0.25500000920E-02 0. -1.
    10030    2    1    2    0    0  0.00000000000E+00  0.00000000000E+00 -0.88847457533E+03  0.13093081246E+04  0.96171757507E+03 0.  0.
        3    1    3    3  502    0  0.20544591375E+03  0.15360930076E+03 -0.99795708913E+03  0.10303990502E+04  0.10100000352E+00 0. -1.
       -3    1    3    3    0  502 -0.20544591375E+03 -0.15360930076E+03  0.10948251379E+03  0.27890907440E+03  0.10100000352E+00 0.  1.
</event>
<event>
 5   0  0.8907355E-03  0.9883035E+03  0.7818609E-02  0.9321467E-01
       -2   -1    0    0    0  501  0.00000000000E+00  0.00000000000E+00  0.25446433412E+03  0.25446433414E+03  0.25500000920E-02 0. -1.
        2   -1    0    0  501    0  0.00000000000E+00  0.00000000000E+00 -0.95960780415E+03  0.95960780415E+03  0.25500000920E-02 0.  1.
    10030    2    1    2    0    0  0.00000000000E+00  0.00000000000E+00 -0.70514347002E+03  0.12140721383E+04  0.98830351798E+03 0.  0.
        5    1    3    3  502    0 -0.12790150693E+03  0.43647665400E+02 -0.93643644343E+03  0.94614967989E+03  0.46999998093E+01 0.  1.
       -5    1    3    3    0  502  0.12790150693E+03 -0.43647665400E+02  0.23129297341E+03  0.26792245840E+03  0.46999998093E+01 0. -1.
</event>
<event>
 5   0  0.5349685E-03  0.1074622E+04  0.7818609E-02  0.9230286E-01
       -1   -1    0    0    0  501  0.00000000000E+00  0.00000000000E+00  0.24518760233E+03  0.24518760238E+03  0.50400001928E-02 0.  1.
        1   -1    0    0  501    0  0.00000000000E+00  0.00000000000E+00 -0.11774790227E+04  0.11774790227E+04  0.50400001928E-02 0. -1.
    10030    2    1    2    0    0  0.00000000000E+00  0.00000000000E+00 -0.93229142035E+03  0.14226666251E+04  0.10746222749E+04 0.  0.
        4    1    3    3  502    0 -0.15070971755E+03  0.13116472644E+02 -0.11487012801E+04  0.11586206042E+04  0.12699999809E+01 0. -1.
       -4    1    3    3    0  502  0.15070971755E+03 -0.13116472644E+02  0.21640985973E+03  0.26404602082E+03  0.12699999809E+01 0.  1.
</event>
<event>
 5   0  0.9243773E-03  0.1003566E+04  0.7818609E-02  0.9304642E-01
       -2   -1    0    0    0  501  0.00000000000E+00  0.00000000000E+00  0.23629029838E+03  0.23629029839E+03  0.25500000920E-02 0. -1.
        2   -1    0    0  501    0  0.00000000000E+00  0.00000000000E+00 -0.10655799452E+04  0.10655799452E+04  0.25500000920E-02 0.  1.
    10030    2    1    2    0    0  0.00000000000E+00  0.00000000000E+00 -0.82928964680E+03  0.13018702436E+04  0.10035660481E+04 0.  0.
        3    1    3    3  502    0 -0.46058128868E+00 -0.35797747145E+03 -0.87078457386E+03  0.94149554777E+03  0.10100000352E+00 0.  1.
       -3    1    3    3    0  502  0.46058128868E+00  0.35797747145E+03  0.41494927057E+02  0.36037469580E+03  0.10100000352E+00 0. -1.
</event>
<event>
 5   0  0.8968798E-03  0.1000594E+04  0.7818609E-02  0.9307894E-01
        2   -1    0    0  501    0  0.00000000000E+00  0.00000000000E+00  0.13336189986E+04  0.13336189986E+04  0.25500000920E-02 0.  1.
       -2   -1    0    0    0  501  0.00000000000E+00  0.00000000000E+00 -0.18768254627E+03  0.18768254628E+03  0.25500000920E-02 0. -1.
    10030    2    1    2    0    0  0.00000000000E+00  0.00000000000E+00  0.11459364524E+04  0.15213015449E+04  0.10005938425E+04 0.  0.
        2    1    3    3  502    0 -0.39800699063E+03  0.27225482882E+03  0.77561377428E+03  0.91329567133E+03  0.25500000920E-02 0.  1.
       -2    1    3    3    0  502  0.39800699063E+03 -0.27225482882E+03  0.37032267809E+03  0.60800587359E+03  0.25500000920E-02 0. -1.
</event>
<event>
 5   0  0.8875655E-03  0.9994878E+03  0.7818609E-02  0.9309107E-01
        2   -1    0    0  501    0  0.00000000000E+00  0.00000000000E+00  0.61241652489E+03  0.61241652489E+03  0.25500000920E-02 0.  1.
       -2   -1    0    0    0  501  0.00000000000E+00  0.00000000000E+00 -0.40780086572E+03  0.40780086573E+03  0.25500000920E-02 0. -1.
    10030    2    1    2    0    0  0.00000000000E+00  0.00000000000E+00  0.20461565916E+03  0.10202173906E+04  0.99948784693E+03 0.  0.
        4    1    3    3  502    0 -0.26693627767E+03 -0.27712536190E+03 -0.22319296341E+03  0.44482598211E+03  0.12699999809E+01 0. -1.
       -4    1    3    3    0  502  0.26693627767E+03  0.27712536190E+03  0.42780862258E+03  0.57539140852E+03  0.12699999809E+01 0.  1.
</event>
<event>
 5   0  0.8907355E-03  0.9724401E+03  0.7818609E-02  0.9339299E-01
        2   -1    0    0  501    0  0.00000000000E+00  0.00000000000E+00  0.15297486831E+04  0.15297486831E+04  0.25500000920E-02 0.  1.
       -2   -1    0    0    0  501  0.00000000000E+00  0.00000000000E+00 -0.15454168895E+03  0.15454168897E+03  0.25500000920E-02 0. -1.
    10030    2    1    2    0    0  0.00000000000E+00  0.00000000000E+00  0.13752069942E+04  0.16842903721E+04  0.97244011678E+03 0.  0.
        5    1    3    3  502    0  0.24734466903E+03  0.19505764543E+03  0.13290632264E+04  0.13658909255E+04  0.46999998093E+01 0.  1.
       -5    1    3    3    0  502 -0.24734466903E+03 -0.19505764543E+03  0.46143767747E+02  0.31839944667E+03  0.46999998093E+01 0. -1.
</event>
<event>
 5   0  0.9040674E-03  0.9965530E+03  0.7818609E-02  0.9312334E-01
       -2   -1    0    0    0  501  0.00000000000E+00  0.00000000000E+00  0.71802852098E+02  0.71802852143E+02  0.25500000920E-02 0. -1.
        2   -1    0    0  501    0  0.00000000000E+00  0.00000000000E+00 -0.34577939840E+04  0.34577939840E+04  0.25500000920E-02 0.  1.
    10030    2    1    2    0    0  0.00000000000E+00  0.00000000000E+00 -0.33859911319E+04  0.35295968361E+04  0.99655299929E+03 0.  0.
        1    1    3    3  502    0 -0.27506552406E+03 -0.11142787802E+03 -0.27537823471E+03  0.40485847738E+03  0.50400001928E-02 0. -1.
       -1    1    3    3    0  502  0.27506552406E+03  0.11142787802E+03 -0.31106128972E+04  0.31247383588E+04  0.50400001928E-02 0.  1.
</event>
<event>
 5   0  0.9040674E-03  0.1141779E+04  0.7818609E-02  0.9165401E-01
       -2   -1    0    0    0  501  0.00000000000E+00  0.00000000000E+00  0.66498805805E+03  0.66498805806E+03  0.25500000920E-02 0.  1.
        2   -1    0    0  501    0  0.00000000000E+00  0.00000000000E+00 -0.49010653017E+03  0.49010653017E+03  0.25500000920E-02 0. -1.
    10030    2    1    2    0    0  0.00000000000E+00  0.00000000000E+00  0.17488152788E+03  0.11550945882E+04  0.11417792952E+04 0.  0.
        1    1    3    3  502    0  0.52336752750E+03  0.21900011444E+03  0.23135578465E+02  0.56781147750E+03  0.50400001928E-02 0. -1.
       -1    1    3    3    0  502 -0.52336752750E+03 -0.21900011444E+03  0.15174594942E+03  0.58728311073E+03  0.50400001928E-02 0.  1.
</event>
<event>
 5   0  0.5310275E-03  0.9811645E+03  0.7818609E-02  0.9329448E-01
       -1   -1    0    0    0  501  0.00000000000E+00  0.00000000000E+00  0.68901124339E+03  0.68901124341E+03  0.50400001928E-02 0. -1.
        1   -1    0    0  501    0  0.00000000000E+00  0.00000000000E+00 -0.34929899329E+03  0.34929899332E+03  0.50400001928E-02 0.  1.
    10030    2    1    2    0    0  0.00000000000E+00  0.00000000000E+00  0.33971225011E+03  0.10383102367E+04  0.98116447899E+03 0.  0.
        1    1    3    3  502    0 -0.27099951539E+03  0.39939351088E+03  0.26280707691E+03  0.54956662341E+03  0.50400001928E-02 0.  1.
       -1    1    3    3    0  502  0.27099951539E+03 -0.39939351088E+03  0.76905173197E+02  0.48874361332E+03  0.50400001928E-02 0. -1.
</event>
<event>
 5   0  0.5201968E-03  0.1009398E+04  0.7818609E-02  0.9298297E-01
       -1   -1    0    0    0  501  0.00000000000E+00  0.00000000000E+00  0.41980592332E+03  0.41980592335E+03  0.50400001928E-02 0. -1.
        1   -1    0    0  501    0  0.00000000000E+00  0.00000000000E+00 -0.60675894761E+03  0.60675894763E+03  0.50400001928E-02 0.  1.
    10030    2    1    2    0    0  0.00000000000E+00  0.00000000000E+00 -0.18695302430E+03  0.10265648710E+04  0.10093978408E+04 0.  0.
        2    1    3    3  502    0  0.74169232986E+02  0.30434080192E+03 -0.49592953471E+03  0.58657523152E+03  0.25500000920E-02 0.  1.
       -2    1    3    3    0  502 -0.74169232986E+02 -0.30434080192E+03  0.30897651041E+03  0.43998963945E+03  0.25500000920E-02 0. -1.
</event>
<event>
 5   0  0.9040674E-03  0.9797757E+03  0.7818609E-02  0.9331009E-01
       -2   -1    0    0    0  501  0.00000000000E+00  0.00000000000E+00  0.30977387001E+03  0.30977387002E+03  0.25500000920E-02 0. -1.
        2   -1    0    0  501    0  0.00000000000E+00  0.00000000000E+00 -0.77472682472E+03  0.77472682472E+03  0.25500000920E-02 0.  1.
    10030    2    1    2    0    0  0.00000000000E+00  0.00000000000E+00 -0.46495295471E+03  0.10845006947E+04  0.97977574312E+03 0.  0.
        1    1    3    3  502    0  0.13576554185E+03 -0.34228712618E+03 -0.59011799187E+03  0.69558033573E+03  0.50400001928E-02 0.  1.
       -1    1    3    3    0  502 -0.13576554185E+03  0.34228712618E+03  0.12516503716E+03  0.38892035902E+03  0.50400001928E-02 0. -1.
</event>
<event>
 5   0  0.5189877E-03  0.9992045E+03  0.7818609E-02  0.9309418E-01
       -1   -1    0    0    0  501  0.00000000000E+00  0.00000000000E+00  0.23881618026E+03  0.23881618031E+03  0.50400001928E-02 0.  1.
        1   -1    0    0  501    0  0.00000000000E+00  0.00000000000E+00 -0.10451653618E+04  0.10451653618E+04  0.50400001928E-02 0. -1.
    10030    2    1    2    0    0  0.00000000000E+00  0.00000000000E+00 -0.80634918150E+03  0.12839815421E+04  0.99920448253E+03 0.  0.
        3    1    3    3  502    0 -0.38294261692E+03 -0.28410703314E+03 -0.21153862337E+03  0.52164207414E+03  0.10100000352E+00 0.  1.
       -3    1    3    3    0  502  0.38294261692E+03  0.28410703314E+03 -0.59481055813E+03  0.76233946795E+03  0.10100000352E+00 0. -1.
</event>
<event>
 5   0  0.8907355E-03  0.9536829E+03  0.7818609E-02  0.9360856E-01
        2   -1    0    0  501    0  0.00000000000E+00  0.00000000000E+00  0.34181220961E+03  0.34181220962E+03  0.25500000920E-02 0.  1.
       -2   -1    0    0    0  501  0.00000000000E+00  0.00000000000E+00 -0.66521251448E+03  0.66521251449E+03  0.25500000920E-02 0. -1.
    10030    2    1    2    0    0  0.00000000000E+00  0.00000000000E+00 -0.32340030487E+03  0.10070247241E+04  0.95368288114E+03 0.  0.
        5    1    3    3  502    0  0.42265730031E+03  0.17082678905E+03 -0.30928417468E+03  0.55090813760E+03  0.46999998093E+01 0. -1.
       -5    1    3    3    0  502 -0.42265730031E+03 -0.17082678905E+03 -0.14116130191E+02  0.45611658652E+03  0.46999998093E+01 0.  1.
</event>
<event>
 5   0  0.5189877E-03  0.9987708E+03  0.7818609E-02  0.9309894E-01
        1   -1    0    0  501    0  0.00000000000E+00  0.00000000000E+00  0.89219322620E+03  0.89219322622E+03  0.50400001928E-02 0. -1.
       -1   -1    0    0    0  501  0.00000000000E+00  0.00000000000E+00 -0.27951993707E+03  0.27951993711E+03  0.50400001928E-02 0.  1.
    10030    2    1    2    0    0  0.00000000000E+00  0.00000000000E+00  0.61267328913E+03  0.11717131633E+04  0.99877083352E+03 0.  0.
        3    1    3    3  502    0  0.47532495357E+03 -0.12537286634E+03  0.40950506763E+03  0.63980198321E+03  0.10100000352E+00 0. -1.
       -3    1    3    3    0  502 -0.47532495357E+03  0.12537286634E+03  0.20316822151E+03  0.53191118012E+03  0.10100000352E+00 0.  1.
</event>
<event>
 5   0  0.8968798E-03  0.9952578E+03  0.7818609E-02  0.9313761E-01
        2   -1    0    0  501    0  0.00000000000E+00  0.00000000000E+00  0.50823198684E+03  0.50823198685E+03  0.25500000920E-02 0. -1.
       -2   -1    0    0    0  501  0.00000000000E+00  0.00000000000E+00 -0.48724704256E+03  0.48724704257E+03  0.25500000920E-02 0.  1.
    10030    2    1    2    0    0  0.00000000000E+00  0.00000000000E+00  0.20984944279E+02  0.99547902942E+03  0.99525782093E+03 0.  0.
        2    1    3    3  502    0 -0.34543761128E+03  0.18518571665E+03  0.31717705871E+03  0.50420450169E+03  0.25500000920E-02 0. -1.
       -2    1    3    3    0  502  0.34543761128E+03 -0.18518571665E+03 -0.29619211443E+03  0.49127452773E+03  0.25500000920E-02 0.  1.
</event>
<event>
 5   0  0.5349685E-03  0.9644434E+03  0.7818609E-02  0.9348426E-01
        1   -1    0    0  501    0  0.00000000000E+00  0.00000000000E+00  0.75565933477E+03  0.75565933478E+03  0.50400001928E-02 0. -1.
       -1   -1    0    0    0  501  0.00000000000E+00  0.00000000000E+00 -0.30772832147E+03  0.30772832151E+03  0.50400001928E-02 0.  1.
    10030    2    1    2    0    0  0.00000000000E+00  0.00000000000E+00  0.44793101329E+03  0.10633876563E+04  0.96444342234E+03 0.  0.
        4    1    3    3  502    0  0.39986431575E+03 -0.25135801333E+03  0.11670282647E+03  0.48651154610E+03  0.12699999809E+01 0. -1.
       -4    1    3    3    0  502 -0.39986431575E+03  0.25135801333E+03  0.33122818682E+03  0.57687611020E+03  0.12699999809E+01 0.  1.
</event>
<event>
 5   0  0.5072205E-03  0.9939276E+03  0.7818609E-02  0.9315230E-01
        1   -1    0    0  501    0  0.00000000000E+00  0.00000000000E+00  0.21670038351E+04  0.21670038351E+04  0.50400001928E-02 0.  1.
       -1   -1    0    0    0  501  0.00000000000E+00  0.00000000000E+00 -0.11396981033E+03  0.11396981044E+03  0.50400001928E-02 0. -1.
    10030    2    1    2    0    0  0.00000000000E+00  0.00000000000E+00  0.20530340248E+04  0.22809736455E+04  0.99392759536E+03 0.  0.
        5    1    3    3  502    0  0.16153741344E+03 -0.32861238283E+03  0.25551461542E+03  0.44653134580E+03  0.46999998093E+01 0. -1.
       -5    1    3    3    0  502 -0.16153741344E+03  0.32861238283E+03  0.17975194094E+04  0.18344422997E+04  0.46999998093E+01 0.  1.
</event>
<event>
 5   0  0.5310275E-03  0.1012963E+04  0.7818609E-02  0.9294440E-01
        1   -1    0    0  501    0  0.00000000000E+00  0.00000000000E+00  0.36971079145E+03  0.36971079148E+03  0.50400001928E-02 0.  1.
       -1   -1    0    0    0  501  0.00000000000E+00  0.00000000000E+00 -0.69384970205E+03  0.69384970207E+03  0.50400001928E-02 0. -1.
    10030    2    1    2    0    0  0.00000000000E+00  0.00000000000E+00 -0.32413891060E+03  0.10635604936E+04  0.10129634199E+04 0.  0.
        1    1    3    3  502    0  0.30324768712E+03  0.23020709683E+03  0.18863453043E+03  0.42489699136E+03  0.50400001928E-02 0.  1.
       -1    1    3    3    0  502 -0.30324768712E+03 -0.23020709683E+03 -0.51277344104E+03  0.63866350219E+03  0.50400001928E-02 0. -1.
</event>
<event>
 5   0  0.5201968E-03  0.9912175E+03  0.7818609E-02  0.9318230E-01
       -1   -1    0    0    0  501  0.00000000000E+00  0.00000000000E+00  0.46906001342E+03  0.46906001344E+03  0.50400001928E-02 0.  1.
        1   -1    0    0  501    0  0.00000000000E+00  0.00000000000E+00 -0.52366013611E+03  0.52366013613E+03  0.50400001928E-02 0. -1.
    10030    2    1    2    0    0  0.00000000000E+00  0.00000000000E+00 -0.54600122691E+02  0.99272014958E+03  0.99121749479E+03 0.  0.
        2    1    3    3  502    0 -0.33448749926E+02  0.30086069795E+03  0.36571304306E+03  0.47474415037E+03  0.25500000920E-02 0.  1.
       -2    1    3    3    0  502  0.33448749926E+02 -0.30086069795E+03 -0.42031316575E+03  0.51797599920E+03  0.25500000920E-02 0. -1.
</event>
<event>
 5   0  0.9243773E-03  0.9940143E+03  0.7818609E-02  0.9315134E-01
       -2   -1    0    0    0  501  0.00000000000E+00  0.00000000000E+00  0.22617923602E+03  0.22617923603E+03  0.25500000920E-02 0.  1.
        2   -1    0    0  501    0  0.00000000000E+00  0.00000000000E+00 -0.10921254583E+04  0.10921254583E+04  0.25500000920E-02 0. -1.
    10030    2    1    2    0    0  0.00000000000E+00  0.00000000000E+00 -0.86594622232E+03  0.13183046944E+04  0.99401428926E+03 0.  0.
        3    1    3    3  502    0 -0.42557170647E+03 -0.25515694899E+03 -0.47047896980E+03  0.68378857638E+03  0.10100000352E+00 0.  1.
       -3    1    3    3    0  502  0.42557170647E+03  0.25515694899E+03 -0.39546725252E+03  0.63451611799E+03  0.10100000352E+00 0. -1.
</event>
<event>
 5   0  0.9040674E-03  0.9975889E+03  0.7818609E-02  0.9311193E-01
        2   -1    0    0  501    0  0.00000000000E+00  0.00000000000E+00  0.95046074346E+03  0.95046074346E+03  0.25500000920E-02 0. -1.
       -2   -1    0    0    0  501  0.00000000000E+00  0.00000000000E+00 -0.26176345894E+03  0.26176345895E+03  0.25500000920E-02 0.  1.
    10030    2    1    2    0    0  0.00000000000E+00  0.00000000000E+00  0.68869728452E+03  0.12122242024E+04  0.99758887685E+03 0.  0.
        1    1    3    3  502    0  0.74473172978E+02 -0.46403670602E+03  0.54739057757E+03  0.72146570429E+03  0.50400001928E-02 0. -1.
       -1    1    3    3    0  502 -0.74473172978E+02  0.46403670602E+03  0.14130670695E+03  0.49075849812E+03  0.50400001928E-02 0.  1.
</event>
<event>
 5   0  0.5201968E-03  0.1003287E+04  0.7818609E-02  0.9304947E-01
        1   -1    0    0  501    0  0.00000000000E+00  0.00000000000E+00  0.12131639288E+04  0.12131639288E+04  0.50400001928E-02 0. -1.
       -1   -1    0    0    0  501  0.00000000000E+00  0.00000000000E+00 -0.20742962690E+03  0.20742962696E+03  0.50400001928E-02 0.  1.
    10030    2    1    2    0    0  0.00000000000E+00  0.00000000000E+00  0.10057343019E+04  0.14205935558E+04  0.10032868805E+04 0.  0.
        2    1    3    3  502    0  0.30791543981E+03  0.30890368256E+03  0.85375953090E+03  0.95871723662E+03  0.25500000920E-02 0. -1.
       -2    1    3    3    0  502 -0.30791543981E+03 -0.30890368256E+03  0.15197477102E+03  0.46187631917E+03  0.25500000920E-02 0.  1.
</event>
<event>
 5   0  0.5349685E-03  0.7976352E+03  0.7818609E-02  0.9563446E-01
       -1   -1    0    0    0  501  0.00000000000E+00  0.00000000000E+00  0.12657630657E+03  0.12657630667E+03  0.50400001928E-02 0. -1.
        1   -1    0    0  501    0  0.00000000000E+00  0.00000000000E+00 -0.12565975011E+04  0.12565975011E+04  0.50400001928E-02 0.  1.
    10030    2    1    2    0    0  0.00000000000E+00  0.00000000000E+00 -0.11300211945E+04  0.13831738078E+04  0.79763518129E+03 0.  0.
        4    1    3    3  502    0  0.32909150403E+03  0.19115115122E+03 -0.77175260656E+03  0.86049037140E+03  0.12699999809E+01 0. -1.
       -4    1    3    3    0  502 -0.32909150403E+03 -0.19115115122E+03 -0.35826858798E+03  0.52268343639E+03  0.12699999809E+01 0.  1.
</event>
<event>
 5   0  0.5189877E-03  0.1012541E+04  0.7818609E-02  0.9294896E-01
        1   -1    0    0  501    0  0.00000000000E+00  0.00000000000E+00  0.12862159713E+04  0.12862159713E+04  0.50400001928E-02 0. -1.
       -1   -1    0    0    0  501  0.00000000000E+00  0.00000000000E+00 -0.19927430092E+03  0.19927430098E+03  0.50400001928E-02 0.  1.
    10030    2    1    2    0    0  0.00000000000E+00  0.00000000000E+00  0.10869416704E+04  0.14854902723E+04  0.10125409396E+04 0.  0.
        3    1    3    3  502    0 -0.75590201277E+02 -0.43042149414E+03  0.91846482680E+03  0.10171303699E+04  0.10100000352E+00 0. -1.
       -3    1    3    3    0  502  0.75590201277E+02  0.43042149414E+03  0.16847684361E+03  0.46835990240E+03  0.10100000352E+00 0.  1.
</event>
<event>
 5   0  0.5349685E-03  0.1008492E+04  0.7818609E-02  0.9299280E-01
       -1   -1    0    0    0  501  0.00000000000E+00  0.00000000000E+00  0.35946192580E+03  0.35946192583E+03  0.50400001928E-02 0.  1.
        1   -1    0    0  501    0  0.00000000000E+00  0.00000000000E+00 -0.70734586614E+03  0.70734586616E+03  0.50400001928E-02 0. -1.
    10030    2    1    2    0    0  0.00000000000E+00  0.00000000000E+00 -0.34788394035E+03  0.10668077920E+04  0.10084917596E+04 0.  0.
        4    1    3    3  502    0 -0.28761661311E+02  0.11176949849E+03 -0.69318497905E+03  0.70272802850E+03  0.12699999809E+01 0. -1.
       -4    1    3    3    0  502  0.28761661311E+02 -0.11176949849E+03  0.34530103870E+03  0.36407976349E+03  0.12699999809E+01 0.  1.
</event>
<event>
 5   0  0.8968798E-03  0.1003585E+04  0.7818609E-02  0.9304622E-01
        2   -1    0    0  501    0  0.00000000000E+00  0.00000000000E+00  0.22173507309E+03  0.22173507311E+03  0.25500000920E-02 0.  1.
       -2   -1    0    0    0  501  0.00000000000E+00  0.00000000000E+00 -0.11355694590E+04  0.11355694590E+04  0.25500000920E-02 0. -1.
    10030    2    1    2    0    0  0.00000000000E+00  0.00000000000E+00 -0.91383438591E+03  0.13573045321E+04  0.10035847289E+04 0.  0.
        2    1    3    3  502    0 -0.17020714161E+03 -0.56456325141E+02 -0.10907530247E+04  0.11053958334E+04  0.25500000920E-02 0. -1.
       -2    1    3    3    0  502  0.17020714161E+03  0.56456325141E+02  0.17691863879E+03  0.25190869867E+03  0.25500000920E-02 0.  1.
</event>
<event>
 5   0  0.9040674E-03  0.1070559E+04  0.7818609E-02  0.9234371E-01
        2   -1    0    0  501    0  0.00000000000E+00  0.00000000000E+00  0.42014807568E+03  0.42014807568E+03  0.25500000920E-02 0.  1.
       -2   -1    0    0    0  501  0.00000000000E+00  0.00000000000E+00 -0.68196038228E+03  0.68196038228E+03  0.25500000920E-02 0. -1.
    10030    2    1    2    0    0  0.00000000000E+00  0.00000000000E+00 -0.26181230660E+03  0.11021084580E+04  0.10705593721E+04 0.  0.
        1    1    3    3  502    0  0.46732152667E+03 -0.23774910742E+03 -0.19979680599E+02  0.52470299697E+03  0.50400001928E-02 0.  1.
       -1    1    3    3    0  502 -0.46732152667E+03  0.23774910742E+03 -0.24183262600E+03  0.57740546100E+03  0.50400001928E-02 0. -1.
</event>
<event>
 5   0  0.3513625E-03  0.9996968E+03  0.7818609E-02  0.9308877E-01
       -3   -1    0    0    0  501  0.00000000000E+00  0.00000000000E+00  0.10539432754E+04  0.10539432803E+04  0.10100000352E+00 0. -1.
        3   -1    0    0  501    0  0.00000000000E+00  0.00000000000E+00 -0.23706056372E+03  0.23706058523E+03  0.10100000352E+00 0.  1.
    10030    2    1    2    0    0  0.00000000000E+00  0.00000000000E+00  0.81688271170E+03  0.12910038655E+04  0.99969676204E+03 0.  0.
        1    1    3    3  502    0 -0.26778860546E+03  0.11693441761E+03  0.93215597013E+03  0.97688236135E+03  0.50400001928E-02 0. -1.
       -1    1    3    3    0  502  0.26778860546E+03 -0.11693441761E+03 -0.11527325843E+03  0.31412150415E+03  0.50400001928E-02 0.  1.
</event>
<event>
 5   0  0.5310275E-03  0.1002793E+04  0.7818609E-02  0.9305486E-01
        1   -1    0    0  501    0  0.00000000000E+00  0.00000000000E+00  0.36163621637E+03  0.36163621640E+03  0.50400001928E-02 0.  1.
       -1   -1    0    0    0  501  0.00000000000E+00  0.00000000000E+00 -0.69517007641E+03  0.69517007643E+03  0.50400001928E-02 0. -1.
    10030    2    1    2    0    0  0.00000000000E+00  0.00000000000E+00 -0.33353386004E+03  0.10568062928E+04  0.10027934507E+04 0.  0.
        1    1    3    3  502    0  0.94855768957E+02 -0.22190750768E+02  0.35156693316E+03  0.36481413739E+03  0.50400001928E-02 0.  1.
       -1    1    3    3    0  502 -0.94855768957E+02  0.22190750768E+02 -0.68510079320E+03  0.69199215544E+03  0.50400001928E-02 0. -1.
</event>
<event>
 5   0  0.8968798E-03  0.1001603E+04  0.7818609E-02  0.9306789E-01
        2   -1    0    0  501    0  0.00000000000E+00  0.00000000000E+00  0.50637010600E+03  0.50637010601E+03  0.25500000920E-02 0. -1.
       -2   -1    0    0    0  501  0.00000000000E+00  0.00000000000E+00 -0.49529365240E+03  0.49529365240E+03  0.25500000920E-02 0.  1.
    10030    2    1    2    0    0  0.00000000000E+00  0.00000000000E+00  0.11076453602E+02  0.10016637584E+04  0.10016025145E+04 0.  0.
        2    1    3    3  502    0 -0.42133832711E+03  0.26347990212E+03  0.67624665817E+02  0.50151843450E+03  0.25500000920E-02 0. -1.
       -2    1    3    3    0  502  0.42133832711E+03 -0.26347990212E+03 -0.56548212215E+02  0.50014532391E+03  0.25500000920E-02 0.  1.
</event>
<event>
 5   0  0.5310275E-03  0.9989905E+03  0.7818609E-02  0.9309653E-01
        1   -1    0    0  501    0  0.00000000000E+00  0.00000000000E+00  0.21773590949E+03  0.21773590955E+03  0.50400001928E-02 0.  1.
       -1   -1    0    0    0  501  0.00000000000E+00  0.00000000000E+00 -0.11458629422E+04  0.11458629422E+04  0.50400001928E-02 0. -1.
    10030    2    1    2    0    0  0.00000000000E+00  0.00000000000E+00 -0.92812703274E+03  0.13635988518E+04  0.99899051031E+03 0.  0.
        1    1    3    3  502    0 -0.28637174020E+03  0.11160182414E+03  0.73383449730E+02  0.31598872046E+03  0.50400001928E-02 0.  1.
       -1    1    3    3    0  502  0.28637174020E+03 -0.11160182414E+03 -0.10015104825E+04  0.10476101313E+04  0.50400001928E-02 0. -1.
</event>
<event>
 5   0  0.9040674E-03  0.9942416E+03  0.7818609E-02  0.9314883E-01
        2   -1    0    0  501    0  0.00000000000E+00  0.00000000000E+00  0.25160457637E+04  0.25160457637E+04  0.25500000920E-02 0. -1.
       -2   -1    0    0    0  501  0.00000000000E+00  0.00000000000E+00 -0.98221215134E+02  0.98221215167E+02  0.25500000920E-02 0.  1.
    10030    2    1    2    0    0  0.00000000000E+00  0.00000000000E+00  0.24178245485E+04  0.26142669788E+04  0.99424156478E+03 0.  0.
        1    1    3    3  502    0  0.50622430214E+02  0.24923683642E+02  0.25075984181E+04  0.25082331723E+04  0.50400001928E-02 0. -1.
       -1    1    3    3    0  502 -0.50622430214E+02 -0.24923683642E+02 -0.89773869531E+02  0.10603380651E+03  0.50400001928E-02 0.  1.
</event>
<event>
 5   0  0.5189877E-03  0.1027669E+04  0.7818609E-02  0.9278708E-01
       -1   -1    0    0    0  501  0.00000000000E+00  0.00000000000E+00  0.29106699774E+03  0.29106699779E+03  0.50400001928E-02 0.  1.
        1   -1    0    0  501    0  0.00000000000E+00  0.00000000000E+00 -0.90709657748E+03  0.90709657749E+03  0.50400001928E-02 0. -1.
    10030    2    1    2    0    0  0.00000000000E+00  0.00000000000E+00 -0.61602957973E+03  0.11981635753E+04  0.10276689691E+04 0.  0.
        3    1    3    3  502    0  0.47775124077E+03 -0.71015847826E+02 -0.10361090408E+03  0.49398859131E+03  0.10100000352E+00 0.  1.
       -3    1    3    3    0  502 -0.47775124077E+03  0.71015847826E+02 -0.51241867565E+03  0.70417498397E+03  0.10100000352E+00 0. -1.
</event>
<event>
 5   0  0.8907355E-03  0.1003983E+04  0.7818609E-02  0.9304187E-01
       -2   -1    0    0    0  501  0.00000000000E+00  0.00000000000E+00  0.42666720910E+03  0.42666720910E+03  0.25500000920E-02 0. -1.
        2   -1    0    0  501    0  0.00000000000E+00  0.00000000000E+00 -0.59061342540E+03  0.59061342540E+03  0.25500000920E-02 0.  1.
    10030    2    1    2    0    0  0.00000000000E+00  0.00000000000E+00 -0.16394621630E+03  0.10172806345E+04  0.10039828323E+04 0.  0.
        5    1    3    3  502    0  0.41869549561E+03  0.69583065712E+02 -0.35352575079E+03  0.55240407995E+03  0.46999998093E+01 0.  1.
       -5    1    3    3    0  502 -0.41869549561E+03 -0.69583065712E+02  0.18957953449E+03  0.46487655455E+03  0.46999998093E+01 0. -1.
</event>
<event>
 5   0  0.9040674E-03  0.9992058E+03  0.7818609E-02  0.9309416E-01
       -2   -1    0    0    0  501  0.00000000000E+00  0.00000000000E+00  0.43822689256E+03  0.43822689256E+03  0.25500000920E-02 0. -1.
        2   -1    0    0  501    0  0.00000000000E+00  0.00000000000E+00 -0.56957493183E+03  0.56957493184E+03  0.25500000920E-02 0.  1.
    10030    2    1    2    0    0  0.00000000000E+00  0.00000000000E+00 -0.13134803928E+03  0.10078018244E+04  0.99920578954E+03 0.  0.
        1    1    3    3  502    0  0.39190431888E+03  0.18148584809E+03 -0.31898587817E+03  0.53691535526E+03  0.50400001928E-02 0. -1.
       -1    1    3    3    0  502 -0.39190431888E+03 -0.18148584809E+03  0.18763783890E+03  0.47088646915E+03  0.50400001928E-02 0.  1.
</event>
<event>
 5   0  0.5201968E-03  0.1007532E+04  0.7818609E-02  0.9300322E-01
        1   -1    0    0  501    0  0.00000000000E+00  0.00000000000E+00  0.20001231708E+03  0.20001231715E+03  0.50400001928E-02 0. -1.
       -1   -1    0    0    0  501  0.00000000000E+00  0.00000000000E+00 -0.12688231366E+04  0.12688231366E+04  0.50400001928E-02 0.  1.
    10030    2    1    2    0    0  0.00000000000E+00  0.00000000000E+00 -0.10688108195E+04  0.14688354537E+04  0.10075321445E+04 0.  0.
        2    1    3    3  502    0 -0.68432054485E+02 -0.15470733794E+03  0.15736614470E+03  0.23104417326E+03  0.25500000920E-02 0. -1.
       -2    1    3    3    0  502  0.68432054485E+02  0.15470733794E+03 -0.12261769642E+04  0.12377912805E+04  0.25500000920E-02 0.  1.
</event>
<event>
 5   0  0.8968798E-03  0.1008957E+04  0.7818609E-02  0.9298775E-01
       -2   -1    0    0    0  501  0.00000000000E+00  0.00000000000E+00  0.18354958549E+03  0.18354958551E+03  0.25500000920E-02 0. -1.
        2   -1    0    0  501    0  0.00000000000E+00  0.00000000000E+00 -0.13865385791E+04  0.13865385791E+04  0.25500000920E-02 0.  1.
    10030    2    1    2    0    0  0.00000000000E+00  0.00000000000E+00 -0.12029889936E+04  0.15700881646E+04  0.10089570486E+04 0.  0.
        2    1    3    3  502    0 -0.85655188771E+02  0.77732921703E+02  0.16263577495E+03  0.19957357986E+03  0.25500000920E-02 0. -1.
       -2    1    3    3    0  502  0.85655188771E+02 -0.77732921703E+02 -0.13656247686E+04  0.13705145847E+04  0.25500000920E-02 0.  1.
</event>
<event>
 5   0  0.9040674E-03  0.9815166E+03  0.7818609E-02  0.9329053E-01
       -2   -1    0    0    0  501  0.00000000000E+00  0.00000000000E+00  0.13920349051E+03  0.13920349053E+03  0.25500000920E-02 0. -1.
        2   -1    0    0  501    0  0.00000000000E+00  0.00000000000E+00 -0.17301556591E+04  0.17301556591E+04  0.25500000920E-02 0.  1.
    10030    2    1    2    0    0  0.00000000000E+00  0.00000000000E+00 -0.15909521686E+04  0.18693591496E+04  0.98151659566E+03 0.  0.
        1    1    3    3  502    0  0.11859366334E+02 -0.18325093816E+03  0.71302913806E+02  0.19699151365E+03  0.50400001928E-02 0. -1.
       -1    1    3    3    0  502 -0.11859366334E+02  0.18325093816E+03 -0.16622550824E+04  0.16723676360E+04  0.50400001928E-02 0.  1.
</event>
<event>
 5   0  0.5201968E-03  0.9877949E+03  0.7818609E-02  0.9322033E-01
        1   -1    0    0  501    0  0.00000000000E+00  0.00000000000E+00  0.10227580256E+04  0.10227580256E+04  0.50400001928E-02 0.  1.
       -1   -1    0    0    0  501  0.00000000000E+00  0.00000000000E+00 -0.23850676998E+03  0.23850677004E+03  0.50400001928E-02 0. -1.
    10030    2    1    2    0    0  0.00000000000E+00  0.00000000000E+00  0.78425125558E+03  0.12612647956E+04  0.98779494470E+03 0.  0.
        2    1    3    3  502    0  0.54192133969E+02 -0.12394071102E+03 -0.21439318069E+03  0.25350053879E+03  0.25500000920E-02 0. -1.
       -2    1    3    3    0  502 -0.54192133969E+02  0.12394071102E+03  0.99864443627E+03  0.10077642568E+04  0.25500000920E-02 0.  1.
</event>
<event>
 5   0  0.5349685E-03  0.1001643E+04  0.7818609E-02  0.9306744E-01
        1   -1    0    0  501    0  0.00000000000E+00  0.00000000000E+00  0.10310608936E+04  0.10310608936E+04  0.50400001928E-02 0.  1.
       -1   -1    0    0    0  501  0.00000000000E+00  0.00000000000E+00 -0.24326617995E+03  0.24326618000E+03  0.50400001928E-02 0. -1.
    10030    2    1    2    0    0  0.00000000000E+00  0.00000000000E+00  0.78779471362E+03  0.12743270736E+04  0.10016431399E+04 0.  0.
        4    1    3    3  502    0  0.22332878235E+03 -0.40714845586E+03  0.15528931471E+03  0.48965497475E+03  0.12699999809E+01 0. -1.
       -4    1    3    3    0  502 -0.22332878235E+03  0.40714845586E+03  0.63250539891E+03  0.78467209883E+03  0.12699999809E+01 0.  1.
</event>
<event>
 5   0  0.8907355E-03  0.1012899E+04  0.7818609E-02  0.9294509E-01
        2   -1    0    0  501    0  0.00000000000E+00  0.00000000000E+00  0.56589825536E+03  0.56589825537E+03  0.25500000920E-02 0.  1.
       -2   -1    0    0    0  501  0.00000000000E+00  0.00000000000E+00 -0.45324605950E+03  0.45324605950E+03  0.25500000920E-02 0. -1.
    10030    2    1    2    0    0  0.00000000000E+00  0.00000000000E+00  0.11265219587E+03  0.10191443149E+04  0.10128991151E+04 0.  0.
        5    1    3    3  502    0 -0.25421404207E+03 -0.29414017697E+03 -0.27021433419E+03  0.47347766504E+03  0.46999998093E+01 0. -1.
       -5    1    3    3    0  502  0.25421404207E+03  0.29414017697E+03  0.38286653006E+03  0.54566664983E+03  0.46999998093E+01 0.  1.
</event>
<event>
 5   0  0.5189877E-03  0.9910294E+03  0.7818609E-02  0.9318439E-01
        1   -1    0    0  501    0  0.00000000000E+00  0.00000000000E+00  0.16766236503E+04  0.16766236503E+04  0.50400001928E-02 0. -1.
       -1   -1    0    0    0  501  0.00000000000E+00  0.00000000000E+00 -0.14644598769E+03  0.14644598778E+03  0.50400001928E-02 0.  1.
    10030    2    1    2    0    0  0.00000000000E+00  0.00000000000E+00  0.15301776626E+04  0.18230696380E+04  0.99102937702E+03 0.  0.
        3    1    3    3  502    0 -0.43626930466E+03 -0.18095363569E+03  0.48940046907E+03  0.68013818727E+03  0.10100000352E+00 0.  1.
       -3    1    3    3    0  502  0.43626930466E+03  0.18095363569E+03  0.10407771935E+04  0.11429314508E+04  0.10100000352E+00 0. -1.
</event>
<event>
 5   0  0.5310275E-03  0.1096686E+04  0.7818609E-02  0.9208428E-01
       -1   -1    0    0    0  501  0.00000000000E+00  0.00000000000E+00  0.17334725100E+04  0.17334725100E+04  0.50400001928E-02 0.  1.
        1   -1    0    0  501    0  0.00000000000E+00  0.00000000000E+00 -0.17345534266E+03  0.17345534273E+03  0.50400001928E-02 0. -1.
    10030    2    1    2    0    0  0.00000000000E+00  0.00000000000E+00  0.15600171673E+04  0.19069278527E+04  0.10966860413E+04 0.  0.
        1    1    3    3  502    0 -0.50419722617E+03 -0.19762749110E+03  0.92967350583E+03  0.10759016198E+04  0.50400001928E-02 0.  1.
       -1    1    3    3    0  502  0.50419722617E+03  0.19762749110E+03  0.63034366147E+03  0.83102623286E+03  0.50400001928E-02 0. -1.
</event>
<event>
 5   0  0.9243773E-03  0.1026462E+04  0.7818609E-02  0.9279989E-01
        2   -1    0    0  501    0  0.00000000000E+00  0.00000000000E+00  0.82788508809E+03  0.82788508810E+03  0.25500000920E-02 0. -1.
       -2   -1    0    0    0  501  0.00000000000E+00  0.00000000000E+00 -0.31816714599E+03  0.31816714600E+03  0.25500000920E-02 0.  1.
    10030    2    1    2    0    0  0.00000000000E+00  0.00000000000E+00  0.50971794211E+03  0.11460522341E+04  0.10264615642E+04 0.  0.
        3    1    3    3  502    0 -0.15298340597E+03 -0.35077292804E+03  0.63669849087E+03  0.74285297874E+03  0.10100000352E+00 0. -1.
       -3    1    3    3    0  502  0.15298340597E+03  0.35077292804E+03 -0.12698054876E+03  0.40319925535E+03  0.10100000352E+00 0.  1.
</event>
<event>
 5   0  0.8907355E-03  0.1079630E+04  0.7818609E-02  0.9225277E-01
        2   -1    0    0  501    0  0.00000000000E+00  0.00000000000E+00  0.15916163577E+04  0.15916163577E+04  0.25500000920E-02 0.  1.
       -2   -1    0    0    0  501  0.00000000000E+00  0.00000000000E+00 -0.18308432840E+03  0.18308432841E+03  0.25500000920E-02 0. -1.
    10030    2    1    2    0    0  0.00000000000E+00  0.00000000000E+00  0.14085320293E+04  0.17747006862E+04  0.10796295882E+04 0.  0.
        5    1    3    3  502    0  0.11591269296E+03  0.51645764815E+03  0.53019591793E+03  0.74919560605E+03  0.46999998093E+01 0.  1.
       -5    1    3    3    0  502 -0.11591269296E+03 -0.51645764815E+03  0.87833611141E+03  0.10255050801E+04  0.46999998093E+01 0. -1.
</event>
<event>
 5   0  0.5072205E-03  0.9936239E+03  0.7818609E-02  0.9315566E-01
        1   -1    0    0  501    0  0.00000000000E+00  0.00000000000E+00  0.15755075475E+04  0.15755075475E+04  0.50400001928E-02 0. -1.
       -1   -1    0    0    0  501  0.00000000000E+00  0.00000000000E+00 -0.15666195718E+03  0.15666195726E+03  0.50400001928E-02 0.  1.
    10030    2    1    2    0    0  0.00000000000E+00  0.00000000000E+00  0.14188455903E+04  0.17321695048E+04  0.99362386450E+03 0.  0.
        5    1    3    3  502    0 -0.18305795833E+02 -0.20492602309E+01 -0.15602767359E+03  0.15718150831E+03  0.46999998093E+01 0.  1.
       -5    1    3    3    0  502  0.18305795833E+02  0.20492602309E+01  0.15748732639E+04  0.15749879965E+04  0.46999998093E+01 0. -1.
</event>
<event>
 5   0  0.5201968E-03  0.1003675E+04  0.7818609E-02  0.9304523E-01
       -1   -1    0    0    0  501  0.00000000000E+00  0.00000000000E+00  0.66993520372E+03  0.66993520374E+03  0.50400001928E-02 0. -1.
        1   -1    0    0  501    0  0.00000000000E+00  0.00000000000E+00 -0.37591812730E+03  0.37591812734E+03  0.50400001928E-02 0.  1.
    10030    2    1    2    0    0  0.00000000000E+00  0.00000000000E+00  0.29401707642E+03  0.10458533311E+04  0.10036748223E+04 0.  0.
        2    1    3    3  502    0  0.23867378160E+00  0.44871879613E+03  0.38115617656E+03  0.58875176934E+03  0.25500000920E-02 0. -1.
       -2    1    3    3    0  502 -0.23867378160E+00 -0.44871879613E+03 -0.87139100136E+02  0.45710156174E+03  0.25500000920E-02 0.  1.
</event>
<event>
 5   0  0.8875655E-03  0.9951569E+03  0.7818609E-02  0.9313873E-01
        2   -1    0    0  501    0  0.00000000000E+00  0.00000000000E+00  0.18569461013E+04  0.18569461013E+04  0.25500000920E-02 0. -1.
       -2   -1    0    0    0  501  0.00000000000E+00  0.00000000000E+00 -0.13332876095E+03  0.13332876097E+03  0.25500000920E-02 0.  1.
    10030    2    1    2    0    0  0.00000000000E+00  0.00000000000E+00  0.17236173404E+04  0.19902748623E+04  0.99515691799E+03 0.  0.
        4    1    3    3  502    0  0.49685671356E+02 -0.13865950729E+03 -0.88725366290E+02  0.17195618170E+03  0.12699999809E+01 0.  1.
       -4    1    3    3    0  502 -0.49685671356E+02  0.13865950729E+03  0.18123427066E+04  0.18183186806E+04  0.12699999809E+01 0. -1.
</event>
<event>
 5   0  0.8907355E-03  0.1013874E+04  0.7818609E-02  0.9293458E-01
       -2   -1    0    0    0  501  0.00000000000E+00  0.00000000000E+00  0.61366358525E+03  0.61366358526E+03  0.25500000920E-02 0.  1.
        2   -1    0    0  501    0  0.00000000000E+00  0.00000000000E+00 -0.41877158225E+03  0.41877158226E+03  0.25500000920E-02 0. -1.
    10030    2    1    2    0    0  0.00000000000E+00  0.00000000000E+00  0.19489200300E+03  0.10324351675E+04  0.10138735041E+04 0.  0.
        5    1    3    3  502    0 -0.28422126627E+03 -0.36689319641E+03 -0.11017500842E+03  0.47702512329E+03  0.46999998093E+01 0. -1.
       -5    1    3    3    0  502  0.28422126627E+03  0.36689319641E+03  0.30506701143E+03  0.55541004423E+03  0.46999998093E+01 0.  1.
</event>
<event>
 5   0  0.5310275E-03  0.7826997E+03  0.7818609E-02  0.9585402E-01
        1   -1    0    0  501    0  0.00000000000E+00  0.00000000000E+00  0.95200347752E+03  0.95200347753E+03  0.50400001928E-02 0. -1.
       -1   -1    0    0    0  501  0.00000000000E+00  0.00000000000E+00 -0.16087620023E+03  0.16087620030E+03  0.50400001928E-02 0.  1.
    10030    2    1    2    0    0  0.00000000000E+00  0.00000000000E+00  0.79112727729E+03  0.11128796778E+04  0.78269969239E+03 0.  0.
        1    1    3    3  502    0 -0.17751830272E+03  0.19150749935E+03 -0.18891722343E+02  0.26181055614E+03  0.50400001928E-02 0. -1.
       -1    1    3    3    0  502  0.17751830272E+03 -0.19150749935E+03  0.81001899963E+03  0.85106912169E+03  0.50400001928E-02 0.  1.
</event>
<event>
 5   0  0.8968798E-03  0.1020473E+04  0.7818609E-02  0.9286371E-01
        2   -1    0    0  501    0  0.00000000000E+00  0.00000000000E+00  0.75245486670E+03  0.75245486671E+03  0.25500000920E-02 0. -1.
       -2   -1    0    0    0  501  0.00000000000E+00  0.00000000000E+00 -0.34598915408E+03  0.34598915409E+03  0.25500000920E-02 0.  1.
    10030    2    1    2    0    0  0.00000000000E+00  0.00000000000E+00  0.40646571262E+03  0.10984440208E+04  0.10204728763E+04 0.  0.
        2    1    3    3  502    0  0.50785671100E+03  0.21419020465E+02  0.15552957505E+03  0.53156999733E+03  0.25500000920E-02 0. -1.
       -2    1    3    3    0  502 -0.50785671100E+03 -0.21419020465E+02  0.25093613756E+03  0.56687402347E+03  0.25500000920E-02 0.  1.
</event>
<event>
 5   0  0.3513625E-03  0.9758844E+03  0.7818609E-02  0.9335397E-01
       -3   -1    0    0    0  501  0.00000000000E+00  0.00000000000E+00  0.15987064559E+03  0.15987067749E+03  0.10100000352E+00 0. -1.
        3   -1    0    0  501    0  0.00000000000E+00  0.00000000000E+00 -0.14892513007E+04  0.14892513041E+04  0.10100000352E+00 0.  1.
    10030    2    1    2    0    0  0.00000000000E+00  0.00000000000E+00 -0.13293806551E+04  0.16491219816E+04  0.97588441122E+03 0.  0.
        5    1    3    3  502    0 -0.17254798298E+03  0.13376800889E+03  0.72681474177E+02  0.23015510709E+03  0.46999998093E+01 0. -1.
       -5    1    3    3    0  502  0.17254798298E+03 -0.13376800889E+03 -0.14020621293E+04  0.14189668745E+04  0.46999998093E+01 0.  1.
</event>
<event>
 5   0  0.5201968E-03  0.9995460E+03  0.7818609E-02  0.9309043E-01
       -1   -1    0    0    0  501  0.00000000000E+00  0.00000000000E+00  0.21128574320E+03  0.21128574326E+03  0.50400001928E-02 0. -1.
        1   -1    0    0  501    0  0.00000000000E+00  0.00000000000E+00 -0.11821577198E+04  0.11821577198E+04  0.50400001928E-02 0.  1.
    10030    2    1    2    0    0  0.00000000000E+00  0.00000000000E+00 -0.97087197655E+03  0.13934434630E+04  0.99954604186E+03 0.  0.
        2    1    3    3  502    0  0.46202261016E+03  0.20858440657E+01 -0.75105720862E+03  0.88179145702E+03  0.25500000920E-02 0.  1.
       -2    1    3    3    0  502 -0.46202261016E+03 -0.20858440657E+01 -0.21981476793E+03  0.51165200601E+03  0.25500000920E-02 0. -1.
</event>
<event>
 5   0  0.9040674E-03  0.9931633E+03  0.7818609E-02  0.9316075E-01
        2   -1    0    0  501    0  0.00000000000E+00  0.00000000000E+00  0.13422221839E+04  0.13422221839E+04  0.25500000920E-02 0. -1.
       -2   -1    0    0    0  501  0.00000000000E+00  0.00000000000E+00 -0.18372021162E+03  0.18372021163E+03  0.25500000920E-02 0.  1.
    10030    2    1    2    0    0  0.00000000000E+00  0.00000000000E+00  0.11585019723E+04  0.15259423956E+04  0.99316331725E+03 0.  0.
        1    1    3    3  502    0  0.35291011056E+03  0.28790052512E+03  0.27520111220E+03  0.53213523721E+03  0.50400001928E-02 0.  1.
       -1    1    3    3    0  502 -0.35291011056E+03 -0.28790052512E+03  0.88330086010E+03  0.99380715835E+03  0.50400001928E-02 0. -1.
</event>
<event>
 5   0  0.5310275E-03  0.1054150E+04  0.7818609E-02  0.9251070E-01
       -1   -1    0    0    0  501  0.00000000000E+00  0.00000000000E+00  0.22128172807E+03  0.22128172812E+03  0.50400001928E-02 0. -1.
        1   -1    0    0  501    0  0.00000000000E+00  0.00000000000E+00 -0.12554504654E+04  0.12554504654E+04  0.50400001928E-02 0.  1.
    10030    2    1    2    0    0  0.00000000000E+00  0.00000000000E+00 -0.10341687373E+04  0.14767321935E+04  0.10541503660E+04 0.  0.
        1    1    3    3  502    0  0.19759345119E+02  0.86162214391E+02 -0.12449917891E+04  0.12481261610E+04  0.50400001928E-02 0.  1.
       -1    1    3    3    0  502 -0.19759345119E+02 -0.86162214391E+02  0.21082305177E+03  0.22860603249E+03  0.50400001928E-02 0. -1.
</event>
<event>
 5   0  0.5189877E-03  0.1004025E+04  0.7818609E-02  0.9304141E-01
       -1   -1    0    0    0  501  0.00000000000E+00  0.00000000000E+00  0.46928979430E+03  0.46928979433E+03  0.50400001928E-02 0. -1.
        1   -1    0    0  501    0  0.00000000000E+00  0.00000000000E+00 -0.53701703091E+03  0.53701703094E+03  0.50400001928E-02 0.  1.
    10030    2    1    2    0    0  0.00000000000E+00  0.00000000000E+00 -0.67727236608E+02  0.10063068253E+04  0.10040251232E+04 0.  0.
        3    1    3    3  502    0  0.24980133584E+03 -0.90060662314E+02  0.39313857007E+03  0.47441498265E+03  0.10100000352E+00 0. -1.
       -3    1    3    3    0  502 -0.24980133584E+03  0.90060662314E+02 -0.46086580668E+03  0.53189184262E+03  0.10100000352E+00 0.  1.
</event>
<event>
 5   0  0.8875655E-03  0.9923655E+03  0.7818609E-02  0.9316958E-01
        2   -1    0    0  501    0  0.00000000000E+00  0.00000000000E+00  0.13264729524E+04  0.13264729524E+04  0.25500000920E-02 0.  1.
       -2   -1    0    0    0  501  0.00000000000E+00  0.00000000000E+00 -0.18560296386E+03  0.18560296388E+03  0.25500000920E-02 0. -1.
    10030    2    1    2    0    0  0.00000000000E+00  0.00000000000E+00  0.11408699885E+04  0.15120759163E+04  0.99236547996E+03 0.  0.
        4    1    3    3  502    0 -0.32639220414E+03 -0.33574272487E+03  0.32033943230E+03  0.56733941606E+03  0.12699999809E+01 0.  1.
       -4    1    3    3    0  502  0.32639220414E+03  0.33574272487E+03  0.82053055622E+03  0.94473650020E+03  0.12699999809E+01 0. -1.
</event>
<event>
 5   0  0.9040674E-03  0.1026400E+04  0.7818609E-02  0.9280055E-01
       -2   -1    0    0    0  501  0.00000000000E+00  0.00000000000E+00  0.54354877260E+03  0.54354877260E+03  0.25500000920E-02 0.  1.
        2   -1    0    0  501    0  0.00000000000E+00  0.00000000000E+00 -0.48454531793E+03  0.48454531793E+03  0.25500000920E-02 0. -1.
    10030    2    1    2    0    0  0.00000000000E+00  0.00000000000E+00  0.59003454670E+02  0.10280940905E+04  0.10263995574E+04 0.  0.
        1    1    3    3  502    0  0.19288899785E+03  0.73807913759E+02  0.50008608369E+03  0.54105440091E+03  0.50400001928E-02 0.  1.
       -1    1    3    3    0  502 -0.19288899785E+03 -0.73807913759E+02 -0.44108262902E+03  0.48703968962E+03  0.50400001928E-02 0. -1.
</event>
<event>
 5   0  0.3513625E-03  0.1004167E+04  0.7818609E-02  0.9303986E-01
       -4   -1    0    0    0  501  0.00000000000E+00  0.00000000000E+00  0.59318068992E+03  0.59318204945E+03  0.12699999809E+01 0. -1.
        4   -1    0    0  501    0  0.00000000000E+00  0.00000000000E+00 -0.42497407107E+03  0.42497596871E+03  0.12699999809E+01 0.  1.
    10030    2    1    2    0    0  0.00000000000E+00  0.00000000000E+00  0.16820661885E+03  0.10181580182E+04  0.10041674578E+04 0.  0.
        4    1    3    3  502    0  0.39306479758E+02 -0.25041312368E+03 -0.35533405940E+03  0.43648097156E+03  0.12699999809E+01 0.  1.
       -4    1    3    3    0  502 -0.39306479758E+02  0.25041312368E+03  0.52354067825E+03  0.58167704660E+03  0.12699999809E+01 0. -1.
</event>
<event>
 5   0  0.5349685E-03  0.9988336E+03  0.7818609E-02  0.9309825E-01
       -1   -1    0    0    0  501  0.00000000000E+00  0.00000000000E+00  0.49164320863E+03  0.49164320866E+03  0.50400001928E-02 0.  1.
        1   -1    0    0  501    0  0.00000000000E+00  0.00000000000E+00 -0.50731329874E+03  0.50731329876E+03  0.50400001928E-02 0. -1.
    10030    2    1    2    0    0  0.00000000000E+00  0.00000000000E+00 -0.15670090102E+02  0.99895650742E+03  0.99883359575E+03 0.  0.
        4    1    3    3  502    0  0.43423310819E+03 -0.91082761122E+02 -0.23712525439E+03  0.50307500513E+03  0.12699999809E+01 0. -1.
       -4    1    3    3    0  502 -0.43423310819E+03  0.91082761122E+02  0.22145516429E+03  0.49588150229E+03  0.12699999809E+01 0.  1.
</event>
<event>
 5   0  0.5072205E-03  0.1018490E+04  0.7818609E-02  0.9288494E-01
       -1   -1    0    0    0  501  0.00000000000E+00  0.00000000000E+00  0.61445105502E+03  0.61445105504E+03  0.50400001928E-02 0.  1.
        1   -1    0    0  501    0  0.00000000000E+00  0.00000000000E+00 -0.42205260578E+03  0.42205260581E+03  0.50400001928E-02 0. -1.
    10030    2    1    2    0    0  0.00000000000E+00  0.00000000000E+00  0.19239844923E+03  0.10365036609E+04  0.10184903906E+04 0.  0.
        5    1    3    3  502    0 -0.42191609697E+03 -0.27889363603E+03  0.35874153887E+02  0.50705413717E+03  0.46999998093E+01 0.  1.
       -5    1    3    3    0  502  0.42191609697E+03  0.27889363603E+03  0.15652429535E+03  0.52944952369E+03  0.46999998093E+01 0. -1.
</event>
<event>
 5   0  0.8968798E-03  0.9720279E+03  0.7818609E-02  0.9339768E-01
       -2   -1    0    0    0  501  0.00000000000E+00  0.00000000000E+00  0.12896639714E+03  0.12896639716E+03  0.25500000920E-02 0.  1.
        2   -1    0    0  501    0  0.00000000000E+00  0.00000000000E+00 -0.18315587710E+04  0.18315587710E+04  0.25500000920E-02 0. -1.
    10030    2    1    2    0    0  0.00000000000E+00  0.00000000000E+00 -0.17025923738E+04  0.19605251681E+04  0.97202785117E+03 0.  0.
        2    1    3    3  502    0  0.46533751844E+03  0.13490757322E+03 -0.92863949678E+03  0.10474303673E+04  0.25500000920E-02 0. -1.
       -2    1    3    3    0  502 -0.46533751844E+03 -0.13490757322E+03 -0.77395287704E+03  0.91309480081E+03  0.25500000920E-02 0.  1.
</event>
<event>
 5   0  0.5349685E-03  0.9980543E+03  0.7818609E-02  0.9310681E-01
       -1   -1    0    0    0  501  0.00000000000E+00  0.00000000000E+00  0.24267657944E+03  0.24267657949E+03  0.50400001928E-02 0.  1.
        1   -1    0    0  501    0  0.00000000000E+00  0.00000000000E+00 -0.10261726632E+04  0.10261726632E+04  0.50400001928E-02 0. -1.
    10030    2    1    2    0    0  0.00000000000E+00  0.00000000000E+00 -0.78349608376E+03  0.12688492427E+04  0.99805425075E+03 0.  0.
        4    1    3    3  502    0 -0.21368028821E+03  0.76623438853E+02 -0.95673064380E+03  0.98329321906E+03  0.12699999809E+01 0. -1.
       -4    1    3    3    0  502  0.21368028821E+03 -0.76623438853E+02  0.17323456004E+03  0.28555602365E+03  0.12699999809E+01 0.  1.
</event>
<event>
 5   0  0.8907355E-03  0.9866026E+03  0.7818609E-02  0.9323362E-01
       -2   -1    0    0    0  501  0.00000000000E+00  0.00000000000E+00  0.74249896126E+03  0.74249896127E+03  0.25500000920E-02 0. -1.
        2   -1    0    0  501    0  0.00000000000E+00  0.00000000000E+00 -0.32773943004E+03  0.32773943005E+03  0.25500000920E-02 0.  1.
    10030    2    1    2    0    0  0.00000000000E+00  0.00000000000E+00  0.41475953123E+03  0.10702383913E+04  0.98660262796E+03 0.  0.
        5    1    3    3  502    0  0.35889880807E+03  0.11889933952E+03 -0.13630399953E+03  0.40192819963E+03  0.46999998093E+01 0.  1.
       -5    1    3    3    0  502 -0.35889880807E+03 -0.11889933952E+03  0.55106353076E+03  0.66831019168E+03  0.46999998093E+01 0. -1.
</event>
<event>
 5   0  0.5072205E-03  0.1027374E+04  0.7818609E-02  0.9279021E-01
       -1   -1    0    0    0  501  0.00000000000E+00  0.00000000000E+00  0.90433773544E+03  0.90433773545E+03  0.50400001928E-02 0.  1.
        1   -1    0    0  501    0  0.00000000000E+00  0.00000000000E+00 -0.29178748333E+03  0.29178748337E+03  0.50400001928E-02 0. -1.
    10030    2    1    2    0    0  0.00000000000E+00  0.00000000000E+00  0.61255025211E+03  0.11961252188E+04  0.10273741907E+04 0.  0.
        5    1    3    3  502    0 -0.14411098199E+03  0.48144349103E+03  0.43001810290E+03  0.66143289078E+03  0.46999998093E+01 0.  1.
       -5    1    3    3    0  502  0.14411098199E+03 -0.48144349103E+03  0.18253214921E+03  0.53469232805E+03  0.46999998093E+01 0. -1.
</event>
<event>
 5   0  0.5310275E-03  0.9794327E+03  0.7818609E-02  0.9331395E-01
        1   -1    0    0  501    0  0.00000000000E+00  0.00000000000E+00  0.37701968481E+03  0.37701968485E+03  0.50400001928E-02 0. -1.
       -1   -1    0    0    0  501  0.00000000000E+00  0.00000000000E+00 -0.63609974565E+03  0.63609974567E+03  0.50400001928E-02 0.  1.
    10030    2    1    2    0    0  0.00000000000E+00  0.00000000000E+00 -0.25908006084E+03  0.10131194305E+04  0.97943274530E+03 0.  0.
        1    1    3    3  502    0 -0.17325643602E+03 -0.70418383378E+02  0.33862538528E+03  0.38683807067E+03  0.50400001928E-02 0. -1.
       -1    1    3    3    0  502  0.17325643602E+03  0.70418383378E+02 -0.59770544612E+03  0.62628135985E+03  0.50400001928E-02 0.  1.
</event>
<event>
 5   0  0.8968798E-03  0.1010535E+04  0.7818609E-02  0.9297066E-01
        2   -1    0    0  501    0  0.00000000000E+00  0.00000000000E+00  0.16776629888E+04  0.16776629888E+04  0.25500000920E-02 0. -1.
       -2   -1    0    0    0  501  0.00000000000E+00  0.00000000000E+00 -0.15217301725E+03  0.15217301727E+03  0.25500000920E-02 0.  1.
    10030    2    1    2    0    0  0.00000000000E+00  0.00000000000E+00  0.15254899716E+04  0.18298360061E+04  0.10105345891E+04 0.  0.
        2    1    3    3  502    0 -0.26641545065E+03  0.15912136842E+03  0.40711831903E+02  0.31297644559E+03  0.25500000920E-02 0.  1.
       -2    1    3    3    0  502  0.26641545065E+03 -0.15912136842E+03  0.14847781397E+04  0.15168595605E+04  0.25500000920E-02 0. -1.
</event>
<event>
 5   0  0.5072205E-03  0.1000645E+04  0.7818609E-02  0.9307837E-01
       -1   -1    0    0    0  501  0.00000000000E+00  0.00000000000E+00  0.39124041215E+03  0.39124041219E+03  0.50400001928E-02 0. -1.
        1   -1    0    0  501    0  0.00000000000E+00  0.00000000000E+00 -0.63981848997E+03  0.63981848999E+03  0.50400001928E-02 0.  1.
    10030    2    1    2    0    0  0.00000000000E+00  0.00000000000E+00 -0.24857807782E+03  0.10310589022E+04  0.10006454912E+04 0.  0.
        5    1    3    3  502    0 -0.34948842352E+03 -0.32599575715E+03 -0.27672244686E+03  0.55227963429E+03  0.46999998093E+01 0. -1.
       -5    1    3    3    0  502  0.34948842352E+03  0.32599575715E+03  0.28144369046E+02  0.47877926789E+03  0.46999998093E+01 0.  1.
</event>
<event>
 5   0  0.9040674E-03  0.9989105E+03  0.7818609E-02  0.9309741E-01
        2   -1    0    0  501    0  0.00000000000E+00  0.00000000000E+00  0.46275105552E+03  0.46275105553E+03  0.25500000920E-02 0. -1.
       -2   -1    0    0    0  501  0.00000000000E+00  0.00000000000E+00 -0.53907072931E+03  0.53907072932E+03  0.25500000920E-02 0.  1.
    10030    2    1    2    0    0  0.00000000000E+00  0.00000000000E+00 -0.76319673790E+02  0.10018217848E+04  0.99891050450E+03 0.  0.
        1    1    3    3  502    0  0.12112496903E+02  0.10257000267E+03  0.45192396679E+03  0.46357587277E+03  0.50400001928E-02 0. -1.
       -1    1    3    3    0  502 -0.12112496903E+02 -0.10257000267E+03 -0.52824364058E+03  0.53824591208E+03  0.50400001928E-02 0.  1.
</event>
<event>
 5   0  0.5310275E-03  0.1193132E+04  0.7818609E-02  0.9118890E-01
       -1   -1    0    0    0  501  0.00000000000E+00  0.00000000000E+00  0.63976070365E+03  0.63976070367E+03  0.50400001928E-02 0.  1.
        1   -1    0    0  501    0  0.00000000000E+00  0.00000000000E+00 -0.55628749317E+03  0.55628749319E+03  0.50400001928E-02 0. -1.
    10030    2    1    2    0    0  0.00000000000E+00  0.00000000000E+00  0.83473210475E+02  0.11960481969E+04  0.11931318085E+04 0.  0.
        1    1    3    3  502    0  0.17626024718E+03  0.24979330312E+03  0.55526458146E+03  0.63386364817E+03  0.50400001928E-02 0.  1.
       -1    1    3    3    0  502 -0.17626024718E+03 -0.24979330312E+03 -0.47179137099E+03  0.56218454869E+03  0.50400001928E-02 0. -1.
</event>
<event>
 5   0  0.5201968E-03  0.9991115E+03  0.7818609E-02  0.9309520E-01
       -1   -1    0    0    0  501  0.00000000000E+00  0.00000000000E+00  0.33446718929E+03  0.33446718932E+03  0.50400001928E-02 0. -1.
        1   -1    0    0  501    0  0.00000000000E+00  0.00000000000E+00 -0.74612982183E+03  0.74612982185E+03  0.50400001928E-02 0.  1.
    10030    2    1    2    0    0  0.00000000000E+00  0.00000000000E+00 -0.41166263255E+03  0.10805970112E+04  0.99911149404E+03 0.  0.
        2    1    3    3  502    0 -0.30439477923E+03  0.35220362196E+02 -0.63254574459E+03  0.70285900047E+03  0.25500000920E-02 0.  1.
       -2    1    3    3    0  502  0.30439477923E+03 -0.35220362196E+02  0.22088311204E+03  0.37773801070E+03  0.25500000920E-02 0. -1.
</event>
<event>
 5   0  0.8875655E-03  0.1005969E+04  0.7818609E-02  0.9302022E-01
       -2   -1    0    0    0  501  0.00000000000E+00  0.00000000000E+00  0.74027055893E+03  0.74027055893E+03  0.25500000920E-02 0.  1.
        2   -1    0    0  501    0  0.00000000000E+00  0.00000000000E+00 -0.34175800657E+03  0.34175800658E+03  0.25500000920E-02 0. -1.
    10030    2    1    2    0    0  0.00000000000E+00  0.00000000000E+00  0.39851255236E+03  0.10820285655E+04  0.10059689668E+04 0.  0.
        4    1    3    3  502    0  0.19072818446E+03  0.73115259937E+02  0.69364859978E+03  0.72309962969E+03  0.12699999809E+01 0.  1.
       -4    1    3    3    0  502 -0.19072818446E+03 -0.73115259937E+02 -0.29513604742E+03  0.35892893582E+03  0.12699999809E+01 0. -1.
</event>
<event>
 5   0  0.8968798E-03  0.1003598E+04  0.7818609E-02  0.9304607E-01
        2   -1    0    0  501    0  0.00000000000E+00  0.00000000000E+00  0.39714185931E+03  0.39714185931E+03  0.25500000920E-02 0.  1.
       -2   -1    0    0    0  501  0.00000000000E+00  0.00000000000E+00 -0.63403623520E+03  0.63403623521E+03  0.25500000920E-02 0. -1.
    10030    2    1    2    0    0  0.00000000000E+00  0.00000000000E+00 -0.23689437590E+03  0.10311780945E+04  0.10035981852E+04 0.  0.
        2    1    3    3  502    0  0.35518555137E+03  0.28600377950E+03 -0.33359933905E+03  0.56501633322E+03  0.25500000920E-02 0. -1.
       -2    1    3    3    0  502 -0.35518555137E+03 -0.28600377950E+03  0.96704963155E+02  0.46616176130E+03  0.25500000920E-02 0.  1.
</event>
<event>
 5   0  0.8875655E-03  0.9457683E+03  0.7818609E-02  0.9370110E-01
       -2   -1    0    0    0  501  0.00000000000E+00  0.00000000000E+00  0.57462651300E+03  0.57462651301E+03  0.25500000920E-02 0. -1.
        2   -1    0    0  501    0  0.00000000000E+00  0.00000000000E+00 -0.38915614929E+03  0.38915614930E+03  0.25500000920E-02 0.  1.
    10030    2    1    2    0    0  0.00000000000E+00  0.00000000000E+00  0.18547036372E+03  0.96378266231E+03  0.94576834603E+03 0.  0.
        4    1    3    3  502    0  0.23752096241E+03 -0.24336682982E+03  0.42758829888E+03  0.54633047478E+03  0.12699999809E+01 0. -1.
       -4    1    3    3    0  502 -0.23752096241E+03  0.24336682982E+03 -0.24211793517E+03  0.41745218752E+03  0.12699999809E+01 0.  1.
</event>
<event>
 5   0  0.5201968E-03  0.9585642E+03  0.7818609E-02  0.9355196E-01
        1   -1    0    0  501    0  0.00000000000E+00  0.00000000000E+00  0.11918579458E+04  0.11918579458E+04  0.50400001928E-02 0. -1.
       -1   -1    0    0    0  501  0.00000000000E+00  0.00000000000E+00 -0.19273380021E+03  0.19273380028E+03  0.50400001928E-02 0.  1.
    10030    2    1    2    0    0  0.00000000000E+00  0.00000000000E+00  0.99912414563E+03  0.13845917461E+04  0.95856415803E+03 0.  0.
        2    1    3    3  502    0 -0.42351360647E+02 -0.38561516822E+03  0.90611227030E+03  0.98566330057E+03  0.25500000920E-02 0. -1.
       -2    1    3    3    0  502  0.42351360647E+02  0.38561516822E+03  0.93011875328E+02  0.39892844555E+03  0.25500000920E-02 0.  1.
</event>
<event>
 5   0  0.9040674E-03  0.9983458E+03  0.7818609E-02  0.9310361E-01
        2   -1    0    0  501    0  0.00000000000E+00  0.00000000000E+00  0.17224232540E+04  0.17224232540E+04  0.25500000920E-02 0.  1.
       -2   -1    0    0    0  501  0.00000000000E+00  0.00000000000E+00 -0.14466453941E+03  0.14466453944E+03  0.25500000920E-02 0. -1.
    10030    2    1    2    0    0  0.00000000000E+00  0.00000000000E+00  0.15777587146E+04  0.18670877935E+04  0.99834576524E+03 0.  0.
        1    1    3    3  502    0  0.26376689941E+03 -0.42153796788E+03  0.87053438475E+03  0.10025454357E+04  0.50400001928E-02 0.  1.
       -1    1    3    3    0  502 -0.26376689941E+03  0.42153796788E+03  0.70722432986E+03  0.86454235776E+03  0.50400001928E-02 0. -1.
</event>
<event>
 5   0  0.5349685E-03  0.8767516E+03  0.7818609E-02  0.9455119E-01
        1   -1    0    0  501    0  0.00000000000E+00  0.00000000000E+00  0.20990921902E+04  0.20990921902E+04  0.50400001928E-02 0. -1.
       -1   -1    0    0    0  501  0.00000000000E+00  0.00000000000E+00 -0.91550698123E+02  0.91550698261E+02  0.50400001928E-02 0.  1.
    10030    2    1    2    0    0  0.00000000000E+00  0.00000000000E+00  0.20075414921E+04  0.21906428885E+04  0.87675163096E+03 0.  0.
        4    1    3    3  502    0  0.35420633587E+03 -0.25282659801E+03  0.87183370128E+03  0.97441214720E+03  0.12699999809E+01 0.  1.
       -4    1    3    3    0  502 -0.35420633587E+03  0.25282659801E+03  0.11357077908E+04  0.12162307413E+04  0.12699999809E+01 0. -1.
</event>
<event>
 5   0  0.5201968E-03  0.1003191E+04  0.7818609E-02  0.9305051E-01
       -1   -1    0    0    0  501  0.00000000000E+00  0.00000000000E+00  0.38532580190E+03  0.38532580193E+03  0.50400001928E-02 0.  1.
        1   -1    0    0  501    0  0.00000000000E+00  0.00000000000E+00 -0.65294934253E+03  0.65294934255E+03  0.50400001928E-02 0. -1.
    10030    2    1    2    0    0  0.00000000000E+00  0.00000000000E+00 -0.26762354063E+03  0.10382751445E+04  0.10031913657E+04 0.  0.
        2    1    3    3  502    0 -0.20134088736E+03  0.45268628561E+03 -0.52744950219E+02  0.49824196520E+03  0.25500000920E-02 0.  1.
       -2    1    3    3    0  502  0.20134088736E+03 -0.45268628561E+03 -0.21487859041E+03  0.54003317928E+03  0.25500000920E-02 0. -1.
</event>
<event>
 5   0  0.5310275E-03  0.1001680E+04  0.7818609E-02  0.9306704E-01
       -1   -1    0    0    0  501  0.00000000000E+00  0.00000000000E+00  0.63460159465E+03  0.63460159467E+03  0.50400001928E-02 0. -1.
        1   -1    0    0  501    0  0.00000000000E+00  0.00000000000E+00 -0.39527284144E+03  0.39527284147E+03  0.50400001928E-02 0.  1.
    10030    2    1    2    0    0  0.00000000000E+00  0.00000000000E+00  0.23932875321E+03  0.10298744361E+04  0.10016801396E+04 0.  0.
        1    1    3    3  502    0 -0.39621265938E+02 -0.18070065832E+02  0.63265142297E+03  0.63414840141E+03  0.50400001928E-02 0. -1.
       -1    1    3    3    0  502  0.39621265938E+02  0.18070065832E+02 -0.39332266976E+03  0.39572603474E+03  0.50400001928E-02 0.  1.
</event>
<event>
 5   0  0.9040674E-03  0.1000771E+04  0.7818609E-02  0.9307699E-01
        2   -1    0    0  501    0  0.00000000000E+00  0.00000000000E+00  0.10469675637E+04  0.10469675637E+04  0.25500000920E-02 0. -1.
       -2   -1    0    0    0  501  0.00000000000E+00  0.00000000000E+00 -0.23915338240E+03  0.23915338242E+03  0.25500000920E-02 0.  1.
    10030    2    1    2    0    0  0.00000000000E+00  0.00000000000E+00  0.80781418126E+03  0.12861209461E+04  0.10007713707E+04 0.  0.
        1    1    3    3  502    0 -0.23062627233E+03  0.40732365193E+02  0.97218762396E+03  0.99999818964E+03  0.50400001928E-02 0. -1.
       -1    1    3    3    0  502  0.23062627233E+03 -0.40732365193E+02 -0.16437344271E+03  0.28612275644E+03  0.50400001928E-02 0.  1.
</event>
<event>
 5   0  0.5189877E-03  0.9461723E+03  0.7818609E-02  0.9369636E-01
        1   -1    0    0  501    0  0.00000000000E+00  0.00000000000E+00  0.26085373411E+03  0.26085373416E+03  0.50400001928E-02 0.  1.
       -1   -1    0    0    0  501  0.00000000000E+00  0.00000000000E+00 -0.85799228683E+03  0.85799228685E+03  0.50400001928E-02 0. -1.
    10030    2    1    2    0    0  0.00000000000E+00  0.00000000000E+00 -0.59713855272E+03  0.11188460210E+04  0.94617227162E+03 0.  0.
        3    1    3    3  502    0 -0.14665465836E+03  0.41931598608E+03 -0.49098230068E+03  0.66211563551E+03  0.10100000352E+00 0. -1.
       -3    1    3    3    0  502  0.14665465836E+03 -0.41931598608E+03 -0.10615625204E+03  0.45673038551E+03  0.10100000352E+00 0.  1.
</event>
<event>
 5   0  0.5072205E-03  0.1007588E+04  0.7818609E-02  0.9300261E-01
        1   -1    0    0  501    0  0.00000000000E+00  0.00000000000E+00  0.59456260509E+03  0.59456260511E+03  0.50400001928E-02 0. -1.
       -1   -1    0    0    0  501  0.00000000000E+00  0.00000000000E+00 -0.42688258174E+03  0.42688258177E+03  0.50400001928E-02 0.  1.
    10030    2    1    2    0    0  0.00000000000E+00  0.00000000000E+00  0.16768002335E+03  0.10214451869E+04  0.10075880505E+04 0.  0.
        5    1    3    3  502    0 -0.35192762375E+03  0.16470310462E+03  0.40888362499E+03  0.56408161981E+03  0.46999998093E+01 0. -1.
       -5    1    3    3    0  502  0.35192762375E+03 -0.16470310462E+03 -0.24120360163E+03  0.45736356706E+03  0.46999998093E+01 0.  1.
</event>
<event>
 5   0  0.5189877E-03  0.9908089E+03  0.7818609E-02  0.9318683E-01
       -1   -1    0    0    0  501  0.00000000000E+00  0.00000000000E+00  0.46215497778E+03  0.46215497780E+03  0.50400001928E-02 0.  1.
        1   -1    0    0  501    0  0.00000000000E+00  0.00000000000E+00 -0.53104606774E+03  0.53104606776E+03  0.50400001928E-02 0. -1.
    10030    2    1    2    0    0  0.00000000000E+00  0.00000000000E+00 -0.68891089962E+02  0.99320104557E+03  0.99080892943E+03 0.  0.
        3    1    3    3  502    0  0.24136736678E+01 -0.42478327628E+03 -0.28997059774E+03  0.51432442619E+03  0.10100000352E+00 0. -1.
       -3    1    3    3    0  502 -0.24136736678E+01  0.42478327628E+03  0.22107950777E+03  0.47887661937E+03  0.10100000352E+00 0.  1.
</event>
<event>
 5   0  0.8968798E-03  0.9982359E+03  0.7818609E-02  0.9310482E-01
        2   -1    0    0  501    0  0.00000000000E+00  0.00000000000E+00  0.92992257838E+03  0.92992257839E+03  0.25500000920E-02 0.  1.
       -2   -1    0    0    0  501  0.00000000000E+00  0.00000000000E+00 -0.26789188747E+03  0.26789188748E+03  0.25500000920E-02 0. -1.
    10030    2    1    2    0    0  0.00000000000E+00  0.00000000000E+00  0.66203069091E+03  0.11978144659E+04  0.99823587340E+03 0.  0.
        2    1    3    3  502    0 -0.45675257053E+03 -0.28660720222E+01  0.89570831343E+02  0.46546112500E+03  0.25500000920E-02 0. -1.
       -2    1    3    3    0  502  0.45675257053E+03  0.28660720222E+01  0.57245985957E+03  0.73235334087E+03  0.25500000920E-02 0.  1.
</event>
<event>
 5   0  0.8968798E-03  0.1003040E+04  0.7818609E-02  0.9305217E-01
       -2   -1    0    0    0  501  0.00000000000E+00  0.00000000000E+00  0.16723730867E+03  0.16723730869E+03  0.25500000920E-02 0.  1.
        2   -1    0    0  501    0  0.00000000000E+00  0.00000000000E+00 -0.15039843049E+04  0.15039843049E+04  0.25500000920E-02 0. -1.
    10030    2    1    2    0    0  0.00000000000E+00  0.00000000000E+00 -0.13367469963E+04  0.16712216136E+04  0.10030399543E+04 0.  0.
        2    1    3    3  502    0  0.33359186089E+02  0.16863227132E+03  0.11661899663E+03  0.20772498311E+03  0.25500000920E-02 0.  1.
       -2    1    3    3    0  502 -0.33359186089E+02 -0.16863227132E+03 -0.14533659929E+04  0.14634966305E+04  0.25500000920E-02 0. -1.
</event>
<event>
 5   0  0.8875655E-03  0.9963805E+03  0.7818609E-02  0.9312524E-01
       -2   -1    0    0    0  501  0.00000000000E+00  0.00000000000E+00  0.24218124132E+03  0.24218124134E+03  0.25500000920E-02 0.  1.
        2   -1    0    0  501    0  0.00000000000E+00  0.00000000000E+00 -0.10248254853E+04  0.10248254853E+04  0.25500000920E-02 0. -1.
    10030    2    1    2    0    0  0.00000000000E+00  0.00000000000E+00 -0.78264424396E+03  0.12670067266E+04  0.99638046583E+03 0.  0.
        4    1    3    3  502    0  0.44103966503E+03 -0.22294480388E+03 -0.47145897583E+03  0.68300479537E+03  0.12699999809E+01 0.  1.
       -4    1    3    3    0  502 -0.44103966503E+03  0.22294480388E+03 -0.31118526812E+03  0.58400193125E+03  0.12699999809E+01 0. -1.
</event>
<event>
 5   0  0.5072205E-03  0.1013736E+04  0.7818609E-02  0.9293607E-01
        1   -1    0    0  501    0  0.00000000000E+00  0.00000000000E+00  0.77348747832E+03  0.77348747834E+03  0.50400001928E-02 0. -1.
       -1   -1    0    0    0  501  0.00000000000E+00  0.00000000000E+00 -0.33215141724E+03  0.33215141727E+03  0.50400001928E-02 0.  1.
    10030    2    1    2    0    0  0.00000000000E+00  0.00000000000E+00  0.44133606109E+03  0.11056388956E+04  0.10137355911E+04 0.  0.
        5    1    3    3  502    0  0.26226573181E+03 -0.21060936497E+03 -0.19285286093E+03  0.38775499309E+03  0.46999998093E+01 0.  1.
       -5    1    3    3    0  502 -0.26226573181E+03  0.21060936497E+03  0.63418892202E+03  0.71788390253E+03  0.46999998093E+01 0. -1.
</event>
<event>
 5   0  0.5189877E-03  0.1005154E+04  0.7818609E-02  0.9302910E-01
        1   -1    0    0  501    0  0.00000000000E+00  0.00000000000E+00  0.70278366087E+03  0.70278366088E+03  0.50400001928E-02 0.  1.
       -1   -1    0    0    0  501  0.00000000000E+00  0.00000000000E+00 -0.35940473526E+03  0.35940473530E+03  0.50400001928E-02 0. -1.
    10030    2    1    2    0    0  0.00000000000E+00  0.00000000000E+00  0.34337892560E+03  0.10621883962E+04  0.10051542680E+04 0.  0.
        3    1    3    3  502    0  0.27445306578E+03  0.79961652960E+02  0.60850282336E+03  0.67230502564E+03  0.10100000352E+00 0.  1.
       -3    1    3    3    0  502 -0.27445306578E+03 -0.79961652960E+02 -0.26512389776E+03  0.38988337054E+03  0.10100000352E+00 0. -1.
</event>
<event>
 5   0  0.5349685E-03  0.1055490E+04  0.7818609E-02  0.9249694E-01
       -1   -1    0    0    0  501  0.00000000000E+00  0.00000000000E+00  0.81203952723E+03  0.81203952724E+03  0.50400001928E-02 0. -1.
        1   -1    0    0  501    0  0.00000000000E+00  0.00000000000E+00 -0.34298179644E+03  0.34298179648E+03  0.50400001928E-02 0.  1.
    10030    2    1    2    0    0  0.00000000000E+00  0.00000000000E+00  0.46905773078E+03  0.11550213237E+04  0.10554899826E+04 0.  0.
        4    1    3    3  502    0 -0.27154562973E+03  0.19436187462E+03 -0.21266269220E+03  0.39590478765E+03  0.12699999809E+01 0.  1.
       -4    1    3    3    0  502  0.27154562973E+03 -0.19436187462E+03  0.68172042298E+03  0.75911653607E+03  0.12699999809E+01 0. -1.
</event>
<event>
 5   0  0.8907355E-03  0.7630661E+03  0.7818609E-02  0.9615072E-01
       -2   -1    0    0    0  501  0.00000000000E+00  0.00000000000E+00  0.17596031289E+03  0.17596031291E+03  0.25500000920E-02 0. -1.
        2   -1    0    0  501    0  0.00000000000E+00  0.00000000000E+00 -0.82727450670E+03  0.82727450670E+03  0.25500000920E-02 0.  1.
    10030    2    1    2    0    0  0.00000000000E+00  0.00000000000E+00 -0.65131419381E+03  0.10032348196E+04  0.76306613358E+03 0.  0.
        5    1    3    3  502    0 -0.15141420704E+03  0.14642766164E+03 -0.74385669474E+03  0.77311848671E+03  0.46999998093E+01 0.  1.
       -5    1    3    3    0  502  0.15141420704E+03 -0.14642766164E+03  0.92542500934E+02  0.23011633290E+03  0.46999998093E+01 0. -1.
</event>
<event>
 5   0  0.5189877E-03  0.1020058E+04  0.7818609E-02  0.9286815E-01
        1   -1    0    0  501    0  0.00000000000E+00  0.00000000000E+00  0.19294518049E+04  0.19294518049E+04  0.50400001928E-02 0. -1.
       -1   -1    0    0    0  501  0.00000000000E+00  0.00000000000E+00 -0.13482036227E+03  0.13482036236E+03  0.50400001928E-02 0.  1.
    10030    2    1    2    0    0  0.00000000000E+00  0.00000000000E+00  0.17946314427E+04  0.20642721673E+04  0.10200576286E+04 0.  0.
        3    1    3    3  502    0  0.19559691045E+03  0.15638787492E+03  0.17964639471E+04  0.18138351751E+04  0.10100000352E+00 0. -1.
       -3    1    3    3    0  502 -0.19559691045E+03 -0.15638787492E+03 -0.18325044787E+01  0.25043699222E+03  0.10100000352E+00 0.  1.
</event>
<event>
 5   0  0.5201968E-03  0.1052466E+04  0.7818609E-02  0.9252802E-01
       -1   -1    0    0    0  501  0.00000000000E+00  0.00000000000E+00  0.60171641287E+03  0.60171641289E+03  0.50400001928E-02 0. -1.
        1   -1    0    0  501    0  0.00000000000E+00  0.00000000000E+00 -0.46021837375E+03  0.46021837377E+03  0.50400001928E-02 0.  1.
    10030    2    1    2    0    0  0.00000000000E+00  0.00000000000E+00  0.14149803912E+03  0.10619347867E+04  0.10524655795E+04 0.  0.
        2    1    3    3  502    0 -0.16491498227E+02  0.41895521662E+03 -0.25011446827E+03  0.48821377520E+03  0.25500000920E-02 0.  1.
       -2    1    3    3    0  502  0.16491498227E+02 -0.41895521662E+03  0.39161250740E+03  0.57372101147E+03  0.25500000920E-02 0. -1.
</event>
<event>
 5   0  0.9243773E-03  0.1072591E+04  0.7818609E-02  0.9232326E-01
       -2   -1    0    0    0  501  0.00000000000E+00  0.00000000000E+00  0.55209309119E+03  0.55209309120E+03  0.25500000920E-02 0. -1.
        2   -1    0    0  501    0  0.00000000000E+00  0.00000000000E+00 -0.52094996883E+03  0.52094996884E+03  0.25500000920E-02 0.  1.
    10030    2    1    2    0    0  0.00000000000E+00  0.00000000000E+00  0.31143122360E+02  0.10730430600E+04  0.10725910286E+04 0.  0.
        3    1    3    3  502    0 -0.51072579286E+03  0.12802462867E+03  0.11750526408E+03  0.53947997027E+03  0.10100000352E+00 0. -1.
       -3    1    3    3    0  502  0.51072579286E+03 -0.12802462867E+03 -0.86362141715E+02  0.53356308977E+03  0.10100000352E+00 0.  1.
</event>
<event>
 5   0  0.5189877E-03  0.9860237E+03  0.7818609E-02  0.9324008E-01
       -1   -1    0    0    0  501  0.00000000000E+00  0.00000000000E+00  0.17352702016E+03  0.17352702024E+03  0.50400001928E-02 0.  1.
        1   -1    0    0  501    0  0.00000000000E+00  0.00000000000E+00 -0.14007078666E+04  0.14007078667E+04  0.50400001928E-02 0. -1.
    10030    2    1    2    0    0  0.00000000000E+00  0.00000000000E+00 -0.12271808465E+04  0.15742348869E+04  0.98602365546E+03 0.  0.
        3    1    3    3  502    0  0.28506800680E+03  0.33374950896E+03 -0.25513713141E+03  0.50768835840E+03  0.10100000352E+00 0.  1.
       -3    1    3    3    0  502 -0.28506800680E+03 -0.33374950896E+03 -0.97204371507E+03  0.10665465285E+04  0.10100000352E+00 0. -1.
</event>
<event>
 5   0  0.5189877E-03  0.1006948E+04  0.7818609E-02  0.9300957E-01
        1   -1    0    0  501    0  0.00000000000E+00  0.00000000000E+00  0.31677003861E+03  0.31677003865E+03  0.50400001928E-02 0. -1.
       -1   -1    0    0    0  501  0.00000000000E+00  0.00000000000E+00 -0.80022068742E+03  0.80022068744E+03  0.50400001928E-02 0.  1.
    10030    2    1    2    0    0  0.00000000000E+00  0.00000000000E+00 -0.48345064881E+03  0.11169907261E+04  0.10069477406E+04 0.  0.
        3    1    3    3  502    0  0.16201512314E+03 -0.42444735372E+03 -0.10300020276E+01  0.45431875079E+03  0.10100000352E+00 0. -1.
       -3    1    3    3    0  502 -0.16201512314E+03  0.42444735372E+03 -0.48242064678E+03  0.66267197530E+03  0.10100000352E+00 0.  1.
</event>
<event>
 5   0  0.5189877E-03  0.9974704E+03  0.7818609E-02  0.9311324E-01
        1   -1    0    0  501    0  0.00000000000E+00  0.00000000000E+00  0.65297941745E+03  0.65297941747E+03  0.50400001928E-02 0. -1.
       -1   -1    0    0    0  501  0.00000000000E+00  0.00000000000E+00 -0.38092597856E+03  0.38092597859E+03  0.50400001928E-02 0.  1.
    10030    2    1    2    0    0  0.00000000000E+00  0.00000000000E+00  0.27205343889E+03  0.10339053961E+04  0.99747044788E+03 0.  0.
        3    1    3    3  502    0 -0.49337857539E+03  0.72898497203E+02  0.13649471015E+03  0.51707584129E+03  0.10100000352E+00 0. -1.
       -3    1    3    3    0  502  0.49337857539E+03 -0.72898497203E+02  0.13555872874E+03  0.51682955477E+03  0.10100000352E+00 0.  1.
</event>
<event>
 5   0  0.3513625E-03  0.9685654E+03  0.7818609E-02  0.9343710E-01
        4   -1    0    0  501    0  0.00000000000E+00  0.00000000000E+00  0.86926792781E+03  0.86926885554E+03  0.12699999809E+01 0.  1.
       -4   -1    0    0    0  501  0.00000000000E+00  0.00000000000E+00 -0.26979885858E+03  0.26980184764E+03  0.12699999809E+01 0. -1.
    10030    2    1    2    0    0  0.00000000000E+00  0.00000000000E+00  0.59946906923E+03  0.11390707032E+04  0.96856538338E+03 0.  0.
        4    1    3    3  502    0 -0.74295057849E+02  0.45259916251E+03  0.48254092340E+03  0.66574252769E+03  0.12699999809E+01 0.  1.
       -4    1    3    3    0  502  0.74295057849E+02 -0.45259916251E+03  0.11692814583E+03  0.47332817549E+03  0.12699999809E+01 0. -1.
</event>
<event>
 5   0  0.5349685E-03  0.9830896E+03  0.7818609E-02  0.9327289E-01
       -1   -1    0    0    0  501  0.00000000000E+00  0.00000000000E+00  0.10092292239E+04  0.10092292239E+04  0.50400001928E-02 0.  1.
        1   -1    0    0  501    0  0.00000000000E+00  0.00000000000E+00 -0.23940676347E+03  0.23940676352E+03  0.50400001928E-02 0. -1.
    10030    2    1    2    0    0  0.00000000000E+00  0.00000000000E+00  0.76982246044E+03  0.12486359875E+04  0.98308962387E+03 0.  0.
        4    1    3    3  502    0 -0.60644647055E+02  0.11927815285E+03 -0.21582674058E+03  0.25394457232E+03  0.12699999809E+01 0. -1.
       -4    1    3    3    0  502  0.60644647055E+02 -0.11927815285E+03  0.98564920102E+03  0.99469141513E+03  0.12699999809E+01 0.  1.
</event>
<event>
 5   0  0.5201968E-03  0.9898818E+03  0.7818609E-02  0.9319712E-01
        1   -1    0    0  501    0  0.00000000000E+00  0.00000000000E+00  0.78960412252E+03  0.78960412254E+03  0.50400001928E-02 0.  1.
       -1   -1    0    0    0  501  0.00000000000E+00  0.00000000000E+00 -0.31023964776E+03  0.31023964780E+03  0.50400001928E-02 0. -1.
    10030    2    1    2    0    0  0.00000000000E+00  0.00000000000E+00  0.47936447476E+03  0.10998437703E+04  0.98988182097E+03 0.  0.
        2    1    3    3  502    0  0.18657448389E+03  0.15006689003E+03  0.72097152042E+03  0.75969075471E+03  0.25500000920E-02 0.  1.
       -2    1    3    3    0  502 -0.18657448389E+03 -0.15006689003E+03 -0.24160704566E+03  0.34015301563E+03  0.25500000920E-02 0. -1.
</event>
<event>
 5   0  0.9243773E-03  0.9837479E+03  0.7818609E-02  0.9326552E-01
       -2   -1    0    0    0  501  0.00000000000E+00  0.00000000000E+00  0.21434355582E+03  0.21434355584E+03  0.25500000920E-02 0.  1.
        2   -1    0    0  501    0  0.00000000000E+00  0.00000000000E+00 -0.11287485136E+04  0.11287485136E+04  0.25500000920E-02 0. -1.
    10030    2    1    2    0    0  0.00000000000E+00  0.00000000000E+00 -0.91440495781E+03  0.13430920695E+04  0.98374787431E+03 0.  0.
        3    1    3    3  502    0  0.47849909886E+03  0.96639410677E+01 -0.61217947221E+03  0.77705758845E+03  0.10100000352E+00 0. -1.
       -3    1    3    3    0  502 -0.47849909886E+03 -0.96639410677E+01 -0.30222548560E+03  0.56603448103E+03  0.10100000352E+00 0.  1.
</event>
<event>
 5   0  0.8875655E-03  0.9994951E+03  0.7818609E-02  0.9309099E-01
        2   -1    0    0  501    0  0.00000000000E+00  0.00000000000E+00  0.10693819473E+04  0.10693819473E+04  0.25500000920E-02 0. -1.
       -2   -1    0    0    0  501  0.00000000000E+00  0.00000000000E+00 -0.23354387796E+03  0.23354387797E+03  0.25500000920E-02 0.  1.
    10030    2    1    2    0    0  0.00000000000E+00  0.00000000000E+00  0.83583806936E+03  0.13029258253E+04  0.99949508655E+03 0.  0.
        4    1    3    3  502    0  0.38182769521E+03  0.31851816283E+03  0.48309543598E+03  0.69327413196E+03  0.12699999809E+01 0. -1.
       -4    1    3    3    0  502 -0.38182769521E+03 -0.31851816283E+03  0.35274263339E+03  0.60965169334E+03  0.12699999809E+01 0.  1.
</event>
<event>
 5   0  0.8875655E-03  0.1012052E+04  0.7818609E-02  0.9295424E-01
       -2   -1    0    0    0  501  0.00000000000E+00  0.00000000000E+00  0.33384550395E+03  0.33384550396E+03  0.25500000920E-02 0. -1.
        2   -1    0    0  501    0  0.00000000000E+00  0.00000000000E+00 -0.76700862098E+03  0.76700862099E+03  0.25500000920E-02 0.  1.
    10030    2    1    2    0    0  0.00000000000E+00  0.00000000000E+00 -0.43316311703E+03  0.11008541249E+04  0.10120521323E+04 0.  0.
        4    1    3    3  502    0  0.24336581165E+03 -0.97499758703E+02  0.25420908935E+03  0.36518077063E+03  0.12699999809E+01 0. -1.
       -4    1    3    3    0  502 -0.24336581165E+03  0.97499758703E+02 -0.68737220639E+03  0.73567335431E+03  0.12699999809E+01 0.  1.
</event>
<event>
 5   0  0.5072205E-03  0.9913040E+03  0.7818609E-02  0.9318134E-01
        1   -1    0    0  501    0  0.00000000000E+00  0.00000000000E+00  0.15809136008E+04  0.15809136008E+04  0.50400001928E-02 0. -1.
       -1   -1    0    0    0  501  0.00000000000E+00  0.00000000000E+00 -0.15539805459E+03  0.15539805467E+03  0.50400001928E-02 0.  1.
    10030    2    1    2    0    0  0.00000000000E+00  0.00000000000E+00  0.14255155462E+04  0.17363116555E+04  0.99130398591E+03 0.  0.
        5    1    3    3  502    0  0.31951761734E+03  0.33186398408E+03  0.10329770094E+04  0.11310564988E+04  0.46999998093E+01 0. -1.
       -5    1    3    3    0  502 -0.31951761734E+03 -0.33186398408E+03  0.39253853683E+03  0.60525515662E+03  0.46999998093E+01 0.  1.
</event>
<event>
 5   0  0.5189877E-03  0.1009141E+04  0.7818609E-02  0.9298575E-01
       -1   -1    0    0    0  501  0.00000000000E+00  0.00000000000E+00  0.28907064954E+03  0.28907064958E+03  0.50400001928E-02 0.  1.
        1   -1    0    0  501    0  0.00000000000E+00  0.00000000000E+00 -0.88072397862E+03  0.88072397863E+03  0.50400001928E-02 0. -1.
    10030    2    1    2    0    0  0.00000000000E+00  0.00000000000E+00 -0.59165332907E+03  0.11697946282E+04  0.10091411251E+04 0.  0.
        3    1    3    3  502    0 -0.48805742638E+03  0.56034967474E+02 -0.16238550666E+03  0.51740606104E+03  0.10100000352E+00 0.  1.
       -3    1    3    3    0  502  0.48805742638E+03 -0.56034967474E+02 -0.42926782242E+03  0.65238856718E+03  0.10100000352E+00 0. -1.
</event>
<event>
 5   0  0.8875655E-03  0.9929697E+03  0.7818609E-02  0.9316289E-01
        2   -1    0    0  501    0  0.00000000000E+00  0.00000000000E+00  0.90806123598E+03  0.90806123598E+03  0.25500000920E-02 0.  1.
       -2   -1    0    0    0  501  0.00000000000E+00  0.00000000000E+00 -0.27145438209E+03  0.27145438210E+03  0.25500000920E-02 0. -1.
    10030    2    1    2    0    0  0.00000000000E+00  0.00000000000E+00  0.63660685389E+03  0.11795156181E+04  0.99296969081E+03 0.  0.
        4    1    3    3  502    0  0.18485363009E+02 -0.37836387874E+02  0.90593411162E+03  0.90691318679E+03  0.12699999809E+01 0.  1.
       -4    1    3    3    0  502 -0.18485363009E+02  0.37836387874E+02 -0.26932725772E+03  0.27260243129E+03  0.12699999809E+01 0. -1.
</event>
<event>
 5   0  0.8907355E-03  0.1004728E+04  0.7818609E-02  0.9303374E-01
       -2   -1    0    0    0  501  0.00000000000E+00  0.00000000000E+00  0.40883693955E+03  0.40883693956E+03  0.25500000920E-02 0.  1.
        2   -1    0    0  501    0  0.00000000000E+00  0.00000000000E+00 -0.61728656611E+03  0.61728656612E+03  0.25500000920E-02 0. -1.
    10030    2    1    2    0    0  0.00000000000E+00  0.00000000000E+00 -0.20844962656E+03  0.10261235057E+04  0.10047279244E+04 0.  0.
        5    1    3    3  502    0 -0.18894184844E+03  0.41362537140E+03 -0.32222400899E+03  0.55734672505E+03  0.46999998093E+01 0. -1.
       -5    1    3    3    0  502  0.18894184844E+03 -0.41362537140E+03  0.11377438242E+03  0.46877678063E+03  0.46999998093E+01 0.  1.
</event>
<event>
 5   0  0.5072205E-03  0.9863187E+03  0.7818609E-02  0.9323679E-01
       -1   -1    0    0    0  501  0.00000000000E+00  0.00000000000E+00  0.81710171792E+03  0.81710171794E+03  0.50400001928E-02 0.  1.
        1   -1    0    0  501    0  0.00000000000E+00  0.00000000000E+00 -0.29764488356E+03  0.29764488360E+03  0.50400001928E-02 0. -1.
    10030    2    1    2    0    0  0.00000000000E+00  0.00000000000E+00  0.51945683436E+03  0.11147466015E+04  0.98631870248E+03 0.  0.
        5    1    3    3  502    0 -0.41605821309E+03 -0.10716334318E+03  0.53331294220E+03  0.68485998797E+03  0.46999998093E+01 0.  1.
       -5    1    3    3    0  502  0.41605821309E+03  0.10716334318E+03 -0.13856107833E+02  0.42988661357E+03  0.46999998093E+01 0. -1.
</event>
<event>
 5   0  0.5189877E-03  0.1033486E+04  0.7818609E-02  0.9272562E-01
       -1   -1    0    0    0  501  0.00000000000E+00  0.00000000000E+00  0.27687265635E+03  0.27687265639E+03  0.50400001928E-02 0.  1.
        1   -1    0    0  501    0  0.00000000000E+00  0.00000000000E+00 -0.96442622716E+03  0.96442622717E+03  0.50400001928E-02 0. -1.
    10030    2    1    2    0    0  0.00000000000E+00  0.00000000000E+00 -0.68755357081E+03  0.12412988836E+04  0.10334858517E+04 0.  0.
        3    1    3    3  502    0  0.27546083568E+03  0.18391301469E+03  0.13261535516E+03  0.35677655695E+03  0.10100000352E+00 0. -1.
       -3    1    3    3    0  502 -0.27546083568E+03 -0.18391301469E+03 -0.82016892597E+03  0.88452232662E+03  0.10100000352E+00 0.  1.
</event>
<event>
 5   0  0.8968798E-03  0.1016608E+04  0.7818609E-02  0.9290515E-01
       -2   -1    0    0    0  501  0.00000000000E+00  0.00000000000E+00  0.28124003478E+03  0.28124003479E+03  0.25500000920E-02 0.  1.
        2   -1    0    0  501    0  0.00000000000E+00  0.00000000000E+00 -0.91869207401E+03  0.91869207402E+03  0.25500000920E-02 0. -1.
    10030    2    1    2    0    0  0.00000000000E+00  0.00000000000E+00 -0.63745203923E+03  0.11999321088E+04  0.10166080678E+04 0.  0.
        2    1    3    3  502    0  0.26589981116E+03  0.25107229719E+03 -0.73542229386E+03  0.82133181986E+03  0.25500000920E-02 0. -1.
       -2    1    3    3    0  502 -0.26589981116E+03 -0.25107229719E+03  0.97970254632E+02  0.37860028895E+03  0.25500000920E-02 0.  1.
</event>
<event>
 5   0  0.8907355E-03  0.1012007E+04  0.7818609E-02  0.9295473E-01
        2   -1    0    0  501    0  0.00000000000E+00  0.00000000000E+00  0.48651332781E+03  0.48651332782E+03  0.25500000920E-02 0.  1.
       -2   -1    0    0    0  501  0.00000000000E+00  0.00000000000E+00 -0.52627459480E+03  0.52627459481E+03  0.25500000920E-02 0. -1.
    10030    2    1    2    0    0  0.00000000000E+00  0.00000000000E+00 -0.39761266990E+02  0.10127879226E+04  0.10120071234E+04 0.  0.
        5    1    3    3  502    0 -0.44548305330E+03 -0.22816488561E+03 -0.94121078552E+02  0.50930858350E+03  0.46999998093E+01 0. -1.
       -5    1    3    3    0  502  0.44548305330E+03  0.22816488561E+03  0.54359811562E+02  0.50347933912E+03  0.46999998093E+01 0.  1.
</event>
<event>
 5   0  0.9040674E-03  0.9898936E+03  0.7818609E-02  0.9319699E-01
        2   -1    0    0  501    0  0.00000000000E+00  0.00000000000E+00  0.94036454709E+03  0.94036454709E+03  0.25500000920E-02 0. -1.
       -2   -1    0    0    0  501  0.00000000000E+00  0.00000000000E+00 -0.26050783736E+03  0.26050783738E+03  0.25500000920E-02 0.  1.
    10030    2    1    2    0    0  0.00000000000E+00  0.00000000000E+00  0.67985670972E+03  0.12008723845E+04  0.98989359934E+03 0.  0.
        1    1    3    3  502    0 -0.48498793038E+03  0.71379154627E+02  0.42277793652E+03  0.64734029688E+03  0.50400001928E-02 0.  1.
       -1    1    3    3    0  502  0.48498793038E+03 -0.71379154627E+02  0.25707877321E+03  0.55353208759E+03  0.50400001928E-02 0. -1.
</event>
<event>
 5   0  0.8875655E-03  0.9958558E+03  0.7818609E-02  0.9313102E-01
        2   -1    0    0  501    0  0.00000000000E+00  0.00000000000E+00  0.49179673569E+03  0.49179673570E+03  0.25500000920E-02 0. -1.
       -2   -1    0    0    0  501  0.00000000000E+00  0.00000000000E+00 -0.50413553217E+03  0.50413553217E+03  0.25500000920E-02 0.  1.
    10030    2    1    2    0    0  0.00000000000E+00  0.00000000000E+00 -0.12338796475E+02  0.99593226787E+03  0.99585583108E+03 0.  0.
        4    1    3    3  502    0 -0.12541715631E+03 -0.47597189999E+03  0.69015381789E+02  0.49703465523E+03  0.12699999809E+01 0. -1.
       -4    1    3    3    0  502  0.12541715631E+03  0.47597189999E+03 -0.81354178265E+02  0.49889761264E+03  0.12699999809E+01 0.  1.
</event>
<event>
 5   0  0.8907355E-03  0.9882844E+03  0.7818609E-02  0.9321488E-01
        2   -1    0    0  501    0  0.00000000000E+00  0.00000000000E+00  0.19022243913E+04  0.19022243913E+04  0.25500000920E-02 0.  1.
       -2   -1    0    0    0  501  0.00000000000E+00  0.00000000000E+00 -0.12836366258E+03  0.12836366260E+03  0.25500000920E-02 0. -1.
    10030    2    1    2    0    0  0.00000000000E+00  0.00000000000E+00  0.17738607287E+04  0.20305880539E+04  0.98828435166E+03 0.  0.
        5    1    3    3  502    0  0.24061716735E+03 -0.28226794342E+03  0.15577148916E+04  0.16012712408E+04  0.46999998093E+01 0.  1.
       -5    1    3    3    0  502 -0.24061716735E+03  0.28226794342E+03  0.21614583711E+03  0.42931681309E+03  0.46999998093E+01 0. -1.
</event>
<event>
 5   0  0.9243773E-03  0.1042672E+04  0.7818609E-02  0.9262942E-01
       -2   -1    0    0    0  501  0.00000000000E+00  0.00000000000E+00  0.20762558308E+03  0.20762558310E+03  0.25500000920E-02 0. -1.
        2   -1    0    0  501    0  0.00000000000E+00  0.00000000000E+00 -0.13090456913E+04  0.13090456913E+04  0.25500000920E-02 0.  1.
    10030    2    1    2    0    0  0.00000000000E+00  0.00000000000E+00 -0.11014201083E+04  0.15166712744E+04  0.10426722878E+04 0.  0.
        3    1    3    3  502    0  0.12069114347E+00  0.51457797286E+03 -0.42900199741E+03  0.66995016882E+03  0.10100000352E+00 0.  1.
       -3    1    3    3    0  502 -0.12069114347E+00 -0.51457797286E+03 -0.67241811085E+03  0.84672110563E+03  0.10100000352E+00 0. -1.
</event>
<event>
 5   0  0.5201968E-03  0.1008232E+04  0.7818609E-02  0.9299562E-01
        1   -1    0    0  501    0  0.00000000000E+00  0.00000000000E+00  0.24837694663E+03  0.24837694668E+03  0.50400001928E-02 0.  1.
       -1   -1    0    0    0  501  0.00000000000E+00  0.00000000000E+00 -0.10231746775E+04  0.10231746775E+04  0.50400001928E-02 0. -1.
    10030    2    1    2    0    0  0.00000000000E+00  0.00000000000E+00 -0.77479773083E+03  0.12715516242E+04  0.10082321207E+04 0.  0.
        2    1    3    3  502    0 -0.21133989717E+03 -0.52085640843E+02 -0.96085742736E+03  0.98520275164E+03  0.25500000920E-02 0. -1.
       -2    1    3    3    0  502  0.21133989717E+03  0.52085640843E+02  0.18605969653E+03  0.28634887252E+03  0.25500000920E-02 0.  1.
</event>
<event>
 5   0  0.8907355E-03  0.1022885E+04  0.7818609E-02  0.9283795E-01
        2   -1    0    0  501    0  0.00000000000E+00  0.00000000000E+00  0.16941635598E+04  0.16941635598E+04  0.25500000920E-02 0.  1.
       -2   -1    0    0    0  501  0.00000000000E+00  0.00000000000E+00 -0.15439673137E+03  0.15439673139E+03  0.25500000920E-02 0. -1.
    10030    2    1    2    0    0  0.00000000000E+00  0.00000000000E+00  0.15397668284E+04  0.18485602912E+04  0.10228847756E+04 0.  0.
        5    1    3    3  502    0  0.34291747171E+03 -0.37216682963E+03  0.90330694544E+03  0.10354158919E+04  0.46999998093E+01 0. -1.
       -5    1    3    3    0  502 -0.34291747171E+03  0.37216682963E+03  0.63645988296E+03  0.81314439929E+03  0.46999998093E+01 0.  1.
</event>
<event>
 5   0  0.5072205E-03  0.9882006E+03  0.7818609E-02  0.9321582E-01
        1   -1    0    0  501    0  0.00000000000E+00  0.00000000000E+00  0.58857802100E+03  0.58857802103E+03  0.50400001928E-02 0. -1.
       -1   -1    0    0    0  501  0.00000000000E+00  0.00000000000E+00 -0.41478797988E+03  0.41478797991E+03  0.50400001928E-02 0.  1.
    10030    2    1    2    0    0  0.00000000000E+00  0.00000000000E+00  0.17379004113E+03  0.10033660009E+04  0.98820056337E+03 0.  0.
        5    1    3    3  502    0 -0.32326942452E+03  0.24485881152E+03  0.37345674866E+03  0.55131750519E+03  0.46999998093E+01 0. -1.
       -5    1    3    3    0  502  0.32326942452E+03 -0.24485881152E+03 -0.19966670753E+03  0.45204849575E+03  0.46999998093E+01 0.  1.
</event>
<event>
 5   0  0.5072205E-03  0.1016125E+04  0.7818609E-02  0.9291034E-01
       -1   -1    0    0    0  501  0.00000000000E+00  0.00000000000E+00  0.27661093662E+03  0.27661093667E+03  0.50400001928E-02 0. -1.
        1   -1    0    0  501    0  0.00000000000E+00  0.00000000000E+00 -0.93317909074E+03  0.93317909076E+03  0.50400001928E-02 0.  1.
    10030    2    1    2    0    0  0.00000000000E+00  0.00000000000E+00 -0.65656815412E+03  0.12097900274E+04  0.10161250757E+04 0.  0.
        5    1    3    3  502    0 -0.29900843983E+03  0.24970436440E+03 -0.71654683031E+03  0.81561005801E+03  0.46999998093E+01 0.  1.
       -5    1    3    3    0  502  0.29900843983E+03 -0.24970436440E+03  0.59978676190E+02  0.39417996941E+03  0.46999998093E+01 0. -1.
</event>
<event>
 5   0  0.5072205E-03  0.1050930E+04  0.7818609E-02  0.9254384E-01
       -1   -1    0    0    0  501  0.00000000000E+00  0.00000000000E+00  0.15160662394E+03  0.15160662402E+03  0.50400001928E-02 0. -1.
        1   -1    0    0  501    0  0.00000000000E+00  0.00000000000E+00 -0.18212497545E+04  0.18212497545E+04  0.50400001928E-02 0.  1.
    10030    2    1    2    0    0  0.00000000000E+00  0.00000000000E+00 -0.16696431305E+04  0.19728563785E+04  0.10509301151E+04 0.  0.
        5    1    3    3  502    0  0.14300868858E+02 -0.25407686383E+03  0.28165189529E+02  0.25607603458E+03  0.46999998093E+01 0. -1.
       -5    1    3    3    0  502 -0.14300868858E+02  0.25407686383E+03 -0.16978083201E+04  0.17167803439E+04  0.46999998093E+01 0.  1.
</event>
<event>
 5   0  0.5349685E-03  0.9954337E+03  0.7818609E-02  0.9313567E-01
       -1   -1    0    0    0  501  0.00000000000E+00  0.00000000000E+00  0.39216966561E+03  0.39216966565E+03  0.50400001928E-02 0. -1.
        1   -1    0    0  501    0  0.00000000000E+00  0.00000000000E+00 -0.63167058788E+03  0.63167058790E+03  0.50400001928E-02 0.  1.
    10030    2    1    2    0    0  0.00000000000E+00  0.00000000000E+00 -0.23950092226E+03  0.10238402535E+04  0.99543366078E+03 0.  0.
        4    1    3    3  502    0 -0.27220371094E+03 -0.15327650244E+03 -0.51827617199E+03  0.60514489984E+03  0.12699999809E+01 0.  1.
       -4    1    3    3    0  502  0.27220371094E+03  0.15327650244E+03  0.27877524972E+03  0.41869535370E+03  0.12699999809E+01 0. -1.
</event>
<event>
 5   0  0.9243773E-03  0.1000967E+04  0.7818609E-02  0.9307485E-01
        2   -1    0    0  501    0  0.00000000000E+00  0.00000000000E+00  0.33959969704E+03  0.33959969705E+03  0.25500000920E-02 0.  1.
       -2   -1    0    0    0  501  0.00000000000E+00  0.00000000000E+00 -0.73758518218E+03  0.73758518219E+03  0.25500000920E-02 0. -1.
    10030    2    1    2    0    0  0.00000000000E+00  0.00000000000E+00 -0.39798548514E+03  0.10771848792E+04  0.10009669414E+04 0.  0.
        3    1    3    3  502    0  0.24867934464E+02  0.26683195756E+03 -0.65386709976E+03  0.70665401866E+03  0.10100000352E+00 0. -1.
       -3    1    3    3    0  502 -0.24867934464E+02 -0.26683195756E+03  0.25588161462E+03  0.37053086058E+03  0.10100000352E+00 0.  1.
</event>
<event>
 5   0  0.3513625E-03  0.9832723E+03  0.7818609E-02  0.9327084E-01
        4   -1    0    0  501    0  0.00000000000E+00  0.00000000000E+00  0.22887980183E+03  0.22888332526E+03  0.12699999809E+01 0. -1.
       -4   -1    0    0    0  501  0.00000000000E+00  0.00000000000E+00 -0.10560275244E+04  0.10560282880E+04  0.12699999809E+01 0.  1.
    10030    2    1    2    0    0  0.00000000000E+00  0.00000000000E+00 -0.82714772254E+03  0.12849116133E+04  0.98327234227E+03 0.  0.
        2    1    3    3  502    0  0.95066241434E+02 -0.20078044055E+03 -0.98670237630E+03  0.10114009862E+04  0.25500000920E-02 0.  1.
       -2    1    3    3    0  502 -0.95066241434E+02  0.20078044055E+03  0.15955465376E+03  0.27351062705E+03  0.25500000920E-02 0. -1.
</event>
<event>
 5   0  0.5349685E-03  0.9925198E+03  0.7818609E-02  0.9316787E-01
        1   -1    0    0  501    0  0.00000000000E+00  0.00000000000E+00  0.33042520557E+03  0.33042520561E+03  0.50400001928E-02 0. -1.
       -1   -1    0    0    0  501  0.00000000000E+00  0.00000000000E+00 -0.74532418186E+03  0.74532418188E+03  0.50400001928E-02 0.  1.
    10030    2    1    2    0    0  0.00000000000E+00  0.00000000000E+00 -0.41489897629E+03  0.10757493875E+04  0.99251981549E+03 0.  0.
        4    1    3    3  502    0 -0.20113491118E+03  0.13953852940E+03 -0.67532680759E+03  0.71832733739E+03  0.12699999809E+01 0.  1.
       -4    1    3    3    0  502  0.20113491118E+03 -0.13953852940E+03  0.26042783130E+03  0.35742205010E+03  0.12699999809E+01 0. -1.
</event>
<event>
 5   0  0.8968798E-03  0.1017256E+04  0.7818609E-02  0.9289819E-01
        2   -1    0    0  501    0  0.00000000000E+00  0.00000000000E+00  0.15178636420E+04  0.15178636420E+04  0.25500000920E-02 0. -1.
       -2   -1    0    0    0  501  0.00000000000E+00  0.00000000000E+00 -0.17043851409E+03  0.17043851411E+03  0.25500000920E-02 0.  1.
    10030    2    1    2    0    0  0.00000000000E+00  0.00000000000E+00  0.13474251279E+04  0.16883021561E+04  0.10172559634E+04 0.  0.
        2    1    3    3  502    0  0.13960786389E+03 -0.38062967988E+03  0.11834564414E+04  0.12509750028E+04  0.25500000920E-02 0. -1.
       -2    1    3    3    0  502 -0.13960786389E+03  0.38062967988E+03  0.16396868646E+03  0.43732715330E+03  0.25500000920E-02 0.  1.
</event>
<event>
 5   0  0.8968798E-03  0.1038533E+04  0.7818609E-02  0.9267264E-01
       -2   -1    0    0    0  501  0.00000000000E+00  0.00000000000E+00  0.21909670383E+03  0.21909670384E+03  0.25500000920E-02 0. -1.
        2   -1    0    0  501    0  0.00000000000E+00  0.00000000000E+00 -0.12306786312E+04  0.12306786312E+04  0.25500000920E-02 0.  1.
    10030    2    1    2    0    0  0.00000000000E+00  0.00000000000E+00 -0.10115819273E+04  0.14497753350E+04  0.10385328720E+04 0.  0.
        2    1    3    3  502    0  0.22560599428E+03 -0.45628316857E+03 -0.64914457278E+03  0.82491276567E+03  0.25500000920E-02 0. -1.
       -2    1    3    3    0  502 -0.22560599428E+03  0.45628316857E+03 -0.36243735455E+03  0.62486256934E+03  0.25500000920E-02 0.  1.
</event>
<event>
 5   0  0.5349685E-03  0.1016844E+04  0.7818609E-02  0.9290261E-01
        1   -1    0    0  501    0  0.00000000000E+00  0.00000000000E+00  0.57954091640E+03  0.57954091643E+03  0.50400001928E-02 0.  1.
       -1   -1    0    0    0  501  0.00000000000E+00  0.00000000000E+00 -0.44603077167E+03  0.44603077170E+03  0.50400001928E-02 0. -1.
    10030    2    1    2    0    0  0.00000000000E+00  0.00000000000E+00  0.13351014473E+03  0.10255716881E+04  0.10168442992E+04 0.  0.
        4    1    3    3  502    0 -0.65416866918E+02  0.36975307994E+03  0.41247213890E+03  0.55779170384E+03  0.12699999809E+01 0.  1.
       -4    1    3    3    0  502  0.65416866918E+02 -0.36975307994E+03 -0.27896199417E+03  0.46777998429E+03  0.12699999809E+01 0. -1.
</event>
<event>
 5   0  0.8907355E-03  0.9978240E+03  0.7818609E-02  0.9310935E-01
       -2   -1    0    0    0  501  0.00000000000E+00  0.00000000000E+00  0.19861815569E+03  0.19861815571E+03  0.25500000920E-02 0. -1.
        2   -1    0    0  501    0  0.00000000000E+00  0.00000000000E+00 -0.12532246633E+04  0.12532246633E+04  0.25500000920E-02 0.  1.
    10030    2    1    2    0    0  0.00000000000E+00  0.00000000000E+00 -0.10546065076E+04  0.14518428190E+04  0.99782397505E+03 0.  0.
        5    1    3    3  502    0  0.38451355077E+03 -0.88294648894E+02 -0.97160415912E+03  0.10486578793E+04  0.46999998093E+01 0.  1.
       -5    1    3    3    0  502 -0.38451355077E+03  0.88294648894E+02 -0.83002348448E+02  0.40318493969E+03  0.46999998093E+01 0. -1.
</event>
<event>
 5   0  0.5189877E-03  0.9501826E+03  0.7818609E-02  0.9364937E-01
       -1   -1    0    0    0  501  0.00000000000E+00  0.00000000000E+00  0.76201525144E+03  0.76201525145E+03  0.50400001928E-02 0.  1.
        1   -1    0    0  501    0  0.00000000000E+00  0.00000000000E+00 -0.29620370117E+03  0.29620370121E+03  0.50400001928E-02 0. -1.
    10030    2    1    2    0    0  0.00000000000E+00  0.00000000000E+00  0.46581155027E+03  0.10582189527E+04  0.95018258846E+03 0.  0.
        3    1    3    3  502    0  0.14810488828E+03  0.38920945895E+03 -0.21770718909E+02  0.41700483843E+03  0.10100000352E+00 0. -1.
       -3    1    3    3    0  502 -0.14810488828E+03 -0.38920945895E+03  0.48758226918E+03  0.64121411423E+03  0.10100000352E+00 0.  1.
</event>
<event>
 5   0  0.8875655E-03  0.9730755E+03  0.7818609E-02  0.9338578E-01
       -2   -1    0    0    0  501  0.00000000000E+00  0.00000000000E+00  0.27803199340E+03  0.27803199341E+03  0.25500000920E-02 0.  1.
        2   -1    0    0  501    0  0.00000000000E+00  0.00000000000E+00 -0.85140907064E+03  0.85140907065E+03  0.25500000920E-02 0. -1.
    10030    2    1    2    0    0  0.00000000000E+00  0.00000000000E+00 -0.57337707724E+03  0.11294410641E+04  0.97307545672E+03 0.  0.
        4    1    3    3  502    0  0.28676001939E+03 -0.38882330337E+03 -0.21998681781E+03  0.53085843958E+03  0.12699999809E+01 0. -1.
       -4    1    3    3    0  502 -0.28676001939E+03  0.38882330337E+03 -0.35339025944E+03  0.59858262448E+03  0.12699999809E+01 0.  1.
</event>
<event>
 5   0  0.3513625E-03  0.9947956E+03  0.7818609E-02  0.9314271E-01
        3   -1    0    0  501    0  0.00000000000E+00  0.00000000000E+00  0.10742684634E+04  0.10742684682E+04  0.10100000352E+00 0.  1.
       -3   -1    0    0    0  501  0.00000000000E+00  0.00000000000E+00 -0.23030046930E+03  0.23030049145E+03  0.10100000352E+00 0. -1.
    10030    2    1    2    0    0  0.00000000000E+00  0.00000000000E+00  0.84396799410E+03  0.13045689596E+04  0.99479555452E+03 0.  0.
        2    1    3    3  502    0 -0.36211742240E+03  0.33509350496E+03  0.50479792470E+03  0.70585949697E+03  0.25500000920E-02 0. -1.
       -2    1    3    3    0  502  0.36211742240E+03 -0.33509350496E+03  0.33917006940E+03  0.59870946264E+03  0.25500000920E-02 0.  1.
</event>
<event>
 5   0  0.3513625E-03  0.9543322E+03  0.7818609E-02  0.9360101E-01
        4   -1    0    0  501    0  0.00000000000E+00  0.00000000000E+00  0.65246835824E+03  0.65246959424E+03  0.12699999809E+01 0.  1.
       -4   -1    0    0    0  501  0.00000000000E+00  0.00000000000E+00 -0.34896050572E+03  0.34896281672E+03  0.12699999809E+01 0. -1.
    10030    2    1    2    0    0  0.00000000000E+00  0.00000000000E+00  0.30350785252E+03  0.10014324110E+04  0.95433215244E+03 0.  0.
        2    1    3    3  502    0  0.23775969635E+03 -0.39232297647E+03  0.28953725672E+03  0.54247471288E+03  0.25500000920E-02 0.  1.
       -2    1    3    3    0  502 -0.23775969635E+03  0.39232297647E+03  0.13970595797E+02  0.45895769808E+03  0.25500000920E-02 0. -1.
</event>
<event>
 5   0  0.5310275E-03  0.9369453E+03  0.7818609E-02  0.9380541E-01
       -1   -1    0    0    0  501  0.00000000000E+00  0.00000000000E+00  0.57821796349E+03  0.57821796351E+03  0.50400001928E-02 0. -1.
        1   -1    0    0  501    0  0.00000000000E+00  0.00000000000E+00 -0.37955692414E+03  0.37955692417E+03  0.50400001928E-02 0.  1.
    10030    2    1    2    0    0  0.00000000000E+00  0.00000000000E+00  0.19866103935E+03  0.95777488768E+03  0.93694531692E+03 0.  0.
        1    1    3    3  502    0  0.27246891638E+03  0.30601185567E+03 -0.13283995253E+03  0.43073079669E+03  0.50400001928E-02 0.  1.
       -1    1    3    3    0  502 -0.27246891638E+03 -0.30601185567E+03  0.33150099188E+03  0.52704409099E+03  0.50400001928E-02 0. -1.
</event>
<event>
 5   0  0.5310275E-03  0.1004743E+04  0.7818609E-02  0.9303358E-01
        1   -1    0    0  501    0  0.00000000000E+00  0.00000000000E+00  0.27100675839E+03  0.27100675844E+03  0.50400001928E-02 0.  1.
       -1   -1    0    0    0  501  0.00000000000E+00  0.00000000000E+00 -0.93125759655E+03  0.93125759656E+03  0.50400001928E-02 0. -1.
    10030    2    1    2    0    0  0.00000000000E+00  0.00000000000E+00 -0.66025083816E+03  0.12022643550E+04  0.10047429572E+04 0.  0.
        1    1    3    3  502    0 -0.25235912833E+03  0.17051186800E+02  0.18925654854E+03  0.31590174709E+03  0.50400001928E-02 0.  1.
       -1    1    3    3    0  502  0.25235912833E+03 -0.17051186800E+02 -0.84950738670E+03  0.88636260791E+03  0.50400001928E-02 0. -1.
</event>
<event>
 5   0  0.5189877E-03  0.1000850E+04  0.7818609E-02  0.9307613E-01
       -1   -1    0    0    0  501  0.00000000000E+00  0.00000000000E+00  0.67644794928E+03  0.67644794930E+03  0.50400001928E-02 0. -1.
        1   -1    0    0  501    0  0.00000000000E+00  0.00000000000E+00 -0.37020614006E+03  0.37020614010E+03  0.50400001928E-02 0.  1.
    10030    2    1    2    0    0  0.00000000000E+00  0.00000000000E+00  0.30624180922E+03  0.10466540894E+04  0.10008500073E+04 0.  0.
        3    1    3    3  502    0  0.22859008475E+03  0.25662771482E+03  0.53351784662E+03  0.63462785451E+03  0.10100000352E+00 0. -1.
       -3    1    3    3    0  502 -0.22859008475E+03 -0.25662771482E+03 -0.22727603740E+03  0.41202623489E+03  0.10100000352E+00 0.  1.
</event>
<event>
 5   0  0.8875655E-03  0.9605151E+03  0.7818609E-02  0.9352944E-01
       -2   -1    0    0    0  501  0.00000000000E+00  0.00000000000E+00  0.64174108560E+03  0.64174108560E+03  0.25500000920E-02 0. -1.
        2   -1    0    0  501    0  0.00000000000E+00  0.00000000000E+00 -0.35940864843E+03  0.35940864844E+03  0.25500000920E-02 0.  1.
    10030    2    1    2    0    0  0.00000000000E+00  0.00000000000E+00  0.28233243717E+03  0.10011497340E+04  0.96051506230E+03 0.  0.
        4    1    3    3  502    0  0.55603575831E+02  0.31163008958E+03  0.51761099236E+03  0.60673538110E+03  0.12699999809E+01 0. -1.
       -4    1    3    3    0  502 -0.55603575831E+02 -0.31163008958E+03 -0.23527855519E+03  0.39441435294E+03  0.12699999809E+01 0.  1.
</event>
<event>
 5   0  0.9040674E-03  0.9951573E+03  0.7818609E-02  0.9313872E-01
       -2   -1    0    0    0  501  0.00000000000E+00  0.00000000000E+00  0.15815527250E+03  0.15815527252E+03  0.25500000920E-02 0. -1.
        2   -1    0    0  501    0  0.00000000000E+00  0.00000000000E+00 -0.15654521005E+04  0.15654521005E+04  0.25500000920E-02 0.  1.
    10030    2    1    2    0    0  0.00000000000E+00  0.00000000000E+00 -0.14072968281E+04  0.17236073731E+04  0.99515728116E+03 0.  0.
        1    1    3    3  502    0 -0.15838484292E+02 -0.22859734680E+02 -0.15641049606E+04  0.15643521831E+04  0.50400001928E-02 0.  1.
       -1    1    3    3    0  502  0.15838484292E+02  0.22859734680E+02  0.15680813256E+03  0.15925518992E+03  0.50400001928E-02 0. -1.
</event>
<event>
 5   0  0.3513625E-03  0.9921537E+03  0.7818609E-02  0.9317193E-01
        4   -1    0    0  501    0  0.00000000000E+00  0.00000000000E+00  0.29338751858E+03  0.29339026732E+03  0.12699999809E+01 0.  1.
       -4   -1    0    0    0  501  0.00000000000E+00  0.00000000000E+00 -0.83878867728E+03  0.83878963872E+03  0.12699999809E+01 0. -1.
    10030    2    1    2    0    0  0.00000000000E+00  0.00000000000E+00 -0.54540115870E+03  0.11321799060E+04  0.99215367546E+03 0.  0.
        2    1    3    3  502    0  0.17728448578E+03  0.14127437421E+03  0.23082776686E+03  0.32352696282E+03  0.25500000920E-02 0.  1.
       -2    1    3    3    0  502 -0.17728448578E+03 -0.14127437421E+03 -0.77622892556E+03  0.80865294323E+03  0.25500000920E-02 0. -1.
</event>
<event>
 5   0  0.5201968E-03  0.1002912E+04  0.7818609E-02  0.9305357E-01
        1   -1    0    0  501    0  0.00000000000E+00  0.00000000000E+00  0.11019229848E+04  0.11019229849E+04  0.50400001928E-02 0.  1.
       -1   -1    0    0    0  501  0.00000000000E+00  0.00000000000E+00 -0.22819943278E+03  0.22819943284E+03  0.50400001928E-02 0. -1.
    10030    2    1    2    0    0  0.00000000000E+00  0.00000000000E+00  0.87372355207E+03  0.13301224177E+04  0.10029121600E+04 0.  0.
        2    1    3    3  502    0 -0.31346732551E+03  0.30395723921E+03  0.10981981452E+03  0.45023567062E+03  0.25500000920E-02 0. -1.
       -2    1    3    3    0  502  0.31346732551E+03 -0.30395723921E+03  0.76390373755E+03  0.87988674707E+03  0.25500000920E-02 0.  1.
</event>
<event>
 5   0  0.5072205E-03  0.9936666E+03  0.7818609E-02  0.9315519E-01
       -1   -1    0    0    0  501  0.00000000000E+00  0.00000000000E+00  0.20894411736E+03  0.20894411742E+03  0.50400001928E-02 0.  1.
        1   -1    0    0  501    0  0.00000000000E+00  0.00000000000E+00 -0.11813844859E+04  0.11813844859E+04  0.50400001928E-02 0. -1.
    10030    2    1    2    0    0  0.00000000000E+00  0.00000000000E+00 -0.97244036849E+03  0.13903286033E+04  0.99366662158E+03 0.  0.
        5    1    3    3  502    0  0.39970010330E+03 -0.23068861233E+03 -0.22881542386E+03  0.51512716550E+03  0.46999998093E+01 0.  1.
       -5    1    3    3    0  502 -0.39970010330E+03  0.23068861233E+03 -0.74362494463E+03  0.87520143779E+03  0.46999998093E+01 0. -1.
</event>
<event>
 5   0  0.8875655E-03  0.9888336E+03  0.7818609E-02  0.9320877E-01
        2   -1    0    0  501    0  0.00000000000E+00  0.00000000000E+00  0.40633403184E+03  0.40633403185E+03  0.25500000920E-02 0.  1.
       -2   -1    0    0    0  501  0.00000000000E+00  0.00000000000E+00 -0.60159368281E+03  0.60159368281E+03  0.25500000920E-02 0. -1.
    10030    2    1    2    0    0  0.00000000000E+00  0.00000000000E+00 -0.19525965097E+03  0.10079277147E+04  0.98883362942E+03 0.  0.
        4    1    3    3  502    0 -0.15171946341E+02  0.15783923036E+03 -0.57497046314E+03  0.59643612984E+03  0.12699999809E+01 0. -1.
       -4    1    3    3    0  502  0.15171946341E+02 -0.15783923036E+03  0.37971081217E+03  0.41149158482E+03  0.12699999809E+01 0.  1.
</event>
<event>
 5   0  0.5189877E-03  0.1166510E+04  0.7818609E-02  0.9142686E-01
       -1   -1    0    0    0  501  0.00000000000E+00  0.00000000000E+00  0.26316725758E+03  0.26316725763E+03  0.50400001928E-02 0. -1.
        1   -1    0    0  501    0  0.00000000000E+00  0.00000000000E+00 -0.12926613145E+04  0.12926613145E+04  0.50400001928E-02 0.  1.
    10030    2    1    2    0    0  0.00000000000E+00  0.00000000000E+00 -0.10294940569E+04  0.15558285721E+04  0.11665095510E+04 0.  0.
        3    1    3    3  502    0 -0.10463505881E+03 -0.24532475691E+03 -0.12065663370E+04  0.12356921411E+04  0.10100000352E+00 0.  1.
       -3    1    3    3    0  502  0.10463505881E+03  0.24532475691E+03  0.17707228007E+03  0.32013643100E+03  0.10100000352E+00 0. -1.
</event>
<event>
 5   0  0.8875655E-03  0.1006305E+04  0.7818609E-02  0.9301656E-01
       -2   -1    0    0    0  501  0.00000000000E+00  0.00000000000E+00  0.76472010586E+03  0.76472010587E+03  0.25500000920E-02 0. -1.
        2   -1    0    0  501    0  0.00000000000E+00  0.00000000000E+00 -0.33105243586E+03  0.33105243586E+03  0.25500000920E-02 0.  1.
    10030    2    1    2    0    0  0.00000000000E+00  0.00000000000E+00  0.43366767001E+03  0.10957725417E+04  0.10063050309E+04 0.  0.
        4    1    3    3  502    0 -0.20424279876E+03  0.19864686378E+03  0.66841543321E+03  0.72660615301E+03  0.12699999809E+01 0. -1.
       -4    1    3    3    0  502  0.20424279876E+03 -0.19864686378E+03 -0.23474776320E+03  0.36916638872E+03  0.12699999809E+01 0.  1.
</event>
<event>
 5   0  0.5310275E-03  0.1000617E+04  0.7818609E-02  0.9307868E-01
       -1   -1    0    0    0  501  0.00000000000E+00  0.00000000000E+00  0.67923827875E+03  0.67923827876E+03  0.50400001928E-02 0. -1.
        1   -1    0    0  501    0  0.00000000000E+00  0.00000000000E+00 -0.36851373279E+03  0.36851373283E+03  0.50400001928E-02 0.  1.
    10030    2    1    2    0    0  0.00000000000E+00  0.00000000000E+00  0.31072454595E+03  0.10477520116E+04  0.10006170768E+04 0.  0.
        1    1    3    3  502    0  0.13059883359E+03 -0.27103248689E+03  0.57393486289E+03  0.64800917520E+03  0.50400001928E-02 0. -1.
       -1    1    3    3    0  502 -0.13059883359E+03  0.27103248689E+03 -0.26321031693E+03  0.39974283639E+03  0.50400001928E-02 0.  1.
</event>
<event>
 5   0  0.5310275E-03  0.1165212E+04  0.7818609E-02  0.9143863E-01
       -1   -1    0    0    0  501  0.00000000000E+00  0.00000000000E+00  0.51059138985E+03  0.51059138987E+03  0.50400001928E-02 0. -1.
        1   -1    0    0  501    0  0.00000000000E+00  0.00000000000E+00 -0.66477778256E+03  0.66477778258E+03  0.50400001928E-02 0.  1.
    10030    2    1    2    0    0  0.00000000000E+00  0.00000000000E+00 -0.15418639272E+03  0.11753691725E+04  0.11652121042E+04 0.  0.
        1    1    3    3  502    0  0.49758691737E+03  0.19873060921E+03 -0.30787391000E+03  0.61795868783E+03  0.50400001928E-02 0.  1.
       -1    1    3    3    0  502 -0.49758691737E+03 -0.19873060921E+03  0.15368751729E+03  0.55741048463E+03  0.50400001928E-02 0. -1.
</event>
<event>
 5   0  0.8875655E-03  0.9953840E+03  0.7818609E-02  0.9313622E-01
       -2   -1    0    0    0  501  0.00000000000E+00  0.00000000000E+00  0.27047675088E+03  0.27047675089E+03  0.25500000920E-02 0. -1.
        2   -1    0    0  501    0  0.00000000000E+00  0.00000000000E+00 -0.91578038796E+03  0.91578038797E+03  0.25500000920E-02 0.  1.
    10030    2    1    2    0    0  0.00000000000E+00  0.00000000000E+00 -0.64530363709E+03  0.11862571389E+04  0.99538395379E+03 0.  0.
        4    1    3    3  502    0 -0.11757957817E+03  0.48360183376E+03 -0.32263757256E+03  0.59312081986E+03  0.12699999809E+01 0.  1.
       -4    1    3    3    0  502  0.11757957817E+03 -0.48360183376E+03 -0.32266606453E+03  0.59313631900E+03  0.12699999809E+01 0. -1.
</event>
<event>
 5   0  0.9040674E-03  0.9929444E+03  0.7818609E-02  0.9316317E-01
        2   -1    0    0  501    0  0.00000000000E+00  0.00000000000E+00  0.35483208848E+03  0.35483208849E+03  0.25500000920E-02 0. -1.
       -2   -1    0    0    0  501  0.00000000000E+00  0.00000000000E+00 -0.69465153694E+03  0.69465153695E+03  0.25500000920E-02 0.  1.
    10030    2    1    2    0    0  0.00000000000E+00  0.00000000000E+00 -0.33981944846E+03  0.10494836254E+04  0.99294442065E+03 0.  0.
        1    1    3    3  502    0 -0.20975116125E+03  0.10199528745E+03 -0.63314183814E+03  0.67473489278E+03  0.50400001928E-02 0.  1.
       -1    1    3    3    0  502  0.20975116125E+03 -0.10199528745E+03  0.29332238968E+03  0.37474873265E+03  0.50400001928E-02 0. -1.
</event>
<event>
 5   0  0.8968798E-03  0.1002063E+04  0.7818609E-02  0.9306285E-01
       -2   -1    0    0    0  501  0.00000000000E+00  0.00000000000E+00  0.19166231860E+03  0.19166231861E+03  0.25500000920E-02 0.  1.
        2   -1    0    0  501    0  0.00000000000E+00  0.00000000000E+00 -0.13097650114E+04  0.13097650114E+04  0.25500000920E-02 0. -1.
    10030    2    1    2    0    0  0.00000000000E+00  0.00000000000E+00 -0.11181026928E+04  0.15014273300E+04  0.10020630697E+04 0.  0.
        2    1    3    3  502    0  0.48778189719E+03  0.93499392243E+02 -0.65797879505E+03  0.82438426133E+03  0.25500000920E-02 0.  1.
       -2    1    3    3    0  502 -0.48778189719E+03 -0.93499392243E+02 -0.46012389778E+03  0.67704306872E+03  0.25500000920E-02 0. -1.
</event>
<event>
 5   0  0.8875655E-03  0.9749375E+03  0.7818609E-02  0.9336468E-01
        2   -1    0    0  501    0  0.00000000000E+00  0.00000000000E+00  0.13975100771E+04  0.13975100771E+04  0.25500000920E-02 0. -1.
       -2   -1    0    0    0  501  0.00000000000E+00  0.00000000000E+00 -0.17003509800E+03  0.17003509802E+03  0.25500000920E-02 0.  1.
    10030    2    1    2    0    0  0.00000000000E+00  0.00000000000E+00  0.12274749791E+04  0.15675451752E+04  0.97493746044E+03 0.  0.
        4    1    3    3  502    0 -0.46366738054E+03 -0.41915270586E+01  0.37192353178E+03  0.59441882126E+03  0.12699999809E+01 0.  1.
       -4    1    3    3    0  502  0.46366738054E+03  0.41915270586E+01  0.85555144737E+03  0.97312635391E+03  0.12699999809E+01 0. -1.
</event>
<event>
 5   0  0.5310275E-03  0.9459695E+03  0.7818609E-02  0.9369874E-01
       -1   -1    0    0    0  501  0.00000000000E+00  0.00000000000E+00  0.24339279682E+03  0.24339279687E+03  0.50400001928E-02 0.  1.
        1   -1    0    0  501    0  0.00000000000E+00  0.00000000000E+00 -0.91915042374E+03  0.91915042376E+03  0.50400001928E-02 0. -1.
    10030    2    1    2    0    0  0.00000000000E+00  0.00000000000E+00 -0.67575762692E+03  0.11625432206E+04  0.94596953941E+03 0.  0.
        1    1    3    3  502    0  0.24368599747E+02  0.34645854083E+03  0.56700596050E+02  0.35191235668E+03  0.50400001928E-02 0.  1.
       -1    1    3    3    0  502 -0.24368599747E+02 -0.34645854083E+03 -0.73245822297E+03  0.81063086395E+03  0.50400001928E-02 0. -1.
</event>
<event>
 5   0  0.5189877E-03  0.1005952E+04  0.7818609E-02  0.9302041E-01
       -1   -1    0    0    0  501  0.00000000000E+00  0.00000000000E+00  0.38959702219E+03  0.38959702222E+03  0.50400001928E-02 0. -1.
        1   -1    0    0  501    0  0.00000000000E+00  0.00000000000E+00 -0.64934979542E+03  0.64934979544E+03  0.50400001928E-02 0.  1.
    10030    2    1    2    0    0  0.00000000000E+00  0.00000000000E+00 -0.25975277323E+03  0.10389468177E+04  0.10059517815E+04 0.  0.
        3    1    3    3  502    0 -0.49781452324E+02  0.14860783985E+03  0.36373521530E+03  0.39606287393E+03  0.10100000352E+00 0. -1.
       -3    1    3    3    0  502  0.49781452324E+02 -0.14860783985E+03 -0.62348798853E+03  0.64288394372E+03  0.10100000352E+00 0.  1.
</event>
<event>
 5   0  0.8968798E-03  0.9884197E+03  0.7818609E-02  0.9321338E-01
        2   -1    0    0  501    0  0.00000000000E+00  0.00000000000E+00  0.13139061847E+04  0.13139061847E+04  0.25500000920E-02 0. -1.
       -2   -1    0    0    0  501  0.00000000000E+00  0.00000000000E+00 -0.18589103062E+03  0.18589103063E+03  0.25500000920E-02 0.  1.
    10030    2    1    2    0    0  0.00000000000E+00  0.00000000000E+00  0.11280151541E+04  0.14997972153E+04  0.98841969794E+03 0.  0.
        2    1    3    3  502    0  0.18021942558E+03 -0.35337179879E+03  0.11672414623E+03  0.41349147011E+03  0.25500000920E-02 0.  1.
       -2    1    3    3    0  502 -0.18021942558E+03  0.35337179879E+03  0.10112910078E+04  0.10863057452E+04  0.25500000920E-02 0. -1.
</event>
<event>
 5   0  0.3513625E-03  0.9317437E+03  0.7818609E-02  0.9386748E-01
        3   -1    0    0  501    0  0.00000000000E+00  0.00000000000E+00  0.17613125887E+04  0.17613125916E+04  0.10100000352E+00 0. -1.
       -3   -1    0    0    0  501  0.00000000000E+00  0.00000000000E+00 -0.12322432743E+03  0.12322436882E+03  0.10100000352E+00 0.  1.
    10030    2    1    2    0    0  0.00000000000E+00  0.00000000000E+00  0.16380882613E+04  0.18845369604E+04  0.93174374345E+03 0.  0.
        3    1    3    3  502    0  0.11597830331E+02  0.25615934175E+03  0.32351010619E+02  0.25845447592E+03  0.10100000352E+00 0.  1.
       -3    1    3    3    0  502 -0.11597830331E+02 -0.25615934175E+03  0.16057372507E+04  0.16260824845E+04  0.10100000352E+00 0. -1.
</event>
<event>
 5   0  0.5201968E-03  0.1099068E+04  0.7818609E-02  0.9206101E-01
        1   -1    0    0  501    0  0.00000000000E+00  0.00000000000E+00  0.12097712827E+04  0.12097712827E+04  0.50400001928E-02 0.  1.
       -1   -1    0    0    0  501  0.00000000000E+00  0.00000000000E+00 -0.24962380543E+03  0.24962380548E+03  0.50400001928E-02 0. -1.
    10030    2    1    2    0    0  0.00000000000E+00  0.00000000000E+00  0.96014747729E+03  0.14593950882E+04  0.10990681714E+04 0.  0.
        2    1    3    3  502    0 -0.42608085124E+03  0.21015912886E+03  0.11334741003E+03  0.48842541560E+03  0.25500000920E-02 0. -1.
       -2    1    3    3    0  502  0.42608085124E+03 -0.21015912886E+03  0.84680006725E+03  0.97096967262E+03  0.25500000920E-02 0.  1.
</event>
<event>
 5   0  0.5201968E-03  0.1005455E+04  0.7818609E-02  0.9302582E-01
        1   -1    0    0  501    0  0.00000000000E+00  0.00000000000E+00  0.69040205225E+03  0.69040205227E+03  0.50400001928E-02 0.  1.
       -1   -1    0    0    0  501  0.00000000000E+00  0.00000000000E+00 -0.36606898092E+03  0.36606898095E+03  0.50400001928E-02 0. -1.
    10030    2    1    2    0    0  0.00000000000E+00  0.00000000000E+00  0.32433307133E+03  0.10564710332E+04  0.10054546747E+04 0.  0.
        2    1    3    3  502    0  0.53334572836E+02 -0.23930407107E+03  0.62332483078E+03  0.66980956978E+03  0.25500000920E-02 0.  1.
       -2    1    3    3    0  502 -0.53334572836E+02  0.23930407107E+03 -0.29899175945E+03  0.38666146345E+03  0.25500000920E-02 0. -1.
</event>
<event>
 5   0  0.5349685E-03  0.1112459E+04  0.7818609E-02  0.9193133E-01
        1   -1    0    0  501    0  0.00000000000E+00  0.00000000000E+00  0.47103884569E+03  0.47103884571E+03  0.50400001928E-02 0.  1.
       -1   -1    0    0    0  501  0.00000000000E+00  0.00000000000E+00 -0.65682707726E+03  0.65682707728E+03  0.50400001928E-02 0. -1.
    10030    2    1    2    0    0  0.00000000000E+00  0.00000000000E+00 -0.18578823158E+03  0.11278659230E+04  0.11124586614E+04 0.  0.
        4    1    3    3  502    0 -0.10591345938E+03  0.52891722353E+03  0.44699769249E+02  0.54126774566E+03  0.12699999809E+01 0.  1.
       -4    1    3    3    0  502  0.10591345938E+03 -0.52891722353E+03 -0.23048800082E+03  0.58659817733E+03  0.12699999809E+01 0. -1.
</event>
<event>
 5   0  0.8968798E-03  0.8560938E+03  0.7818609E-02  0.9482194E-01
       -2   -1    0    0    0  501  0.00000000000E+00  0.00000000000E+00  0.21743544493E+03  0.21743544494E+03  0.25500000920E-02 0.  1.
        2   -1    0    0  501    0  0.00000000000E+00  0.00000000000E+00 -0.84266000594E+03  0.84266000594E+03  0.25500000920E-02 0. -1.
    10030    2    1    2    0    0  0.00000000000E+00  0.00000000000E+00 -0.62522456101E+03  0.10600954509E+04  0.85609381103E+03 0.  0.
        2    1    3    3  502    0 -0.74174802472E+02  0.42070568195E+03 -0.27917878631E+03  0.51032927300E+03  0.25500000920E-02 0.  1.
       -2    1    3    3    0  502  0.74174802472E+02 -0.42070568195E+03 -0.34604577470E+03  0.54976617788E+03  0.25500000920E-02 0. -1.
</event>
<event>
 5   0  0.5310275E-03  0.9932796E+03  0.7818609E-02  0.9315946E-01
       -1   -1    0    0    0  501  0.00000000000E+00  0.00000000000E+00  0.38770560212E+03  0.38770560215E+03  0.50400001928E-02 0. -1.
        1   -1    0    0  501    0  0.00000000000E+00  0.00000000000E+00 -0.63618137014E+03  0.63618137016E+03  0.50400001928E-02 0.  1.
    10030    2    1    2    0    0  0.00000000000E+00  0.00000000000E+00 -0.24847576802E+03  0.10238869723E+04  0.99327958037E+03 0.  0.
        1    1    3    3  502    0 -0.29090635938E+03 -0.23976614354E+03  0.20904655991E+03  0.43106238266E+03  0.50400001928E-02 0. -1.
       -1    1    3    3    0  502  0.29090635938E+03  0.23976614354E+03 -0.45752232793E+03  0.59282458965E+03  0.50400001928E-02 0.  1.
</event>
<event>
 5   0  0.8968798E-03  0.9910071E+03  0.7818609E-02  0.9318463E-01
        2   -1    0    0  501    0  0.00000000000E+00  0.00000000000E+00  0.81346713938E+03  0.81346713938E+03  0.25500000920E-02 0.  1.
       -2   -1    0    0    0  501  0.00000000000E+00  0.00000000000E+00 -0.30182382003E+03  0.30182382004E+03  0.25500000920E-02 0. -1.
    10030    2    1    2    0    0  0.00000000000E+00  0.00000000000E+00  0.51164331935E+03  0.11152909594E+04  0.99100708269E+03 0.  0.
        2    1    3    3  502    0  0.11070376348E+03 -0.41941420406E+03  0.52535755277E+03  0.68129593869E+03  0.25500000920E-02 0.  1.
       -2    1    3    3    0  502 -0.11070376348E+03  0.41941420406E+03 -0.13714233423E+02  0.43399502073E+03  0.25500000920E-02 0. -1.
</event>
<event>
 5   0  0.8968798E-03  0.1014107E+04  0.7818609E-02  0.9293207E-01
        2   -1    0    0  501    0  0.00000000000E+00  0.00000000000E+00  0.17160013836E+04  0.17160013836E+04  0.25500000920E-02 0. -1.
       -2   -1    0    0    0  501  0.00000000000E+00  0.00000000000E+00 -0.14982689350E+03  0.14982689352E+03  0.25500000920E-02 0.  1.
    10030    2    1    2    0    0  0.00000000000E+00  0.00000000000E+00  0.15661744901E+04  0.18658282772E+04  0.10141068121E+04 0.  0.
        2    1    3    3  502    0  0.73926603499E+02  0.45235108980E+03  0.11820323529E+04  0.12677882846E+04  0.25500000920E-02 0. -1.
       -2    1    3    3    0  502 -0.73926603499E+02 -0.45235108980E+03  0.38414213724E+03  0.59803999261E+03  0.25500000920E-02 0.  1.
</event>
<event>
 5   0  0.8968798E-03  0.9961116E+03  0.7818609E-02  0.9312820E-01
        2   -1    0    0  501    0  0.00000000000E+00  0.00000000000E+00  0.85152531322E+03  0.85152531323E+03  0.25500000920E-02 0.  1.
       -2   -1    0    0    0  501  0.00000000000E+00  0.00000000000E+00 -0.29131203257E+03  0.29131203259E+03  0.25500000920E-02 0. -1.
    10030    2    1    2    0    0  0.00000000000E+00  0.00000000000E+00  0.56021328065E+03  0.11428373458E+04  0.99611157968E+03 0.  0.
        2    1    3    3  502    0  0.11190671244E+03 -0.35613030551E+03 -0.98167379676E+02  0.38599059733E+03  0.25500000920E-02 0. -1.
       -2    1    3    3    0  502 -0.11190671244E+03  0.35613030551E+03  0.65838066032E+03  0.75684674848E+03  0.25500000920E-02 0.  1.
</event>
<event>
 5   0  0.9040674E-03  0.9967594E+03  0.7818609E-02  0.9312106E-01
        2   -1    0    0  501    0  0.00000000000E+00  0.00000000000E+00  0.12575368667E+04  0.12575368667E+04  0.25500000920E-02 0. -1.
       -2   -1    0    0    0  501  0.00000000000E+00  0.00000000000E+00 -0.19751494235E+03  0.19751494237E+03  0.25500000920E-02 0.  1.
    10030    2    1    2    0    0  0.00000000000E+00  0.00000000000E+00  0.10600219243E+04  0.14550518090E+04  0.99675939271E+03 0.  0.
        1    1    3    3  502    0  0.32478951071E+02 -0.29356006896E+03 -0.55996538375E+02  0.30061272210E+03  0.50400001928E-02 0.  1.
       -1    1    3    3    0  502 -0.32478951071E+02  0.29356006896E+03  0.11160184627E+04  0.11544390869E+04  0.50400001928E-02 0. -1.
</event>
<event>
 5   0  0.5201968E-03  0.9972001E+03  0.7818609E-02  0.9311621E-01
        1   -1    0    0  501    0  0.00000000000E+00  0.00000000000E+00  0.76037155744E+03  0.76037155746E+03  0.50400001928E-02 0.  1.
       -1   -1    0    0    0  501  0.00000000000E+00  0.00000000000E+00 -0.32694809444E+03  0.32694809448E+03  0.50400001928E-02 0. -1.
    10030    2    1    2    0    0  0.00000000000E+00  0.00000000000E+00  0.43342346300E+03  0.10873196519E+04  0.99720014400E+03 0.  0.
        2    1    3    3  502    0  0.10580074842E+03  0.45164466044E+03  0.41606014491E+03  0.62312337611E+03  0.25500000920E-02 0.  1.
       -2    1    3    3    0  502 -0.10580074842E+03 -0.45164466044E+03  0.17363318094E+02  0.46419627582E+03  0.25500000920E-02 0. -1.
</event>
<event>
 5   0  0.8875655E-03  0.1000992E+04  0.7818609E-02  0.9307457E-01
        2   -1    0    0  501    0  0.00000000000E+00  0.00000000000E+00  0.15652437595E+04  0.15652437595E+04  0.25500000920E-02 0.  1.
       -2   -1    0    0    0  501  0.00000000000E+00  0.00000000000E+00 -0.16003663286E+03  0.16003663288E+03  0.25500000920E-02 0. -1.
    10030    2    1    2    0    0  0.00000000000E+00  0.00000000000E+00  0.14052071266E+04  0.17252803924E+04  0.10009921896E+04 0.  0.
        4    1    3    3  502    0 -0.49524807293E+02 -0.30565245498E+03  0.13803384842E+04  0.14146420302E+04  0.12699999809E+01 0.  1.
       -4    1    3    3    0  502  0.49524807293E+02  0.30565245498E+03  0.24868642420E+02  0.31063836216E+03  0.12699999809E+01 0. -1.
</event>
<event>
 5   0  0.8907355E-03  0.1018498E+04  0.7818609E-02  0.9288486E-01
       -2   -1    0    0    0  501  0.00000000000E+00  0.00000000000E+00  0.70344790104E+03  0.70344790105E+03  0.25500000920E-02 0. -1.
        2   -1    0    0  501    0  0.00000000000E+00  0.00000000000E+00 -0.36866192549E+03  0.36866192550E+03  0.25500000920E-02 0.  1.
    10030    2    1    2    0    0  0.00000000000E+00  0.00000000000E+00  0.33478597555E+03  0.10721098265E+04  0.10184978305E+04 0.  0.
        5    1    3    3  502    0  0.21104049290E+03 -0.43455212836E+03 -0.21397155897E+01  0.48311521430E+03  0.46999998093E+01 0.  1.
       -5    1    3    3    0  502 -0.21104049290E+03  0.43455212836E+03  0.33692569114E+03  0.58899461225E+03  0.46999998093E+01 0. -1.
</event>
<event>
 5   0  0.5189877E-03  0.9889364E+03  0.7818609E-02  0.9320763E-01
        1   -1    0    0  501    0  0.00000000000E+00  0.00000000000E+00  0.60219804165E+03  0.60219804168E+03  0.50400001928E-02 0.  1.
       -1   -1    0    0    0  501  0.00000000000E+00  0.00000000000E+00 -0.40601061752E+03  0.40601061755E+03  0.50400001928E-02 0. -1.
    10030    2    1    2    0    0  0.00000000000E+00  0.00000000000E+00  0.19618742413E+03  0.10082086592E+04  0.98893639591E+03 0.  0.
        3    1    3    3  502    0 -0.58632787999E+01  0.45475953961E+03 -0.99745183147E+02  0.46560683915E+03  0.10100000352E+00 0. -1.
       -3    1    3    3    0  502  0.58632787999E+01 -0.45475953961E+03  0.29593260728E+03  0.54260182008E+03  0.10100000352E+00 0.  1.
</event>
<event>
 5   0  0.8907355E-03  0.9916144E+03  0.7818609E-02  0.9317790E-01
       -2   -1    0    0    0  501  0.00000000000E+00  0.00000000000E+00  0.30784670290E+03  0.30784670291E+03  0.25500000920E-02 0. -1.
        2   -1    0    0  501    0  0.00000000000E+00  0.00000000000E+00 -0.79852978042E+03  0.79852978043E+03  0.25500000920E-02 0.  1.
    10030    2    1    2    0    0  0.00000000000E+00  0.00000000000E+00 -0.49068307752E+03  0.11063764833E+04  0.99161436069E+03 0.  0.
        5    1    3    3  502    0 -0.15672043629E+03  0.24918708834E+03 -0.69044358252E+03  0.75059305272E+03  0.46999998093E+01 0.  1.
       -5    1    3    3    0  502  0.15672043629E+03 -0.24918708834E+03  0.19976050500E+03  0.35578343062E+03  0.46999998093E+01 0. -1.
</event>
<event>
 5   0  0.5072205E-03  0.9826071E+03  0.7818609E-02  0.9327829E-01
       -1   -1    0    0    0  501  0.00000000000E+00  0.00000000000E+00  0.32893540106E+03  0.32893540110E+03  0.50400001928E-02 0.  1.
        1   -1    0    0  501    0  0.00000000000E+00  0.00000000000E+00 -0.73381946598E+03  0.73381946599E+03  0.50400001928E-02 0. -1.
    10030    2    1    2    0    0  0.00000000000E+00  0.00000000000E+00 -0.40488406491E+03  0.10627548671E+04  0.98260714506E+03 0.  0.
        5    1    3    3  502    0 -0.11225227633E+03 -0.24943731209E+02 -0.71903503932E+03  0.72818695473E+03  0.46999998093E+01 0. -1.
       -5    1    3    3    0  502  0.11225227633E+03  0.24943731209E+02  0.31415097441E+03  0.33456791237E+03  0.46999998093E+01 0.  1.
</event>
<event>
 5   0  0.8907355E-03  0.9908823E+03  0.7818609E-02  0.9318602E-01
        2   -1    0    0  501    0  0.00000000000E+00  0.00000000000E+00  0.10264995254E+04  0.10264995254E+04  0.25500000920E-02 0.  1.
       -2   -1    0    0    0  501  0.00000000000E+00  0.00000000000E+00 -0.23912522247E+03  0.23912522248E+03  0.25500000920E-02 0. -1.
    10030    2    1    2    0    0  0.00000000000E+00  0.00000000000E+00  0.78737430291E+03  0.12656247479E+04  0.99088228842E+03 0.  0.
        5    1    3    3  502    0  0.25200430286E+03  0.42537778778E+03  0.35355144992E+03  0.60784302968E+03  0.46999998093E+01 0. -1.
       -5    1    3    3    0  502 -0.25200430286E+03 -0.42537778778E+03  0.43382285299E+03  0.65778171818E+03  0.46999998093E+01 0.  1.
</event>
<event>
 5   0  0.8968798E-03  0.9898253E+03  0.7818609E-02  0.9319775E-01
       -2   -1    0    0    0  501  0.00000000000E+00  0.00000000000E+00  0.50112628845E+03  0.50112628845E+03  0.25500000920E-02 0.  1.
        2   -1    0    0  501    0  0.00000000000E+00  0.00000000000E+00 -0.48877601754E+03  0.48877601755E+03  0.25500000920E-02 0. -1.
    10030    2    1    2    0    0  0.00000000000E+00  0.00000000000E+00  0.12350270906E+02  0.98990230600E+03  0.98982526045E+03 0.  0.
        2    1    3    3  502    0  0.25494294090E+03 -0.19441813268E+03  0.38322463789E+03  0.49965531771E+03  0.25500000920E-02 0.  1.
       -2    1    3    3    0  502 -0.25494294090E+03  0.19441813268E+03 -0.37087436698E+03  0.49024698828E+03  0.25500000920E-02 0. -1.
</event>
<event>
 5   0  0.5310275E-03  0.1010729E+04  0.7818609E-02  0.9296856E-01
        1   -1    0    0  501    0  0.00000000000E+00  0.00000000000E+00  0.34454672448E+03  0.34454672451E+03  0.50400001928E-02 0. -1.
       -1   -1    0    0    0  501  0.00000000000E+00  0.00000000000E+00 -0.74124368450E+03  0.74124368452E+03  0.50400001928E-02 0.  1.
    10030    2    1    2    0    0  0.00000000000E+00  0.00000000000E+00 -0.39669696003E+03  0.10857904090E+04  0.10107286155E+04 0.  0.
        1    1    3    3  502    0  0.27894846428E+03 -0.40355396325E+03 -0.67989897157E+02  0.49526828398E+03  0.50400001928E-02 0. -1.
       -1    1    3    3    0  502 -0.27894846428E+03  0.40355396325E+03 -0.32870706287E+03  0.59052212506E+03  0.50400001928E-02 0.  1.
</event>
<event>
 5   0  0.5310275E-03  0.1011745E+04  0.7818609E-02  0.9295756E-01
       -1   -1    0    0    0  501  0.00000000000E+00  0.00000000000E+00  0.20414175641E+03  0.20414175647E+03  0.50400001928E-02 0.  1.
        1   -1    0    0  501    0  0.00000000000E+00  0.00000000000E+00 -0.12535743197E+04  0.12535743197E+04  0.50400001928E-02 0. -1.
    10030    2    1    2    0    0  0.00000000000E+00  0.00000000000E+00 -0.10494325633E+04  0.14577160762E+04  0.10117447573E+04 0.  0.
        1    1    3    3  502    0 -0.27198624157E+03 -0.48335031656E+02  0.85871318182E+02  0.28928649156E+03  0.50400001928E-02 0.  1.
       -1    1    3    3    0  502  0.27198624157E+03  0.48335031656E+02 -0.11353038815E+04  0.11684295846E+04  0.50400001928E-02 0. -1.
</event>
<event>
 5   0  0.8875655E-03  0.9988536E+03  0.7818609E-02  0.9309803E-01
        2   -1    0    0  501    0  0.00000000000E+00  0.00000000000E+00  0.97774447137E+03  0.97774447137E+03  0.25500000920E-02 0.  1.
       -2   -1    0    0    0  501  0.00000000000E+00  0.00000000000E+00 -0.25510463015E+03  0.25510463016E+03  0.25500000920E-02 0. -1.
    10030    2    1    2    0    0  0.00000000000E+00  0.00000000000E+00  0.72263984122E+03  0.12328491015E+04  0.99885362643E+03 0.  0.
        4    1    3    3  502    0  0.83163351884E+02 -0.39328571137E+03  0.72711991306E+03  0.83083980088E+03  0.12699999809E+01 0.  1.
       -4    1    3    3    0  502 -0.83163351884E+02  0.39328571137E+03 -0.44800718395E+01  0.40200930065E+03  0.12699999809E+01 0. -1.
</event>
<event>
 5   0  0.8875655E-03  0.9211194E+03  0.7818609E-02  0.9399560E-01
        2   -1    0    0  501    0  0.00000000000E+00  0.00000000000E+00  0.62672765307E+03  0.62672765308E+03  0.25500000920E-02 0. -1.
       -2   -1    0    0    0  501  0.00000000000E+00  0.00000000000E+00 -0.33844883216E+03  0.33844883217E+03  0.25500000920E-02 0.  1.
    10030    2    1    2    0    0  0.00000000000E+00  0.00000000000E+00  0.28827882091E+03  0.96517648525E+03  0.92111941088E+03 0.  0.
        4    1    3    3  502    0  0.28146713616E+03 -0.19988072608E+03 -0.17529850908E+03  0.38717855517E+03  0.12699999809E+01 0.  1.
       -4    1    3    3    0  502 -0.28146713616E+03  0.19988072608E+03  0.46357732999E+03  0.57799793008E+03  0.12699999809E+01 0. -1.
</event>
<event>
 5   0  0.9040674E-03  0.9886429E+03  0.7818609E-02  0.9321089E-01
        2   -1    0    0  501    0  0.00000000000E+00  0.00000000000E+00  0.53060797487E+03  0.53060797488E+03  0.25500000920E-02 0.  1.
       -2   -1    0    0    0  501  0.00000000000E+00  0.00000000000E+00 -0.46051645718E+03  0.46051645719E+03  0.25500000920E-02 0. -1.
    10030    2    1    2    0    0  0.00000000000E+00  0.00000000000E+00  0.70091517688E+02  0.99112443207E+03  0.98864291784E+03 0.  0.
        1    1    3    3  502    0 -0.18098674648E+03  0.66843092368E+02 -0.42121141313E+03  0.46329607810E+03  0.50400001928E-02 0. -1.
       -1    1    3    3    0  502  0.18098674648E+03 -0.66843092368E+02  0.49130293082E+03  0.52782835397E+03  0.50400001928E-02 0.  1.
</event>
<event>
 5   0  0.8907355E-03  0.1011336E+04  0.7818609E-02  0.9296199E-01
        2   -1    0    0  501    0  0.00000000000E+00  0.00000000000E+00  0.36997661743E+03  0.36997661744E+03  0.25500000920E-02 0.  1.
       -2   -1    0    0    0  501  0.00000000000E+00  0.00000000000E+00 -0.69112448578E+03  0.69112448578E+03  0.25500000920E-02 0. -1.
    10030    2    1    2    0    0  0.00000000000E+00  0.00000000000E+00 -0.32114786835E+03  0.10611011032E+04  0.10113355516E+04 0.  0.
        5    1    3    3  502    0  0.19703343464E+03 -0.10284543407E+03  0.31595406496E+03  0.38632682904E+03  0.46999998093E+01 0.  1.
       -5    1    3    3    0  502 -0.19703343464E+03  0.10284543407E+03 -0.63710193331E+03  0.67477427418E+03  0.46999998093E+01 0. -1.
</event>
<event>
 5   0  0.5189877E-03  0.1019255E+04  0.7818609E-02  0.9287674E-01
       -1   -1    0    0    0  501  0.00000000000E+00  0.00000000000E+00  0.25207343764E+03  0.25207343769E+03  0.50400001928E-02 0. -1.
        1   -1    0    0  501    0  0.00000000000E+00  0.00000000000E+00 -0.10303362177E+04  0.10303362177E+04  0.50400001928E-02 0.  1.
    10030    2    1    2    0    0  0.00000000000E+00  0.00000000000E+00 -0.77826278008E+03  0.12824096554E+04  0.10192553995E+04 0.  0.
        3    1    3    3  502    0  0.21668780536E+03 -0.31691898712E+03 -0.81081814617E+03  0.89711611609E+03  0.10100000352E+00 0.  1.
       -3    1    3    3    0  502 -0.21668780536E+03  0.31691898712E+03  0.32555366090E+02  0.38529353933E+03  0.10100000352E+00 0. -1.
</event>
<event>
 5   0  0.5310275E-03  0.9997103E+03  0.7818609E-02  0.9308863E-01
        1   -1    0    0  501    0  0.00000000000E+00  0.00000000000E+00  0.62746992533E+03  0.62746992535E+03  0.50400001928E-02 0. -1.
       -1   -1    0    0    0  501  0.00000000000E+00  0.00000000000E+00 -0.39819463548E+03  0.39819463552E+03  0.50400001928E-02 0.  1.
    10030    2    1    2    0    0  0.00000000000E+00  0.00000000000E+00  0.22927528985E+03  0.10256645609E+04  0.99971027447E+03 0.  0.
        1    1    3    3  502    0 -0.43152523376E+02 -0.49134819251E+03  0.19779735022E+03  0.53142165776E+03  0.50400001928E-02 0.  1.
       -1    1    3    3    0  502  0.43152523376E+02  0.49134819251E+03  0.31477939631E+02  0.49424290310E+03  0.50400001928E-02 0. -1.
</event>
<event>
 5   0  0.8968798E-03  0.1002261E+04  0.7818609E-02  0.9306068E-01
       -2   -1    0    0    0  501  0.00000000000E+00  0.00000000000E+00  0.37127251094E+03  0.37127251095E+03  0.25500000920E-02 0. -1.
        2   -1    0    0  501    0  0.00000000000E+00  0.00000000000E+00 -0.67640878912E+03  0.67640878912E+03  0.25500000920E-02 0.  1.
    10030    2    1    2    0    0  0.00000000000E+00  0.00000000000E+00 -0.30513627818E+03  0.10476813001E+04  0.10022614221E+04 0.  0.
        2    1    3    3  502    0  0.18144213543E+03 -0.45477183962E+03 -0.40991511844E+02  0.49134405325E+03  0.25500000920E-02 0. -1.
       -2    1    3    3    0  502 -0.18144213543E+03  0.45477183962E+03 -0.26414476633E+03  0.55633724682E+03  0.25500000920E-02 0.  1.
</event>
<event>
 5   0  0.5072205E-03  0.8870635E+03  0.7818609E-02  0.9441899E-01
       -1   -1    0    0    0  501  0.00000000000E+00  0.00000000000E+00  0.23748515563E+03  0.23748515568E+03  0.50400001928E-02 0. -1.
        1   -1    0    0  501    0  0.00000000000E+00  0.00000000000E+00 -0.82834821651E+03  0.82834821653E+03  0.50400001928E-02 0.  1.
    10030    2    1    2    0    0  0.00000000000E+00  0.00000000000E+00 -0.59086306088E+03  0.10658333722E+04  0.88706348172E+03 0.  0.
        5    1    3    3  502    0  0.17147160505E+03  0.22425794413E+03  0.11556229663E+03  0.30507518949E+03  0.46999998093E+01 0. -1.
       -5    1    3    3    0  502 -0.17147160505E+03 -0.22425794413E+03 -0.70642535751E+03  0.76075818272E+03  0.46999998093E+01 0.  1.
</event>
<event>
 5   0  0.5310275E-03  0.9827125E+03  0.7818609E-02  0.9327711E-01
        1   -1    0    0  501    0  0.00000000000E+00  0.00000000000E+00  0.20792418004E+04  0.20792418004E+04  0.50400001928E-02 0. -1.
       -1   -1    0    0    0  501  0.00000000000E+00  0.00000000000E+00 -0.11611491205E+03  0.11611491216E+03  0.50400001928E-02 0.  1.
    10030    2    1    2    0    0  0.00000000000E+00  0.00000000000E+00  0.19631268884E+04  0.21953567126E+04  0.98271252950E+03 0.  0.
        1    1    3    3  502    0  0.24254559663E+03 -0.33181263282E+03  0.15830924298E+04  0.16355762382E+04  0.50400001928E-02 0. -1.
       -1    1    3    3    0  502 -0.24254559663E+03  0.33181263282E+03  0.38003445858E+03  0.55978047436E+03  0.50400001928E-02 0.  1.
</event>
<event>
 5   0  0.5201968E-03  0.9792986E+03  0.7818609E-02  0.9331546E-01
        1   -1    0    0  501    0  0.00000000000E+00  0.00000000000E+00  0.37810974841E+03  0.37810974844E+03  0.50400001928E-02 0. -1.
       -1   -1    0    0    0  501  0.00000000000E+00  0.00000000000E+00 -0.63409221516E+03  0.63409221518E+03  0.50400001928E-02 0.  1.
    10030    2    1    2    0    0  0.00000000000E+00  0.00000000000E+00 -0.25598246675E+03  0.10122019636E+04  0.97929862242E+03 0.  0.
        2    1    3    3  502    0 -0.11539434285E+02 -0.48698270045E+03 -0.76610463306E+02  0.49310695815E+03  0.25500000920E-02 0. -1.
       -2    1    3    3    0  502  0.11539434285E+02  0.48698270045E+03 -0.17937200344E+03  0.51909500547E+03  0.25500000920E-02 0.  1.
</event>
<event>
 5   0  0.8968798E-03  0.9945655E+03  0.7818609E-02  0.9314525E-01
        2   -1    0    0  501    0  0.00000000000E+00  0.00000000000E+00  0.21120305505E+04  0.21120305505E+04  0.25500000920E-02 0.  1.
       -2   -1    0    0    0  501  0.00000000000E+00  0.00000000000E+00 -0.11708642866E+03  0.11708642868E+03  0.25500000920E-02 0. -1.
    10030    2    1    2    0    0  0.00000000000E+00  0.00000000000E+00  0.19949441219E+04  0.22291169792E+04  0.99456546171E+03 0.  0.
        2    1    3    3  502    0  0.43923871615E+03  0.20767140983E+03  0.12350078231E+04  0.13271406810E+04  0.25500000920E-02 0.  1.
       -2    1    3    3    0  502 -0.43923871615E+03 -0.20767140983E+03  0.75993629879E+03  0.90197629816E+03  0.25500000920E-02 0. -1.
</event>
<event>
 5   0  0.9243773E-03  0.9539051E+03  0.7818609E-02  0.9360598E-01
       -2   -1    0    0    0  501  0.00000000000E+00  0.00000000000E+00  0.28384483271E+03  0.28384483272E+03  0.25500000920E-02 0. -1.
        2   -1    0    0  501    0  0.00000000000E+00  0.00000000000E+00 -0.80143699714E+03  0.80143699715E+03  0.25500000920E-02 0.  1.
    10030    2    1    2    0    0  0.00000000000E+00  0.00000000000E+00 -0.51759216444E+03  0.10852818299E+04  0.95390513236E+03 0.  0.
        3    1    3    3  502    0  0.33513504148E+03 -0.13745300522E+03 -0.61181170012E+03  0.71100097839E+03  0.10100000352E+00 0.  1.
       -3    1    3    3    0  502 -0.33513504148E+03  0.13745300522E+03  0.94219535682E+02  0.37428085147E+03  0.10100000352E+00 0. -1.
</event>
<event>
 5   0  0.5072205E-03  0.1000990E+04  0.7818609E-02  0.9307459E-01
        1   -1    0    0  501    0  0.00000000000E+00  0.00000000000E+00  0.74427425558E+03  0.74427425560E+03  0.50400001928E-02 0.  1.
       -1   -1    0    0    0  501  0.00000000000E+00  0.00000000000E+00 -0.33656332155E+03  0.33656332159E+03  0.50400001928E-02 0. -1.
    10030    2    1    2    0    0  0.00000000000E+00  0.00000000000E+00  0.40771093403E+03  0.10808375772E+04  0.10009903409E+04 0.  0.
        5    1    3    3  502    0 -0.14475360849E+03  0.42142741728E+03  0.44988783465E+03  0.63322652264E+03  0.46999998093E+01 0.  1.
       -5    1    3    3    0  502  0.14475360849E+03 -0.42142741728E+03 -0.42176900623E+02  0.44761105455E+03  0.46999998093E+01 0. -1.
</event>
<event>
 5   0  0.5310275E-03  0.1005919E+04  0.7818609E-02  0.9302077E-01
       -1   -1    0    0    0  501  0.00000000000E+00  0.00000000000E+00  0.47072237360E+03  0.47072237362E+03  0.50400001928E-02 0.  1.
        1   -1    0    0  501    0  0.00000000000E+00  0.00000000000E+00 -0.53740431823E+03  0.53740431826E+03  0.50400001928E-02 0. -1.
    10030    2    1    2    0    0  0.00000000000E+00  0.00000000000E+00 -0.66681944634E+02  0.10081266919E+04  0.10059189556E+04 0.  0.
        1    1    3    3  502    0  0.28582826598E+03 -0.11733602006E+03  0.36439614242E+03  0.47775525939E+03  0.50400001928E-02 0.  1.
       -1    1    3    3    0  502 -0.28582826598E+03  0.11733602006E+03 -0.43107808705E+03  0.53037143249E+03  0.50400001928E-02 0. -1.
</event>
<event>
 5   0  0.5189877E-03  0.1001840E+04  0.7818609E-02  0.9306529E-01
       -1   -1    0    0    0  501  0.00000000000E+00  0.00000000000E+00  0.24284099236E+03  0.24284099241E+03  0.50400001928E-02 0.  1.
        1   -1    0    0  501    0  0.00000000000E+00  0.00000000000E+00 -0.10332721250E+04  0.10332721250E+04  0.50400001928E-02 0. -1.
    10030    2    1    2    0    0  0.00000000000E+00  0.00000000000E+00 -0.79043113263E+03  0.12761131174E+04  0.10018399638E+04 0.  0.
        3    1    3    3  502    0  0.39650478259E+02  0.61465730805E+02 -0.10264330589E+04  0.10290359717E+04  0.10100000352E+00 0. -1.
       -3    1    3    3    0  502 -0.39650478259E+02 -0.61465730805E+02  0.23600192630E+03  0.24707714566E+03  0.10100000352E+00 0.  1.
</event>
<event>
 5   0  0.8907355E-03  0.1019870E+04  0.7818609E-02  0.9287017E-01
        2   -1    0    0  501    0  0.00000000000E+00  0.00000000000E+00  0.73846100733E+03  0.73846100734E+03  0.25500000920E-02 0.  1.
       -2   -1    0    0    0  501  0.00000000000E+00  0.00000000000E+00 -0.35212906319E+03  0.35212906320E+03  0.25500000920E-02 0. -1.
    10030    2    1    2    0    0  0.00000000000E+00  0.00000000000E+00  0.38633194414E+03  0.10905900705E+04  0.10198697617E+04 0.  0.
        5    1    3    3  502    0 -0.33047816127E+03  0.25933920612E+03  0.50223898080E+03  0.65478143128E+03  0.46999998093E+01 0.  1.
       -5    1    3    3    0  502  0.33047816127E+03 -0.25933920612E+03 -0.11590703666E+03  0.43580863926E+03  0.46999998093E+01 0. -1.
</event>
<event>
 5   0  0.5072205E-03  0.1003171E+04  0.7818609E-02  0.9305074E-01
       -1   -1    0    0    0  501  0.00000000000E+00  0.00000000000E+00  0.44646869328E+03  0.44646869331E+03  0.50400001928E-02 0.  1.
        1   -1    0    0  501    0  0.00000000000E+00  0.00000000000E+00 -0.56350623452E+03  0.56350623454E+03  0.50400001928E-02 0. -1.
    10030    2    1    2    0    0  0.00000000000E+00  0.00000000000E+00 -0.11703754123E+03  0.10099749279E+04  0.10031707576E+04 0.  0.
        5    1    3    3  502    0 -0.12543741375E+03 -0.40731697263E+03 -0.32474405492E+03  0.53583808391E+03  0.46999998093E+01 0.  1.
       -5    1    3    3    0  502  0.12543741375E+03  0.40731697263E+03  0.20770651369E+03  0.47413684395E+03  0.46999998093E+01 0. -1.
</event>
<event>
 5   0  0.8968798E-03  0.1004131E+04  0.7818609E-02  0.9304026E-01
        2   -1    0    0  501    0  0.00000000000E+00  0.00000000000E+00  0.10973774452E+04  0.10973774452E+04  0.25500000920E-02 0.  1.
       -2   -1    0    0    0  501  0.00000000000E+00  0.00000000000E+00 -0.22970194567E+03  0.22970194569E+03  0.25500000920E-02 0. -1.
    10030    2    1    2    0    0  0.00000000000E+00  0.00000000000E+00  0.86767549953E+03  0.13270793909E+04  0.10041309363E+04 0.  0.
        2    1    3    3  502    0  0.45998828248E+02  0.24642708736E+03 -0.14107073827E+03  0.28765109906E+03  0.25500000920E-02 0. -1.
       -2    1    3    3    0  502 -0.45998828248E+02 -0.24642708736E+03  0.10087462378E+04  0.10394282918E+04  0.25500000920E-02 0.  1.
</event>
<event>
 5   0  0.8968798E-03  0.1044877E+04  0.7818609E-02  0.9260649E-01
        2   -1    0    0  501    0  0.00000000000E+00  0.00000000000E+00  0.13896233421E+04  0.13896233421E+04  0.25500000920E-02 0.  1.
       -2   -1    0    0    0  501  0.00000000000E+00  0.00000000000E+00 -0.19641435084E+03  0.19641435085E+03  0.25500000920E-02 0. -1.
    10030    2    1    2    0    0  0.00000000000E+00  0.00000000000E+00  0.11932089912E+04  0.15860376929E+04  0.10448769624E+04 0.  0.
        2    1    3    3  502    0  0.40009488693E+03 -0.25997433665E+03  0.27360737887E+03  0.55002142871E+03  0.25500000920E-02 0. -1.
       -2    1    3    3    0  502 -0.40009488693E+03  0.25997433665E+03  0.91960161237E+03  0.10360162642E+04  0.25500000920E-02 0.  1.
</event>
<event>
 5   0  0.8907355E-03  0.1005199E+04  0.7818609E-02  0.9302861E-01
        2   -1    0    0  501    0  0.00000000000E+00  0.00000000000E+00  0.53367229703E+03  0.53367229703E+03  0.25500000920E-02 0. -1.
       -2   -1    0    0    0  501  0.00000000000E+00  0.00000000000E+00 -0.47333617316E+03  0.47333617316E+03  0.25500000920E-02 0.  1.
    10030    2    1    2    0    0  0.00000000000E+00  0.00000000000E+00  0.60336123869E+02  0.10070084702E+04  0.10051992893E+04 0.  0.
        5    1    3    3  502    0 -0.36577304647E+03  0.31421443929E+03 -0.11173318737E+03  0.49500205105E+03  0.46999998093E+01 0.  1.
       -5    1    3    3    0  502  0.36577304647E+03 -0.31421443929E+03  0.17206931123E+03  0.51200641915E+03  0.46999998093E+01 0. -1.
</event>
<event>
 5   0  0.9040674E-03  0.1001538E+04  0.7818609E-02  0.9306859E-01
       -2   -1    0    0    0  501  0.00000000000E+00  0.00000000000E+00  0.97237781982E+02  0.97237782015E+02  0.25500000920E-02 0.  1.
        2   -1    0    0  501    0  0.00000000000E+00  0.00000000000E+00 -0.25789336891E+04  0.25789336891E+04  0.25500000920E-02 0. -1.
    10030    2    1    2    0    0  0.00000000000E+00  0.00000000000E+00 -0.24816959071E+04  0.26761714711E+04  0.10015384004E+04 0.  0.
        1    1    3    3  502    0  0.26542391698E+03 -0.74117399297E+02 -0.23580970742E+04  0.23741451211E+04  0.50400001928E-02 0. -1.
       -1    1    3    3    0  502 -0.26542391698E+03  0.74117399297E+02 -0.12359883290E+03  0.30202635002E+03  0.50400001928E-02 0.  1.
</event>
<event>
 5   0  0.8968798E-03  0.9944117E+03  0.7818609E-02  0.9314695E-01
       -2   -1    0    0    0  501  0.00000000000E+00  0.00000000000E+00  0.55195017286E+03  0.55195017287E+03  0.25500000920E-02 0.  1.
        2   -1    0    0  501    0  0.00000000000E+00  0.00000000000E+00 -0.44789129964E+03  0.44789129965E+03  0.25500000920E-02 0. -1.
    10030    2    1    2    0    0  0.00000000000E+00  0.00000000000E+00  0.10405887322E+03  0.99984147251E+03  0.99441174624E+03 0.  0.
        2    1    3    3  502    0 -0.43437378937E+02 -0.39280384726E+03 -0.25133311739E+03  0.46834816559E+03  0.25500000920E-02 0. -1.
       -2    1    3    3    0  502  0.43437378937E+02  0.39280384726E+03  0.35539199061E+03  0.53149330692E+03  0.25500000920E-02 0.  1.
</event>
<event>
 5   0  0.9040674E-03  0.8607189E+03  0.7818609E-02  0.9476062E-01
        2   -1    0    0  501    0  0.00000000000E+00  0.00000000000E+00  0.81253867098E+03  0.81253867099E+03  0.25500000920E-02 0. -1.
       -2   -1    0    0    0  501  0.00000000000E+00  0.00000000000E+00 -0.22793899207E+03  0.22793899209E+03  0.25500000920E-02 0.  1.
    10030    2    1    2    0    0  0.00000000000E+00  0.00000000000E+00  0.58459967891E+03  0.10404776631E+04  0.86071887558E+03 0.  0.
        1    1    3    3  502    0  0.39722515544E+03  0.33989230893E+02  0.48821573560E+03  0.63031555307E+03  0.50400001928E-02 0. -1.
       -1    1    3    3    0  502 -0.39722515544E+03 -0.33989230893E+02  0.96383943308E+02  0.41016211000E+03  0.50400001928E-02 0.  1.
</event>
<event>
 5   0  0.5201968E-03  0.1000539E+04  0.7818609E-02  0.9307954E-01
       -1   -1    0    0    0  501  0.00000000000E+00  0.00000000000E+00  0.76065209806E+03  0.76065209807E+03  0.50400001928E-02 0.  1.
        1   -1    0    0  501    0  0.00000000000E+00  0.00000000000E+00 -0.32901957601E+03  0.32901957605E+03  0.50400001928E-02 0. -1.
    10030    2    1    2    0    0  0.00000000000E+00  0.00000000000E+00  0.43163252204E+03  0.10896716741E+04  0.10005387165E+04 0.  0.
        2    1    3    3  502    0 -0.27475819148E+03  0.19365917065E+03  0.61932700680E+03  0.70467146922E+03  0.25500000920E-02 0.  1.
       -2    1    3    3    0  502  0.27475819148E+03 -0.19365917065E+03 -0.18769448476E+03  0.38500020491E+03  0.25500000920E-02 0. -1.
</event>
<event>
 5   0  0.5349685E-03  0.9735389E+03  0.7818609E-02  0.9338053E-01
       -1   -1    0    0    0  501  0.00000000000E+00  0.00000000000E+00  0.14564092542E+03  0.14564092550E+03  0.50400001928E-02 0.  1.
        1   -1    0    0  501    0  0.00000000000E+00  0.00000000000E+00 -0.16269089253E+04  0.16269089253E+04  0.50400001928E-02 0. -1.
    10030    2    1    2    0    0  0.00000000000E+00  0.00000000000E+00 -0.14812679998E+04  0.17725498508E+04  0.97353894945E+03 0.  0.
        4    1    3    3  502    0  0.36808122974E+03  0.26847191582E+03 -0.42854000334E+03  0.62546711235E+03  0.12699999809E+01 0.  1.
       -4    1    3    3    0  502 -0.36808122974E+03 -0.26847191582E+03 -0.10527279965E+04  0.11470827384E+04  0.12699999809E+01 0. -1.
</event>
<event>
 5   0  0.5349685E-03  0.1013246E+04  0.7818609E-02  0.9294135E-01
        1   -1    0    0  501    0  0.00000000000E+00  0.00000000000E+00  0.34193510518E+03  0.34193510521E+03  0.50400001928E-02 0.  1.
       -1   -1    0    0    0  501  0.00000000000E+00  0.00000000000E+00 -0.75063006393E+03  0.75063006394E+03  0.50400001928E-02 0. -1.
    10030    2    1    2    0    0  0.00000000000E+00  0.00000000000E+00 -0.40869495875E+03  0.10925651692E+04  0.10132458140E+04 0.  0.
        4    1    3    3  502    0  0.43203108115E+02 -0.33145305406E+03  0.20616177105E+03  0.39272372520E+03  0.12699999809E+01 0.  1.
       -4    1    3    3    0  502 -0.43203108115E+02  0.33145305406E+03 -0.61485672980E+03  0.69984144395E+03  0.12699999809E+01 0. -1.
</event>
<event>
 5   0  0.8875655E-03  0.1037522E+04  0.7818609E-02  0.9268322E-01
       -2   -1    0    0    0  501  0.00000000000E+00  0.00000000000E+00  0.99934972745E+02  0.99934972777E+02  0.25500000920E-02 0. -1.
        2   -1    0    0  501    0  0.00000000000E+00  0.00000000000E+00 -0.26928808418E+04  0.26928808418E+04  0.25500000920E-02 0.  1.
    10030    2    1    2    0    0  0.00000000000E+00  0.00000000000E+00 -0.25929458691E+04  0.27928158146E+04  0.10375219970E+04 0.  0.
        4    1    3    3  502    0  0.48090011482E+02 -0.39114969428E+02  0.89925347279E+02  0.10922825194E+03  0.12699999809E+01 0. -1.
       -4    1    3    3    0  502 -0.48090011482E+02  0.39114969428E+02 -0.26828712163E+04  0.26835875627E+04  0.12699999809E+01 0.  1.
</event>
<event>
 5   0  0.5072205E-03  0.1006333E+04  0.7818609E-02  0.9301626E-01
       -1   -1    0    0    0  501  0.00000000000E+00  0.00000000000E+00  0.72983102056E+03  0.72983102058E+03  0.50400001928E-02 0. -1.
        1   -1    0    0  501    0  0.00000000000E+00  0.00000000000E+00 -0.34689716741E+03  0.34689716745E+03  0.50400001928E-02 0.  1.
    10030    2    1    2    0    0  0.00000000000E+00  0.00000000000E+00  0.38293385315E+03  0.10767281880E+04  0.10063325767E+04 0.  0.
        5    1    3    3  502    0  0.87670156865E+02 -0.46160080592E+03  0.38403718812E+03  0.60685089790E+03  0.46999998093E+01 0.  1.
       -5    1    3    3    0  502 -0.87670156865E+02  0.46160080592E+03 -0.11033349678E+01  0.46987729012E+03  0.46999998093E+01 0. -1.
</event>
<event>
 5   0  0.5201968E-03  0.1003044E+04  0.7818609E-02  0.9305212E-01
       -1   -1    0    0    0  501  0.00000000000E+00  0.00000000000E+00  0.10932699509E+04  0.10932699509E+04  0.50400001928E-02 0.  1.
        1   -1    0    0  501    0  0.00000000000E+00  0.00000000000E+00 -0.23006614707E+03  0.23006614713E+03  0.50400001928E-02 0. -1.
    10030    2    1    2    0    0  0.00000000000E+00  0.00000000000E+00  0.86320380385E+03  0.13233360981E+04  0.10030441772E+04 0.  0.
        2    1    3    3  502    0 -0.10401790620E+03  0.40508051028E+03  0.79678063099E+03  0.89987183451E+03  0.25500000920E-02 0.  1.
       -2    1    3    3    0  502  0.10401790620E+03 -0.40508051028E+03  0.66423172867E+02  0.42346426356E+03  0.25500000920E-02 0. -1.
</event>
<event>
 5   0  0.5349685E-03  0.9972485E+03  0.7818609E-02  0.9311568E-01
       -1   -1    0    0    0  501  0.00000000000E+00  0.00000000000E+00  0.25062308234E+03  0.25062308239E+03  0.50400001928E-02 0.  1.
        1   -1    0    0  501    0  0.00000000000E+00  0.00000000000E+00 -0.99203200654E+03  0.99203200655E+03  0.50400001928E-02 0. -1.
    10030    2    1    2    0    0  0.00000000000E+00  0.00000000000E+00 -0.74140892420E+03  0.12426550889E+04  0.99724845308E+03 0.  0.
        4    1    3    3  502    0 -0.92913926321E+02 -0.30619930290E+03  0.10580404903E+03  0.33702688393E+03  0.12699999809E+01 0.  1.
       -4    1    3    3    0  502  0.92913926321E+02  0.30619930290E+03 -0.84721297323E+03  0.90562820501E+03  0.12699999809E+01 0. -1.
</event>
<event>
 5   0  0.5349685E-03  0.1002419E+04  0.7818609E-02  0.9305895E-01
        1   -1    0    0  501    0  0.00000000000E+00  0.00000000000E+00  0.36817862300E+03  0.36817862304E+03  0.50400001928E-02 0. -1.
       -1   -1    0    0    0  501  0.00000000000E+00  0.00000000000E+00 -0.68230782290E+03  0.68230782292E+03  0.50400001928E-02 0.  1.
    10030    2    1    2    0    0  0.00000000000E+00  0.00000000000E+00 -0.31412919990E+03  0.10504864460E+04  0.10024193828E+04 0.  0.
        4    1    3    3  502    0 -0.10705142644E+03  0.19702820494E+03  0.31268104606E+03  0.38477418170E+03  0.12699999809E+01 0. -1.
       -4    1    3    3    0  502  0.10705142644E+03 -0.19702820494E+03 -0.62681024596E+03  0.66571226426E+03  0.12699999809E+01 0.  1.
</event>
<event>
 5   0  0.9243773E-03  0.1001606E+04  0.7818609E-02  0.9306785E-01
       -2   -1    0    0    0  501  0.00000000000E+00  0.00000000000E+00  0.97067056311E+03  0.97067056312E+03  0.25500000920E-02 0.  1.
        2   -1    0    0  501    0  0.00000000000E+00  0.00000000000E+00 -0.25838208458E+03  0.25838208459E+03  0.25500000920E-02 0. -1.
    10030    2    1    2    0    0  0.00000000000E+00  0.00000000000E+00  0.71228847854E+03  0.12290526477E+04  0.10016064767E+04 0.  0.
        3    1    3    3  502    0 -0.18876450188E+03 -0.44297462882E+03  0.52504214750E+03  0.71240987205E+03  0.10100000352E+00 0.  1.
       -3    1    3    3    0  502  0.18876450188E+03  0.44297462882E+03  0.18724633104E+03  0.51664277565E+03  0.10100000352E+00 0. -1.
</event>
<event>
 5   0  0.5201968E-03  0.9993877E+03  0.7818609E-02  0.9309217E-01
       -1   -1    0    0    0  501  0.00000000000E+00  0.00000000000E+00  0.67547746396E+03  0.67547746398E+03  0.50400001928E-02 0.  1.
        1   -1    0    0  501    0  0.00000000000E+00  0.00000000000E+00 -0.36965550858E+03  0.36965550862E+03  0.50400001928E-02 0. -1.
    10030    2    1    2    0    0  0.00000000000E+00  0.00000000000E+00  0.30582195538E+03  0.10451329726E+04  0.99938774358E+03 0.  0.
        2    1    3    3  502    0  0.41011099106E+03  0.17844804162E+03 -0.80132821319E+02  0.45437429242E+03  0.25500000920E-02 0. -1.
       -2    1    3    3    0  502 -0.41011099106E+03 -0.17844804162E+03  0.38595477670E+03  0.59075868018E+03  0.25500000920E-02 0.  1.
</event>
<event>
 5   0  0.9243773E-03  0.9993353E+03  0.7818609E-02  0.9309274E-01
       -2   -1    0    0    0  501  0.00000000000E+00  0.00000000000E+00  0.24790487711E+03  0.24790487712E+03  0.25500000920E-02 0. -1.
        2   -1    0    0  501    0  0.00000000000E+00  0.00000000000E+00 -0.10071110761E+04  0.10071110761E+04  0.25500000920E-02 0.  1.
    10030    2    1    2    0    0  0.00000000000E+00  0.00000000000E+00 -0.75920619901E+03  0.12550159532E+04  0.99933527421E+03 0.  0.
        3    1    3    3  502    0 -0.23607931796E+02  0.16832470978E+03  0.21048266113E+03  0.27054297848E+03  0.10100000352E+00 0. -1.
       -3    1    3    3    0  502  0.23607931796E+02 -0.16832470978E+03 -0.96968886014E+03  0.98447297477E+03  0.10100000352E+00 0.  1.
</event>
<event>
 5   0  0.5072205E-03  0.9990082E+03  0.7818609E-02  0.9309633E-01
       -1   -1    0    0    0  501  0.00000000000E+00  0.00000000000E+00  0.45619448015E+03  0.45619448018E+03  0.50400001928E-02 0. -1.
        1   -1    0    0  501    0  0.00000000000E+00  0.00000000000E+00 -0.54692535997E+03  0.54692535999E+03  0.50400001928E-02 0.  1.
    10030    2    1    2    0    0  0.00000000000E+00  0.00000000000E+00 -0.90730879814E+02  0.10031198402E+04  0.99900816873E+03 0.  0.
        5    1    3    3  502    0  0.15918010150E+03  0.18863890215E+03  0.39065591449E+03  0.46212235787E+03  0.46999998093E+01 0. -1.
       -5    1    3    3    0  502 -0.15918010150E+03 -0.18863890215E+03 -0.48138679431E+03  0.54099748230E+03  0.46999998093E+01 0.  1.
</event>
<event>
 5   0  0.9243773E-03  0.1073824E+04  0.7818609E-02  0.9231087E-01
       -2   -1    0    0    0  501  0.00000000000E+00  0.00000000000E+00  0.26710080509E+03  0.26710080510E+03  0.25500000920E-02 0. -1.
        2   -1    0    0  501    0  0.00000000000E+00  0.00000000000E+00 -0.10792721429E+04  0.10792721429E+04  0.25500000920E-02 0.  1.
    10030    2    1    2    0    0  0.00000000000E+00  0.00000000000E+00 -0.81217133779E+03  0.13463729480E+04  0.10738239302E+04 0.  0.
        3    1    3    3  502    0  0.18765818855E+03  0.34433840262E+03  0.53723006999E+02  0.39581650159E+03  0.10100000352E+00 0. -1.
       -3    1    3    3    0  502 -0.18765818855E+03 -0.34433840262E+03 -0.86589434479E+03  0.95055644640E+03  0.10100000352E+00 0.  1.
</event>
<event>
 5   0  0.5310275E-03  0.9934651E+03  0.7818609E-02  0.9315741E-01
        1   -1    0    0  501    0  0.00000000000E+00  0.00000000000E+00  0.32573973945E+03  0.32573973949E+03  0.50400001928E-02 0.  1.
       -1   -1    0    0    0  501  0.00000000000E+00  0.00000000000E+00 -0.75748578184E+03  0.75748578186E+03  0.50400001928E-02 0. -1.
    10030    2    1    2    0    0  0.00000000000E+00  0.00000000000E+00 -0.43174604238E+03  0.10832255213E+04  0.99346508997E+03 0.  0.
        1    1    3    3  502    0 -0.29636137581E+03 -0.39388822135E+03 -0.14896753158E+03  0.51494594035E+03  0.50400001928E-02 0.  1.
       -1    1    3    3    0  502  0.29636137581E+03  0.39388822135E+03 -0.28277851080E+03  0.56827958100E+03  0.50400001928E-02 0. -1.
</event>
<event>
 5   0  0.5072205E-03  0.9802133E+03  0.7818609E-02  0.9330517E-01
       -1   -1    0    0    0  501  0.00000000000E+00  0.00000000000E+00  0.64618503426E+03  0.64618503428E+03  0.50400001928E-02 0.  1.
        1   -1    0    0  501    0  0.00000000000E+00  0.00000000000E+00 -0.37172716363E+03  0.37172716367E+03  0.50400001928E-02 0. -1.
    10030    2    1    2    0    0  0.00000000000E+00  0.00000000000E+00  0.27445787063E+03  0.10179121979E+04  0.98021330330E+03 0.  0.
        5    1    3    3  502    0  0.15117534506E+03 -0.21464438434E+03 -0.29251814306E+03  0.39308415218E+03  0.46999998093E+01 0. -1.
       -5    1    3    3    0  502 -0.15117534506E+03  0.21464438434E+03  0.56697601368E+03  0.62482804576E+03  0.46999998093E+01 0.  1.
</event>
<event>
 5   0  0.8907355E-03  0.9902529E+03  0.7818609E-02  0.9319300E-01
       -2   -1    0    0    0  501  0.00000000000E+00  0.00000000000E+00  0.67868291612E+03  0.67868291613E+03  0.25500000920E-02 0. -1.
        2   -1    0    0  501    0  0.00000000000E+00  0.00000000000E+00 -0.36121461172E+03  0.36121461173E+03  0.25500000920E-02 0.  1.
    10030    2    1    2    0    0  0.00000000000E+00  0.00000000000E+00  0.31746830440E+03  0.10398975279E+04  0.99025286879E+03 0.  0.
        5    1    3    3  502    0 -0.51168861786E+02 -0.92409116360E+02  0.66668874822E+03  0.67502123981E+03  0.46999998093E+01 0. -1.
       -5    1    3    3    0  502  0.51168861786E+02  0.92409116360E+02 -0.34922044382E+03  0.36487628805E+03  0.46999998093E+01 0.  1.
</event>
<event>
 5   0  0.5310275E-03  0.1020592E+04  0.7818609E-02  0.9286244E-01
        1   -1    0    0  501    0  0.00000000000E+00  0.00000000000E+00  0.56593004261E+03  0.56593004263E+03  0.50400001928E-02 0.  1.
       -1   -1    0    0    0  501  0.00000000000E+00  0.00000000000E+00 -0.46013064327E+03  0.46013064330E+03  0.50400001928E-02 0. -1.
    10030    2    1    2    0    0  0.00000000000E+00  0.00000000000E+00  0.10579939934E+03  0.10260606859E+04  0.10205915041E+04 0.  0.
        1    1    3    3  502    0 -0.27033929264E+02 -0.10614852860E+03 -0.44817200226E+03  0.46136372537E+03  0.50400001928E-02 0. -1.
       -1    1    3    3    0  502  0.27033929264E+02  0.10614852860E+03  0.55397140159E+03  0.56469696056E+03  0.50400001928E-02 0.  1.
</event>
<event>
 5   0  0.5201968E-03  0.9997099E+03  0.7818609E-02  0.9308863E-01
        1   -1    0    0  501    0  0.00000000000E+00  0.00000000000E+00  0.70912255620E+03  0.70912255622E+03  0.50400001928E-02 0.  1.
       -1   -1    0    0    0  501  0.00000000000E+00  0.00000000000E+00 -0.35234385246E+03  0.35234385249E+03  0.50400001928E-02 0. -1.
    10030    2    1    2    0    0  0.00000000000E+00  0.00000000000E+00  0.35677870375E+03  0.10614664087E+04  0.99970990461E+03 0.  0.
        2    1    3    3  502    0  0.24487467456E+03 -0.59117321152E+02  0.63679625362E+03  0.68481233381E+03  0.25500000920E-02 0.  1.
       -2    1    3    3    0  502 -0.24487467456E+03  0.59117321152E+02 -0.28001754988E+03  0.37665407491E+03  0.25500000920E-02 0. -1.
</event>
<event>
 5   0  0.8968798E-03  0.1018338E+04  0.7818609E-02  0.9288658E-01
       -2   -1    0    0    0  501  0.00000000000E+00  0.00000000000E+00  0.92237101335E+03  0.92237101336E+03  0.25500000920E-02 0.  1.
        2   -1    0    0  501    0  0.00000000000E+00  0.00000000000E+00 -0.28107225240E+03  0.28107225241E+03  0.25500000920E-02 0. -1.
    10030    2    1    2    0    0  0.00000000000E+00  0.00000000000E+00  0.64129876095E+03  0.12034432658E+04  0.10183376616E+04 0.  0.
        2    1    3    3  502    0  0.35313743951E+02 -0.33494676446E+03  0.77192009872E+03  0.84219774065E+03  0.25500000920E-02 0.  1.
       -2    1    3    3    0  502 -0.35313743951E+02  0.33494676446E+03 -0.13062133777E+03  0.36124552512E+03  0.25500000920E-02 0. -1.
</event>
<event>
 5   0  0.8968798E-03  0.1006045E+04  0.7818609E-02  0.9301939E-01
       -2   -1    0    0    0  501  0.00000000000E+00  0.00000000000E+00  0.13783877730E+03  0.13783877733E+03  0.25500000920E-02 0. -1.
        2   -1    0    0  501    0  0.00000000000E+00  0.00000000000E+00 -0.18357073877E+04  0.18357073877E+04  0.25500000920E-02 0.  1.
    10030    2    1    2    0    0  0.00000000000E+00  0.00000000000E+00 -0.16978686104E+04  0.19735461650E+04  0.10060450523E+04 0.  0.
        2    1    3    3  502    0  0.24550630519E+03  0.40167437237E+02  0.87179021527E+01  0.24892322255E+03  0.25500000920E-02 0. -1.
       -2    1    3    3    0  502 -0.24550630519E+03 -0.40167437237E+02 -0.17065865125E+04  0.17246229425E+04  0.25500000920E-02 0.  1.
</event>
<event>
 5   0  0.8875655E-03  0.9495876E+03  0.7818609E-02  0.9365633E-01
        2   -1    0    0  501    0  0.00000000000E+00  0.00000000000E+00  0.21812249994E+03  0.21812249995E+03  0.25500000920E-02 0.  1.
       -2   -1    0    0    0  501  0.00000000000E+00  0.00000000000E+00 -0.10334979133E+04  0.10334979133E+04  0.25500000920E-02 0. -1.
    10030    2    1    2    0    0  0.00000000000E+00  0.00000000000E+00 -0.81537541340E+03  0.12516204133E+04  0.94958759164E+03 0.  0.
        4    1    3    3  502    0  0.24982358063E+02  0.30469316072E+03  0.71127354349E+02  0.31388334432E+03  0.12699999809E+01 0.  1.
       -4    1    3    3    0  502 -0.24982358063E+02 -0.30469316072E+03 -0.88650276775E+03  0.93773706897E+03  0.12699999809E+01 0. -1.
</event>
<event>
 5   0  0.9040674E-03  0.8996647E+03  0.7818609E-02  0.9426001E-01
       -2   -1    0    0    0  501  0.00000000000E+00  0.00000000000E+00  0.29241428961E+03  0.29241428962E+03  0.25500000920E-02 0. -1.
        2   -1    0    0  501    0  0.00000000000E+00  0.00000000000E+00 -0.69199463965E+03  0.69199463966E+03  0.25500000920E-02 0.  1.
    10030    2    1    2    0    0  0.00000000000E+00  0.00000000000E+00 -0.39958035005E+03  0.98440892928E+03  0.89966465080E+03 0.  0.
        1    1    3    3  502    0 -0.28904193322E+03  0.27638503470E+03  0.25558816315E+02  0.40073330244E+03  0.50400001928E-02 0. -1.
       -1    1    3    3    0  502  0.28904193322E+03 -0.27638503470E+03 -0.42513916636E+03  0.58367562684E+03  0.50400001928E-02 0.  1.
</event>
<event>
 5   0  0.3513625E-03  0.1073516E+04  0.7818609E-02  0.9231396E-01
       -4   -1    0    0    0  501  0.00000000000E+00  0.00000000000E+00  0.42010028207E+03  0.42010220173E+03  0.12699999809E+01 0.  1.
        4   -1    0    0  501    0  0.00000000000E+00  0.00000000000E+00 -0.68580682210E+03  0.68580799801E+03  0.12699999809E+01 0. -1.
    10030    2    1    2    0    0  0.00000000000E+00  0.00000000000E+00 -0.26570654002E+03  0.11059101997E+04  0.10735163736E+04 0.  0.
        2    1    3    3  502    0  0.31571100561E+01  0.47538125416E+03  0.12389002569E+03  0.49126982670E+03  0.25500000920E-02 0.  1.
       -2    1    3    3    0  502 -0.31571100561E+01 -0.47538125416E+03 -0.38959656571E+03  0.61464037304E+03  0.25500000920E-02 0. -1.
</event>
<event>
 5   0  0.8875655E-03  0.9435069E+03  0.7818609E-02  0.9372772E-01
       -2   -1    0    0    0  501  0.00000000000E+00  0.00000000000E+00  0.25255858898E+03  0.25255858899E+03  0.25500000920E-02 0. -1.
        2   -1    0    0  501    0  0.00000000000E+00  0.00000000000E+00 -0.88118691334E+03  0.88118691334E+03  0.25500000920E-02 0.  1.
    10030    2    1    2    0    0  0.00000000000E+00  0.00000000000E+00 -0.62862832436E+03  0.11337455023E+04  0.94350691247E+03 0.  0.
        4    1    3    3  502    0  0.24264568728E+03  0.28436711654E+03  0.31471486015E+02  0.37514484384E+03  0.12699999809E+01 0. -1.
       -4    1    3    3    0  502 -0.24264568728E+03 -0.28436711654E+03 -0.66009981037E+03  0.75860065850E+03  0.12699999809E+01 0.  1.
</event>
<event>
 5   0  0.9243773E-03  0.1046238E+04  0.7818609E-02  0.9259236E-01
        2   -1    0    0  501    0  0.00000000000E+00  0.00000000000E+00  0.39144976023E+03  0.39144976024E+03  0.25500000920E-02 0. -1.
       -2   -1    0    0    0  501  0.00000000000E+00  0.00000000000E+00 -0.69907735199E+03  0.69907735199E+03  0.25500000920E-02 0.  1.
    10030    2    1    2    0    0  0.00000000000E+00  0.00000000000E+00 -0.30762759176E+03  0.10905271122E+04  0.10462383320E+04 0.  0.
        3    1    3    3  502    0 -0.14904236070E+03 -0.33580736883E+03 -0.54196637845E+03  0.65475780240E+03  0.10100000352E+00 0.  1.
       -3    1    3    3    0  502  0.14904236070E+03  0.33580736883E+03  0.23433878669E+03  0.43576930983E+03  0.10100000352E+00 0. -1.
</event>
<event>
 5   0  0.5072205E-03  0.1009780E+04  0.7818609E-02  0.9297882E-01
        1   -1    0    0  501    0  0.00000000000E+00  0.00000000000E+00  0.86058960509E+03  0.86058960510E+03  0.50400001928E-02 0. -1.
       -1   -1    0    0    0  501  0.00000000000E+00  0.00000000000E+00 -0.29620864563E+03  0.29620864567E+03  0.50400001928E-02 0.  1.
    10030    2    1    2    0    0  0.00000000000E+00  0.00000000000E+00  0.56438095946E+03  0.11567982508E+04  0.10097803353E+04 0.  0.
        5    1    3    3  502    0 -0.31633836563E+03  0.27291745158E+03  0.60689734992E+03  0.73681773885E+03  0.46999998093E+01 0. -1.
       -5    1    3    3    0  502  0.31633836563E+03 -0.27291745158E+03 -0.42516390458E+02  0.41998051193E+03  0.46999998093E+01 0.  1.
</event>
<event>
 5   0  0.5072205E-03  0.1014750E+04  0.7818609E-02  0.9292514E-01
       -1   -1    0    0    0  501  0.00000000000E+00  0.00000000000E+00  0.39389662050E+03  0.39389662054E+03  0.50400001928E-02 0. -1.
        1   -1    0    0  501    0  0.00000000000E+00  0.00000000000E+00 -0.65354523268E+03  0.65354523270E+03  0.50400001928E-02 0.  1.
    10030    2    1    2    0    0  0.00000000000E+00  0.00000000000E+00 -0.25964861218E+03  0.10474418532E+04  0.10147497396E+04 0.  0.
        5    1    3    3  502    0 -0.27899636099E+03  0.24260990652E+03 -0.48844895770E+03  0.61261979274E+03  0.46999998093E+01 0.  1.
       -5    1    3    3    0  502  0.27899636099E+03 -0.24260990652E+03  0.22880034552E+03  0.43482206050E+03  0.46999998093E+01 0. -1.
</event>
<event>
 5   0  0.5189877E-03  0.9844477E+03  0.7818609E-02  0.9325769E-01
        1   -1    0    0  501    0  0.00000000000E+00  0.00000000000E+00  0.35685913936E+03  0.35685913940E+03  0.50400001928E-02 0.  1.
       -1   -1    0    0    0  501  0.00000000000E+00  0.00000000000E+00 -0.67893537654E+03  0.67893537656E+03  0.50400001928E-02 0. -1.
    10030    2    1    2    0    0  0.00000000000E+00  0.00000000000E+00 -0.32207623717E+03  0.10357945160E+04  0.98444765058E+03 0.  0.
        3    1    3    3  502    0 -0.31069274689E+03  0.14628475412E+03  0.20999504693E+03  0.40252595220E+03  0.10100000352E+00 0.  1.
       -3    1    3    3    0  502  0.31069274689E+03 -0.14628475412E+03 -0.53207128411E+03  0.63326856375E+03  0.10100000352E+00 0. -1.
</event>
<event>
 5   0  0.8907355E-03  0.1009934E+04  0.7818609E-02  0.9297716E-01
        2   -1    0    0  501    0  0.00000000000E+00  0.00000000000E+00  0.23699257779E+04  0.23699257779E+04  0.25500000920E-02 0. -1.
       -2   -1    0    0    0  501  0.00000000000E+00  0.00000000000E+00 -0.10759475702E+03  0.10759475705E+03  0.25500000920E-02 0.  1.
    10030    2    1    2    0    0  0.00000000000E+00  0.00000000000E+00  0.22623310209E+04  0.24775205349E+04  0.10099338360E+04 0.  0.
        5    1    3    3  502    0 -0.34368188772E+03  0.18697274724E+03  0.19142298990E+04  0.19538101864E+04  0.46999998093E+01 0. -1.
       -5    1    3    3    0  502  0.34368188772E+03 -0.18697274724E+03  0.34810112188E+03  0.52371034858E+03  0.46999998093E+01 0.  1.
</event>
<event>
 5   0  0.5349685E-03  0.1012279E+04  0.7818609E-02  0.9295179E-01
        1   -1    0    0  501    0  0.00000000000E+00  0.00000000000E+00  0.13454124618E+04  0.13454124618E+04  0.50400001928E-02 0. -1.
       -1   -1    0    0    0  501  0.00000000000E+00  0.00000000000E+00 -0.19040808066E+03  0.19040808073E+03  0.50400001928E-02 0.  1.
    10030    2    1    2    0    0  0.00000000000E+00  0.00000000000E+00  0.11550043811E+04  0.15358205425E+04  0.10122794172E+04 0.  0.
        4    1    3    3  502    0  0.12200303234E+03 -0.16008937164E+02  0.13223712070E+04  0.13280844280E+04  0.12699999809E+01 0. -1.
       -4    1    3    3    0  502 -0.12200303234E+03  0.16008937164E+02 -0.16736682587E+03  0.20773611450E+03  0.12699999809E+01 0.  1.
</event>
<event>
 5   0  0.9040674E-03  0.9960826E+03  0.7818609E-02  0.9312852E-01
       -2   -1    0    0    0  501  0.00000000000E+00  0.00000000000E+00  0.29914337890E+03  0.29914337891E+03  0.25500000920E-02 0.  1.
        2   -1    0    0  501    0  0.00000000000E+00  0.00000000000E+00 -0.82918483643E+03  0.82918483644E+03  0.25500000920E-02 0. -1.
    10030    2    1    2    0    0  0.00000000000E+00  0.00000000000E+00 -0.53004145754E+03  0.11283282153E+04  0.99608263454E+03 0.  0.
        1    1    3    3  502    0  0.29538621834E+03 -0.26516054693E+03  0.75717784035E+02  0.40409938935E+03  0.50400001928E-02 0.  1.
       -1    1    3    3    0  502 -0.29538621834E+03  0.26516054693E+03 -0.60575924157E+03  0.72422882600E+03  0.50400001928E-02 0. -1.
</event>
<event>
 5   0  0.3513625E-03  0.1020470E+04  0.7818609E-02  0.9286375E-01
       -3   -1    0    0    0  501  0.00000000000E+00  0.00000000000E+00  0.14245407655E+03  0.14245411236E+03  0.10100000352E+00 0. -1.
        3   -1    0    0  501    0  0.00000000000E+00  0.00000000000E+00 -0.18275326230E+04  0.18275326258E+04  0.10100000352E+00 0.  1.
    10030    2    1    2    0    0  0.00000000000E+00  0.00000000000E+00 -0.16850785465E+04  0.19699867382E+04  0.10204695198E+04 0.  0.
        4    1    3    3  502    0  0.35296033073E+03  0.14486874999E+01 -0.13125882990E+03  0.37658144815E+03  0.12699999809E+01 0. -1.
       -4    1    3    3    0  502 -0.35296033073E+03 -0.14486874999E+01 -0.15538197166E+04  0.15934052900E+04  0.12699999809E+01 0.  1.
</event>
<event>
 5   0  0.8968798E-03  0.1010395E+04  0.7818609E-02  0.9297216E-01
       -2   -1    0    0    0  501  0.00000000000E+00  0.00000000000E+00  0.25750202954E+03  0.25750202956E+03  0.25500000920E-02 0.  1.
        2   -1    0    0  501    0  0.00000000000E+00  0.00000000000E+00 -0.99115600537E+03  0.99115600538E+03  0.25500000920E-02 0. -1.
    10030    2    1    2    0    0  0.00000000000E+00  0.00000000000E+00 -0.73365397583E+03  0.12486580349E+04  0.10103953345E+04 0.  0.
        2    1    3    3  502    0 -0.34832162398E+03 -0.28506974216E+03 -0.83311360379E+02  0.45774828717E+03  0.25500000920E-02 0.  1.
       -2    1    3    3    0  502  0.34832162398E+03  0.28506974216E+03 -0.65034261545E+03  0.79090974777E+03  0.25500000920E-02 0. -1.
</event>
<event>
 5   0  0.5072205E-03  0.9937947E+03  0.7818609E-02  0.9315377E-01
       -1   -1    0    0    0  501  0.00000000000E+00  0.00000000000E+00  0.31790896482E+03  0.31790896486E+03  0.50400001928E-02 0.  1.
        1   -1    0    0  501    0  0.00000000000E+00  0.00000000000E+00 -0.77665938909E+03  0.77665938910E+03  0.50400001928E-02 0. -1.
    10030    2    1    2    0    0  0.00000000000E+00  0.00000000000E+00 -0.45875042426E+03  0.10945683540E+04  0.99379471207E+03 0.  0.
        5    1    3    3  502    0  0.17264849233E+03  0.91290809638E+02 -0.73258903276E+03  0.75818882526E+03  0.46999998093E+01 0. -1.
       -5    1    3    3    0  502 -0.17264849233E+03 -0.91290809638E+02  0.27383860850E+03  0.33637952871E+03  0.46999998093E+01 0.  1.
</event>
<event>
 5   0  0.8875655E-03  0.9950909E+03  0.7818609E-02  0.9313945E-01
       -2   -1    0    0    0  501  0.00000000000E+00  0.00000000000E+00  0.17135931707E+03  0.17135931709E+03  0.25500000920E-02 0.  1.
        2   -1    0    0  501    0  0.00000000000E+00  0.00000000000E+00 -0.14446338986E+04  0.14446338986E+04  0.25500000920E-02 0. -1.
    10030    2    1    2    0    0  0.00000000000E+00  0.00000000000E+00 -0.12732745815E+04  0.16159932157E+04  0.99509090698E+03 0.  0.
        4    1    3    3  502    0 -0.17338861937E+03 -0.45132345467E+03 -0.44591023514E+03  0.65771880372E+03  0.12699999809E+01 0.  1.
       -4    1    3    3    0  502  0.17338861937E+03  0.45132345467E+03 -0.82736434638E+03  0.95827441196E+03  0.12699999809E+01 0. -1.
</event>
<event>
 5   0  0.8907355E-03  0.1010544E+04  0.7818609E-02  0.9297055E-01
        2   -1    0    0  501    0  0.00000000000E+00  0.00000000000E+00  0.98978565309E+03  0.98978565309E+03  0.25500000920E-02 0. -1.
       -2   -1    0    0    0  501  0.00000000000E+00  0.00000000000E+00 -0.25793450601E+03  0.25793450602E+03  0.25500000920E-02 0.  1.
    10030    2    1    2    0    0  0.00000000000E+00  0.00000000000E+00  0.73185114708E+03  0.12477201591E+04  0.10105441574E+04 0.  0.
        5    1    3    3  502    0 -0.39582951539E+03 -0.91057484032E+02  0.73696370756E+03  0.84149276106E+03  0.46999998093E+01 0. -1.
       -5    1    3    3    0  502  0.39582951539E+03  0.91057484032E+02 -0.51125604874E+01  0.40622739805E+03  0.46999998093E+01 0.  1.
</event>
<event>
 5   0  0.5349685E-03  0.9628850E+03  0.7818609E-02  0.9350215E-01
        1   -1    0    0  501    0  0.00000000000E+00  0.00000000000E+00  0.47371094866E+03  0.47371094869E+03  0.50400001928E-02 0. -1.
       -1   -1    0    0    0  501  0.00000000000E+00  0.00000000000E+00 -0.48930025482E+03  0.48930025485E+03  0.50400001928E-02 0.  1.
    10030    2    1    2    0    0  0.00000000000E+00  0.00000000000E+00 -0.15589306159E+02  0.96301120353E+03  0.96288501477E+03 0.  0.
        4    1    3    3  502    0  0.25928318899E+02  0.57091654240E+02 -0.48519727761E+03  0.48923383551E+03  0.12699999809E+01 0.  1.
       -4    1    3    3    0  502 -0.25928318899E+02 -0.57091654240E+02  0.46960797145E+03  0.47377736803E+03  0.12699999809E+01 0. -1.
</event>
<event>
 5   0  0.9243773E-03  0.9945963E+03  0.7818609E-02  0.9314491E-01
        2   -1    0    0  501    0  0.00000000000E+00  0.00000000000E+00  0.50949352474E+03  0.50949352474E+03  0.25500000920E-02 0. -1.
       -2   -1    0    0    0  501  0.00000000000E+00  0.00000000000E+00 -0.48539471415E+03  0.48539471416E+03  0.25500000920E-02 0.  1.
    10030    2    1    2    0    0  0.00000000000E+00  0.00000000000E+00  0.24098810585E+02  0.99488823890E+03  0.99459632778E+03 0.  0.
        3    1    3    3  502    0 -0.28668240366E+03 -0.22548108368E+03 -0.32609852635E+03  0.48925328692E+03  0.10100000352E+00 0.  1.
       -3    1    3    3    0  502  0.28668240366E+03  0.22548108368E+03  0.35019733694E+03  0.50563495198E+03  0.10100000352E+00 0. -1.
</event>
<event>
 5   0  0.5072205E-03  0.1057344E+04  0.7818609E-02  0.9247794E-01
       -1   -1    0    0    0  501  0.00000000000E+00  0.00000000000E+00  0.49922792909E+03  0.49922792911E+03  0.50400001928E-02 0.  1.
        1   -1    0    0  501    0  0.00000000000E+00  0.00000000000E+00 -0.55985287270E+03  0.55985287273E+03  0.50400001928E-02 0. -1.
    10030    2    1    2    0    0  0.00000000000E+00  0.00000000000E+00 -0.60624943615E+02  0.10590808018E+04  0.10573442018E+04 0.  0.
        5    1    3    3  502    0 -0.46721373712E+03  0.15945441358E+03  0.15909520678E+03  0.51869814052E+03  0.46999998093E+01 0.  1.
       -5    1    3    3    0  502  0.46721373712E+03 -0.15945441358E+03 -0.21972015039E+03  0.54038266132E+03  0.46999998093E+01 0. -1.
</event>
<event>
 5   0  0.5189877E-03  0.9848839E+03  0.7818609E-02  0.9325281E-01
       -1   -1    0    0    0  501  0.00000000000E+00  0.00000000000E+00  0.64573088197E+03  0.64573088199E+03  0.50400001928E-02 0.  1.
        1   -1    0    0  501    0  0.00000000000E+00  0.00000000000E+00 -0.37554199108E+03  0.37554199111E+03  0.50400001928E-02 0. -1.
    10030    2    1    2    0    0  0.00000000000E+00  0.00000000000E+00  0.27018889089E+03  0.10212728731E+04  0.98488387364E+03 0.  0.
        3    1    3    3  502    0  0.46503423417E+02 -0.37095522518E+03  0.46744979492E+03  0.59856467358E+03  0.10100000352E+00 0.  1.
       -3    1    3    3    0  502 -0.46503423417E+02  0.37095522518E+03 -0.19726090403E+03  0.42270819952E+03  0.10100000352E+00 0. -1.
</event>
<event>
 5   0  0.5189877E-03  0.9795275E+03  0.7818609E-02  0.9331288E-01
       -1   -1    0    0    0  501  0.00000000000E+00  0.00000000000E+00  0.30040258518E+03  0.30040258522E+03  0.50400001928E-02 0.  1.
        1   -1    0    0  501    0  0.00000000000E+00  0.00000000000E+00 -0.79849026751E+03  0.79849026753E+03  0.50400001928E-02 0. -1.
    10030    2    1    2    0    0  0.00000000000E+00  0.00000000000E+00 -0.49808768234E+03  0.10988928528E+04  0.97952752005E+03 0.  0.
        3    1    3    3  502    0  0.30886003784E+03  0.36832023516E+03 -0.35436859395E+03  0.59718626004E+03  0.10100000352E+00 0.  1.
       -3    1    3    3    0  502 -0.30886003784E+03 -0.36832023516E+03 -0.14371908839E+03  0.50170659271E+03  0.10100000352E+00 0. -1.
</event>
<event>
 5   0  0.5349685E-03  0.9749534E+03  0.7818609E-02  0.9336450E-01
       -1   -1    0    0    0  501  0.00000000000E+00  0.00000000000E+00  0.15527571847E+03  0.15527571856E+03  0.50400001928E-02 0.  1.
        1   -1    0    0  501    0  0.00000000000E+00  0.00000000000E+00 -0.15303973700E+04  0.15303973700E+04  0.50400001928E-02 0. -1.
    10030    2    1    2    0    0  0.00000000000E+00  0.00000000000E+00 -0.13751216515E+04  0.16856730886E+04  0.97495343736E+03 0.  0.
        4    1    3    3  502    0  0.32605153933E+03 -0.34350797144E+03 -0.88714066128E+03  0.10056478004E+04  0.12699999809E+01 0. -1.
       -4    1    3    3    0  502 -0.32605153933E+03  0.34350797144E+03 -0.48798099025E+03  0.68002528812E+03  0.12699999809E+01 0.  1.
</event>
<event>
 5   0  0.9243773E-03  0.1002721E+04  0.7818609E-02  0.9305565E-01
       -2   -1    0    0    0  501  0.00000000000E+00  0.00000000000E+00  0.10994173616E+03  0.10994173619E+03  0.25500000920E-02 0.  1.
        2   -1    0    0  501    0  0.00000000000E+00  0.00000000000E+00 -0.22863236486E+04  0.22863236486E+04  0.25500000920E-02 0. -1.
    10030    2    1    2    0    0  0.00000000000E+00  0.00000000000E+00 -0.21763819124E+04  0.23962653848E+04  0.10027210806E+04 0.  0.
        3    1    3    3  502    0 -0.88784963375E+02 -0.10181726702E+03  0.65628561329E+02  0.15018869414E+03  0.10100000352E+00 0.  1.
       -3    1    3    3    0  502  0.88784963375E+02  0.10181726702E+03 -0.22420104738E+04  0.22460766906E+04  0.10100000352E+00 0. -1.
</event>
<event>
 5   0  0.5072205E-03  0.1000207E+04  0.7818609E-02  0.9308317E-01
        1   -1    0    0  501    0  0.00000000000E+00  0.00000000000E+00  0.57602988131E+03  0.57602988133E+03  0.50400001928E-02 0.  1.
       -1   -1    0    0    0  501  0.00000000000E+00  0.00000000000E+00 -0.43418534258E+03  0.43418534261E+03  0.50400001928E-02 0. -1.
    10030    2    1    2    0    0  0.00000000000E+00  0.00000000000E+00  0.14184453873E+03  0.10102152239E+04  0.10002074412E+04 0.  0.
        5    1    3    3  502    0  0.32870408880E+03 -0.36238210828E+03  0.17546869625E+03  0.51978699845E+03  0.46999998093E+01 0.  1.
       -5    1    3    3    0  502 -0.32870408880E+03  0.36238210828E+03 -0.33624157519E+02  0.49042822549E+03  0.46999998093E+01 0. -1.
</event>
<event>
 5   0  0.9243773E-03  0.1008556E+04  0.7818609E-02  0.9299210E-01
        2   -1    0    0  501    0  0.00000000000E+00  0.00000000000E+00  0.20715403803E+03  0.20715403805E+03  0.25500000920E-02 0.  1.
       -2   -1    0    0    0  501  0.00000000000E+00  0.00000000000E+00 -0.12275720719E+04  0.12275720719E+04  0.25500000920E-02 0. -1.
    10030    2    1    2    0    0  0.00000000000E+00  0.00000000000E+00 -0.10204180339E+04  0.14347261099E+04  0.10085564172E+04 0.  0.
        3    1    3    3  502    0 -0.46320169480E+03 -0.17563517302E+03 -0.37605848483E+03  0.62195137935E+03  0.10100000352E+00 0. -1.
       -3    1    3    3    0  502  0.46320169480E+03  0.17563517302E+03 -0.64435954903E+03  0.81277473059E+03  0.10100000352E+00 0.  1.
</event>
<event>
 5   0  0.8907355E-03  0.1000916E+04  0.7818609E-02  0.9307541E-01
       -2   -1    0    0    0  501  0.00000000000E+00  0.00000000000E+00  0.20600475235E+03  0.20600475236E+03  0.25500000920E-02 0.  1.
        2   -1    0    0  501    0  0.00000000000E+00  0.00000000000E+00 -0.12157874117E+04  0.12157874117E+04  0.25500000920E-02 0. -1.
    10030    2    1    2    0    0  0.00000000000E+00  0.00000000000E+00 -0.10097826593E+04  0.14217921640E+04  0.10009155502E+04 0.  0.
        5    1    3    3  502    0 -0.22342011584E+03  0.11941023118E+03  0.10816320960E+03  0.27549359590E+03  0.46999998093E+01 0.  1.
       -5    1    3    3    0  502  0.22342011584E+03 -0.11941023118E+03 -0.11179458689E+04  0.11462985681E+04  0.46999998093E+01 0. -1.
</event>
<event>
 5   0  0.5201968E-03  0.1071723E+04  0.7818609E-02  0.9233199E-01
        1   -1    0    0  501    0  0.00000000000E+00  0.00000000000E+00  0.11771451012E+04  0.11771451012E+04  0.50400001928E-02 0. -1.
       -1   -1    0    0    0  501  0.00000000000E+00  0.00000000000E+00 -0.24393567562E+03  0.24393567567E+03  0.50400001928E-02 0.  1.
    10030    2    1    2    0    0  0.00000000000E+00  0.00000000000E+00  0.93320942557E+03  0.14210807769E+04  0.10717232583E+04 0.  0.
        2    1    3    3  502    0 -0.39758532627E+03 -0.32648381023E+03  0.26778805657E+03  0.57997949382E+03  0.25500000920E-02 0. -1.
       -2    1    3    3    0  502  0.39758532627E+03  0.32648381023E+03  0.66542136900E+03  0.84110128304E+03  0.25500000920E-02 0.  1.
</event>
<event>
 5   0  0.5349685E-03  0.9962664E+03  0.7818609E-02  0.9312649E-01
       -1   -1    0    0    0  501  0.00000000000E+00  0.00000000000E+00  0.21810815353E+03  0.21810815359E+03  0.50400001928E-02 0.  1.
        1   -1    0    0  501    0  0.00000000000E+00  0.00000000000E+00 -0.11376773458E+04  0.11376773458E+04  0.50400001928E-02 0. -1.
    10030    2    1    2    0    0  0.00000000000E+00  0.00000000000E+00 -0.91956919227E+03  0.13557854994E+04  0.99626644077E+03 0.  0.
        4    1    3    3  502    0  0.40601653959E+03 -0.41975342032E+02 -0.71225114410E+02  0.41435008095E+03  0.12699999809E+01 0.  1.
       -4    1    3    3    0  502 -0.40601653959E+03  0.41975342032E+02 -0.84834407786E+03  0.94143541844E+03  0.12699999809E+01 0. -1.
</event>
<event>
 5   0  0.8968798E-03  0.9971245E+03  0.7818609E-02  0.9311704E-01
        2   -1    0    0  501    0  0.00000000000E+00  0.00000000000E+00  0.20369098244E+04  0.20369098244E+04  0.25500000920E-02 0.  1.
       -2   -1    0    0    0  501  0.00000000000E+00  0.00000000000E+00 -0.12203010098E+03  0.12203010101E+03  0.25500000920E-02 0. -1.
    10030    2    1    2    0    0  0.00000000000E+00  0.00000000000E+00  0.19148797234E+04  0.21589399254E+04  0.99712448891E+03 0.  0.
        2    1    3    3  502    0 -0.16259671050E+03 -0.31350953596E+03  0.17193764480E+04  0.17552724259E+04  0.25500000920E-02 0.  1.
       -2    1    3    3    0  502  0.16259671050E+03  0.31350953596E+03  0.19550327541E+03  0.40366749945E+03  0.25500000920E-02 0. -1.
</event>
<event>
 5   0  0.9243773E-03  0.9059176E+03  0.7818609E-02  0.9418214E-01
        2   -1    0    0  501    0  0.00000000000E+00  0.00000000000E+00  0.14661157458E+04  0.14661157458E+04  0.25500000920E-02 0.  1.
       -2   -1    0    0    0  501  0.00000000000E+00  0.00000000000E+00 -0.13994233401E+03  0.13994233404E+03  0.25500000920E-02 0. -1.
    10030    2    1    2    0    0  0.00000000000E+00  0.00000000000E+00  0.13261734118E+04  0.16060580798E+04  0.90591756671E+03 0.  0.
        3    1    3    3  502    0 -0.39706638269E+03 -0.50189387399E-02  0.27666208246E+03  0.48394589611E+03  0.10100000352E+00 0.  1.
       -3    1    3    3    0  502  0.39706638269E+03  0.50189387399E-02  0.10495113293E+04  0.11221121837E+04  0.10100000352E+00 0. -1.
</event>
<event>
 5   0  0.5310275E-03  0.9839646E+03  0.7818609E-02  0.9326309E-01
       -1   -1    0    0    0  501  0.00000000000E+00  0.00000000000E+00  0.10336128996E+04  0.10336128996E+04  0.50400001928E-02 0. -1.
        1   -1    0    0  501    0  0.00000000000E+00  0.00000000000E+00 -0.23417528400E+03  0.23417528406E+03  0.50400001928E-02 0.  1.
    10030    2    1    2    0    0  0.00000000000E+00  0.00000000000E+00  0.79943761556E+03  0.12677881836E+04  0.98396462202E+03 0.  0.
        1    1    3    3  502    0 -0.43043309609E+01 -0.33944424867E+03 -0.59095075480E+02  0.34457677402E+03  0.50400001928E-02 0.  1.
       -1    1    3    3    0  502  0.43043309609E+01  0.33944424867E+03  0.85853269104E+03  0.92321140961E+03  0.50400001928E-02 0. -1.
</event>
<event>
 5   0  0.8907355E-03  0.1010450E+04  0.7818609E-02  0.9297157E-01
        2   -1    0    0  501    0  0.00000000000E+00  0.00000000000E+00  0.81270299960E+03  0.81270299961E+03  0.25500000920E-02 0. -1.
       -2   -1    0    0    0  501  0.00000000000E+00  0.00000000000E+00 -0.31407829047E+03  0.31407829048E+03  0.25500000920E-02 0.  1.
    10030    2    1    2    0    0  0.00000000000E+00  0.00000000000E+00  0.49862470914E+03  0.11267812901E+04  0.10104501349E+04 0.  0.
        5    1    3    3  502    0 -0.18208640541E+03 -0.12233184810E+03  0.75679944748E+03  0.78796448765E+03  0.46999998093E+01 0. -1.
       -5    1    3    3    0  502  0.18208640541E+03  0.12233184810E+03 -0.25817473835E+03  0.33881680244E+03  0.46999998093E+01 0.  1.
</event>
<event>
 5   0  0.5349685E-03  0.9844219E+03  0.7818609E-02  0.9325798E-01
       -1   -1    0    0    0  501  0.00000000000E+00  0.00000000000E+00  0.63372070071E+03  0.63372070073E+03  0.50400001928E-02 0. -1.
        1   -1    0    0  501    0  0.00000000000E+00  0.00000000000E+00 -0.38230031063E+03  0.38230031066E+03  0.50400001928E-02 0.  1.
    10030    2    1    2    0    0  0.00000000000E+00  0.00000000000E+00  0.25142039008E+03  0.10160210114E+04  0.98442190297E+03 0.  0.
        4    1    3    3  502    0  0.64044721012E+02 -0.16445371233E+03  0.59994067197E+03  0.62536163344E+03  0.12699999809E+01 0. -1.
       -4    1    3    3    0  502 -0.64044721012E+02  0.16445371233E+03 -0.34852028190E+03  0.39065937795E+03  0.12699999809E+01 0.  1.
</event>
<event>
 5   0  0.5072205E-03  0.9850303E+03  0.7818609E-02  0.9325117E-01
        1   -1    0    0  501    0  0.00000000000E+00  0.00000000000E+00  0.17556356625E+04  0.17556356625E+04  0.50400001928E-02 0. -1.
       -1   -1    0    0    0  501  0.00000000000E+00  0.00000000000E+00 -0.13816715012E+03  0.13816715021E+03  0.50400001928E-02 0.  1.
    10030    2    1    2    0    0  0.00000000000E+00  0.00000000000E+00  0.16174685124E+04  0.18938028127E+04  0.98503030660E+03 0.  0.
        5    1    3    3  502    0  0.29265837858E+03  0.39594120253E+03  0.78675249310E+03  0.92812711296E+03  0.46999998093E+01 0.  1.
       -5    1    3    3    0  502 -0.29265837858E+03 -0.39594120253E+03  0.83071601930E+03  0.96567569978E+03  0.46999998093E+01 0. -1.
</event>
<event>
 5   0  0.8968798E-03  0.9536195E+03  0.7818609E-02  0.9360930E-01
       -2   -1    0    0    0  501  0.00000000000E+00  0.00000000000E+00  0.66954287579E+03  0.66954287580E+03  0.25500000920E-02 0.  1.
        2   -1    0    0  501    0  0.00000000000E+00  0.00000000000E+00 -0.33955635744E+03  0.33955635745E+03  0.25500000920E-02 0. -1.
    10030    2    1    2    0    0  0.00000000000E+00  0.00000000000E+00  0.32998651835E+03  0.10090992332E+04  0.95361950496E+03 0.  0.
        2    1    3    3  502    0 -0.21047926673E+03  0.42088760888E+03  0.83715547027E+02  0.47797091319E+03  0.25500000920E-02 0. -1.
       -2    1    3    3    0  502  0.21047926673E+03 -0.42088760888E+03  0.24627097133E+03  0.53112832005E+03  0.25500000920E-02 0.  1.
</event>
<event>
 5   0  0.5310275E-03  0.1005650E+04  0.7818609E-02  0.9302369E-01
       -1   -1    0    0    0  501  0.00000000000E+00  0.00000000000E+00  0.64482274588E+03  0.64482274590E+03  0.50400001928E-02 0. -1.
        1   -1    0    0  501    0  0.00000000000E+00  0.00000000000E+00 -0.39209702445E+03  0.39209702448E+03  0.50400001928E-02 0.  1.
    10030    2    1    2    0    0  0.00000000000E+00  0.00000000000E+00  0.25272572143E+03  0.10369197704E+04  0.10056501976E+04 0.  0.
        1    1    3    3  502    0  0.25129568264E+03  0.34416248116E+03  0.40156208242E+03  0.58553346584E+03  0.50400001928E-02 0. -1.
       -1    1    3    3    0  502 -0.25129568264E+03 -0.34416248116E+03 -0.14883636099E+03  0.45138630455E+03  0.50400001928E-02 0.  1.
</event>
<event>
 5   0  0.5201968E-03  0.7804653E+03  0.7818609E-02  0.9588731E-01
        1   -1    0    0  501    0  0.00000000000E+00  0.00000000000E+00  0.45108342781E+03  0.45108342784E+03  0.50400001928E-02 0. -1.
       -1   -1    0    0    0  501  0.00000000000E+00  0.00000000000E+00 -0.33759063144E+03  0.33759063148E+03  0.50400001928E-02 0.  1.
    10030    2    1    2    0    0  0.00000000000E+00  0.00000000000E+00  0.11349279637E+03  0.78867405932E+03  0.78046534645E+03 0.  0.
        2    1    3    3  502    0 -0.35739634172E+03  0.14925534458E+03  0.10491573613E+03  0.40126875614E+03  0.25500000920E-02 0. -1.
       -2    1    3    3    0  502  0.35739634172E+03 -0.14925534458E+03  0.85770602355E+01  0.38740530318E+03  0.25500000920E-02 0.  1.
</event>
<event>
 5   0  0.8907355E-03  0.1008947E+04  0.7818609E-02  0.9298786E-01
       -2   -1    0    0    0  501  0.00000000000E+00  0.00000000000E+00  0.49815749461E+03  0.49815749461E+03  0.25500000920E-02 0. -1.
        2   -1    0    0  501    0  0.00000000000E+00  0.00000000000E+00 -0.51086928689E+03  0.51086928690E+03  0.25500000920E-02 0.  1.
    10030    2    1    2    0    0  0.00000000000E+00  0.00000000000E+00 -0.12711792289E+02  0.10090267815E+04  0.10089467063E+04 0.  0.
        5    1    3    3  502    0  0.22997732659E+03  0.26956026155E+03  0.35272547743E+03  0.49998965767E+03  0.46999998093E+01 0. -1.
       -5    1    3    3    0  502 -0.22997732659E+03 -0.26956026155E+03 -0.36543726972E+03  0.50903712384E+03  0.46999998093E+01 0.  1.
</event>
<event>
 5   0  0.8875655E-03  0.1063581E+04  0.7818609E-02  0.9241434E-01
       -2   -1    0    0    0  501  0.00000000000E+00  0.00000000000E+00  0.49587491501E+03  0.49587491502E+03  0.25500000920E-02 0. -1.
        2   -1    0    0  501    0  0.00000000000E+00  0.00000000000E+00 -0.57030755941E+03  0.57030755941E+03  0.25500000920E-02 0.  1.
    10030    2    1    2    0    0  0.00000000000E+00  0.00000000000E+00 -0.74432644397E+02  0.10661824744E+04  0.10635811442E+04 0.  0.
        4    1    3    3  502    0  0.70950890884E+02  0.45626983441E+03 -0.30164817066E+03  0.55155183117E+03  0.12699999809E+01 0.  1.
       -4    1    3    3    0  502 -0.70950890884E+02 -0.45626983441E+03  0.22721552626E+03  0.51463064326E+03  0.12699999809E+01 0. -1.
</event>
<event>
 5   0  0.5201968E-03  0.8534492E+03  0.7818609E-02  0.9485719E-01
        1   -1    0    0  501    0  0.00000000000E+00  0.00000000000E+00  0.54562841988E+03  0.54562841990E+03  0.50400001928E-02 0. -1.
       -1   -1    0    0    0  501  0.00000000000E+00  0.00000000000E+00 -0.33373240883E+03  0.33373240886E+03  0.50400001928E-02 0.  1.
    10030    2    1    2    0    0  0.00000000000E+00  0.00000000000E+00  0.21189601105E+03  0.87936082876E+03  0.85344920626E+03 0.  0.
        2    1    3    3  502    0 -0.14907230428E+03 -0.13210644570E+03  0.49479051897E+03  0.53337821719E+03  0.25500000920E-02 0. -1.
       -2    1    3    3    0  502  0.14907230428E+03  0.13210644570E+03 -0.28289450792E+03  0.34598261158E+03  0.25500000920E-02 0.  1.
</event>
<event>
 5   0  0.5189877E-03  0.1040258E+04  0.7818609E-02  0.9265460E-01
       -1   -1    0    0    0  501  0.00000000000E+00  0.00000000000E+00  0.36072211250E+03  0.36072211253E+03  0.50400001928E-02 0. -1.
        1   -1    0    0  501    0  0.00000000000E+00  0.00000000000E+00 -0.74997995104E+03  0.74997995106E+03  0.50400001928E-02 0.  1.
    10030    2    1    2    0    0  0.00000000000E+00  0.00000000000E+00 -0.38925783854E+03  0.11107020636E+04  0.10402583377E+04 0.  0.
        3    1    3    3  502    0  0.42013520491E+03 -0.30189718626E+03 -0.13734071825E+03  0.53527374732E+03  0.10100000352E+00 0. -1.
       -3    1    3    3    0  502 -0.42013520491E+03  0.30189718626E+03 -0.25191712029E+03  0.57542831628E+03  0.10100000352E+00 0.  1.
</event>
<event>
 5   0  0.5201968E-03  0.9941818E+03  0.7818609E-02  0.9314949E-01
       -1   -1    0    0    0  501  0.00000000000E+00  0.00000000000E+00  0.77168130332E+03  0.77168130334E+03  0.50400001928E-02 0. -1.
        1   -1    0    0  501    0  0.00000000000E+00  0.00000000000E+00 -0.32020910758E+03  0.32020910762E+03  0.50400001928E-02 0.  1.
    10030    2    1    2    0    0  0.00000000000E+00  0.00000000000E+00  0.45147219575E+03  0.10918904110E+04  0.99418183749E+03 0.  0.
        2    1    3    3  502    0  0.10964353909E+03 -0.31126786855E+03 -0.18253771022E+03  0.37713314269E+03  0.25500000920E-02 0.  1.
       -2    1    3    3    0  502 -0.10964353909E+03  0.31126786855E+03  0.63400990597E+03  0.71475726826E+03  0.25500000920E-02 0. -1.
</event>
<event>
 5   0  0.9243773E-03  0.9942946E+03  0.7818609E-02  0.9314825E-01
        2   -1    0    0  501    0  0.00000000000E+00  0.00000000000E+00  0.10528038802E+04  0.10528038802E+04  0.25500000920E-02 0.  1.
       -2   -1    0    0    0  501  0.00000000000E+00  0.00000000000E+00 -0.23475923018E+03  0.23475923019E+03  0.25500000920E-02 0. -1.
    10030    2    1    2    0    0  0.00000000000E+00  0.00000000000E+00  0.81804464998E+03  0.12875631103E+04  0.99429458098E+03 0.  0.
        3    1    3    3  502    0  0.41382404336E+02  0.37183663272E+02  0.10487601278E+04  0.10502347090E+04  0.10100000352E+00 0.  1.
       -3    1    3    3    0  502 -0.41382404336E+02 -0.37183663272E+02 -0.23071547778E+03  0.23732840135E+03  0.10100000352E+00 0. -1.
</event>
<event>
 5   0  0.5072205E-03  0.9721228E+03  0.7818609E-02  0.9339660E-01
       -1   -1    0    0    0  501  0.00000000000E+00  0.00000000000E+00  0.19995469580E+03  0.19995469587E+03  0.50400001928E-02 0.  1.
        1   -1    0    0  501    0  0.00000000000E+00  0.00000000000E+00 -0.11815460290E+04  0.11815460290E+04  0.50400001928E-02 0. -1.
    10030    2    1    2    0    0  0.00000000000E+00  0.00000000000E+00 -0.98159133316E+03  0.13815007248E+04  0.97212278412E+03 0.  0.
        5    1    3    3  502    0  0.47761278500E+03  0.95324452075E+01 -0.36345888173E+03  0.60027434446E+03  0.46999998093E+01 0.  1.
       -5    1    3    3    0  502 -0.47761278500E+03 -0.95324452075E+01 -0.61813245143E+03  0.78122638039E+03  0.46999998093E+01 0. -1.
</event>
<event>
 5   0  0.5349685E-03  0.1015065E+04  0.7818609E-02  0.9292174E-01
        1   -1    0    0  501    0  0.00000000000E+00  0.00000000000E+00  0.63658223893E+03  0.63658223895E+03  0.50400001928E-02 0. -1.
       -1   -1    0    0    0  501  0.00000000000E+00  0.00000000000E+00 -0.40464443094E+03  0.40464443097E+03  0.50400001928E-02 0.  1.
    10030    2    1    2    0    0  0.00000000000E+00  0.00000000000E+00  0.23193780799E+03  0.10412266699E+04  0.10150654321E+04 0.  0.
        4    1    3    3  502    0 -0.10045775509E+03 -0.42028972570E+03  0.38901076528E+03  0.58143460724E+03  0.12699999809E+01 0. -1.
       -4    1    3    3    0  502  0.10045775509E+03  0.42028972570E+03 -0.15707295729E+03  0.45979206268E+03  0.12699999809E+01 0.  1.
</event>
<event>
 5   0  0.5310275E-03  0.1002147E+04  0.7818609E-02  0.9306193E-01
       -1   -1    0    0    0  501  0.00000000000E+00  0.00000000000E+00  0.16867365262E+03  0.16867365269E+03  0.50400001928E-02 0.  1.
        1   -1    0    0  501    0  0.00000000000E+00  0.00000000000E+00 -0.14885226690E+04  0.14885226690E+04  0.50400001928E-02 0. -1.
    10030    2    1    2    0    0  0.00000000000E+00  0.00000000000E+00 -0.13198490163E+04  0.16571963217E+04  0.10021468069E+04 0.  0.
        1    1    3    3  502    0  0.44164005005E+03 -0.37631826584E+02 -0.27347877811E+03  0.52081928755E+03  0.50400001928E-02 0.  1.
       -1    1    3    3    0  502 -0.44164005005E+03  0.37631826584E+02 -0.10463702382E+04  0.11363770341E+04  0.50400001928E-02 0. -1.
</event>
<event>
 5   0  0.9040674E-03  0.9753340E+03  0.7818609E-02  0.9336020E-01
       -2   -1    0    0    0  501  0.00000000000E+00  0.00000000000E+00  0.88330724389E+03  0.88330724389E+03  0.25500000920E-02 0. -1.
        2   -1    0    0  501    0  0.00000000000E+00  0.00000000000E+00 -0.26923712609E+03  0.26923712610E+03  0.25500000920E-02 0.  1.
    10030    2    1    2    0    0  0.00000000000E+00  0.00000000000E+00  0.61407011780E+03  0.11525443700E+04  0.97533400188E+03 0.  0.
        1    1    3    3  502    0  0.32770807432E+03 -0.12599680760E+03  0.70698381440E+03  0.78936296553E+03  0.50400001928E-02 0. -1.
       -1    1    3    3    0  502 -0.32770807432E+03  0.12599680760E+03 -0.92913696605E+02  0.36318140446E+03  0.50400001928E-02 0.  1.
</event>
<event>
 5   0  0.5310275E-03  0.9990083E+03  0.7818609E-02  0.9309633E-01
        1   -1    0    0  501    0  0.00000000000E+00  0.00000000000E+00  0.67675624366E+03  0.67675624368E+03  0.50400001928E-02 0. -1.
       -1   -1    0    0    0  501  0.00000000000E+00  0.00000000000E+00 -0.36867692135E+03  0.36867692139E+03  0.50400001928E-02 0.  1.
    10030    2    1    2    0    0  0.00000000000E+00  0.00000000000E+00  0.30807932231E+03  0.10454331651E+04  0.99900832518E+03 0.  0.
        1    1    3    3  502    0 -0.33031815083E+03  0.12973744611E+03  0.52188948237E+03  0.63111846552E+03  0.50400001928E-02 0. -1.
       -1    1    3    3    0  502  0.33031815083E+03 -0.12973744611E+03 -0.21381016006E+03  0.41431469954E+03  0.50400001928E-02 0.  1.
</event>
<event>
 5   0  0.9243773E-03  0.9975224E+03  0.7818609E-02  0.9311266E-01
       -2   -1    0    0    0  501  0.00000000000E+00  0.00000000000E+00  0.52839560510E+03  0.52839560511E+03  0.25500000920E-02 0. -1.
        2   -1    0    0  501    0  0.00000000000E+00  0.00000000000E+00 -0.47078881625E+03  0.47078881625E+03  0.25500000920E-02 0.  1.
    10030    2    1    2    0    0  0.00000000000E+00  0.00000000000E+00  0.57606788855E+02  0.99918442136E+03  0.99752241367E+03 0.  0.
        3    1    3    3  502    0 -0.91690825772E+02  0.83335304045E+02  0.51273436753E+03  0.52749267509E+03  0.10100000352E+00 0. -1.
       -3    1    3    3    0  502  0.91690825772E+02 -0.83335304045E+02 -0.45512757867E+03  0.47169174627E+03  0.10100000352E+00 0.  1.
</event>
<event>
 5   0  0.9243773E-03  0.9905761E+03  0.7818609E-02  0.9318942E-01
        2   -1    0    0  501    0  0.00000000000E+00  0.00000000000E+00  0.30672888652E+03  0.30672888653E+03  0.25500000920E-02 0.  1.
       -2   -1    0    0    0  501  0.00000000000E+00  0.00000000000E+00 -0.79976254638E+03  0.79976254639E+03  0.25500000920E-02 0. -1.
    10030    2    1    2    0    0  0.00000000000E+00  0.00000000000E+00 -0.49303365986E+03  0.11064914329E+04  0.99057614618E+03 0.  0.
        3    1    3    3  502    0  0.44724211797E+03  0.16354736000E+03 -0.94434036814E+02  0.48548022469E+03  0.10100000352E+00 0.  1.
       -3    1    3    3    0  502 -0.44724211797E+03 -0.16354736000E+03 -0.39859962305E+03  0.62101120823E+03  0.10100000352E+00 0. -1.
</event>
<event>
 5   0  0.8875655E-03  0.9864895E+03  0.7818609E-02  0.9323488E-01
        2   -1    0    0  501    0  0.00000000000E+00  0.00000000000E+00  0.14118152255E+04  0.14118152255E+04  0.25500000920E-02 0.  1.
       -2   -1    0    0    0  501  0.00000000000E+00  0.00000000000E+00 -0.17232450792E+03  0.17232450793E+03  0.25500000920E-02 0. -1.
    10030    2    1    2    0    0  0.00000000000E+00  0.00000000000E+00  0.12394907176E+04  0.15841397335E+04  0.98648946071E+03 0.  0.
        4    1    3    3  502    0  0.45415336660E+03 -0.34234009546E+02  0.31564615505E+03  0.55413117211E+03  0.12699999809E+01 0. -1.
       -4    1    3    3    0  502 -0.45415336660E+03  0.34234009546E+02  0.92384456257E+03  0.10300085614E+04  0.12699999809E+01 0.  1.
</event>
<event>
 5   0  0.5189877E-03  0.1008018E+04  0.7818609E-02  0.9299795E-01
        1   -1    0    0  501    0  0.00000000000E+00  0.00000000000E+00  0.12295204129E+04  0.12295204129E+04  0.50400001928E-02 0. -1.
       -1   -1    0    0    0  501  0.00000000000E+00  0.00000000000E+00 -0.20660484727E+03  0.20660484733E+03  0.50400001928E-02 0.  1.
    10030    2    1    2    0    0  0.00000000000E+00  0.00000000000E+00  0.10229155656E+04  0.14361252603E+04  0.10080176133E+04 0.  0.
        3    1    3    3  502    0 -0.35309388559E+03  0.34651405865E+03  0.37423014006E+03  0.62031886382E+03  0.10100000352E+00 0.  1.
       -3    1    3    3    0  502  0.35309388559E+03 -0.34651405865E+03  0.64868542559E+03  0.81580639643E+03  0.10100000352E+00 0. -1.
</event>
<event>
 5   0  0.8875655E-03  0.1000760E+04  0.7818609E-02  0.9307712E-01
        2   -1    0    0  501    0  0.00000000000E+00  0.00000000000E+00  0.10298888381E+04  0.10298888381E+04  0.25500000920E-02 0.  1.
       -2   -1    0    0    0  501  0.00000000000E+00  0.00000000000E+00 -0.24311358166E+03  0.24311358167E+03  0.25500000920E-02 0. -1.
    10030    2    1    2    0    0  0.00000000000E+00  0.00000000000E+00  0.78677525645E+03  0.12730024198E+04  0.10007596398E+04 0.  0.
        4    1    3    3  502    0  0.27283267440E+03  0.41443939428E+03  0.31114017315E+03  0.58566842155E+03  0.12699999809E+01 0. -1.
       -4    1    3    3    0  502 -0.27283267440E+03 -0.41443939428E+03  0.47563508331E+03  0.68733399824E+03  0.12699999809E+01 0.  1.
</event>
<event>
 5   0  0.5072205E-03  0.1000471E+04  0.7818609E-02  0.9308029E-01
       -1   -1    0    0    0  501  0.00000000000E+00  0.00000000000E+00  0.39291068525E+03  0.39291068528E+03  0.50400001928E-02 0.  1.
        1   -1    0    0  501    0  0.00000000000E+00  0.00000000000E+00 -0.63687590727E+03  0.63687590729E+03  0.50400001928E-02 0. -1.
    10030    2    1    2    0    0  0.00000000000E+00  0.00000000000E+00 -0.24396522202E+03  0.10297865926E+04  0.10004705876E+04 0.  0.
        5    1    3    3  502    0 -0.33474555700E+02 -0.46329979824E+03  0.69052137439E+02  0.46963553594E+03  0.46999998093E+01 0.  1.
       -5    1    3    3    0  502  0.33474555700E+02  0.46329979824E+03 -0.31301735946E+03  0.56015105664E+03  0.46999998093E+01 0. -1.
</event>
<event>
 5   0  0.9040674E-03  0.1033464E+04  0.7818609E-02  0.9272585E-01
       -2   -1    0    0    0  501  0.00000000000E+00  0.00000000000E+00  0.63850216680E+03  0.63850216681E+03  0.25500000920E-02 0.  1.
        2   -1    0    0  501    0  0.00000000000E+00  0.00000000000E+00 -0.41818475930E+03  0.41818475931E+03  0.25500000920E-02 0. -1.
    10030    2    1    2    0    0  0.00000000000E+00  0.00000000000E+00  0.22031740750E+03  0.10566869261E+04  0.10334638357E+04 0.  0.
        1    1    3    3  502    0 -0.49490845678E+03  0.13408517233E+03  0.17561810731E+03  0.54199163616E+03  0.50400001928E-02 0.  1.
       -1    1    3    3    0  502  0.49490845678E+03 -0.13408517233E+03  0.44699300195E+02  0.51469528995E+03  0.50400001928E-02 0. -1.
</event>
<event>
 5   0  0.5201968E-03  0.1078666E+04  0.7818609E-02  0.9226239E-01
       -1   -1    0    0    0  501  0.00000000000E+00  0.00000000000E+00  0.81865821123E+03  0.81865821125E+03  0.50400001928E-02 0.  1.
        1   -1    0    0  501    0  0.00000000000E+00  0.00000000000E+00 -0.35531315503E+03  0.35531315507E+03  0.50400001928E-02 0. -1.
    10030    2    1    2    0    0  0.00000000000E+00  0.00000000000E+00  0.46334505620E+03  0.11739713663E+04  0.10786659019E+04 0.  0.
        2    1    3    3  502    0 -0.15716790088E+03 -0.31364419240E+03  0.67750714219E+03  0.76294846236E+03  0.25500000920E-02 0.  1.
       -2    1    3    3    0  502  0.15716790088E+03  0.31364419240E+03 -0.21416208599E+03  0.41102290396E+03  0.25500000920E-02 0. -1.
</event>
<event>
 5   0  0.8907355E-03  0.9692931E+03  0.7818609E-02  0.9342880E-01
       -2   -1    0    0    0  501  0.00000000000E+00  0.00000000000E+00  0.66594226896E+03  0.66594226896E+03  0.25500000920E-02 0. -1.
        2   -1    0    0  501    0  0.00000000000E+00  0.00000000000E+00 -0.35270665902E+03  0.35270665903E+03  0.25500000920E-02 0.  1.
    10030    2    1    2    0    0  0.00000000000E+00  0.00000000000E+00  0.31323560994E+03  0.10186489280E+04  0.96929308837E+03 0.  0.
        5    1    3    3  502    0  0.25714518387E+03 -0.26260973174E+02  0.58742670548E+03  0.64179865114E+03  0.46999998093E+01 0. -1.
       -5    1    3    3    0  502 -0.25714518387E+03  0.26260973174E+02 -0.27419109553E+03  0.37685027685E+03  0.46999998093E+01 0.  1.
</event>
<event>
 5   0  0.5189877E-03  0.1007396E+04  0.7818609E-02  0.9300470E-01
        1   -1    0    0  501    0  0.00000000000E+00  0.00000000000E+00  0.24327786778E+03  0.24327786784E+03  0.50400001928E-02 0.  1.
       -1   -1    0    0    0  501  0.00000000000E+00  0.00000000000E+00 -0.10428885850E+04  0.10428885850E+04  0.50400001928E-02 0. -1.
    10030    2    1    2    0    0  0.00000000000E+00  0.00000000000E+00 -0.79961071722E+03  0.12861664529E+04  0.10073960717E+04 0.  0.
        3    1    3    3  502    0 -0.61872213165E+02  0.10585628966E+03 -0.10235446436E+04  0.10308624411E+04  0.10100000352E+00 0. -1.
       -3    1    3    3    0  502  0.61872213165E+02 -0.10585628966E+03  0.22393392639E+03  0.25530401174E+03  0.10100000352E+00 0.  1.
</event>
<event>
 5   0  0.5189877E-03  0.1003525E+04  0.7818609E-02  0.9304688E-01
       -1   -1    0    0    0  501  0.00000000000E+00  0.00000000000E+00  0.93294425202E+03  0.93294425204E+03  0.50400001928E-02 0. -1.
        1   -1    0    0  501    0  0.00000000000E+00  0.00000000000E+00 -0.26986109852E+03  0.26986109857E+03  0.50400001928E-02 0.  1.
    10030    2    1    2    0    0  0.00000000000E+00  0.00000000000E+00  0.66308315350E+03  0.12028053506E+04  0.10035245104E+04 0.  0.
        3    1    3    3  502    0  0.14809370340E+03 -0.62443888444E+02  0.90125770580E+03  0.91547607651E+03  0.10100000352E+00 0. -1.
       -3    1    3    3    0  502 -0.14809370340E+03  0.62443888444E+02 -0.23817455230E+03  0.28732927410E+03  0.10100000352E+00 0.  1.
</event>
<event>
 5   0  0.5072205E-03  0.9503630E+03  0.7818609E-02  0.9364726E-01
        1   -1    0    0  501    0  0.00000000000E+00  0.00000000000E+00  0.61756946770E+03  0.61756946772E+03  0.50400001928E-02 0. -1.
       -1   -1    0    0    0  501  0.00000000000E+00  0.00000000000E+00 -0.36562273600E+03  0.36562273603E+03  0.50400001928E-02 0.  1.
    10030    2    1    2    0    0  0.00000000000E+00  0.00000000000E+00  0.25194673170E+03  0.98319220376E+03  0.95036295904E+03 0.  0.
        5    1    3    3  502    0  0.31734383394E+03 -0.16489581384E+03 -0.19768780687E+03  0.40865669864E+03  0.46999998093E+01 0.  1.
       -5    1    3    3    0  502 -0.31734383394E+03  0.16489581384E+03  0.44963453857E+03  0.57453550511E+03  0.46999998093E+01 0. -1.
</event>
<event>
 5   0  0.5310275E-03  0.1008884E+04  0.7818609E-02  0.9298854E-01
       -1   -1    0    0    0  501  0.00000000000E+00  0.00000000000E+00  0.79780465711E+03  0.79780465713E+03  0.50400001928E-02 0.  1.
        1   -1    0    0  501    0  0.00000000000E+00  0.00000000000E+00 -0.31895236758E+03  0.31895236762E+03  0.50400001928E-02 0. -1.
    10030    2    1    2    0    0  0.00000000000E+00  0.00000000000E+00  0.47885228953E+03  0.11167570247E+04  0.10088839067E+04 0.  0.
        1    1    3    3  502    0  0.50749540771E+02  0.49556005371E+03  0.32733007810E+03  0.59607068605E+03  0.50400001928E-02 0. -1.
       -1    1    3    3    0  502 -0.50749540771E+02 -0.49556005371E+03  0.15152221144E+03  0.52068633869E+03  0.50400001928E-02 0.  1.
</event>
<event>
 5   0  0.5201968E-03  0.1001143E+04  0.7818609E-02  0.9307293E-01
       -1   -1    0    0    0  501  0.00000000000E+00  0.00000000000E+00  0.27749256348E+03  0.27749256353E+03  0.50400001928E-02 0. -1.
        1   -1    0    0  501    0  0.00000000000E+00  0.00000000000E+00 -0.90298502388E+03  0.90298502390E+03  0.50400001928E-02 0.  1.
    10030    2    1    2    0    0  0.00000000000E+00  0.00000000000E+00 -0.62549246040E+03  0.11804775874E+04  0.10011426054E+04 0.  0.
        2    1    3    3  502    0 -0.24788292664E+03  0.86360986044E+02  0.18982818813E+03  0.32394275149E+03  0.25500000920E-02 0. -1.
       -2    1    3    3    0  502  0.24788292664E+03 -0.86360986044E+02 -0.81532064854E+03  0.85653483593E+03  0.25500000920E-02 0.  1.
</event>
<event>
 5   0  0.5072205E-03  0.9963446E+03  0.7818609E-02  0.9312563E-01
        1   -1    0    0  501    0  0.00000000000E+00  0.00000000000E+00  0.45235380895E+03  0.45235380898E+03  0.50400001928E-02 0. -1.
       -1   -1    0    0    0  501  0.00000000000E+00  0.00000000000E+00 -0.54863166987E+03  0.54863166989E+03  0.50400001928E-02 0.  1.
    10030    2    1    2    0    0  0.00000000000E+00  0.00000000000E+00 -0.96277860912E+02  0.10009854789E+04  0.99634457012E+03 0.  0.
        5    1    3    3  502    0 -0.43059788390E+03 -0.49980377012E+02  0.19844465359E+03  0.47677557219E+03  0.46999998093E+01 0. -1.
       -5    1    3    3    0  502  0.43059788390E+03  0.49980377012E+02 -0.29472251451E+03  0.52420990668E+03  0.46999998093E+01 0.  1.
</event>
<event>
 5   0  0.8907355E-03  0.1018366E+04  0.7818609E-02  0.9288627E-01
        2   -1    0    0  501    0  0.00000000000E+00  0.00000000000E+00  0.59432254466E+03  0.59432254466E+03  0.25500000920E-02 0. -1.
       -2   -1    0    0    0  501  0.00000000000E+00  0.00000000000E+00 -0.43624042293E+03  0.43624042293E+03  0.25500000920E-02 0.  1.
    10030    2    1    2    0    0  0.00000000000E+00  0.00000000000E+00  0.15808212173E+03  0.10305629676E+04  0.10183663746E+04 0.  0.
        5    1    3    3  502    0  0.38240687558E+03  0.22161218545E+03  0.33484995477E+03  0.55452101984E+03  0.46999998093E+01 0. -1.
       -5    1    3    3    0  502 -0.38240687558E+03 -0.22161218545E+03 -0.17676783304E+03  0.47604194776E+03  0.46999998093E+01 0.  1.
</event>
<event>
 5   0  0.5072205E-03  0.9925671E+03  0.7818609E-02  0.9316735E-01
       -1   -1    0    0    0  501  0.00000000000E+00  0.00000000000E+00  0.63414838211E+03  0.63414838213E+03  0.50400001928E-02 0.  1.
        1   -1    0    0  501    0  0.00000000000E+00  0.00000000000E+00 -0.38839075340E+03  0.38839075343E+03  0.50400001928E-02 0. -1.
    10030    2    1    2    0    0  0.00000000000E+00  0.00000000000E+00  0.24575762871E+03  0.10225391356E+04  0.99256711193E+03 0.  0.
        5    1    3    3  502    0 -0.21701902222E+03  0.22658110926E+03  0.51898771334E+03  0.60647060248E+03  0.46999998093E+01 0. -1.
       -5    1    3    3    0  502  0.21701902222E+03 -0.22658110926E+03 -0.27323008463E+03  0.41606853308E+03  0.46999998093E+01 0.  1.
</event>
<event>
 5   0  0.9040674E-03  0.1001408E+04  0.7818609E-02  0.9307002E-01
        2   -1    0    0  501    0  0.00000000000E+00  0.00000000000E+00  0.24591398678E+04  0.24591398678E+04  0.25500000920E-02 0.  1.
       -2   -1    0    0    0  501  0.00000000000E+00  0.00000000000E+00 -0.10194797621E+03  0.10194797624E+03  0.25500000920E-02 0. -1.
    10030    2    1    2    0    0  0.00000000000E+00  0.00000000000E+00  0.23571918916E+04  0.25610878441E+04  0.10014076748E+04 0.  0.
        1    1    3    3  502    0 -0.19125035316E+03  0.14039957599E+03  0.23062583666E+04  0.23184297255E+04  0.50400001928E-02 0.  1.
       -1    1    3    3    0  502  0.19125035316E+03 -0.14039957599E+03  0.50933525048E+02  0.24265811860E+03  0.50400001928E-02 0. -1.
</event>
<event>
 5   0  0.5310275E-03  0.1003386E+04  0.7818609E-02  0.9304839E-01
       -1   -1    0    0    0  501  0.00000000000E+00  0.00000000000E+00  0.67840593228E+03  0.67840593230E+03  0.50400001928E-02 0. -1.
        1   -1    0    0  501    0  0.00000000000E+00  0.00000000000E+00 -0.37101091410E+03  0.37101091413E+03  0.50400001928E-02 0.  1.
    10030    2    1    2    0    0  0.00000000000E+00  0.00000000000E+00  0.30739501818E+03  0.10494168464E+04  0.10033862767E+04 0.  0.
        1    1    3    3  502    0 -0.96802586376E+02 -0.13613211280E+03 -0.34107256855E+03  0.37978044961E+03  0.50400001928E-02 0.  1.
       -1    1    3    3    0  502  0.96802586376E+02  0.13613211280E+03  0.64846758674E+03  0.66963639681E+03  0.50400001928E-02 0. -1.
</event>
<event>
 5   0  0.8875655E-03  0.1026443E+04  0.7818609E-02  0.9280009E-01
       -2   -1    0    0    0  501  0.00000000000E+00  0.00000000000E+00  0.17620878924E+03  0.17620878926E+03  0.25500000920E-02 0.  1.
        2   -1    0    0  501    0  0.00000000000E+00  0.00000000000E+00 -0.14947960902E+04  0.14947960902E+04  0.25500000920E-02 0. -1.
    10030    2    1    2    0    0  0.00000000000E+00  0.00000000000E+00 -0.13185873010E+04  0.16710048795E+04  0.10264428074E+04 0.  0.
        4    1    3    3  502    0 -0.43006373533E+02 -0.51139889390E+03 -0.65273730956E+03  0.83032884151E+03  0.12699999809E+01 0.  1.
       -4    1    3    3    0  502  0.43006373533E+02  0.51139889390E+03 -0.66584999144E+03  0.84067603799E+03  0.12699999809E+01 0. -1.
</event>
<event>
 5   0  0.9243773E-03  0.9275625E+03  0.7818609E-02  0.9391768E-01
       -2   -1    0    0    0  501  0.00000000000E+00  0.00000000000E+00  0.20271265114E+03  0.20271265116E+03  0.25500000920E-02 0. -1.
        2   -1    0    0  501    0  0.00000000000E+00  0.00000000000E+00 -0.10610736416E+04  0.10610736416E+04  0.25500000920E-02 0.  1.
    10030    2    1    2    0    0  0.00000000000E+00  0.00000000000E+00 -0.85836099043E+03  0.12637862927E+04  0.92756250669E+03 0.  0.
        3    1    3    3  502    0  0.22484790399E+03  0.15920697425E+03 -0.93749657566E+03  0.97714035848E+03  0.10100000352E+00 0. -1.
       -3    1    3    3    0  502 -0.22484790399E+03 -0.15920697425E+03  0.79135585231E+02  0.28664593427E+03  0.10100000352E+00 0.  1.
</event>
<event>
 5   0  0.5189877E-03  0.9860745E+03  0.7818609E-02  0.9323951E-01
       -1   -1    0    0    0  501  0.00000000000E+00  0.00000000000E+00  0.15386187152E+04  0.15386187152E+04  0.50400001928E-02 0. -1.
        1   -1    0    0  501    0  0.00000000000E+00  0.00000000000E+00 -0.15798957896E+03  0.15798957904E+03  0.50400001928E-02 0.  1.
    10030    2    1    2    0    0  0.00000000000E+00  0.00000000000E+00  0.13806291363E+04  0.16966082943E+04  0.98607448617E+03 0.  0.
        3    1    3    3  502    0  0.40109983650E+03  0.19093483609E+02  0.11825295945E+04  0.12488482261E+04  0.10100000352E+00 0. -1.
       -3    1    3    3    0  502 -0.40109983650E+03 -0.19093483609E+02  0.19809954182E+03  0.44776006814E+03  0.10100000352E+00 0.  1.
</event>
<event>
 5   0  0.5072205E-03  0.9938829E+03  0.7818609E-02  0.9315279E-01
        1   -1    0    0  501    0  0.00000000000E+00  0.00000000000E+00  0.13218855318E+04  0.13218855318E+04  0.50400001928E-02 0. -1.
       -1   -1    0    0    0  501  0.00000000000E+00  0.00000000000E+00 -0.18681709740E+03  0.18681709747E+03  0.50400001928E-02 0.  1.
    10030    2    1    2    0    0  0.00000000000E+00  0.00000000000E+00  0.11350684344E+04  0.15087026293E+04  0.99388292712E+03 0.  0.
        5    1    3    3  502    0 -0.32882645037E+03 -0.28052803135E+03  0.19537649766E+03  0.47435943826E+03  0.46999998093E+01 0.  1.
       -5    1    3    3    0  502  0.32882645037E+03  0.28052803135E+03  0.93969193673E+03  0.10343431910E+04  0.46999998093E+01 0. -1.
</event>
<event>
 5   0  0.3513625E-03  0.1008428E+04  0.7818609E-02  0.9299349E-01
       -3   -1    0    0    0  501  0.00000000000E+00  0.00000000000E+00  0.55949920378E+03  0.55949921289E+03  0.10100000352E+00 0.  1.
        3   -1    0    0  501    0  0.00000000000E+00  0.00000000000E+00 -0.45439137257E+03  0.45439138379E+03  0.10100000352E+00 0. -1.
    10030    2    1    2    0    0  0.00000000000E+00  0.00000000000E+00  0.10510783121E+03  0.10138905967E+04  0.10084277296E+04 0.  0.
        2    1    3    3  502    0  0.39430748499E+03 -0.13743023447E+03 -0.23158303559E+03  0.47748943910E+03  0.25500000920E-02 0. -1.
       -2    1    3    3    0  502 -0.39430748499E+03  0.13743023447E+03  0.33669086680E+03  0.53640115759E+03  0.25500000920E-02 0.  1.
</event>
<event>
 5   0  0.5201968E-03  0.1010341E+04  0.7818609E-02  0.9297276E-01
        1   -1    0    0  501    0  0.00000000000E+00  0.00000000000E+00  0.67365484442E+03  0.67365484444E+03  0.50400001928E-02 0. -1.
       -1   -1    0    0    0  501  0.00000000000E+00  0.00000000000E+00 -0.37882455139E+03  0.37882455142E+03  0.50400001928E-02 0.  1.
    10030    2    1    2    0    0  0.00000000000E+00  0.00000000000E+00  0.29483029303E+03  0.10524793959E+04  0.10103405253E+04 0.  0.
        2    1    3    3  502    0  0.10698540470E+02  0.91136672064E+02 -0.37006995986E+03  0.38127696883E+03  0.25500000920E-02 0.  1.
       -2    1    3    3    0  502 -0.10698540470E+02 -0.91136672064E+02  0.66490025288E+03  0.67120242703E+03  0.25500000920E-02 0. -1.
</event>
<event>
 5   0  0.9243773E-03  0.1010164E+04  0.7818609E-02  0.9297467E-01
        2   -1    0    0  501    0  0.00000000000E+00  0.00000000000E+00  0.93114949555E+03  0.93114949555E+03  0.25500000920E-02 0. -1.
       -2   -1    0    0    0  501  0.00000000000E+00  0.00000000000E+00 -0.27397100571E+03  0.27397100572E+03  0.25500000920E-02 0.  1.
    10030    2    1    2    0    0  0.00000000000E+00  0.00000000000E+00  0.65717848984E+03  0.12051205013E+04  0.10101642713E+04 0.  0.
        3    1    3    3  502    0 -0.46918322935E+02  0.41439351460E+03 -0.11329726850E+02  0.41719502259E+03  0.10100000352E+00 0.  1.
       -3    1    3    3    0  502  0.46918322935E+02 -0.41439351460E+03  0.66850821669E+03  0.78792547868E+03  0.10100000352E+00 0. -1.
</event>
<event>
 5   0  0.8968798E-03  0.9983418E+03  0.7818609E-02  0.9310365E-01
        2   -1    0    0  501    0  0.00000000000E+00  0.00000000000E+00  0.96219702980E+03  0.96219702980E+03  0.25500000920E-02 0. -1.
       -2   -1    0    0    0  501  0.00000000000E+00  0.00000000000E+00 -0.25896109165E+03  0.25896109166E+03  0.25500000920E-02 0.  1.
    10030    2    1    2    0    0  0.00000000000E+00  0.00000000000E+00  0.70323593815E+03  0.12211581215E+04  0.99834181167E+03 0.  0.
        2    1    3    3  502    0 -0.45311459474E+03 -0.19388689863E+03  0.25478804479E+03  0.55481700875E+03  0.25500000920E-02 0.  1.
       -2    1    3    3    0  502  0.45311459474E+03  0.19388689863E+03  0.44844789336E+03  0.66634111271E+03  0.25500000920E-02 0. -1.
</event>
<event>
 5   0  0.9243773E-03  0.1002248E+04  0.7818609E-02  0.9306082E-01
       -2   -1    0    0    0  501  0.00000000000E+00  0.00000000000E+00  0.42113116295E+03  0.42113116296E+03  0.25500000920E-02 0.  1.
        2   -1    0    0  501    0  0.00000000000E+00  0.00000000000E+00 -0.59631175463E+03  0.59631175464E+03  0.25500000920E-02 0. -1.
    10030    2    1    2    0    0  0.00000000000E+00  0.00000000000E+00 -0.17518059168E+03  0.10174429176E+04  0.10022483978E+04 0.  0.
        3    1    3    3  502    0  0.14971640867E+03  0.16220035311E+03 -0.54430136786E+03  0.58735674579E+03  0.10100000352E+00 0. -1.
       -3    1    3    3    0  502 -0.14971640867E+03 -0.16220035311E+03  0.36912077618E+03  0.43008617181E+03  0.10100000352E+00 0.  1.
</event>
<event>
 5   0  0.8968798E-03  0.9750081E+03  0.7818609E-02  0.9336388E-01
       -2   -1    0    0    0  501  0.00000000000E+00  0.00000000000E+00  0.43107137493E+03  0.43107137493E+03  0.25500000920E-02 0.  1.
        2   -1    0    0  501    0  0.00000000000E+00  0.00000000000E+00 -0.55132447179E+03  0.55132447180E+03  0.25500000920E-02 0. -1.
    10030    2    1    2    0    0  0.00000000000E+00  0.00000000000E+00 -0.12025309687E+03  0.98239584673E+03  0.97500809862E+03 0.  0.
        2    1    3    3  502    0 -0.31031301830E+03 -0.37266216341E+03 -0.98592469596E+01  0.48504480424E+03  0.25500000920E-02 0.  1.
       -2    1    3    3    0  502  0.31031301830E+03  0.37266216341E+03 -0.11039384991E+03  0.49735104249E+03  0.25500000920E-02 0. -1.
</event>
<event>
 5   0  0.9243773E-03  0.9825142E+03  0.7818609E-02  0.9327934E-01
        2   -1    0    0  501    0  0.00000000000E+00  0.00000000000E+00  0.33672913228E+03  0.33672913229E+03  0.25500000920E-02 0. -1.
       -2   -1    0    0    0  501  0.00000000000E+00  0.00000000000E+00 -0.71669930168E+03  0.71669930168E+03  0.25500000920E-02 0.  1.
    10030    2    1    2    0    0  0.00000000000E+00  0.00000000000E+00 -0.37997016940E+03  0.10534284340E+04  0.98251419117E+03 0.  0.
        3    1    3    3  502    0 -0.29253125407E+03  0.38475754549E+03 -0.95776104403E+02  0.49273316896E+03  0.10100000352E+00 0. -1.
       -3    1    3    3    0  502  0.29253125407E+03 -0.38475754549E+03 -0.28419406500E+03  0.56069526501E+03  0.10100000352E+00 0.  1.
</event>
<event>
 5   0  0.8907355E-03  0.9834858E+03  0.7818609E-02  0.9326845E-01
       -2   -1    0    0    0  501  0.00000000000E+00  0.00000000000E+00  0.18931726791E+03  0.18931726793E+03  0.25500000920E-02 0.  1.
        2   -1    0    0  501    0  0.00000000000E+00  0.00000000000E+00 -0.12772796285E+04  0.12772796285E+04  0.25500000920E-02 0. -1.
    10030    2    1    2    0    0  0.00000000000E+00  0.00000000000E+00 -0.10879623606E+04  0.14665968965E+04  0.98348582024E+03 0.  0.
        5    1    3    3  502    0  0.59187798382E+02 -0.46746317007E+03 -0.33433837695E+03  0.57777958700E+03  0.46999998093E+01 0. -1.
       -5    1    3    3    0  502 -0.59187798382E+02  0.46746317007E+03 -0.75362398368E+03  0.88881730948E+03  0.46999998093E+01 0.  1.
</event>
<event>
 5   0  0.8875655E-03  0.9773983E+03  0.7818609E-02  0.9333687E-01
       -2   -1    0    0    0  501  0.00000000000E+00  0.00000000000E+00  0.12589395944E+03  0.12589395947E+03  0.25500000920E-02 0.  1.
        2   -1    0    0  501    0  0.00000000000E+00  0.00000000000E+00 -0.18970477473E+04  0.18970477473E+04  0.25500000920E-02 0. -1.
    10030    2    1    2    0    0  0.00000000000E+00  0.00000000000E+00 -0.17711537879E+04  0.20229417068E+04  0.97739828563E+03 0.  0.
        4    1    3    3  502    0  0.68910046050E+02 -0.25566224006E+03 -0.17357094861E+04  0.17557906505E+04  0.12699999809E+01 0. -1.
       -4    1    3    3    0  502 -0.68910046050E+02  0.25566224006E+03 -0.35444301797E+02  0.26715105628E+03  0.12699999809E+01 0.  1.
</event>
<event>
 5   0  0.8875655E-03  0.8906381E+03  0.7818609E-02  0.9437361E-01
       -2   -1    0    0    0  501  0.00000000000E+00  0.00000000000E+00  0.61698450731E+03  0.61698450732E+03  0.25500000920E-02 0.  1.
        2   -1    0    0  501    0  0.00000000000E+00  0.00000000000E+00 -0.32141658130E+03  0.32141658131E+03  0.25500000920E-02 0. -1.
    10030    2    1    2    0    0  0.00000000000E+00  0.00000000000E+00  0.29556792601E+03  0.93840108863E+03  0.89063808826E+03 0.  0.
        4    1    3    3  502    0 -0.25922608995E+03  0.28324174972E+03  0.38545443621E+03  0.54405954618E+03  0.12699999809E+01 0.  1.
       -4    1    3    3    0  502  0.25922608995E+03 -0.28324174972E+03 -0.89886510196E+02  0.39434154246E+03  0.12699999809E+01 0. -1.
</event>
<event>
 5   0  0.5310275E-03  0.1001174E+04  0.7818609E-02  0.9307258E-01
        1   -1    0    0  501    0  0.00000000000E+00  0.00000000000E+00  0.16168601134E+04  0.16168601135E+04  0.50400001928E-02 0.  1.
       -1   -1    0    0    0  501  0.00000000000E+00  0.00000000000E+00 -0.15498406867E+03  0.15498406875E+03  0.50400001928E-02 0. -1.
    10030    2    1    2    0    0  0.00000000000E+00  0.00000000000E+00  0.14618760448E+04  0.17718441822E+04  0.10011744282E+04 0.  0.
        1    1    3    3  502    0 -0.17969592193E+03 -0.34898976510E+03  0.18116128180E+03  0.43232382603E+03  0.50400001928E-02 0. -1.
       -1    1    3    3    0  502  0.17969592193E+03  0.34898976510E+03  0.12807147630E+04  0.13395203562E+04  0.50400001928E-02 0.  1.
</event>
<event>
 5   0  0.8968798E-03  0.1025275E+04  0.7818609E-02  0.9281249E-01
       -2   -1    0    0    0  501  0.00000000000E+00  0.00000000000E+00  0.32366593960E+03  0.32366593961E+03  0.25500000920E-02 0.  1.
        2   -1    0    0  501    0  0.00000000000E+00  0.00000000000E+00 -0.81194040195E+03  0.81194040195E+03  0.25500000920E-02 0. -1.
    10030    2    1    2    0    0  0.00000000000E+00  0.00000000000E+00 -0.48827446235E+03  0.11356063416E+04  0.10252754812E+04 0.  0.
        2    1    3    3  502    0  0.49777896067E+03 -0.58790626411E+02 -0.12506404934E+03  0.51660550509E+03  0.25500000920E-02 0. -1.
       -2    1    3    3    0  502 -0.49777896067E+03  0.58790626411E+02 -0.36321041300E+03  0.61900083648E+03  0.25500000920E-02 0.  1.
</event>
<event>
 5   0  0.5072205E-03  0.1033740E+04  0.7818609E-02  0.9272294E-01
       -1   -1    0    0    0  501  0.00000000000E+00  0.00000000000E+00  0.38449750536E+03  0.38449750539E+03  0.50400001928E-02 0.  1.
        1   -1    0    0  501    0  0.00000000000E+00  0.00000000000E+00 -0.69481476872E+03  0.69481476874E+03  0.50400001928E-02 0. -1.
    10030    2    1    2    0    0  0.00000000000E+00  0.00000000000E+00 -0.31031726336E+03  0.10793122741E+04  0.10337399001E+04 0.  0.
        5    1    3    3  502    0  0.33717108084E+03 -0.17818562022E+02  0.25341172322E+03  0.42218648767E+03  0.46999998093E+01 0.  1.
       -5    1    3    3    0  502 -0.33717108084E+03  0.17818562022E+02 -0.56372898658E+03  0.65712578645E+03  0.46999998093E+01 0. -1.
</event>
<event>
 5   0  0.5349685E-03  0.1007254E+04  0.7818609E-02  0.9300625E-01
        1   -1    0    0  501    0  0.00000000000E+00  0.00000000000E+00  0.24970035736E+03  0.24970035741E+03  0.50400001928E-02 0.  1.
       -1   -1    0    0    0  501  0.00000000000E+00  0.00000000000E+00 -0.10157772755E+04  0.10157772755E+04  0.50400001928E-02 0. -1.
    10030    2    1    2    0    0  0.00000000000E+00  0.00000000000E+00 -0.76607691811E+03  0.12654776329E+04  0.10072535901E+04 0.  0.
        4    1    3    3  502    0 -0.31844002374E+03 -0.20438325732E+03  0.34524196438E+02  0.37996065275E+03  0.12699999809E+01 0.  1.
       -4    1    3    3    0  502  0.31844002374E+03  0.20438325732E+03 -0.80060111454E+03  0.88551698013E+03  0.12699999809E+01 0. -1.
</event>
<event>
 5   0  0.5072205E-03  0.9965314E+03  0.7818609E-02  0.9312357E-01
       -1   -1    0    0    0  501  0.00000000000E+00  0.00000000000E+00  0.69101565187E+03  0.69101565189E+03  0.50400001928E-02 0.  1.
        1   -1    0    0  501    0  0.00000000000E+00  0.00000000000E+00 -0.35928084038E+03  0.35928084041E+03  0.50400001928E-02 0. -1.
    10030    2    1    2    0    0  0.00000000000E+00  0.00000000000E+00  0.33173481150E+03  0.10502964923E+04  0.99653135253E+03 0.  0.
        5    1    3    3  502    0  0.28986972825E+03 -0.77232530822E+02 -0.25341127904E+03  0.39271960673E+03  0.46999998093E+01 0.  1.
       -5    1    3    3    0  502 -0.28986972825E+03  0.77232530822E+02  0.58514609053E+03  0.65757688557E+03  0.46999998093E+01 0. -1.
</event>
<event>
 5   0  0.9040674E-03  0.1006788E+04  0.7818609E-02  0.9301131E-01
       -2   -1    0    0    0  501  0.00000000000E+00  0.00000000000E+00  0.29235304412E+03  0.29235304413E+03  0.25500000920E-02 0. -1.
        2   -1    0    0  501    0  0.00000000000E+00  0.00000000000E+00 -0.86677968010E+03  0.86677968010E+03  0.25500000920E-02 0.  1.
    10030    2    1    2    0    0  0.00000000000E+00  0.00000000000E+00 -0.57442663598E+03  0.11591327242E+04  0.10067883155E+04 0.  0.
        1    1    3    3  502    0 -0.13390667548E+03 -0.48124216204E+03 -0.35893457572E+03  0.61510897078E+03  0.50400001928E-02 0.  1.
       -1    1    3    3    0  502  0.13390667548E+03  0.48124216204E+03 -0.21549206026E+03  0.54402375345E+03  0.50400001928E-02 0. -1.
</event>
<event>
 5   0  0.9243773E-03  0.9887887E+03  0.7818609E-02  0.9320927E-01
       -2   -1    0    0    0  501  0.00000000000E+00  0.00000000000E+00  0.76004585639E+03  0.76004585640E+03  0.25500000920E-02 0. -1.
        2   -1    0    0  501    0  0.00000000000E+00  0.00000000000E+00 -0.32159347241E+03  0.32159347242E+03  0.25500000920E-02 0.  1.
    10030    2    1    2    0    0  0.00000000000E+00  0.00000000000E+00  0.43845238398E+03  0.10816393288E+04  0.98878872597E+03 0.  0.
        3    1    3    3  502    0  0.17807829884E+02 -0.16153949117E+03  0.72999081233E+03  0.74786276970E+03  0.10100000352E+00 0. -1.
       -3    1    3    3    0  502 -0.17807829884E+02  0.16153949117E+03 -0.29153842834E+03  0.33377655912E+03  0.10100000352E+00 0.  1.
</event>
<event>
 5   0  0.8907355E-03  0.9967648E+03  0.7818609E-02  0.9312100E-01
        2   -1    0    0  501    0  0.00000000000E+00  0.00000000000E+00  0.62739571758E+03  0.62739571758E+03  0.25500000920E-02 0. -1.
       -2   -1    0    0    0  501  0.00000000000E+00  0.00000000000E+00 -0.39589849132E+03  0.39589849133E+03  0.25500000920E-02 0.  1.
    10030    2    1    2    0    0  0.00000000000E+00  0.00000000000E+00  0.23149722626E+03  0.10232942089E+04  0.99676480286E+03 0.  0.
        5    1    3    3  502    0 -0.79057936605E+02  0.38684154044E+03 -0.19642758079E+03  0.44102428419E+03  0.46999998093E+01 0.  1.
       -5    1    3    3    0  502  0.79057936605E+02 -0.38684154044E+03  0.42792480706E+03  0.58226992472E+03  0.46999998093E+01 0. -1.
</event>
<event>
 5   0  0.5072205E-03  0.1004149E+04  0.7818609E-02  0.9304006E-01
       -1   -1    0    0    0  501  0.00000000000E+00  0.00000000000E+00  0.15045091020E+03  0.15045091029E+03  0.50400001928E-02 0.  1.
        1   -1    0    0  501    0  0.00000000000E+00  0.00000000000E+00 -0.16754891173E+04  0.16754891173E+04  0.50400001928E-02 0. -1.
    10030    2    1    2    0    0  0.00000000000E+00  0.00000000000E+00 -0.15250382071E+04  0.18259400276E+04  0.10041491180E+04 0.  0.
        5    1    3    3  502    0  0.22431529351E+03  0.18660691835E+03 -0.19604410936E+02  0.29248233418E+03  0.46999998093E+01 0.  1.
       -5    1    3    3    0  502 -0.22431529351E+03 -0.18660691835E+03 -0.15054337962E+04  0.15334576934E+04  0.46999998093E+01 0. -1.
</event>
<event>
 5   0  0.9243773E-03  0.1017914E+04  0.7818609E-02  0.9289112E-01
       -2   -1    0    0    0  501  0.00000000000E+00  0.00000000000E+00  0.21027677334E+03  0.21027677335E+03  0.25500000920E-02 0.  1.
        2   -1    0    0  501    0  0.00000000000E+00  0.00000000000E+00 -0.12318871970E+04  0.12318871970E+04  0.25500000920E-02 0. -1.
    10030    2    1    2    0    0  0.00000000000E+00  0.00000000000E+00 -0.10216104236E+04  0.14421639703E+04  0.10179140728E+04 0.  0.
        3    1    3    3  502    0 -0.33729400075E+03  0.12961195776E+03 -0.29900584983E+01  0.36135225638E+03  0.10100000352E+00 0.  1.
       -3    1    3    3    0  502  0.33729400075E+03 -0.12961195776E+03 -0.10186203651E+04  0.10808117139E+04  0.10100000352E+00 0. -1.
</event>
<event>
 5   0  0.8875655E-03  0.1028407E+04  0.7818609E-02  0.9277926E-01
        2   -1    0    0  501    0  0.00000000000E+00  0.00000000000E+00  0.52198094397E+03  0.52198094397E+03  0.25500000920E-02 0. -1.
       -2   -1    0    0    0  501  0.00000000000E+00  0.00000000000E+00 -0.50654152091E+03  0.50654152091E+03  0.25500000920E-02 0.  1.
    10030    2    1    2    0    0  0.00000000000E+00  0.00000000000E+00  0.15439423060E+02  0.10285224649E+04  0.10284065757E+04 0.  0.
        4    1    3    3  502    0  0.19854476650E+03  0.23323230590E+03 -0.40534750301E+03  0.50806057111E+03  0.12699999809E+01 0.  1.
       -4    1    3    3    0  502 -0.19854476650E+03 -0.23323230590E+03  0.42078692607E+03  0.52046189378E+03  0.12699999809E+01 0. -1.
</event>
<event>
 5   0  0.8907355E-03  0.1016786E+04  0.7818609E-02  0.9290324E-01
       -2   -1    0    0    0  501  0.00000000000E+00  0.00000000000E+00  0.46220621526E+03  0.46220621527E+03  0.25500000920E-02 0. -1.
        2   -1    0    0  501    0  0.00000000000E+00  0.00000000000E+00 -0.55919479983E+03  0.55919479984E+03  0.25500000920E-02 0.  1.
    10030    2    1    2    0    0  0.00000000000E+00  0.00000000000E+00 -0.96988584571E+02  0.10214010151E+04  0.10167857435E+04 0.  0.
        5    1    3    3  502    0  0.37204473909E+03 -0.30875242806E+03 -0.20635680906E+03  0.52569056712E+03  0.46999998093E+01 0.  1.
       -5    1    3    3    0  502 -0.37204473909E+03  0.30875242806E+03  0.10936822449E+03  0.49571044799E+03  0.46999998093E+01 0. -1.
</event>
<event>
 5   0  0.5072205E-03  0.1049482E+04  0.7818609E-02  0.9255879E-01
       -1   -1    0    0    0  501  0.00000000000E+00  0.00000000000E+00  0.60131789339E+03  0.60131789341E+03  0.50400001928E-02 0. -1.
        1   -1    0    0  501    0  0.00000000000E+00  0.00000000000E+00 -0.45791639620E+03  0.45791639622E+03  0.50400001928E-02 0.  1.
    10030    2    1    2    0    0  0.00000000000E+00  0.00000000000E+00  0.14340149720E+03  0.10592342896E+04  0.10494823919E+04 0.  0.
        5    1    3    3  502    0  0.18097805928E+03  0.14125842499E+03  0.54791577200E+03  0.59408819529E+03  0.46999998093E+01 0. -1.
       -5    1    3    3    0  502 -0.18097805928E+03 -0.14125842499E+03 -0.40451427481E+03  0.46514609435E+03  0.46999998093E+01 0.  1.
</event>
<event>
 5   0  0.9243773E-03  0.9998584E+03  0.7818609E-02  0.9308700E-01
        2   -1    0    0  501    0  0.00000000000E+00  0.00000000000E+00  0.34506925889E+03  0.34506925890E+03  0.25500000920E-02 0. -1.
       -2   -1    0    0    0  501  0.00000000000E+00  0.00000000000E+00 -0.72428706187E+03  0.72428706187E+03  0.25500000920E-02 0.  1.
    10030    2    1    2    0    0  0.00000000000E+00  0.00000000000E+00 -0.37921780298E+03  0.10693563208E+04  0.99985838931E+03 0.  0.
        3    1    3    3  502    0  0.38969124398E+03 -0.26016297171E+03 -0.37603840903E+03  0.60079025688E+03  0.10100000352E+00 0.  1.
       -3    1    3    3    0  502 -0.38969124398E+03  0.26016297171E+03 -0.31793939478E+01  0.46856606390E+03  0.10100000352E+00 0. -1.
</event>
<event>
 5   0  0.9040674E-03  0.9782464E+03  0.7818609E-02  0.9332731E-01
        2   -1    0    0  501    0  0.00000000000E+00  0.00000000000E+00  0.12743730291E+04  0.12743730291E+04  0.25500000920E-02 0.  1.
       -2   -1    0    0    0  501  0.00000000000E+00  0.00000000000E+00 -0.18773270048E+03  0.18773270050E+03  0.25500000920E-02 0. -1.
    10030    2    1    2    0    0  0.00000000000E+00  0.00000000000E+00  0.10866403287E+04  0.14621057296E+04  0.97824637019E+03 0.  0.
        1    1    3    3  502    0  0.20035951808E+03  0.38332278315E+03  0.20196670301E+03  0.47735819017E+03  0.50400001928E-02 0.  1.
       -1    1    3    3    0  502 -0.20035951808E+03 -0.38332278315E+03  0.88467362564E+03  0.98474753947E+03  0.50400001928E-02 0. -1.
</event>
<event>
 5   0  0.8875655E-03  0.9876695E+03  0.7818609E-02  0.9322173E-01
       -2   -1    0    0    0  501  0.00000000000E+00  0.00000000000E+00  0.29260400854E+03  0.29260400855E+03  0.25500000920E-02 0. -1.
        2   -1    0    0  501    0  0.00000000000E+00  0.00000000000E+00 -0.83345670730E+03  0.83345670731E+03  0.25500000920E-02 0.  1.
    10030    2    1    2    0    0  0.00000000000E+00  0.00000000000E+00 -0.54085269877E+03  0.11260607159E+04  0.98766952673E+03 0.  0.
        4    1    3    3  502    0  0.71407920872E+02 -0.71566401423E+02 -0.82153007013E+03  0.82772828271E+03  0.12699999809E+01 0.  1.
       -4    1    3    3    0  502 -0.71407920872E+02  0.71566401423E+02  0.28067737136E+03  0.29833243315E+03  0.12699999809E+01 0. -1.
</event>
<event>
 5   0  0.9040674E-03  0.1002807E+04  0.7818609E-02  0.9305472E-01
       -2   -1    0    0    0  501  0.00000000000E+00  0.00000000000E+00  0.16370445875E+03  0.16370445877E+03  0.25500000920E-02 0.  1.
        2   -1    0    0  501    0  0.00000000000E+00  0.00000000000E+00 -0.15357266549E+04  0.15357266549E+04  0.25500000920E-02 0. -1.
    10030    2    1    2    0    0  0.00000000000E+00  0.00000000000E+00 -0.13720221961E+04  0.16994311137E+04  0.10028066630E+04 0.  0.
        1    1    3    3  502    0  0.36595679337E+03  0.16066526655E+03 -0.17292023518E+03  0.43547572865E+03  0.50400001928E-02 0.  1.
       -1    1    3    3    0  502 -0.36595679337E+03 -0.16066526655E+03 -0.11991019610E+04  0.12639553850E+04  0.50400001928E-02 0. -1.
</event>
<event>
 5   0  0.9243773E-03  0.1058653E+04  0.7818609E-02  0.9246456E-01
       -2   -1    0    0    0  501  0.00000000000E+00  0.00000000000E+00  0.37849658033E+03  0.37849658034E+03  0.25500000920E-02 0.  1.
        2   -1    0    0  501    0  0.00000000000E+00  0.00000000000E+00 -0.74026195774E+03  0.74026195775E+03  0.25500000920E-02 0. -1.
    10030    2    1    2    0    0  0.00000000000E+00  0.00000000000E+00 -0.36176537742E+03  0.11187585381E+04  0.10586531435E+04 0.  0.
        3    1    3    3  502    0 -0.28105970002E+03  0.36696313066E+03 -0.45346132146E+03  0.64752117688E+03  0.10100000352E+00 0. -1.
       -3    1    3    3    0  502  0.28105970002E+03 -0.36696313066E+03  0.91695944039E+02  0.47123736121E+03  0.10100000352E+00 0.  1.
</event>
<event>
 5   0  0.8968798E-03  0.9806411E+03  0.7818609E-02  0.9330036E-01
        2   -1    0    0  501    0  0.00000000000E+00  0.00000000000E+00  0.15649717416E+04  0.15649717416E+04  0.25500000920E-02 0. -1.
       -2   -1    0    0    0  501  0.00000000000E+00  0.00000000000E+00 -0.15362208535E+03  0.15362208537E+03  0.25500000920E-02 0.  1.
    10030    2    1    2    0    0  0.00000000000E+00  0.00000000000E+00  0.14113496562E+04  0.17185938269E+04  0.98064106068E+03 0.  0.
        2    1    3    3  502    0 -0.12160198598E+03 -0.42276333438E+02 -0.12347290305E+03  0.17838130271E+03  0.25500000920E-02 0.  1.
       -2    1    3    3    0  502  0.12160198598E+03  0.42276333438E+02  0.15348225593E+04  0.15402125242E+04  0.25500000920E-02 0. -1.
</event>
<event>
 5   0  0.9040674E-03  0.9869643E+03  0.7818609E-02  0.9322959E-01
       -2   -1    0    0    0  501  0.00000000000E+00  0.00000000000E+00  0.29214292063E+03  0.29214292064E+03  0.25500000920E-02 0. -1.
        2   -1    0    0  501    0  0.00000000000E+00  0.00000000000E+00 -0.83358041517E+03  0.83358041517E+03  0.25500000920E-02 0.  1.
    10030    2    1    2    0    0  0.00000000000E+00  0.00000000000E+00 -0.54143749454E+03  0.11257233358E+04  0.98696426901E+03 0.  0.
        1    1    3    3  502    0  0.48226962216E+02  0.75821036441E+02 -0.82417020769E+03  0.82905440154E+03  0.50400001928E-02 0.  1.
       -1    1    3    3    0  502 -0.48226962216E+02 -0.75821036441E+02  0.28273271315E+03  0.29666893427E+03  0.50400001928E-02 0. -1.
</event>
<event>
 5   0  0.8968798E-03  0.1011474E+04  0.7818609E-02  0.9296049E-01
        2   -1    0    0  501    0  0.00000000000E+00  0.00000000000E+00  0.51892136365E+03  0.51892136365E+03  0.25500000920E-02 0.  1.
       -2   -1    0    0    0  501  0.00000000000E+00  0.00000000000E+00 -0.49288776697E+03  0.49288776697E+03  0.25500000920E-02 0. -1.
    10030    2    1    2    0    0  0.00000000000E+00  0.00000000000E+00  0.26033596678E+02  0.10118091306E+04  0.10114741562E+04 0.  0.
        2    1    3    3  502    0  0.19936194464E+03  0.35415576624E+03  0.31411232834E+03  0.51365167823E+03  0.25500000920E-02 0.  1.
       -2    1    3    3    0  502 -0.19936194464E+03 -0.35415576624E+03 -0.28807873166E+03  0.49815745239E+03  0.25500000920E-02 0. -1.
</event>
<event>
 5   0  0.5310275E-03  0.9929704E+03  0.7818609E-02  0.9316289E-01
       -1   -1    0    0    0  501  0.00000000000E+00  0.00000000000E+00  0.20971234822E+03  0.20971234828E+03  0.50400001928E-02 0. -1.
        1   -1    0    0  501    0  0.00000000000E+00  0.00000000000E+00 -0.11754078155E+04  0.11754078155E+04  0.50400001928E-02 0.  1.
    10030    2    1    2    0    0  0.00000000000E+00  0.00000000000E+00 -0.96569546727E+03  0.13851201638E+04  0.99297035836E+03 0.  0.
        1    1    3    3  502    0 -0.31637579402E+03  0.20099822558E+03 -0.93701045280E+03  0.10091989489E+04  0.50400001928E-02 0.  1.
       -1    1    3    3    0  502  0.31637579402E+03 -0.20099822558E+03 -0.28685014470E+02  0.37592121490E+03  0.50400001928E-02 0. -1.
</event>
<event>
 5   0  0.5201968E-03  0.9987841E+03  0.7818609E-02  0.9309879E-01
       -1   -1    0    0    0  501  0.00000000000E+00  0.00000000000E+00  0.30825994615E+03  0.30825994619E+03  0.50400001928E-02 0.  1.
        1   -1    0    0  501    0  0.00000000000E+00  0.00000000000E+00 -0.80903282418E+03  0.80903282420E+03  0.50400001928E-02 0. -1.
    10030    2    1    2    0    0  0.00000000000E+00  0.00000000000E+00 -0.50077287803E+03  0.11172927704E+04  0.99878409049E+03 0.  0.
        2    1    3    3  502    0 -0.18674193661E+03 -0.54070255068E+02 -0.76496226291E+03  0.78928030956E+03  0.25500000920E-02 0. -1.
       -2    1    3    3    0  502  0.18674193661E+03  0.54070255068E+02  0.26418938488E+03  0.32801246084E+03  0.25500000920E-02 0.  1.
</event>
<event>
 5   0  0.5349685E-03  0.1000436E+04  0.7818609E-02  0.9308067E-01
       -1   -1    0    0    0  501  0.00000000000E+00  0.00000000000E+00  0.10178731318E+04  0.10178731318E+04  0.50400001928E-02 0.  1.
        1   -1    0    0  501    0  0.00000000000E+00  0.00000000000E+00 -0.24582432169E+03  0.24582432174E+03  0.50400001928E-02 0. -1.
    10030    2    1    2    0    0  0.00000000000E+00  0.00000000000E+00  0.77204881007E+03  0.12636974535E+04  0.10004358495E+04 0.  0.
        4    1    3    3  502    0 -0.28961547634E+03  0.18446712142E+03  0.84548897868E+03  0.91255600868E+03  0.12699999809E+01 0.  1.
       -4    1    3    3    0  502  0.28961547634E+03 -0.18446712142E+03 -0.73440168603E+02  0.35114144484E+03  0.12699999809E+01 0. -1.
</event>
<event>
 5   0  0.5072205E-03  0.9933055E+03  0.7818609E-02  0.9315918E-01
        1   -1    0    0  501    0  0.00000000000E+00  0.00000000000E+00  0.35476333763E+03  0.35476333767E+03  0.50400001928E-02 0.  1.
       -1   -1    0    0    0  501  0.00000000000E+00  0.00000000000E+00 -0.69529154114E+03  0.69529154116E+03  0.50400001928E-02 0. -1.
    10030    2    1    2    0    0  0.00000000000E+00  0.00000000000E+00 -0.34052820351E+03  0.10500548788E+04  0.99330548733E+03 0.  0.
        5    1    3    3  502    0  0.89844024463E+02  0.37097100134E+03  0.16561519775E+03  0.41610325196E+03  0.46999998093E+01 0.  1.
       -5    1    3    3    0  502 -0.89844024463E+02 -0.37097100134E+03 -0.50614340126E+03  0.63395162686E+03  0.46999998093E+01 0. -1.
</event>
<event>
 5   0  0.9243773E-03  0.1002204E+04  0.7818609E-02  0.9306130E-01
       -2   -1    0    0    0  501  0.00000000000E+00  0.00000000000E+00  0.25812228506E+03  0.25812228507E+03  0.25500000920E-02 0.  1.
        2   -1    0    0  501    0  0.00000000000E+00  0.00000000000E+00 -0.97280809257E+03  0.97280809258E+03  0.25500000920E-02 0. -1.
    10030    2    1    2    0    0  0.00000000000E+00  0.00000000000E+00 -0.71468580752E+03  0.12309303776E+04  0.10022044657E+04 0.  0.
        3    1    3    3  502    0  0.73442960638E+02 -0.39801086889E+03  0.55484410144E+01  0.40476822457E+03  0.10100000352E+00 0.  1.
       -3    1    3    3    0  502 -0.73442960638E+02  0.39801086889E+03 -0.72023424853E+03  0.82616215308E+03  0.10100000352E+00 0. -1.
</event>
<event>
 5   0  0.3513625E-03  0.1005575E+04  0.7818609E-02  0.9302451E-01
       -3   -1    0    0    0  501  0.00000000000E+00  0.00000000000E+00  0.23488570203E+03  0.23488572374E+03  0.10100000352E+00 0. -1.
        3   -1    0    0  501    0  0.00000000000E+00  0.00000000000E+00 -0.10762480127E+04  0.10762480175E+04  0.10100000352E+00 0.  1.
    10030    2    1    2    0    0  0.00000000000E+00  0.00000000000E+00 -0.84136231071E+03  0.13111337412E+04  0.10055750342E+04 0.  0.
        4    1    3    3  502    0 -0.18331186735E+03 -0.56064948652E+02  0.18536651697E+03  0.26666247897E+03  0.12699999809E+01 0. -1.
       -4    1    3    3    0  502  0.18331186735E+03  0.56064948652E+02 -0.10267288277E+04  0.10444712622E+04  0.12699999809E+01 0.  1.
</event>
<event>
 5   0  0.9243773E-03  0.1000318E+04  0.7818609E-02  0.9308196E-01
       -2   -1    0    0    0  501  0.00000000000E+00  0.00000000000E+00  0.29755885313E+03  0.29755885314E+03  0.25500000920E-02 0.  1.
        2   -1    0    0  501    0  0.00000000000E+00  0.00000000000E+00 -0.84070420130E+03  0.84070420130E+03  0.25500000920E-02 0. -1.
    10030    2    1    2    0    0  0.00000000000E+00  0.00000000000E+00 -0.54314534817E+03  0.11382630544E+04  0.10003179054E+04 0.  0.
        3    1    3    3  502    0 -0.66993280925E+02 -0.35363596191E+03 -0.66675791001E+03  0.75770219348E+03  0.10100000352E+00 0. -1.
       -3    1    3    3    0  502  0.66993280925E+02  0.35363596191E+03  0.12361256184E+03  0.38056086096E+03  0.10100000352E+00 0.  1.
</event>
<event>
 5   0  0.5189877E-03  0.1004178E+04  0.7818609E-02  0.9303974E-01
        1   -1    0    0  501    0  0.00000000000E+00  0.00000000000E+00  0.29351027151E+03  0.29351027155E+03  0.50400001928E-02 0.  1.
       -1   -1    0    0    0  501  0.00000000000E+00  0.00000000000E+00 -0.85889117065E+03  0.85889117066E+03  0.50400001928E-02 0. -1.
    10030    2    1    2    0    0  0.00000000000E+00  0.00000000000E+00 -0.56538089914E+03  0.11524014422E+04  0.10041780335E+04 0.  0.
        3    1    3    3  502    0 -0.42012850361E+03 -0.25533695674E+02 -0.59683600191E+03  0.73032400518E+03  0.10100000352E+00 0. -1.
       -3    1    3    3    0  502  0.42012850361E+03  0.25533695674E+02  0.31455102777E+02  0.42207743703E+03  0.10100000352E+00 0.  1.
</event>
<event>
 5   0  0.5349685E-03  0.9983643E+03  0.7818609E-02  0.9310341E-01
        1   -1    0    0  501    0  0.00000000000E+00  0.00000000000E+00  0.27954060950E+03  0.27954060955E+03  0.50400001928E-02 0.  1.
       -1   -1    0    0    0  501  0.00000000000E+00  0.00000000000E+00 -0.89140115096E+03  0.89140115098E+03  0.50400001928E-02 0. -1.
    10030    2    1    2    0    0  0.00000000000E+00  0.00000000000E+00 -0.61186054146E+03  0.11709417605E+04  0.99836430442E+03 0.  0.
        4    1    3    3  502    0 -0.46072979040E+01  0.32571705649E+03 -0.74955738289E+03  0.81728251617E+03  0.12699999809E+01 0. -1.
       -4    1    3    3    0  502  0.46072979040E+01 -0.32571705649E+03  0.13769684143E+03  0.35365924436E+03  0.12699999809E+01 0.  1.
</event>
<event>
 5   0  0.5072205E-03  0.1023961E+04  0.7818609E-02  0.9282649E-01
        1   -1    0    0  501    0  0.00000000000E+00  0.00000000000E+00  0.44999994057E+03  0.44999994060E+03  0.50400001928E-02 0. -1.
       -1   -1    0    0    0  501  0.00000000000E+00  0.00000000000E+00 -0.58249738169E+03  0.58249738171E+03  0.50400001928E-02 0.  1.
    10030    2    1    2    0    0  0.00000000000E+00  0.00000000000E+00 -0.13249744112E+03  0.10324973223E+04  0.10239605211E+04 0.  0.
        5    1    3    3  502    0  0.20277307924E+03 -0.50058698636E+02 -0.53756286543E+03  0.57673106320E+03  0.46999998093E+01 0.  1.
       -5    1    3    3    0  502 -0.20277307924E+03  0.50058698636E+02  0.40506542431E+03  0.45576625911E+03  0.46999998093E+01 0. -1.
</event>
<event>
 5   0  0.8875655E-03  0.9914962E+03  0.7818609E-02  0.9317921E-01
       -2   -1    0    0    0  501  0.00000000000E+00  0.00000000000E+00  0.45234388738E+03  0.45234388739E+03  0.25500000920E-02 0.  1.
        2   -1    0    0  501    0  0.00000000000E+00  0.00000000000E+00 -0.54331717317E+03  0.54331717317E+03  0.25500000920E-02 0. -1.
    10030    2    1    2    0    0  0.00000000000E+00  0.00000000000E+00 -0.90973285786E+02  0.99566106056E+03  0.99149624749E+03 0.  0.
        4    1    3    3  502    0 -0.20612252121E+03 -0.43883223298E+03 -0.14938314823E+03  0.50732352629E+03  0.12699999809E+01 0.  1.
       -4    1    3    3    0  502  0.20612252121E+03  0.43883223298E+03  0.58409862441E+02  0.48833753427E+03  0.12699999809E+01 0. -1.
</event>
<event>
 5   0  0.8875655E-03  0.9761809E+03  0.7818609E-02  0.9335062E-01
        2   -1    0    0  501    0  0.00000000000E+00  0.00000000000E+00  0.15336876696E+04  0.15336876696E+04  0.25500000920E-02 0. -1.
       -2   -1    0    0    0  501  0.00000000000E+00  0.00000000000E+00 -0.15533299407E+03  0.15533299409E+03  0.25500000920E-02 0.  1.
    10030    2    1    2    0    0  0.00000000000E+00  0.00000000000E+00  0.13783546755E+04  0.16890206637E+04  0.97618092116E+03 0.  0.
        4    1    3    3  502    0 -0.36518030336E+03  0.16214063301E+03  0.20414248633E+03  0.44868920921E+03  0.12699999809E+01 0.  1.
       -4    1    3    3    0  502  0.36518030336E+03 -0.16214063301E+03  0.11742121892E+04  0.12403314545E+04  0.12699999809E+01 0. -1.
</event>
<event>
 5   0  0.9243773E-03  0.1002243E+04  0.7818609E-02  0.9306089E-01
       -2   -1    0    0    0  501  0.00000000000E+00  0.00000000000E+00  0.17522428068E+03  0.17522428070E+03  0.25500000920E-02 0.  1.
        2   -1    0    0  501    0  0.00000000000E+00  0.00000000000E+00 -0.14331491818E+04  0.14331491818E+04  0.25500000920E-02 0. -1.
    10030    2    1    2    0    0  0.00000000000E+00  0.00000000000E+00 -0.12579249011E+04  0.16083734625E+04  0.10022425545E+04 0.  0.
        3    1    3    3  502    0 -0.16689200443E+03 -0.19602577965E+03 -0.13189100766E+04  0.13438016400E+04  0.10100000352E+00 0. -1.
       -3    1    3    3    0  502  0.16689200443E+03  0.19602577965E+03  0.60985175445E+02  0.26457182249E+03  0.10100000352E+00 0.  1.
</event>
<event>
 5   0  0.5310275E-03  0.1028932E+04  0.7818609E-02  0.9277370E-01
       -1   -1    0    0    0  501  0.00000000000E+00  0.00000000000E+00  0.66824072780E+03  0.66824072782E+03  0.50400001928E-02 0. -1.
        1   -1    0    0  501    0  0.00000000000E+00  0.00000000000E+00 -0.39607776134E+03  0.39607776137E+03  0.50400001928E-02 0.  1.
    10030    2    1    2    0    0  0.00000000000E+00  0.00000000000E+00  0.27216296647E+03  0.10643184892E+04  0.10289320513E+04 0.  0.
        1    1    3    3  502    0 -0.63806521223E+02  0.30339342317E+03  0.56075736690E+03  0.64075554304E+03  0.50400001928E-02 0. -1.
       -1    1    3    3    0  502  0.63806521223E+02 -0.30339342317E+03 -0.28859440043E+03  0.42356294616E+03  0.50400001928E-02 0.  1.
</event>
<event>
 5   0  0.8875655E-03  0.1002754E+04  0.7818609E-02  0.9305529E-01
       -2   -1    0    0    0  501  0.00000000000E+00  0.00000000000E+00  0.31640298181E+03  0.31640298182E+03  0.25500000920E-02 0.  1.
        2   -1    0    0  501    0  0.00000000000E+00  0.00000000000E+00 -0.79449008764E+03  0.79449008764E+03  0.25500000920E-02 0. -1.
    10030    2    1    2    0    0  0.00000000000E+00  0.00000000000E+00 -0.47808710583E+03  0.11108930695E+04  0.10027542725E+04 0.  0.
        4    1    3    3  502    0  0.18836472695E+03 -0.28777029578E+03  0.16510527359E+03  0.38151589451E+03  0.12699999809E+01 0.  1.
       -4    1    3    3    0  502 -0.18836472695E+03  0.28777029578E+03 -0.64319237942E+03  0.72937717495E+03  0.12699999809E+01 0. -1.
</event>
<event>
 5   0  0.5349685E-03  0.9859030E+03  0.7818609E-02  0.9324143E-01
       -1   -1    0    0    0  501  0.00000000000E+00  0.00000000000E+00  0.19637303626E+03  0.19637303632E+03  0.50400001928E-02 0. -1.
        1   -1    0    0  501    0  0.00000000000E+00  0.00000000000E+00 -0.12374466717E+04  0.12374466717E+04  0.50400001928E-02 0.  1.
    10030    2    1    2    0    0  0.00000000000E+00  0.00000000000E+00 -0.10410736354E+04  0.14338197080E+04  0.98590295704E+03 0.  0.
        4    1    3    3  502    0 -0.18900483887E+03 -0.45252399104E+03 -0.59323478609E+03  0.76969469007E+03  0.12699999809E+01 0. -1.
       -4    1    3    3    0  502  0.18900483887E+03  0.45252399104E+03 -0.44783884930E+03  0.66412501792E+03  0.12699999809E+01 0.  1.
</event>
<event>
 5   0  0.9040674E-03  0.1000759E+04  0.7818609E-02  0.9307712E-01
        2   -1    0    0  501    0  0.00000000000E+00  0.00000000000E+00  0.66494966108E+03  0.66494966108E+03  0.25500000920E-02 0. -1.
       -2   -1    0    0    0  501  0.00000000000E+00  0.00000000000E+00 -0.37653947725E+03  0.37653947726E+03  0.25500000920E-02 0.  1.
    10030    2    1    2    0    0  0.00000000000E+00  0.00000000000E+00  0.28841018383E+03  0.10414891383E+04  0.10007593073E+04 0.  0.
        1    1    3    3  502    0 -0.69322257846E+02  0.33656102544E+03  0.52274049521E+03  0.62556896074E+03  0.50400001928E-02 0. -1.
       -1    1    3    3    0  502  0.69322257846E+02 -0.33656102544E+03 -0.23433031138E+03  0.41592017760E+03  0.50400001928E-02 0.  1.
</event>
<event>
 5   0  0.8907355E-03  0.9796894E+03  0.7818609E-02  0.9331106E-01
        2   -1    0    0  501    0  0.00000000000E+00  0.00000000000E+00  0.97783201129E+03  0.97783201129E+03  0.25500000920E-02 0.  1.
       -2   -1    0    0    0  501  0.00000000000E+00  0.00000000000E+00 -0.24538758128E+03  0.24538758129E+03  0.25500000920E-02 0. -1.
    10030    2    1    2    0    0  0.00000000000E+00  0.00000000000E+00  0.73244443001E+03  0.12232195926E+04  0.97968940416E+03 0.  0.
        5    1    3    3  502    0 -0.18803759055E+03  0.35000677301E+03  0.72389784987E+03  0.82578027565E+03  0.46999998093E+01 0.  1.
       -5    1    3    3    0  502  0.18803759055E+03 -0.35000677301E+03  0.85465801421E+01  0.39743931693E+03  0.46999998093E+01 0. -1.
</event>
<event>
 5   0  0.5349685E-03  0.1004787E+04  0.7818609E-02  0.9303310E-01
       -1   -1    0    0    0  501  0.00000000000E+00  0.00000000000E+00  0.65398661739E+03  0.65398661741E+03  0.50400001928E-02 0.  1.
        1   -1    0    0  501    0  0.00000000000E+00  0.00000000000E+00 -0.38593977210E+03  0.38593977213E+03  0.50400001928E-02 0. -1.
    10030    2    1    2    0    0  0.00000000000E+00  0.00000000000E+00  0.26804684529E+03  0.10399263895E+04  0.10047874324E+04 0.  0.
        4    1    3    3  502    0  0.32038148754E+03  0.36524551412E+03  0.26635921524E+03  0.55407348573E+03  0.12699999809E+01 0. -1.
       -4    1    3    3    0  502 -0.32038148754E+03 -0.36524551412E+03  0.16876300539E+01  0.48585290381E+03  0.12699999809E+01 0.  1.
</event>
<event>
 5   0  0.5310275E-03  0.9955641E+03  0.7818609E-02  0.9313423E-01
        1   -1    0    0  501    0  0.00000000000E+00  0.00000000000E+00  0.15175134391E+04  0.15175134391E+04  0.50400001928E-02 0. -1.
       -1   -1    0    0    0  501  0.00000000000E+00  0.00000000000E+00 -0.16328486192E+03  0.16328486199E+03  0.50400001928E-02 0.  1.
    10030    2    1    2    0    0  0.00000000000E+00  0.00000000000E+00  0.13542285771E+04  0.16807983011E+04  0.99556410627E+03 0.  0.
        1    1    3    3  502    0 -0.18894061732E+03 -0.22948423213E+03  0.30130401081E+01  0.29727201030E+03  0.50400001928E-02 0.  1.
       -1    1    3    3    0  502  0.18894061732E+03  0.22948423213E+03  0.13512155370E+04  0.13835262908E+04  0.50400001928E-02 0. -1.
</event>
<event>
 5   0  0.5349685E-03  0.9979390E+03  0.7818609E-02  0.9310808E-01
       -1   -1    0    0    0  501  0.00000000000E+00  0.00000000000E+00  0.90103757744E+03  0.90103757745E+03  0.50400001928E-02 0.  1.
        1   -1    0    0  501    0  0.00000000000E+00  0.00000000000E+00 -0.27631538522E+03  0.27631538527E+03  0.50400001928E-02 0. -1.
    10030    2    1    2    0    0  0.00000000000E+00  0.00000000000E+00  0.62472219222E+03  0.11773529627E+04  0.99793896676E+03 0.  0.
        4    1    3    3  502    0 -0.21309645562E+02 -0.49828994146E+03  0.29478406082E+03  0.57934982711E+03  0.12699999809E+01 0.  1.
       -4    1    3    3    0  502  0.21309645562E+02  0.49828994146E+03  0.32993813140E+03  0.59800313562E+03  0.12699999809E+01 0. -1.
</event>
<event>
 5   0  0.8875655E-03  0.1012691E+04  0.7818609E-02  0.9294734E-01
       -2   -1    0    0    0  501  0.00000000000E+00  0.00000000000E+00  0.57585522499E+03  0.57585522500E+03  0.25500000920E-02 0. -1.
        2   -1    0    0  501    0  0.00000000000E+00  0.00000000000E+00 -0.44522574498E+03  0.44522574498E+03  0.25500000920E-02 0.  1.
    10030    2    1    2    0    0  0.00000000000E+00  0.00000000000E+00  0.13062948002E+03  0.10210809700E+04  0.10126906172E+04 0.  0.
        4    1    3    3  502    0  0.13988614160E+03  0.22988494877E+03  0.49778416490E+03  0.56586739614E+03  0.12699999809E+01 0. -1.
       -4    1    3    3    0  502 -0.13988614160E+03 -0.22988494877E+03 -0.36715468488E+03  0.45521357385E+03  0.12699999809E+01 0.  1.
</event>
<event>
 5   0  0.5310275E-03  0.9840493E+03  0.7818609E-02  0.9326214E-01
       -1   -1    0    0    0  501  0.00000000000E+00  0.00000000000E+00  0.29594089254E+03  0.29594089258E+03  0.50400001928E-02 0. -1.
        1   -1    0    0  501    0  0.00000000000E+00  0.00000000000E+00 -0.81802913856E+03  0.81802913857E+03  0.50400001928E-02 0.  1.
    10030    2    1    2    0    0  0.00000000000E+00  0.00000000000E+00 -0.52208824602E+03  0.11139700312E+04  0.98404933498E+03 0.  0.
        1    1    3    3  502    0  0.32787052439E+03 -0.76088423493E+02  0.14522529854E+03  0.36657729924E+03  0.50400001928E-02 0. -1.
       -1    1    3    3    0  502 -0.32787052439E+03  0.76088423493E+02 -0.66731354455E+03  0.74739273192E+03  0.50400001928E-02 0.  1.
</event>
<event>
 5   0  0.9040674E-03  0.9996465E+03  0.7818609E-02  0.9308933E-01
        2   -1    0    0  501    0  0.00000000000E+00  0.00000000000E+00  0.94915635429E+03  0.94915635429E+03  0.25500000920E-02 0. -1.
       -2   -1    0    0    0  501  0.00000000000E+00  0.00000000000E+00 -0.26320560555E+03  0.26320560557E+03  0.25500000920E-02 0.  1.
    10030    2    1    2    0    0  0.00000000000E+00  0.00000000000E+00  0.68595074874E+03  0.12123619599E+04  0.99964648353E+03 0.  0.
        1    1    3    3  502    0  0.20198654848E+03 -0.25406468930E+03  0.80395685012E+03  0.86700291176E+03  0.50400001928E-02 0. -1.
       -1    1    3    3    0  502 -0.20198654848E+03  0.25406468930E+03 -0.11800610139E+03  0.34535904810E+03  0.50400001928E-02 0.  1.
</event>
<event>
 5   0  0.5072205E-03  0.9964376E+03  0.7818609E-02  0.9312461E-01
        1   -1    0    0  501    0  0.00000000000E+00  0.00000000000E+00  0.92346889669E+03  0.92346889670E+03  0.50400001928E-02 0.  1.
       -1   -1    0    0    0  501  0.00000000000E+00  0.00000000000E+00 -0.26879297900E+03  0.26879297904E+03  0.50400001928E-02 0. -1.
    10030    2    1    2    0    0  0.00000000000E+00  0.00000000000E+00  0.65467591769E+03  0.11922618757E+04  0.99643756611E+03 0.  0.
        5    1    3    3  502    0  0.17509095348E+03  0.38649084412E+02  0.88349567682E+03  0.90151943666E+03  0.46999998093E+01 0.  1.
       -5    1    3    3    0  502 -0.17509095348E+03 -0.38649084412E+02 -0.22881975913E+03  0.29074243908E+03  0.46999998093E+01 0. -1.
</event>
<event>
 5   0  0.5072205E-03  0.1002478E+04  0.7818609E-02  0.9305831E-01
        1   -1    0    0  501    0  0.00000000000E+00  0.00000000000E+00  0.40698144077E+03  0.40698144080E+03  0.50400001928E-02 0.  1.
       -1   -1    0    0    0  501  0.00000000000E+00  0.00000000000E+00 -0.61732642431E+03  0.61732642433E+03  0.50400001928E-02 0. -1.
    10030    2    1    2    0    0  0.00000000000E+00  0.00000000000E+00 -0.21034498354E+03  0.10243078651E+04  0.10024777257E+04 0.  0.
        5    1    3    3  502    0  0.34143442904E+03 -0.93211569478E+02 -0.46779860173E+03  0.58662039497E+03  0.46999998093E+01 0. -1.
       -5    1    3    3    0  502 -0.34143442904E+03  0.93211569478E+02  0.25745361819E+03  0.43768747016E+03  0.46999998093E+01 0.  1.
</event>
<event>
 5   0  0.9243773E-03  0.9789730E+03  0.7818609E-02  0.9331912E-01
       -2   -1    0    0    0  501  0.00000000000E+00  0.00000000000E+00  0.27913437991E+03  0.27913437992E+03  0.25500000920E-02 0.  1.
        2   -1    0    0  501    0  0.00000000000E+00  0.00000000000E+00 -0.85835738317E+03  0.85835738317E+03  0.25500000920E-02 0. -1.
    10030    2    1    2    0    0  0.00000000000E+00  0.00000000000E+00 -0.57922300326E+03  0.11374917631E+04  0.97897304539E+03 0.  0.
        3    1    3    3  502    0  0.31526928947E+03  0.37172510362E+03 -0.34186923637E+03  0.59535608044E+03  0.10100000352E+00 0.  1.
       -3    1    3    3    0  502 -0.31526928947E+03 -0.37172510362E+03 -0.23735376689E+03  0.54213568265E+03  0.10100000352E+00 0. -1.
</event>
<event>
 5   0  0.5310275E-03  0.9926523E+03  0.7818609E-02  0.9316641E-01
        1   -1    0    0  501    0  0.00000000000E+00  0.00000000000E+00  0.35258668091E+03  0.35258668094E+03  0.50400001928E-02 0. -1.
       -1   -1    0    0    0  501  0.00000000000E+00  0.00000000000E+00 -0.69866408165E+03  0.69866408167E+03  0.50400001928E-02 0.  1.
    10030    2    1    2    0    0  0.00000000000E+00  0.00000000000E+00 -0.34607740075E+03  0.10512507626E+04  0.99265230498E+03 0.  0.
        1    1    3    3  502    0  0.15379661874E+03 -0.28832290576E+02 -0.67185855190E+03  0.68983955722E+03  0.50400001928E-02 0.  1.
       -1    1    3    3    0  502 -0.15379661874E+03  0.28832290576E+02  0.32578115115E+03  0.36141120540E+03  0.50400001928E-02 0. -1.
</event>
<event>
 5   0  0.5072205E-03  0.1006082E+04  0.7818609E-02  0.9301899E-01
        1   -1    0    0  501    0  0.00000000000E+00  0.00000000000E+00  0.58932959486E+03  0.58932959488E+03  0.50400001928E-02 0.  1.
       -1   -1    0    0    0  501  0.00000000000E+00  0.00000000000E+00 -0.42938684355E+03  0.42938684358E+03  0.50400001928E-02 0. -1.
    10030    2    1    2    0    0  0.00000000000E+00  0.00000000000E+00  0.15994275131E+03  0.10187164385E+04  0.10060822522E+04 0.  0.
        5    1    3    3  502    0  0.31657052896E+03 -0.37112011736E+03  0.20431925948E+03  0.52888135826E+03  0.46999998093E+01 0. -1.
       -5    1    3    3    0  502 -0.31657052896E+03  0.37112011736E+03 -0.44376508175E+02  0.48983508020E+03  0.46999998093E+01 0.  1.
</event>
<event>
 5   0  0.3513625E-03  0.9971797E+03  0.7818609E-02  0.9311643E-01
        3   -1    0    0  501    0  0.00000000000E+00  0.00000000000E+00  0.59814312123E+03  0.59814312976E+03  0.10100000352E+00 0.  1.
       -3   -1    0    0    0  501  0.00000000000E+00  0.00000000000E+00 -0.41560593657E+03  0.41560594884E+03  0.10100000352E+00 0. -1.
    10030    2    1    2    0    0  0.00000000000E+00  0.00000000000E+00  0.18253718466E+03  0.10137490786E+04  0.99717970826E+03 0.  0.
        4    1    3    3  502    0 -0.12699670658E+02  0.49646195549E+03  0.13621262981E+03  0.51496723032E+03  0.12699999809E+01 0. -1.
       -4    1    3    3    0  502  0.12699670658E+02 -0.49646195549E+03  0.46324554853E+02  0.49878184827E+03  0.12699999809E+01 0.  1.
</event>
<event>
 5   0  0.8907355E-03  0.9926343E+03  0.7818609E-02  0.9316660E-01
       -2   -1    0    0    0  501  0.00000000000E+00  0.00000000000E+00  0.50993387744E+03  0.50993387745E+03  0.25500000920E-02 0.  1.
        2   -1    0    0  501    0  0.00000000000E+00  0.00000000000E+00 -0.48306402930E+03  0.48306402930E+03  0.25500000920E-02 0. -1.
    10030    2    1    2    0    0  0.00000000000E+00  0.00000000000E+00  0.26869848145E+02  0.99299790675E+03  0.99263430027E+03 0.  0.
        5    1    3    3  502    0 -0.46027286603E+03  0.18550418433E+03  0.20198311332E+02  0.49668196604E+03  0.46999998093E+01 0. -1.
       -5    1    3    3    0  502  0.46027286603E+03 -0.18550418433E+03  0.66715368124E+01  0.49631594071E+03  0.46999998093E+01 0.  1.
</event>
<event>
 5   0  0.5310275E-03  0.1001634E+04  0.7818609E-02  0.9306755E-01
       -1   -1    0    0    0  501  0.00000000000E+00  0.00000000000E+00  0.21116119570E+03  0.21116119576E+03  0.50400001928E-02 0. -1.
        1   -1    0    0  501    0  0.00000000000E+00  0.00000000000E+00 -0.11878009869E+04  0.11878009869E+04  0.50400001928E-02 0.  1.
    10030    2    1    2    0    0  0.00000000000E+00  0.00000000000E+00 -0.97663979118E+03  0.13989621826E+04  0.10016336190E+04 0.  0.
        1    1    3    3  502    0  0.45042001370E+03  0.13365543631E+02 -0.18308639541E+03  0.48639228480E+03  0.50400001928E-02 0.  1.
       -1    1    3    3    0  502 -0.45042001370E+03 -0.13365543631E+02 -0.79355339577E+03  0.91256989785E+03  0.50400001928E-02 0. -1.
</event>
<event>
 5   0  0.5072205E-03  0.1006193E+04  0.7818609E-02  0.9301779E-01
       -1   -1    0    0    0  501  0.00000000000E+00  0.00000000000E+00  0.45442440305E+03  0.45442440308E+03  0.50400001928E-02 0.  1.
        1   -1    0    0  501    0  0.00000000000E+00  0.00000000000E+00 -0.55698135864E+03  0.55698135866E+03  0.50400001928E-02 0. -1.
    10030    2    1    2    0    0  0.00000000000E+00  0.00000000000E+00 -0.10255695559E+03  0.10114057617E+04  0.10061926683E+04 0.  0.
        5    1    3    3  502    0  0.66255208733E+02 -0.57462728850E+02 -0.54921568082E+03  0.55619391577E+03  0.46999998093E+01 0. -1.
       -5    1    3    3    0  502 -0.66255208733E+02  0.57462728850E+02  0.44665872523E+03  0.45521184597E+03  0.46999998093E+01 0.  1.
</event>
<event>
 5   0  0.5189877E-03  0.9966843E+03  0.7818609E-02  0.9312189E-01
        1   -1    0    0  501    0  0.00000000000E+00  0.00000000000E+00  0.80154989038E+03  0.80154989040E+03  0.50400001928E-02 0. -1.
       -1   -1    0    0    0  501  0.00000000000E+00  0.00000000000E+00 -0.30983089690E+03  0.30983089694E+03  0.50400001928E-02 0.  1.
    10030    2    1    2    0    0  0.00000000000E+00  0.00000000000E+00  0.49171899348E+03  0.11113807873E+04  0.99668434618E+03 0.  0.
        3    1    3    3  502    0  0.34728336903E+03  0.26043137860E+03 -0.27083422968E+02  0.43492960737E+03  0.10100000352E+00 0.  1.
       -3    1    3    3    0  502 -0.34728336903E+03 -0.26043137860E+03  0.51880241645E+03  0.67645117997E+03  0.10100000352E+00 0. -1.
</event>
<event>
 5   0  0.8875655E-03  0.1007807E+04  0.7818609E-02  0.9300024E-01
        2   -1    0    0  501    0  0.00000000000E+00  0.00000000000E+00  0.45524997370E+03  0.45524997371E+03  0.25500000920E-02 0. -1.
       -2   -1    0    0    0  501  0.00000000000E+00  0.00000000000E+00 -0.55775650124E+03  0.55775650124E+03  0.25500000920E-02 0.  1.
    10030    2    1    2    0    0  0.00000000000E+00  0.00000000000E+00 -0.10250652753E+03  0.10130064750E+04  0.10078067921E+04 0.  0.
        4    1    3    3  502    0  0.47207125733E+03  0.39004223454E+02 -0.22402498557E+03  0.52398607663E+03  0.12699999809E+01 0.  1.
       -4    1    3    3    0  502 -0.47207125733E+03 -0.39004223454E+02  0.12151845803E+03  0.48902039833E+03  0.12699999809E+01 0. -1.
</event>
<event>
 5   0  0.5201968E-03  0.9357546E+03  0.7818609E-02  0.9381958E-01
        1   -1    0    0  501    0  0.00000000000E+00  0.00000000000E+00  0.58834002806E+03  0.58834002808E+03  0.50400001928E-02 0.  1.
       -1   -1    0    0    0  501  0.00000000000E+00  0.00000000000E+00 -0.37207931031E+03  0.37207931034E+03  0.50400001928E-02 0. -1.
    10030    2    1    2    0    0  0.00000000000E+00  0.00000000000E+00  0.21626071775E+03  0.96041933843E+03  0.93575456589E+03 0.  0.
        2    1    3    3  502    0 -0.10947124416E+03  0.33957238402E+03 -0.20252876823E+03  0.41025755234E+03  0.25500000920E-02 0. -1.
       -2    1    3    3    0  502  0.10947124416E+03 -0.33957238402E+03  0.41878948598E+03  0.55016178608E+03  0.25500000920E-02 0.  1.
</event>
<event>
 5   0  0.5072205E-03  0.1000062E+04  0.7818609E-02  0.9308477E-01
       -1   -1    0    0    0  501  0.00000000000E+00  0.00000000000E+00  0.34267338928E+03  0.34267338932E+03  0.50400001928E-02 0.  1.
        1   -1    0    0  501    0  0.00000000000E+00  0.00000000000E+00 -0.72964755670E+03  0.72964755672E+03  0.50400001928E-02 0. -1.
    10030    2    1    2    0    0  0.00000000000E+00  0.00000000000E+00 -0.38697416742E+03  0.10723209460E+04  0.10000616006E+04 0.  0.
        5    1    3    3  502    0 -0.29248217064E+03  0.39901645762E+03 -0.27117013906E+03  0.56419437068E+03  0.46999998093E+01 0.  1.
       -5    1    3    3    0  502  0.29248217064E+03 -0.39901645762E+03 -0.11580402836E+03  0.50812657535E+03  0.46999998093E+01 0. -1.
</event>
<event>
 5   0  0.9040674E-03  0.1003373E+04  0.7818609E-02  0.9304854E-01
       -2   -1    0    0    0  501  0.00000000000E+00  0.00000000000E+00  0.44500922583E+03  0.44500922584E+03  0.25500000920E-02 0.  1.
        2   -1    0    0  501    0  0.00000000000E+00  0.00000000000E+00 -0.56558174799E+03  0.56558174799E+03  0.25500000920E-02 0. -1.
    10030    2    1    2    0    0  0.00000000000E+00  0.00000000000E+00 -0.12057252216E+03  0.10105909738E+04  0.10033725048E+04 0.  0.
        1    1    3    3  502    0 -0.33832093298E+03  0.13282938402E+03 -0.40858385774E+03  0.54685049857E+03  0.50400001928E-02 0. -1.
       -1    1    3    3    0  502  0.33832093298E+03 -0.13282938402E+03  0.28801133559E+03  0.46374047527E+03  0.50400001928E-02 0.  1.
</event>
<event>
 5   0  0.8875655E-03  0.1002684E+04  0.7818609E-02  0.9305606E-01
       -2   -1    0    0    0  501  0.00000000000E+00  0.00000000000E+00  0.32736700825E+03  0.32736700826E+03  0.25500000920E-02 0.  1.
        2   -1    0    0  501    0  0.00000000000E+00  0.00000000000E+00 -0.76777305640E+03  0.76777305640E+03  0.25500000920E-02 0. -1.
    10030    2    1    2    0    0  0.00000000000E+00  0.00000000000E+00 -0.44040604814E+03  0.10951400647E+04  0.10026835363E+04 0.  0.
        4    1    3    3  502    0  0.14135282659E+03  0.26204074805E+03 -0.66075199901E+03  0.72473498075E+03  0.12699999809E+01 0. -1.
       -4    1    3    3    0  502 -0.14135282659E+03 -0.26204074805E+03  0.22034595087E+03  0.37040508391E+03  0.12699999809E+01 0.  1.
</event>
<event>
 5   0  0.8875655E-03  0.9987133E+03  0.7818609E-02  0.9309957E-01
       -2   -1    0    0    0  501  0.00000000000E+00  0.00000000000E+00  0.37376154941E+03  0.37376154942E+03  0.25500000920E-02 0.  1.
        2   -1    0    0  501    0  0.00000000000E+00  0.00000000000E+00 -0.66715551271E+03  0.66715551272E+03  0.25500000920E-02 0. -1.
    10030    2    1    2    0    0  0.00000000000E+00  0.00000000000E+00 -0.29339396330E+03  0.10409170621E+04  0.99871332851E+03 0.  0.
        4    1    3    3  502    0  0.27460325568E+03 -0.32524026982E+03  0.12542478204E+03  0.44375800837E+03  0.12699999809E+01 0. -1.
       -4    1    3    3    0  502 -0.27460325568E+03  0.32524026982E+03 -0.41881874534E+03  0.59715905376E+03  0.12699999809E+01 0.  1.
</event>
<event>
 5   0  0.8968798E-03  0.1003715E+04  0.7818609E-02  0.9304480E-01
        2   -1    0    0  501    0  0.00000000000E+00  0.00000000000E+00  0.15830300106E+04  0.15830300106E+04  0.25500000920E-02 0.  1.
       -2   -1    0    0    0  501  0.00000000000E+00  0.00000000000E+00 -0.15910041873E+03  0.15910041875E+03  0.25500000920E-02 0. -1.
    10030    2    1    2    0    0  0.00000000000E+00  0.00000000000E+00  0.14239295919E+04  0.17421304294E+04  0.10037145761E+04 0.  0.
        2    1    3    3  502    0 -0.13399350120E+03 -0.22688295543E+03 -0.29378361051E+02  0.26512868938E+03  0.25500000920E-02 0. -1.
       -2    1    3    3    0  502  0.13399350120E+03  0.22688295543E+03  0.14533079530E+04  0.14770017400E+04  0.25500000920E-02 0.  1.
</event>
<event>
 5   0  0.9243773E-03  0.9329939E+03  0.7818609E-02  0.9385252E-01
       -2   -1    0    0    0  501  0.00000000000E+00  0.00000000000E+00  0.31554745143E+03  0.31554745144E+03  0.25500000920E-02 0. -1.
        2   -1    0    0  501    0  0.00000000000E+00  0.00000000000E+00 -0.68965667726E+03  0.68965667727E+03  0.25500000920E-02 0.  1.
    10030    2    1    2    0    0  0.00000000000E+00  0.00000000000E+00 -0.37410922584E+03  0.10052041287E+04  0.93299390540E+03 0.  0.
        3    1    3    3  502    0 -0.11252732158E+03  0.44303028649E+03 -0.86670627730E+02  0.46524191639E+03  0.10100000352E+00 0. -1.
       -3    1    3    3    0  502  0.11252732158E+03 -0.44303028649E+03 -0.28743859811E+03  0.53996221232E+03  0.10100000352E+00 0.  1.
</event>
<event>
 5   0  0.5189877E-03  0.1002820E+04  0.7818609E-02  0.9305457E-01
        1   -1    0    0  501    0  0.00000000000E+00  0.00000000000E+00  0.82483809862E+03  0.82483809863E+03  0.50400001928E-02 0.  1.
       -1   -1    0    0    0  501  0.00000000000E+00  0.00000000000E+00 -0.30480155315E+03  0.30480155319E+03  0.50400001928E-02 0. -1.
    10030    2    1    2    0    0  0.00000000000E+00  0.00000000000E+00  0.52003654546E+03  0.11296396518E+04  0.10028198913E+04 0.  0.
        3    1    3    3  502    0 -0.12129647826E+03  0.34764068052E+03  0.64342146082E+03  0.74132183620E+03  0.10100000352E+00 0.  1.
       -3    1    3    3    0  502  0.12129647826E+03 -0.34764068052E+03 -0.12338491535E+03  0.38831781562E+03  0.10100000352E+00 0. -1.
</event>
<event>
 5   0  0.5349685E-03  0.1001315E+04  0.7818609E-02  0.9307103E-01
        1   -1    0    0  501    0  0.00000000000E+00  0.00000000000E+00  0.67423817957E+03  0.67423817959E+03  0.50400001928E-02 0. -1.
       -1   -1    0    0    0  501  0.00000000000E+00  0.00000000000E+00 -0.37176492473E+03  0.37176492477E+03  0.50400001928E-02 0.  1.
    10030    2    1    2    0    0  0.00000000000E+00  0.00000000000E+00  0.30247325484E+03  0.10460031044E+04  0.10013153471E+04 0.  0.
        4    1    3    3  502    0  0.24908107679E+03  0.33898630775E+03 -0.13236312224E+03  0.44099286694E+03  0.12699999809E+01 0.  1.
       -4    1    3    3    0  502 -0.24908107679E+03 -0.33898630775E+03  0.43483637708E+03  0.60501023742E+03  0.12699999809E+01 0. -1.
</event>
<event>
 5   0  0.9243773E-03  0.1022788E+04  0.7818609E-02  0.9283898E-01
       -2   -1    0    0    0  501  0.00000000000E+00  0.00000000000E+00  0.14304220931E+03  0.14304220933E+03  0.25500000920E-02 0. -1.
        2   -1    0    0  501    0  0.00000000000E+00  0.00000000000E+00 -0.18282993781E+04  0.18282993781E+04  0.25500000920E-02 0.  1.
    10030    2    1    2    0    0  0.00000000000E+00  0.00000000000E+00 -0.16852571688E+04  0.19713415874E+04  0.10227883111E+04 0.  0.
        3    1    3    3  502    0 -0.15656169132E+03 -0.33362249845E+03 -0.15260024122E+04  0.15698722581E+04  0.10100000352E+00 0.  1.
       -3    1    3    3    0  502  0.15656169132E+03  0.33362249845E+03 -0.15925475660E+03  0.40146932929E+03  0.10100000352E+00 0. -1.
</event>
<event>
 5   0  0.8968798E-03  0.9280680E+03  0.7818609E-02  0.9391160E-01
       -2   -1    0    0    0  501  0.00000000000E+00  0.00000000000E+00  0.12541148749E+03  0.12541148751E+03  0.25500000920E-02 0.  1.
        2   -1    0    0  501    0  0.00000000000E+00  0.00000000000E+00 -0.17169683540E+04  0.17169683540E+04  0.25500000920E-02 0. -1.
    10030    2    1    2    0    0  0.00000000000E+00  0.00000000000E+00 -0.15915568665E+04  0.18423798415E+04  0.92806800455E+03 0.  0.
        2    1    3    3  502    0 -0.15923342075E+03  0.13897162324E+03 -0.16158734550E+04  0.16296365905E+04  0.25500000920E-02 0. -1.
       -2    1    3    3    0  502  0.15923342075E+03 -0.13897162324E+03  0.24316588574E+02  0.21274325098E+03  0.25500000920E-02 0.  1.
</event>
<event>
 5   0  0.5310275E-03  0.9957202E+03  0.7818609E-02  0.9313251E-01
       -1   -1    0    0    0  501  0.00000000000E+00  0.00000000000E+00  0.68695316660E+03  0.68695316662E+03  0.50400001928E-02 0.  1.
        1   -1    0    0  501    0  0.00000000000E+00  0.00000000000E+00 -0.36081740359E+03  0.36081740363E+03  0.50400001928E-02 0. -1.
    10030    2    1    2    0    0  0.00000000000E+00  0.00000000000E+00  0.32613576301E+03  0.10477705702E+04  0.99572015745E+03 0.  0.
        1    1    3    3  502    0  0.45261217757E+03  0.10774820271E+03 -0.23387255430E+02  0.46584806774E+03  0.50400001928E-02 0. -1.
       -1    1    3    3    0  502 -0.45261217757E+03 -0.10774820271E+03  0.34952301844E+03  0.58192250250E+03  0.50400001928E-02 0.  1.
</event>
<event>
 5   0  0.9040674E-03  0.9331514E+03  0.7818609E-02  0.9385064E-01
       -2   -1    0    0    0  501  0.00000000000E+00  0.00000000000E+00  0.23466711210E+03  0.23466711211E+03  0.25500000920E-02 0.  1.
        2   -1    0    0  501    0  0.00000000000E+00  0.00000000000E+00 -0.92766686255E+03  0.92766686255E+03  0.25500000920E-02 0. -1.
    10030    2    1    2    0    0  0.00000000000E+00  0.00000000000E+00 -0.69299975045E+03  0.11623339747E+04  0.93315144245E+03 0.  0.
        1    1    3    3  502    0 -0.45403356521E+03 -0.10602667881E+03 -0.36824510241E+03  0.59413179550E+03  0.50400001928E-02 0.  1.
       -1    1    3    3    0  502  0.45403356521E+03  0.10602667881E+03 -0.32475464804E+03  0.56820217917E+03  0.50400001928E-02 0. -1.
</event>
<event>
 5   0  0.5201968E-03  0.7197741E+03  0.7818609E-02  0.9684001E-01
       -1   -1    0    0    0  501  0.00000000000E+00  0.00000000000E+00  0.29061957231E+03  0.29061957236E+03  0.50400001928E-02 0. -1.
        1   -1    0    0  501    0  0.00000000000E+00  0.00000000000E+00 -0.44566408246E+03  0.44566408249E+03  0.50400001928E-02 0.  1.
    10030    2    1    2    0    0  0.00000000000E+00  0.00000000000E+00 -0.15504451015E+03  0.73628365484E+03  0.71977414531E+03 0.  0.
        2    1    3    3  502    0  0.99752008665E+01  0.35962887843E+03 -0.87023475365E+02  0.37014256727E+03  0.25500000920E-02 0. -1.
       -2    1    3    3    0  502 -0.99752008665E+01 -0.35962887843E+03 -0.68021034781E+02  0.36614108758E+03  0.25500000920E-02 0.  1.
</event>
<event>
 5   0  0.8907355E-03  0.9875449E+03  0.7818609E-02  0.9322312E-01
        2   -1    0    0  501    0  0.00000000000E+00  0.00000000000E+00  0.51589596504E+03  0.51589596505E+03  0.25500000920E-02 0.  1.
       -2   -1    0    0    0  501  0.00000000000E+00  0.00000000000E+00 -0.47259763984E+03  0.47259763985E+03  0.25500000920E-02 0. -1.
    10030    2    1    2    0    0  0.00000000000E+00  0.00000000000E+00  0.43298325200E+02  0.98849360490E+03  0.98754486580E+03 0.  0.
        5    1    3    3  502    0  0.13950858233E+03 -0.64828053948E+02  0.49127343319E+03  0.51481744073E+03  0.46999998093E+01 0.  1.
       -5    1    3    3    0  502 -0.13950858233E+03  0.64828053948E+02 -0.44797510799E+03  0.47367616417E+03  0.46999998093E+01 0. -1.
</event>
<event>
 5   0  0.5201968E-03  0.1001602E+04  0.7818609E-02  0.9306790E-01
        1   -1    0    0  501    0  0.00000000000E+00  0.00000000000E+00  0.78336162838E+03  0.78336162839E+03  0.50400001928E-02 0. -1.
       -1   -1    0    0    0  501  0.00000000000E+00  0.00000000000E+00 -0.32016044636E+03  0.32016044640E+03  0.50400001928E-02 0.  1.
    10030    2    1    2    0    0  0.00000000000E+00  0.00000000000E+00  0.46320118201E+03  0.11035220748E+04  0.10016015348E+04 0.  0.
        2    1    3    3  502    0  0.41364639648E+00 -0.94868522071E+02  0.77337098765E+03  0.77916807695E+03  0.25500000920E-02 0. -1.
       -2    1    3    3    0  502 -0.41364639648E+00  0.94868522071E+02 -0.31016980564E+03  0.32435399785E+03  0.25500000920E-02 0.  1.
</event>
<event>
 5   0  0.5310275E-03  0.1124542E+04  0.7818609E-02  0.9181596E-01
        1   -1    0    0  501    0  0.00000000000E+00  0.00000000000E+00  0.84185013867E+03  0.84185013868E+03  0.50400001928E-02 0. -1.
       -1   -1    0    0    0  501  0.00000000000E+00  0.00000000000E+00 -0.37554051957E+03  0.37554051960E+03  0.50400001928E-02 0.  1.
    10030    2    1    2    0    0  0.00000000000E+00  0.00000000000E+00  0.46630961910E+03  0.12173906583E+04  0.11245422864E+04 0.  0.
        1    1    3    3  502    0 -0.21540791078E+03  0.27465740768E+02 -0.32831368581E+03  0.39363029769E+03  0.50400001928E-02 0.  1.
       -1    1    3    3    0  502  0.21540791078E+03 -0.27465740768E+02  0.79462330491E+03  0.82376036059E+03  0.50400001928E-02 0. -1.
</event>
<event>
 5   0  0.5072205E-03  0.1008550E+04  0.7818609E-02  0.9299217E-01
       -1   -1    0    0    0  501  0.00000000000E+00  0.00000000000E+00  0.33510168006E+03  0.33510168009E+03  0.50400001928E-02 0. -1.
        1   -1    0    0  501    0  0.00000000000E+00  0.00000000000E+00 -0.75885419968E+03  0.75885419969E+03  0.50400001928E-02 0.  1.
    10030    2    1    2    0    0  0.00000000000E+00  0.00000000000E+00 -0.42375251962E+03  0.10939558798E+04  0.10085500826E+04 0.  0.
        5    1    3    3  502    0 -0.45994950904E+03 -0.60374134393E+02  0.25306202343E+01  0.46392572790E+03  0.46999998093E+01 0. -1.
       -5    1    3    3    0  502  0.45994950904E+03  0.60374134393E+02 -0.42628313986E+03  0.63003015189E+03  0.46999998093E+01 0.  1.
</event>
<event>
 5   0  0.9040674E-03  0.9989572E+03  0.7818609E-02  0.9309689E-01
        2   -1    0    0  501    0  0.00000000000E+00  0.00000000000E+00  0.95572018433E+03  0.95572018433E+03  0.25500000920E-02 0. -1.
       -2   -1    0    0    0  501  0.00000000000E+00  0.00000000000E+00 -0.26103755754E+03  0.26103755755E+03  0.25500000920E-02 0.  1.
    10030    2    1    2    0    0  0.00000000000E+00  0.00000000000E+00  0.69468262679E+03  0.12167577419E+04  0.99895718149E+03 0.  0.
        1    1    3    3  502    0 -0.13307964901E+03  0.34615877465E+02  0.93221089037E+03  0.94229803996E+03  0.50400001928E-02 0. -1.
       -1    1    3    3    0  502  0.13307964901E+03 -0.34615877465E+02 -0.23752826358E+03  0.27445970192E+03  0.50400001928E-02 0.  1.
</event>
<event>
 5   0  0.5189877E-03  0.9917626E+03  0.7818609E-02  0.9317626E-01
       -1   -1    0    0    0  501  0.00000000000E+00  0.00000000000E+00  0.20074382770E+03  0.20074382777E+03  0.50400001928E-02 0.  1.
        1   -1    0    0  501    0  0.00000000000E+00  0.00000000000E+00 -0.12249355319E+04  0.12249355319E+04  0.50400001928E-02 0. -1.
    10030    2    1    2    0    0  0.00000000000E+00  0.00000000000E+00 -0.10241917042E+04  0.14256793597E+04  0.99176256719E+03 0.  0.
        3    1    3    3  502    0 -0.11302474851E+03 -0.33988339576E+03 -0.19122772717E+02  0.35869347237E+03  0.10100000352E+00 0.  1.
       -3    1    3    3    0  502  0.11302474851E+03  0.33988339576E+03 -0.10050689315E+04  0.10669858873E+04  0.10100000352E+00 0. -1.
</event>
<event>
 5   0  0.8968798E-03  0.9968893E+03  0.7818609E-02  0.9311963E-01
       -2   -1    0    0    0  501  0.00000000000E+00  0.00000000000E+00  0.13907559536E+03  0.13907559539E+03  0.25500000920E-02 0.  1.
        2   -1    0    0  501    0  0.00000000000E+00  0.00000000000E+00 -0.17864174129E+04  0.17864174129E+04  0.25500000920E-02 0. -1.
    10030    2    1    2    0    0  0.00000000000E+00  0.00000000000E+00 -0.16473418176E+04  0.19254930083E+04  0.99688929234E+03 0.  0.
        2    1    3    3  502    0 -0.44263915975E+03  0.12603228775E+03 -0.45398386249E+03  0.64646338698E+03  0.25500000920E-02 0. -1.
       -2    1    3    3    0  502  0.44263915975E+03 -0.12603228775E+03 -0.11933579551E+04  0.12790296213E+04  0.25500000920E-02 0.  1.
</event>
<event>
 5   0  0.5349685E-03  0.9980140E+03  0.7818609E-02  0.9310726E-01
        1   -1    0    0  501    0  0.00000000000E+00  0.00000000000E+00  0.14013273948E+04  0.14013273948E+04  0.50400001928E-02 0. -1.
       -1   -1    0    0    0  501  0.00000000000E+00  0.00000000000E+00 -0.17769437560E+03  0.17769437567E+03  0.50400001928E-02 0.  1.
    10030    2    1    2    0    0  0.00000000000E+00  0.00000000000E+00  0.12236330192E+04  0.15790217705E+04  0.99801402095E+03 0.  0.
        4    1    3    3  502    0 -0.45684926487E+03  0.57192229247E+02  0.91625124950E+03  0.10254268219E+04  0.12699999809E+01 0.  1.
       -4    1    3    3    0  502  0.45684926487E+03 -0.57192229247E+02  0.30738176974E+03  0.55359494865E+03  0.12699999809E+01 0. -1.
</event>
<event>
 5   0  0.5072205E-03  0.9146208E+03  0.7818609E-02  0.9407487E-01
       -1   -1    0    0    0  501  0.00000000000E+00  0.00000000000E+00  0.24332678967E+03  0.24332678972E+03  0.50400001928E-02 0. -1.
        1   -1    0    0  501    0  0.00000000000E+00  0.00000000000E+00 -0.85947303756E+03  0.85947303757E+03  0.50400001928E-02 0.  1.
    10030    2    1    2    0    0  0.00000000000E+00  0.00000000000E+00 -0.61614624789E+03  0.11027998273E+04  0.91462082870E+03 0.  0.
        5    1    3    3  502    0 -0.26717254570E+03 -0.23760607579E+03  0.35665634079E+02  0.35934933405E+03  0.46999998093E+01 0. -1.
       -5    1    3    3    0  502  0.26717254570E+03  0.23760607579E+03 -0.65181188197E+03  0.74345049324E+03  0.46999998093E+01 0.  1.
</event>
<event>
 5   0  0.8907355E-03  0.9783747E+03  0.7818609E-02  0.9332586E-01
       -2   -1    0    0    0  501  0.00000000000E+00  0.00000000000E+00  0.17750555569E+03  0.17750555571E+03  0.25500000920E-02 0.  1.
        2   -1    0    0  501    0  0.00000000000E+00  0.00000000000E+00 -0.13481507705E+04  0.13481507705E+04  0.25500000920E-02 0. -1.
    10030    2    1    2    0    0  0.00000000000E+00  0.00000000000E+00 -0.11706452148E+04  0.15256563262E+04  0.97837467605E+03 0.  0.
        5    1    3    3  502    0  0.36047756137E+03  0.32667511400E+03 -0.66516307517E+03  0.82409023106E+03  0.46999998093E+01 0. -1.
       -5    1    3    3    0  502 -0.36047756137E+03 -0.32667511400E+03 -0.50548213962E+03  0.70156609513E+03  0.46999998093E+01 0.  1.
</event>
<event>
 5   0  0.5072205E-03  0.1076566E+04  0.7818609E-02  0.9228338E-01
       -1   -1    0    0    0  501  0.00000000000E+00  0.00000000000E+00  0.25745542342E+03  0.25745542347E+03  0.50400001928E-02 0.  1.
        1   -1    0    0  501    0  0.00000000000E+00  0.00000000000E+00 -0.11254320814E+04  0.11254320814E+04  0.50400001928E-02 0. -1.
    10030    2    1    2    0    0  0.00000000000E+00  0.00000000000E+00 -0.86797665801E+03  0.13828875049E+04  0.10765660093E+04 0.  0.
        5    1    3    3  502    0 -0.38267300560E+02  0.53307950687E+03 -0.51612187073E+03  0.74299530441E+03  0.46999998093E+01 0. -1.
       -5    1    3    3    0  502  0.38267300560E+02 -0.53307950687E+03 -0.35185478728E+03  0.63989220050E+03  0.46999998093E+01 0.  1.
</event>
<event>
 5   0  0.5201968E-03  0.1001435E+04  0.7818609E-02  0.9306972E-01
       -1   -1    0    0    0  501  0.00000000000E+00  0.00000000000E+00  0.32281640102E+03  0.32281640106E+03  0.50400001928E-02 0.  1.
        1   -1    0    0  501    0  0.00000000000E+00  0.00000000000E+00 -0.77665841868E+03  0.77665841869E+03  0.50400001928E-02 0. -1.
    10030    2    1    2    0    0  0.00000000000E+00  0.00000000000E+00 -0.45384201766E+03  0.10994748198E+04  0.10014351214E+04 0.  0.
        2    1    3    3  502    0 -0.11963340992E+03  0.46333482073E+03 -0.38875137600E+03  0.61653786682E+03  0.25500000920E-02 0. -1.
       -2    1    3    3    0  502  0.11963340992E+03 -0.46333482073E+03 -0.65090641660E+02  0.48293695293E+03  0.25500000920E-02 0.  1.
</event>
<event>
 5   0  0.9040674E-03  0.1043590E+04  0.7818609E-02  0.9261987E-01
       -2   -1    0    0    0  501  0.00000000000E+00  0.00000000000E+00  0.27488547124E+03  0.27488547125E+03  0.25500000920E-02 0. -1.
        2   -1    0    0  501    0  0.00000000000E+00  0.00000000000E+00 -0.99048489469E+03  0.99048489469E+03  0.25500000920E-02 0.  1.
    10030    2    1    2    0    0  0.00000000000E+00  0.00000000000E+00 -0.71559942345E+03  0.12653703659E+04  0.10435897796E+04 0.  0.
        1    1    3    3  502    0 -0.23930831864E+03 -0.46004754681E+03 -0.42805971435E+03  0.67241901800E+03  0.50400001928E-02 0. -1.
       -1    1    3    3    0  502  0.23930831864E+03  0.46004754681E+03 -0.28753970910E+03  0.59295134794E+03  0.50400001928E-02 0.  1.
</event>
<event>
 5   0  0.5349685E-03  0.9939601E+03  0.7818609E-02  0.9315194E-01
       -1   -1    0    0    0  501  0.00000000000E+00  0.00000000000E+00  0.53373873946E+03  0.53373873948E+03  0.50400001928E-02 0. -1.
        1   -1    0    0  501    0  0.00000000000E+00  0.00000000000E+00 -0.46275291748E+03  0.46275291751E+03  0.50400001928E-02 0.  1.
    10030    2    1    2    0    0  0.00000000000E+00  0.00000000000E+00  0.70985821979E+02  0.99649165699E+03  0.99396007743E+03 0.  0.
        4    1    3    3  502    0  0.10866506186E+03 -0.19910295458E+03  0.47881535078E+03  0.52982623117E+03  0.12699999809E+01 0. -1.
       -4    1    3    3    0  502 -0.10866506186E+03  0.19910295458E+03 -0.40782952880E+03  0.46666542582E+03  0.12699999809E+01 0.  1.
</event>
<event>
 5   0  0.9040674E-03  0.1011186E+04  0.7818609E-02  0.9296361E-01
        2   -1    0    0  501    0  0.00000000000E+00  0.00000000000E+00  0.10301482959E+04  0.10301482959E+04  0.25500000920E-02 0.  1.
       -2   -1    0    0    0  501  0.00000000000E+00  0.00000000000E+00 -0.24814312586E+03  0.24814312587E+03  0.25500000920E-02 0. -1.
    10030    2    1    2    0    0  0.00000000000E+00  0.00000000000E+00  0.78200517006E+03  0.12782914218E+04  0.10111858746E+04 0.  0.
        1    1    3    3  502    0 -0.19528207004E+02  0.43727642551E+03  0.71114491817E+02  0.44345156912E+03  0.50400001928E-02 0. -1.
       -1    1    3    3    0  502  0.19528207004E+02 -0.43727642551E+03  0.71089067824E+03  0.83483985267E+03  0.50400001928E-02 0.  1.
</event>
<event>
 5   0  0.9040674E-03  0.9903841E+03  0.7818609E-02  0.9319155E-01
       -2   -1    0    0    0  501  0.00000000000E+00  0.00000000000E+00  0.26523633202E+03  0.26523633203E+03  0.25500000920E-02 0.  1.
        2   -1    0    0  501    0  0.00000000000E+00  0.00000000000E+00 -0.92451575693E+03  0.92451575693E+03  0.25500000920E-02 0. -1.
    10030    2    1    2    0    0  0.00000000000E+00  0.00000000000E+00 -0.65927942491E+03  0.11897520890E+04  0.99038410381E+03 0.  0.
        1    1    3    3  502    0  0.58212448883E+02 -0.46102408021E+03 -0.12406833351E+03  0.48096241344E+03  0.50400001928E-02 0.  1.
       -1    1    3    3    0  502 -0.58212448883E+02  0.46102408021E+03 -0.53521109140E+03  0.70878967552E+03  0.50400001928E-02 0. -1.
</event>
<event>
 5   0  0.5349685E-03  0.9708367E+03  0.7818609E-02  0.9341122E-01
        1   -1    0    0  501    0  0.00000000000E+00  0.00000000000E+00  0.56047751734E+03  0.56047751736E+03  0.50400001928E-02 0. -1.
       -1   -1    0    0    0  501  0.00000000000E+00  0.00000000000E+00 -0.42041112071E+03  0.42041112074E+03  0.50400001928E-02 0.  1.
    10030    2    1    2    0    0  0.00000000000E+00  0.00000000000E+00  0.14006639663E+03  0.98088863810E+03  0.97083671381E+03 0.  0.
        4    1    3    3  502    0 -0.42417171459E+03  0.21574049830E+03 -0.26685494694E+02  0.47663333349E+03  0.12699999809E+01 0. -1.
       -4    1    3    3    0  502  0.42417171459E+03 -0.21574049830E+03  0.16675189132E+03  0.50425530461E+03  0.12699999809E+01 0.  1.
</event>
<event>
 5   0  0.5189877E-03  0.9823369E+03  0.7818609E-02  0.9328132E-01
        1   -1    0    0  501    0  0.00000000000E+00  0.00000000000E+00  0.68002623557E+03  0.68002623558E+03  0.50400001928E-02 0. -1.
       -1   -1    0    0    0  501  0.00000000000E+00  0.00000000000E+00 -0.35476053252E+03  0.35476053256E+03  0.50400001928E-02 0.  1.
    10030    2    1    2    0    0  0.00000000000E+00  0.00000000000E+00  0.32526570304E+03  0.10347867681E+04  0.98233694726E+03 0.  0.
        3    1    3    3  502    0 -0.33807287980E+03 -0.35630462893E+03  0.16310233250E+03  0.51754095656E+03  0.10100000352E+00 0.  1.
       -3    1    3    3    0  502  0.33807287980E+03  0.35630462893E+03  0.16216337054E+03  0.51724581158E+03  0.10100000352E+00 0. -1.
</event>
<event>
 5   0  0.3513625E-03  0.9758812E+03  0.7818609E-02  0.9335401E-01
        3   -1    0    0  501    0  0.00000000000E+00  0.00000000000E+00  0.39382597114E+03  0.39382598409E+03  0.10100000352E+00 0. -1.
       -3   -1    0    0    0  501  0.00000000000E+00  0.00000000000E+00 -0.60454631826E+03  0.60454632670E+03  0.10100000352E+00 0.  1.
    10030    2    1    2    0    0  0.00000000000E+00  0.00000000000E+00 -0.21072034712E+03  0.99837231079E+03  0.97588124599E+03 0.  0.
        3    1    3    3  502    0 -0.45288094861E+03 -0.17717396383E+03 -0.14620876421E+03  0.50780781798E+03  0.10100000352E+00 0. -1.
       -3    1    3    3    0  502  0.45288094861E+03  0.17717396383E+03 -0.64511582916E+02  0.49056449281E+03  0.10100000352E+00 0.  1.
</event>
<event>
 5   0  0.8875655E-03  0.1001066E+04  0.7818609E-02  0.9307376E-01
       -2   -1    0    0    0  501  0.00000000000E+00  0.00000000000E+00  0.54610648896E+03  0.54610648897E+03  0.25500000920E-02 0. -1.
        2   -1    0    0  501    0  0.00000000000E+00  0.00000000000E+00 -0.45876280653E+03  0.45876280653E+03  0.25500000920E-02 0.  1.
    10030    2    1    2    0    0  0.00000000000E+00  0.00000000000E+00  0.87343682438E+02  0.10048692955E+04  0.10010661228E+04 0.  0.
        4    1    3    3  502    0  0.22968820875E+03  0.17257151477E+03 -0.36775618037E+03  0.46667314262E+03  0.12699999809E+01 0.  1.
       -4    1    3    3    0  502 -0.22968820875E+03 -0.17257151477E+03  0.45509986280E+03  0.53819615288E+03  0.12699999809E+01 0. -1.
</event>
<event>
 5   0  0.5349685E-03  0.9964632E+03  0.7818609E-02  0.9312432E-01
       -1   -1    0    0    0  501  0.00000000000E+00  0.00000000000E+00  0.25159037475E+03  0.25159037480E+03  0.50400001928E-02 0. -1.
        1   -1    0    0  501    0  0.00000000000E+00  0.00000000000E+00 -0.98666222519E+03  0.98666222520E+03  0.50400001928E-02 0.  1.
    10030    2    1    2    0    0  0.00000000000E+00  0.00000000000E+00 -0.73507185044E+03  0.12382526000E+04  0.99646318352E+03 0.  0.
        4    1    3    3  502    0  0.47904517184E+03  0.34840129619E+02 -0.20298481672E+03  0.52144276773E+03  0.12699999809E+01 0.  1.
       -4    1    3    3    0  502 -0.47904517184E+03 -0.34840129619E+02 -0.53208703372E+03  0.71680983228E+03  0.12699999809E+01 0. -1.
</event>
<event>
 5   0  0.5310275E-03  0.1001497E+04  0.7818609E-02  0.9306904E-01
       -1   -1    0    0    0  501  0.00000000000E+00  0.00000000000E+00  0.48074549684E+03  0.48074549686E+03  0.50400001928E-02 0. -1.
        1   -1    0    0  501    0  0.00000000000E+00  0.00000000000E+00 -0.52158422423E+03  0.52158422426E+03  0.50400001928E-02 0.  1.
    10030    2    1    2    0    0  0.00000000000E+00  0.00000000000E+00 -0.40838727398E+02  0.10023297211E+04  0.10014974130E+04 0.  0.
        1    1    3    3  502    0 -0.37891367529E+03 -0.31688845888E+03 -0.10267890010E+03  0.50451642713E+03  0.50400001928E-02 0.  1.
       -1    1    3    3    0  502  0.37891367529E+03  0.31688845888E+03  0.61840172700E+02  0.49781329399E+03  0.50400001928E-02 0. -1.
</event>
<event>
 5   0  0.5072205E-03  0.9981678E+03  0.7818609E-02  0.9310557E-01
       -1   -1    0    0    0  501  0.00000000000E+00  0.00000000000E+00  0.95910152869E+03  0.95910152871E+03  0.50400001928E-02 0. -1.
        1   -1    0    0  501    0  0.00000000000E+00  0.00000000000E+00 -0.25970634152E+03  0.25970634157E+03  0.50400001928E-02 0.  1.
    10030    2    1    2    0    0  0.00000000000E+00  0.00000000000E+00  0.69939518717E+03  0.12188078703E+04  0.99816781996E+03 0.  0.
        5    1    3    3  502    0 -0.45546946979E+03  0.18893551300E+03  0.44359582436E+03  0.66328607053E+03  0.46999998093E+01 0. -1.
       -5    1    3    3    0  502  0.45546946979E+03 -0.18893551300E+03  0.25579936281E+03  0.55552179975E+03  0.46999998093E+01 0.  1.
</event>
<event>
 5   0  0.8875655E-03  0.1010181E+04  0.7818609E-02  0.9297449E-01
       -2   -1    0    0    0  501  0.00000000000E+00  0.00000000000E+00  0.20795143098E+03  0.20795143099E+03  0.25500000920E-02 0.  1.
        2   -1    0    0  501    0  0.00000000000E+00  0.00000000000E+00 -0.12268074378E+04  0.12268074378E+04  0.25500000920E-02 0. -1.
    10030    2    1    2    0    0  0.00000000000E+00  0.00000000000E+00 -0.10188560068E+04  0.14347588688E+04  0.10101808991E+04 0.  0.
        4    1    3    3  502    0  0.16013196548E+03 -0.20312331119E+03  0.10674839956E+03  0.27981808309E+03  0.12699999809E+01 0.  1.
       -4    1    3    3    0  502 -0.16013196548E+03  0.20312331119E+03 -0.11256044063E+04  0.11549407857E+04  0.12699999809E+01 0. -1.
</event>
<event>
 5   0  0.8968798E-03  0.1017545E+04  0.7818609E-02  0.9289509E-01
        2   -1    0    0  501    0  0.00000000000E+00  0.00000000000E+00  0.13198877871E+04  0.13198877871E+04  0.25500000920E-02 0.  1.
       -2   -1    0    0    0  501  0.00000000000E+00  0.00000000000E+00 -0.19611465009E+03  0.19611465011E+03  0.25500000920E-02 0. -1.
    10030    2    1    2    0    0  0.00000000000E+00  0.00000000000E+00  0.11237731370E+04  0.15160024372E+04  0.10175447539E+04 0.  0.
        2    1    3    3  502    0 -0.94058760773E+02  0.77158860231E+02  0.12978982556E+04  0.13035875199E+04  0.25500000920E-02 0.  1.
       -2    1    3    3    0  502  0.94058760773E+02 -0.77158860231E+02 -0.17412511855E+03  0.21241491733E+03  0.25500000920E-02 0. -1.
</event>
<event>
 5   0  0.5072205E-03  0.9437469E+03  0.7818609E-02  0.9372489E-01
       -1   -1    0    0    0  501  0.00000000000E+00  0.00000000000E+00  0.24859939371E+03  0.24859939376E+03  0.50400001928E-02 0.  1.
        1   -1    0    0  501    0  0.00000000000E+00  0.00000000000E+00 -0.89567623848E+03  0.89567623849E+03  0.50400001928E-02 0. -1.
    10030    2    1    2    0    0  0.00000000000E+00  0.00000000000E+00 -0.64707684477E+03  0.11442756323E+04  0.94374693618E+03 0.  0.
        5    1    3    3  502    0 -0.19718110449E+03 -0.42865111553E+03 -0.32900308012E+03  0.57522802743E+03  0.46999998093E+01 0.  1.
       -5    1    3    3    0  502  0.19718110449E+03  0.42865111553E+03 -0.31807376465E+03  0.56904760483E+03  0.46999998093E+01 0. -1.
</event>
<event>
 5   0  0.5310275E-03  0.1001097E+04  0.7818609E-02  0.9307343E-01
       -1   -1    0    0    0  501  0.00000000000E+00  0.00000000000E+00  0.40531601505E+03  0.40531601509E+03  0.50400001928E-02 0.  1.
        1   -1    0    0  501    0  0.00000000000E+00  0.00000000000E+00 -0.61815653040E+03  0.61815653042E+03  0.50400001928E-02 0. -1.
    10030    2    1    2    0    0  0.00000000000E+00  0.00000000000E+00 -0.21284051534E+03  0.10234725455E+04  0.10010968816E+04 0.  0.
        1    1    3    3  502    0  0.26662132763E+03  0.11768307746E+03  0.30963081738E+03  0.42521463071E+03  0.50400001928E-02 0.  1.
       -1    1    3    3    0  502 -0.26662132763E+03 -0.11768307746E+03 -0.52247133273E+03  0.59825791480E+03  0.50400001928E-02 0. -1.
</event>
<event>
 5   0  0.9243773E-03  0.9928822E+03  0.7818609E-02  0.9316386E-01
        2   -1    0    0  501    0  0.00000000000E+00  0.00000000000E+00  0.63076914902E+03  0.63076914903E+03  0.25500000920E-02 0. -1.
       -2   -1    0    0    0  501  0.00000000000E+00  0.00000000000E+00 -0.39071941576E+03  0.39071941577E+03  0.25500000920E-02 0.  1.
    10030    2    1    2    0    0  0.00000000000E+00  0.00000000000E+00  0.24004973327E+03  0.10214885648E+04  0.99288217507E+03 0.  0.
        3    1    3    3  502    0 -0.40150446000E+03  0.23466468197E+03  0.29875520704E+03  0.55274589849E+03  0.10100000352E+00 0.  1.
       -3    1    3    3    0  502  0.40150446000E+03 -0.23466468197E+03 -0.58705473773E+02  0.46874266631E+03  0.10100000352E+00 0. -1.
</event>
<event>
 5   0  0.8875655E-03  0.9977034E+03  0.7818609E-02  0.9311067E-01
       -2   -1    0    0    0  501  0.00000000000E+00  0.00000000000E+00  0.47931885919E+03  0.47931885920E+03  0.25500000920E-02 0.  1.
        2   -1    0    0  501    0  0.00000000000E+00  0.00000000000E+00 -0.51918052206E+03  0.51918052206E+03  0.25500000920E-02 0. -1.
    10030    2    1    2    0    0  0.00000000000E+00  0.00000000000E+00 -0.39861662864E+02  0.99849938126E+03  0.99770339391E+03 0.  0.
        4    1    3    3  502    0  0.11788811631E+03  0.42268665159E+03  0.21751314781E+03  0.48977055421E+03  0.12699999809E+01 0.  1.
       -4    1    3    3    0  502 -0.11788811631E+03 -0.42268665159E+03 -0.25737481068E+03  0.50872882705E+03  0.12699999809E+01 0. -1.
</event>
<event>
 5   0  0.8875655E-03  0.9901846E+03  0.7818609E-02  0.9319376E-01
       -2   -1    0    0    0  501  0.00000000000E+00  0.00000000000E+00  0.60465852757E+03  0.60465852758E+03  0.25500000920E-02 0. -1.
        2   -1    0    0  501    0  0.00000000000E+00  0.00000000000E+00 -0.40537985340E+03  0.40537985341E+03  0.25500000920E-02 0.  1.
    10030    2    1    2    0    0  0.00000000000E+00  0.00000000000E+00  0.19927867417E+03  0.10100383810E+04  0.99018459950E+03 0.  0.
        4    1    3    3  502    0 -0.29586296811E+03  0.38614834496E+03  0.57651276535E+01  0.48649798541E+03  0.12699999809E+01 0. -1.
       -4    1    3    3    0  502  0.29586296811E+03 -0.38614834496E+03  0.19351354652E+03  0.52354039557E+03  0.12699999809E+01 0.  1.
</event>
<event>
 5   0  0.5189877E-03  0.1023045E+04  0.7818609E-02  0.9283625E-01
        1   -1    0    0  501    0  0.00000000000E+00  0.00000000000E+00  0.72055514955E+03  0.72055514957E+03  0.50400001928E-02 0. -1.
       -1   -1    0    0    0  501  0.00000000000E+00  0.00000000000E+00 -0.36312996169E+03  0.36312996172E+03  0.50400001928E-02 0.  1.
    10030    2    1    2    0    0  0.00000000000E+00  0.00000000000E+00  0.35742518786E+03  0.10836851113E+04  0.10230447964E+04 0.  0.
        3    1    3    3  502    0  0.30553450384E+02  0.20071102359E+03  0.67604920576E+03  0.70587602815E+03  0.10100000352E+00 0. -1.
       -3    1    3    3    0  502 -0.30553450384E+02 -0.20071102359E+03 -0.31862401790E+03  0.37780908314E+03  0.10100000352E+00 0.  1.
</event>
<event>
 5   0  0.5189877E-03  0.9968746E+03  0.7818609E-02  0.9311979E-01
       -1   -1    0    0    0  501  0.00000000000E+00  0.00000000000E+00  0.10006891224E+04  0.10006891224E+04  0.50400001928E-02 0. -1.
        1   -1    0    0  501    0  0.00000000000E+00  0.00000000000E+00 -0.24826867929E+03  0.24826867934E+03  0.50400001928E-02 0.  1.
    10030    2    1    2    0    0  0.00000000000E+00  0.00000000000E+00  0.75242044310E+03  0.12489578017E+04  0.99687464976E+03 0.  0.
        3    1    3    3  502    0  0.41826783112E+03 -0.78003551057E+02  0.70149252334E+03  0.82044152932E+03  0.10100000352E+00 0. -1.
       -3    1    3    3    0  502 -0.41826783112E+03  0.78003551057E+02  0.50927919765E+02  0.42851627243E+03  0.10100000352E+00 0.  1.
</event>
<event>
 5   0  0.5310275E-03  0.9962076E+03  0.7818609E-02  0.9312714E-01
       -1   -1    0    0    0  501  0.00000000000E+00  0.00000000000E+00  0.22618779162E+03  0.22618779168E+03  0.50400001928E-02 0. -1.
        1   -1    0    0  501    0  0.00000000000E+00  0.00000000000E+00 -0.10969088200E+04  0.10969088200E+04  0.50400001928E-02 0.  1.
    10030    2    1    2    0    0  0.00000000000E+00  0.00000000000E+00 -0.87072102839E+03  0.13230966117E+04  0.99620757608E+03 0.  0.
        1    1    3    3  502    0 -0.41000529411E+03  0.22548098516E+03 -0.66216187817E+03  0.81080476614E+03  0.50400001928E-02 0. -1.
       -1    1    3    3    0  502  0.41000529411E+03 -0.22548098516E+03 -0.20855915023E+03  0.51229184557E+03  0.50400001928E-02 0.  1.
</event>
<event>
 5   0  0.3513625E-03  0.9948829E+03  0.7818609E-02  0.9314175E-01
        4   -1    0    0  501    0  0.00000000000E+00  0.00000000000E+00  0.88068889701E+03  0.88068981272E+03  0.12699999809E+01 0. -1.
       -4   -1    0    0    0  501  0.00000000000E+00  0.00000000000E+00 -0.28096845262E+03  0.28097132286E+03  0.12699999809E+01 0.  1.
    10030    2    1    2    0    0  0.00000000000E+00  0.00000000000E+00  0.59972044439E+03  0.11616611356E+04  0.99488289888E+03 0.  0.
        5    1    3    3  502    0 -0.38982019943E+03 -0.18488215048E+03  0.58891726498E+03  0.73005947185E+03  0.46999998093E+01 0. -1.
       -5    1    3    3    0  502  0.38982019943E+03  0.18488215048E+03  0.10803179407E+02  0.43160166372E+03  0.46999998093E+01 0.  1.
</event>
<event>
 5   0  0.9243773E-03  0.9984959E+03  0.7818609E-02  0.9310196E-01
        2   -1    0    0  501    0  0.00000000000E+00  0.00000000000E+00  0.74059747354E+03  0.74059747354E+03  0.25500000920E-02 0.  1.
       -2   -1    0    0    0  501  0.00000000000E+00  0.00000000000E+00 -0.33655057654E+03  0.33655057655E+03  0.25500000920E-02 0. -1.
    10030    2    1    2    0    0  0.00000000000E+00  0.00000000000E+00  0.40404689700E+03  0.10771480501E+04  0.99849588223E+03 0.  0.
        3    1    3    3  502    0 -0.49107977712E+03  0.50644357587E+02  0.28220374771E+03  0.56865030016E+03  0.10100000352E+00 0.  1.
       -3    1    3    3    0  502  0.49107977712E+03 -0.50644357587E+02  0.12184314929E+03  0.50849774993E+03  0.10100000352E+00 0. -1.
</event>
<event>
 5   0  0.9243773E-03  0.1274909E+04  0.7818609E-02  0.9049703E-01
       -2   -1    0    0    0  501  0.00000000000E+00  0.00000000000E+00  0.82009621128E+03  0.82009621128E+03  0.25500000920E-02 0. -1.
        2   -1    0    0  501    0  0.00000000000E+00  0.00000000000E+00 -0.49548856966E+03  0.49548856967E+03  0.25500000920E-02 0.  1.
    10030    2    1    2    0    0  0.00000000000E+00  0.00000000000E+00  0.32460764162E+03  0.13155847809E+04  0.12749090928E+04 0.  0.
        3    1    3    3  502    0  0.45395264078E+03 -0.44700194167E+03  0.18454496183E+03  0.66328017388E+03  0.10100000352E+00 0. -1.
       -3    1    3    3    0  502 -0.45395264078E+03  0.44700194167E+03  0.14006267978E+03  0.65230460706E+03  0.10100000352E+00 0.  1.
</event>
<event>
 5   0  0.3513625E-03  0.9951412E+03  0.7818609E-02  0.9313890E-01
       -3   -1    0    0    0  501  0.00000000000E+00  0.00000000000E+00  0.57938481018E+03  0.57938481898E+03  0.10100000352E+00 0.  1.
        3   -1    0    0  501    0  0.00000000000E+00  0.00000000000E+00 -0.42730928753E+03  0.42730929946E+03  0.10100000352E+00 0. -1.
    10030    2    1    2    0    0  0.00000000000E+00  0.00000000000E+00  0.15207552265E+03  0.10066941184E+04  0.99514123798E+03 0.  0.
        5    1    3    3  502    0 -0.15853941327E+03  0.14265105950E+02 -0.40083295972E+03  0.43130892687E+03  0.46999998093E+01 0. -1.
       -5    1    3    3    0  502  0.15853941327E+03 -0.14265105950E+02  0.55290848237E+03  0.57538519157E+03  0.46999998093E+01 0.  1.
</event>
<event>
 5   0  0.5189877E-03  0.1070979E+04  0.7818609E-02  0.9233948E-01
       -1   -1    0    0    0  501  0.00000000000E+00  0.00000000000E+00  0.61153756506E+03  0.61153756508E+03  0.50400001928E-02 0. -1.
        1   -1    0    0  501    0  0.00000000000E+00  0.00000000000E+00 -0.46889851374E+03  0.46889851376E+03  0.50400001928E-02 0.  1.
    10030    2    1    2    0    0  0.00000000000E+00  0.00000000000E+00  0.14263905132E+03  0.10804360788E+04  0.10709790948E+04 0.  0.
        3    1    3    3  502    0  0.41641947155E+03 -0.33665845170E+03  0.69073707697E+02  0.53992154678E+03  0.10100000352E+00 0.  1.
       -3    1    3    3    0  502 -0.41641947155E+03  0.33665845170E+03  0.73565343626E+02  0.54051453206E+03  0.10100000352E+00 0. -1.
</event>
<event>
 5   0  0.8968798E-03  0.1000657E+04  0.7818609E-02  0.9307824E-01
        2   -1    0    0  501    0  0.00000000000E+00  0.00000000000E+00  0.63728176816E+03  0.63728176816E+03  0.25500000920E-02 0. -1.
       -2   -1    0    0    0  501  0.00000000000E+00  0.00000000000E+00 -0.39280714459E+03  0.39280714459E+03  0.25500000920E-02 0.  1.
    10030    2    1    2    0    0  0.00000000000E+00  0.00000000000E+00  0.24447462357E+03  0.10300889128E+04  0.10006574472E+04 0.  0.
        2    1    3    3  502    0 -0.41654054009E+03  0.25103126964E+03  0.24319263140E+03  0.54375120767E+03  0.25500000920E-02 0.  1.
       -2    1    3    3    0  502  0.41654054009E+03 -0.25103126964E+03  0.12819921736E+01  0.48633770508E+03  0.25500000920E-02 0. -1.
</event>
<event>
 5   0  0.9040674E-03  0.1003304E+04  0.7818609E-02  0.9304928E-01
       -2   -1    0    0    0  501  0.00000000000E+00  0.00000000000E+00  0.47797118069E+03  0.47797118069E+03  0.25500000920E-02 0.  1.
        2   -1    0    0  501    0  0.00000000000E+00  0.00000000000E+00 -0.52650633180E+03  0.52650633181E+03  0.25500000920E-02 0. -1.
    10030    2    1    2    0    0  0.00000000000E+00  0.00000000000E+00 -0.48535151115E+02  0.10044775125E+04  0.10033042471E+04 0.  0.
        1    1    3    3  502    0  0.49467980895E+02  0.83489897857E+02  0.46848396953E+03  0.47842959138E+03  0.50400001928E-02 0.  1.
       -1    1    3    3    0  502 -0.49467980895E+02 -0.83489897857E+02 -0.51701912065E+03  0.52604792112E+03  0.50400001928E-02 0. -1.
</event>
<event>
 5   0  0.8875655E-03  0.9503919E+03  0.7818609E-02  0.9364693E-01
       -2   -1    0    0    0  501  0.00000000000E+00  0.00000000000E+00  0.10251132642E+03  0.10251132645E+03  0.25500000920E-02 0.  1.
        2   -1    0    0  501    0  0.00000000000E+00  0.00000000000E+00 -0.22027927400E+04  0.22027927400E+04  0.25500000920E-02 0. -1.
    10030    2    1    2    0    0  0.00000000000E+00  0.00000000000E+00 -0.21002814135E+04  0.23053040664E+04  0.95039193101E+03 0.  0.
        4    1    3    3  502    0 -0.31582194616E+03  0.34224064975E+03 -0.12794553411E+04  0.13615725272E+04  0.12699999809E+01 0. -1.
       -4    1    3    3    0  502  0.31582194616E+03 -0.34224064975E+03 -0.82082607240E+03  0.94373153918E+03  0.12699999809E+01 0.  1.
</event>
<event>
 5   0  0.3513625E-03  0.1126125E+04  0.7818609E-02  0.9180096E-01
       -3   -1    0    0    0  501  0.00000000000E+00  0.00000000000E+00  0.49261556774E+03  0.49261557809E+03  0.10100000352E+00 0. -1.
        3   -1    0    0  501    0  0.00000000000E+00  0.00000000000E+00 -0.64358420465E+03  0.64358421257E+03  0.10100000352E+00 0.  1.
    10030    2    1    2    0    0  0.00000000000E+00  0.00000000000E+00 -0.15096863691E+03  0.11361997907E+04  0.11261254082E+04 0.  0.
        5    1    3    3  502    0  0.40078949787E+03  0.60290280011E+02  0.31884502549E+03  0.51570474086E+03  0.46999998093E+01 0. -1.
       -5    1    3    3    0  502 -0.40078949787E+03 -0.60290280011E+02 -0.46981366239E+03  0.62049504981E+03  0.46999998093E+01 0.  1.
</event>
<event>
 5   0  0.5072205E-03  0.1071903E+04  0.7818609E-02  0.9233018E-01
       -1   -1    0    0    0  501  0.00000000000E+00  0.00000000000E+00  0.17489142586E+03  0.17489142594E+03  0.50400001928E-02 0. -1.
        1   -1    0    0  501    0  0.00000000000E+00  0.00000000000E+00 -0.16424125571E+04  0.16424125571E+04  0.50400001928E-02 0.  1.
    10030    2    1    2    0    0  0.00000000000E+00  0.00000000000E+00 -0.14675211312E+04  0.18173039830E+04  0.10719027457E+04 0.  0.
        5    1    3    3  502    0 -0.12296032272E+03  0.34996648677E+03 -0.77954046024E+02  0.37907084578E+03  0.46999998093E+01 0. -1.
       -5    1    3    3    0  502  0.12296032272E+03 -0.34996648677E+03 -0.13895670852E+04  0.14382331373E+04  0.46999998093E+01 0.  1.
</event>
<event>
 5   0  0.9040674E-03  0.9986697E+03  0.7818609E-02  0.9310005E-01
       -2   -1    0    0    0  501  0.00000000000E+00  0.00000000000E+00  0.58279632082E+03  0.58279632083E+03  0.25500000920E-02 0.  1.
        2   -1    0    0  501    0  0.00000000000E+00  0.00000000000E+00 -0.42782581333E+03  0.42782581334E+03  0.25500000920E-02 0. -1.
    10030    2    1    2    0    0  0.00000000000E+00  0.00000000000E+00  0.15497050749E+03  0.10106221342E+04  0.99866973514E+03 0.  0.
        1    1    3    3  502    0  0.93067464062E+02 -0.41316915994E+03  0.34515996541E+03  0.54635676013E+03  0.50400001928E-02 0.  1.
       -1    1    3    3    0  502 -0.93067464062E+02  0.41316915994E+03 -0.19018945792E+03  0.46426537403E+03  0.50400001928E-02 0. -1.
</event>
<event>
 5   0  0.9243773E-03  0.9962807E+03  0.7818609E-02  0.9312633E-01
        2   -1    0    0  501    0  0.00000000000E+00  0.00000000000E+00  0.12462980511E+04  0.12462980511E+04  0.25500000920E-02 0. -1.
       -2   -1    0    0    0  501  0.00000000000E+00  0.00000000000E+00 -0.19910472111E+03  0.19910472112E+03  0.25500000920E-02 0.  1.
    10030    2    1    2    0    0  0.00000000000E+00  0.00000000000E+00  0.10471933300E+04  0.14454027722E+04  0.99628073531E+03 0.  0.
        3    1    3    3  502    0 -0.39227842731E+03  0.30323885265E+03  0.59329013107E+03  0.77319425510E+03  0.10100000352E+00 0.  1.
       -3    1    3    3    0  502  0.39227842731E+03 -0.30323885265E+03  0.45390319890E+03  0.67220851710E+03  0.10100000352E+00 0. -1.
</event>
<event>
 5   0  0.5349685E-03  0.9979105E+03  0.7818609E-02  0.9310839E-01
        1   -1    0    0  501    0  0.00000000000E+00  0.00000000000E+00  0.75742277979E+03  0.75742277980E+03  0.50400001928E-02 0.  1.
       -1   -1    0    0    0  501  0.00000000000E+00  0.00000000000E+00 -0.32868877556E+03  0.32868877560E+03  0.50400001928E-02 0. -1.
    10030    2    1    2    0    0  0.00000000000E+00  0.00000000000E+00  0.42873400422E+03  0.10861115554E+04  0.99791054930E+03 0.  0.
        4    1    3    3  502    0  0.47970813637E+03 -0.73993543577E+02  0.88566317715E+02  0.49339694580E+03  0.12699999809E+01 0. -1.
       -4    1    3    3    0  502 -0.47970813637E+03  0.73993543577E+02  0.34016768651E+03  0.59271460960E+03  0.12699999809E+01 0.  1.
</event>
<event>
 5   0  0.8907355E-03  0.1058049E+04  0.7818609E-02  0.9247073E-01
        2   -1    0    0  501    0  0.00000000000E+00  0.00000000000E+00  0.74676936470E+03  0.74676936470E+03  0.25500000920E-02 0. -1.
       -2   -1    0    0    0  501  0.00000000000E+00  0.00000000000E+00 -0.37477023276E+03  0.37477023277E+03  0.25500000920E-02 0.  1.
    10030    2    1    2    0    0  0.00000000000E+00  0.00000000000E+00  0.37199913194E+03  0.11215395975E+04  0.10580490133E+04 0.  0.
        5    1    3    3  502    0  0.79493112062E+02 -0.44387813589E+03 -0.10717989154E+03  0.46352623824E+03  0.46999998093E+01 0.  1.
       -5    1    3    3    0  502 -0.79493112062E+02  0.44387813589E+03  0.47917902348E+03  0.65801335923E+03  0.46999998093E+01 0. -1.
</event>
<event>
 5   0  0.8968798E-03  0.1006626E+04  0.7818609E-02  0.9301307E-01
        2   -1    0    0  501    0  0.00000000000E+00  0.00000000000E+00  0.48657061235E+03  0.48657061235E+03  0.25500000920E-02 0. -1.
       -2   -1    0    0    0  501  0.00000000000E+00  0.00000000000E+00 -0.52063134927E+03  0.52063134927E+03  0.25500000920E-02 0.  1.
    10030    2    1    2    0    0  0.00000000000E+00  0.00000000000E+00 -0.34060736919E+02  0.10072019616E+04  0.10066258777E+04 0.  0.
        2    1    3    3  502    0  0.10639976907E+03 -0.34992400845E+03 -0.36299723555E+03  0.51530060700E+03  0.25500000920E-02 0.  1.
       -2    1    3    3    0  502 -0.10639976907E+03  0.34992400845E+03  0.32893649863E+03  0.49190135463E+03  0.25500000920E-02 0. -1.
</event>
<event>
 5   0  0.8968798E-03  0.1009089E+04  0.7818609E-02  0.9298632E-01
       -2   -1    0    0    0  501  0.00000000000E+00  0.00000000000E+00  0.14336870579E+04  0.14336870579E+04  0.25500000920E-02 0. -1.
        2   -1    0    0  501    0  0.00000000000E+00  0.00000000000E+00 -0.17755960218E+03  0.17755960220E+03  0.25500000920E-02 0.  1.
    10030    2    1    2    0    0  0.00000000000E+00  0.00000000000E+00  0.12561274558E+04  0.16112466601E+04  0.10090885069E+04 0.  0.
        2    1    3    3  502    0  0.25056841155E+03 -0.40335524419E+03  0.35575176505E+03  0.59332899830E+03  0.25500000920E-02 0.  1.
       -2    1    3    3    0  502 -0.25056841155E+03  0.40335524419E+03  0.90037569071E+03  0.10179176618E+04  0.25500000920E-02 0. -1.
</event>
<event>
 5   0  0.5189877E-03  0.9890621E+03  0.7818609E-02  0.9320623E-01
       -1   -1    0    0    0  501  0.00000000000E+00  0.00000000000E+00  0.33585336081E+03  0.33585336085E+03  0.50400001928E-02 0.  1.
        1   -1    0    0  501    0  0.00000000000E+00  0.00000000000E+00 -0.72817780882E+03  0.72817780883E+03  0.50400001928E-02 0. -1.
    10030    2    1    2    0    0  0.00000000000E+00  0.00000000000E+00 -0.39232444800E+03  0.10640311697E+04  0.98906211006E+03 0.  0.
        3    1    3    3  502    0  0.44892176065E+02  0.58979119917E+01  0.33361878070E+03  0.33667728447E+03  0.10100000352E+00 0.  1.
       -3    1    3    3    0  502 -0.44892176065E+02 -0.58979119917E+01 -0.72594322870E+03  0.72735388522E+03  0.10100000352E+00 0. -1.
</event>
<event>
 5   0  0.5201968E-03  0.1055654E+04  0.7818609E-02  0.9249526E-01
       -1   -1    0    0    0  501  0.00000000000E+00  0.00000000000E+00  0.35259572571E+03  0.35259572575E+03  0.50400001928E-02 0. -1.
        1   -1    0    0  501    0  0.00000000000E+00  0.00000000000E+00 -0.79014345734E+03  0.79014345735E+03  0.50400001928E-02 0.  1.
    10030    2    1    2    0    0  0.00000000000E+00  0.00000000000E+00 -0.43754773162E+03  0.11427391831E+04  0.10556537421E+04 0.  0.
        2    1    3    3  502    0  0.15821028242E+03  0.23080558385E+03  0.26569464518E+03  0.38586960943E+03  0.25500000920E-02 0. -1.
       -2    1    3    3    0  502 -0.15821028242E+03 -0.23080558385E+03 -0.70324237680E+03  0.75686957367E+03  0.25500000920E-02 0.  1.
</event>
<event>
 5   0  0.9040674E-03  0.1056848E+04  0.7818609E-02  0.9248302E-01
        2   -1    0    0  501    0  0.00000000000E+00  0.00000000000E+00  0.43512105587E+03  0.43512105587E+03  0.25500000920E-02 0. -1.
       -2   -1    0    0    0  501  0.00000000000E+00  0.00000000000E+00 -0.64173400529E+03  0.64173400529E+03  0.25500000920E-02 0.  1.
    10030    2    1    2    0    0  0.00000000000E+00  0.00000000000E+00 -0.20661294942E+03  0.10768550612E+04  0.10568481026E+04 0.  0.
        1    1    3    3  502    0  0.17015199179E+03  0.30228539656E+02  0.40551302634E+03  0.44080185966E+03  0.50400001928E-02 0. -1.
       -1    1    3    3    0  502 -0.17015199179E+03 -0.30228539656E+02 -0.61212597576E+03  0.63605320151E+03  0.50400001928E-02 0.  1.
</event>
<event>
 5   0  0.3513625E-03  0.9962416E+03  0.7818609E-02  0.9312677E-01
        4   -1    0    0  501    0  0.00000000000E+00  0.00000000000E+00  0.39722165267E+03  0.39722368290E+03  0.12699999809E+01 0.  1.
       -4   -1    0    0    0  501  0.00000000000E+00  0.00000000000E+00 -0.62464527871E+03  0.62464656977E+03  0.12699999809E+01 0. -1.
    10030    2    1    2    0    0  0.00000000000E+00  0.00000000000E+00 -0.22742362604E+03  0.10218702527E+04  0.99624159098E+03 0.  0.
        1    1    3    3  502    0 -0.27317743538E+03 -0.13969038975E+03 -0.51621591606E+03  0.60051493587E+03  0.50400001928E-02 0. -1.
       -1    1    3    3    0  502  0.27317743538E+03  0.13969038975E+03  0.28879229001E+03  0.42135531679E+03  0.50400001928E-02 0.  1.
</event>
<event>
 5   0  0.5072205E-03  0.1006325E+04  0.7818609E-02  0.9301635E-01
        1   -1    0    0  501    0  0.00000000000E+00  0.00000000000E+00  0.15935003022E+04  0.15935003022E+04  0.50400001928E-02 0. -1.
       -1   -1    0    0    0  501  0.00000000000E+00  0.00000000000E+00 -0.15887826201E+03  0.15887826209E+03  0.50400001928E-02 0.  1.
    10030    2    1    2    0    0  0.00000000000E+00  0.00000000000E+00  0.14346220402E+04  0.17523785643E+04  0.10063251137E+04 0.  0.
        5    1    3    3  502    0  0.24594782563E+03 -0.14737033911E+03  0.14372806256E+04  0.14656077362E+04  0.46999998093E+01 0. -1.
       -5    1    3    3    0  502 -0.24594782563E+03  0.14737033911E+03 -0.26585853523E+01  0.28677082812E+03  0.46999998093E+01 0.  1.
</event>
<event>
 5   0  0.8907355E-03  0.1008878E+04  0.7818609E-02  0.9298861E-01
       -2   -1    0    0    0  501  0.00000000000E+00  0.00000000000E+00  0.45483388841E+03  0.45483388841E+03  0.25500000920E-02 0. -1.
        2   -1    0    0  501    0  0.00000000000E+00  0.00000000000E+00 -0.55945394756E+03  0.55945394757E+03  0.25500000920E-02 0.  1.
    10030    2    1    2    0    0  0.00000000000E+00  0.00000000000E+00 -0.10462005916E+03  0.10142878360E+04  0.10088778209E+04 0.  0.
        5    1    3    3  502    0  0.59479223216E+01 -0.43951109743E+03  0.19646616573E+03  0.48148356859E+03  0.46999998093E+01 0. -1.
       -5    1    3    3    0  502 -0.59479223216E+01  0.43951109743E+03 -0.30108622488E+03  0.53280426740E+03  0.46999998093E+01 0.  1.
</event>
<event>
 5   0  0.3513625E-03  0.1006306E+04  0.7818609E-02  0.9301655E-01
        4   -1    0    0  501    0  0.00000000000E+00  0.00000000000E+00  0.21560305388E+03  0.21560679428E+03  0.12699999809E+01 0. -1.
       -4   -1    0    0    0  501  0.00000000000E+00  0.00000000000E+00 -0.11741943728E+04  0.11741950596E+04  0.12699999809E+01 0.  1.
    10030    2    1    2    0    0  0.00000000000E+00  0.00000000000E+00 -0.95859131893E+03  0.13898018539E+04  0.10063060550E+04 0.  0.
        5    1    3    3  502    0 -0.29528345468E+03  0.17508983187E+03 -0.98729019172E+03  0.10452811969E+04  0.46999998093E+01 0.  1.
       -5    1    3    3    0  502  0.29528345468E+03 -0.17508983187E+03  0.28698872795E+02  0.34452065704E+03  0.46999998093E+01 0. -1.
</event>
<event>
 5   0  0.5189877E-03  0.8521700E+03  0.7818609E-02  0.9487429E-01
        1   -1    0    0  501    0  0.00000000000E+00  0.00000000000E+00  0.80216593466E+03  0.80216593468E+03  0.50400001928E-02 0. -1.
       -1   -1    0    0    0  501  0.00000000000E+00  0.00000000000E+00 -0.22632278867E+03  0.22632278873E+03  0.50400001928E-02 0.  1.
    10030    2    1    2    0    0  0.00000000000E+00  0.00000000000E+00  0.57584314599E+03  0.10284887234E+04  0.85217000967E+03 0.  0.
        3    1    3    3  502    0 -0.19632455477E+03 -0.37815984718E+03  0.28735506708E+03  0.51392717927E+03  0.10100000352E+00 0. -1.
       -3    1    3    3    0  502  0.19632455477E+03  0.37815984718E+03  0.28848807891E+03  0.51456154413E+03  0.10100000352E+00 0.  1.
</event>
<event>
 5   0  0.5189877E-03  0.9990925E+03  0.7818609E-02  0.9309541E-01
        1   -1    0    0  501    0  0.00000000000E+00  0.00000000000E+00  0.18185213891E+04  0.18185213891E+04  0.50400001928E-02 0.  1.
       -1   -1    0    0    0  501  0.00000000000E+00  0.00000000000E+00 -0.13722491555E+03  0.13722491564E+03  0.50400001928E-02 0. -1.
    10030    2    1    2    0    0  0.00000000000E+00  0.00000000000E+00  0.16812964736E+04  0.19557463048E+04  0.99909247648E+03 0.  0.
        3    1    3    3  502    0  0.26469695711E+03 -0.28587196364E+03  0.22860008023E+03  0.45171369869E+03  0.10100000352E+00 0. -1.
       -3    1    3    3    0  502 -0.26469695711E+03  0.28587196364E+03  0.14526963934E+04  0.15040326061E+04  0.10100000352E+00 0.  1.
</event>
<event>
 5   0  0.8968798E-03  0.1001104E+04  0.7818609E-02  0.9307335E-01
        2   -1    0    0  501    0  0.00000000000E+00  0.00000000000E+00  0.12560760602E+04  0.12560760602E+04  0.25500000920E-02 0. -1.
       -2   -1    0    0    0  501  0.00000000000E+00  0.00000000000E+00 -0.19947210901E+03  0.19947210902E+03  0.25500000920E-02 0.  1.
    10030    2    1    2    0    0  0.00000000000E+00  0.00000000000E+00  0.10566039512E+04  0.14555481692E+04  0.10011036726E+04 0.  0.
        2    1    3    3  502    0  0.32124111956E+03  0.13191933575E+03  0.41688120968E+01  0.34729806656E+03  0.25500000920E-02 0.  1.
       -2    1    3    3    0  502 -0.32124111956E+03 -0.13191933575E+03  0.10524351391E+04  0.11082501026E+04  0.25500000920E-02 0. -1.
</event>
<event>
 5   0  0.9040674E-03  0.1016513E+04  0.7818609E-02  0.9290617E-01
       -2   -1    0    0    0  501  0.00000000000E+00  0.00000000000E+00  0.16238752482E+03  0.16238752484E+03  0.25500000920E-02 0.  1.
        2   -1    0    0  501    0  0.00000000000E+00  0.00000000000E+00 -0.15907908961E+04  0.15907908961E+04  0.25500000920E-02 0. -1.
    10030    2    1    2    0    0  0.00000000000E+00  0.00000000000E+00 -0.14284033713E+04  0.17531784210E+04  0.10165128551E+04 0.  0.
        1    1    3    3  502    0  0.23389262727E+03  0.44145205128E+03 -0.87543031401E+03  0.10079503507E+04  0.50400001928E-02 0.  1.
       -1    1    3    3    0  502 -0.23389262727E+03 -0.44145205128E+03 -0.55297305730E+03  0.74522807033E+03  0.50400001928E-02 0. -1.
</event>
<event>
 5   0  0.5310275E-03  0.1001697E+04  0.7818609E-02  0.9306686E-01
        1   -1    0    0  501    0  0.00000000000E+00  0.00000000000E+00  0.23000411284E+04  0.23000411284E+04  0.50400001928E-02 0.  1.
       -1   -1    0    0    0  501  0.00000000000E+00  0.00000000000E+00 -0.10906286618E+03  0.10906286630E+03  0.50400001928E-02 0. -1.
    10030    2    1    2    0    0  0.00000000000E+00  0.00000000000E+00  0.21909782622E+04  0.24091039947E+04  0.10016967165E+04 0.  0.
        1    1    3    3  502    0 -0.80735903830E+02 -0.48778764375E+03  0.90317737686E+03  0.10296525849E+04  0.50400001928E-02 0. -1.
       -1    1    3    3    0  502  0.80735903830E+02  0.48778764375E+03  0.12878008853E+04  0.13794514097E+04  0.50400001928E-02 0.  1.
</event>
<event>
 5   0  0.9040674E-03  0.9772304E+03  0.7818609E-02  0.9333877E-01
       -2   -1    0    0    0  501  0.00000000000E+00  0.00000000000E+00  0.82205347646E+03  0.82205347646E+03  0.25500000920E-02 0. -1.
        2   -1    0    0  501    0  0.00000000000E+00  0.00000000000E+00 -0.29042493090E+03  0.29042493091E+03  0.25500000920E-02 0.  1.
    10030    2    1    2    0    0  0.00000000000E+00  0.00000000000E+00  0.53162854555E+03  0.11124784074E+04  0.97723042136E+03 0.  0.
        1    1    3    3  502    0  0.37250322881E+03 -0.27813828801E+03  0.94579715807E+02  0.47441003930E+03  0.50400001928E-02 0.  1.
       -1    1    3    3    0  502 -0.37250322881E+03  0.27813828801E+03  0.43704882975E+03  0.63806836807E+03  0.50400001928E-02 0. -1.
</event>
<event>
 5   0  0.9040674E-03  0.9839479E+03  0.7818609E-02  0.9326328E-01
       -2   -1    0    0    0  501  0.00000000000E+00  0.00000000000E+00  0.19456486142E+03  0.19456486144E+03  0.25500000920E-02 0.  1.
        2   -1    0    0  501    0  0.00000000000E+00  0.00000000000E+00 -0.12439983439E+04  0.12439983439E+04  0.25500000920E-02 0. -1.
    10030    2    1    2    0    0  0.00000000000E+00  0.00000000000E+00 -0.10494334825E+04  0.14385632053E+04  0.98394789578E+03 0.  0.
        1    1    3    3  502    0  0.43460046589E+03  0.22834306188E+03 -0.47801754487E+03  0.68521448619E+03  0.50400001928E-02 0.  1.
       -1    1    3    3    0  502 -0.43460046589E+03 -0.22834306188E+03 -0.57141593762E+03  0.75334871915E+03  0.50400001928E-02 0. -1.
</event>
<event>
 5   0  0.8907355E-03  0.9940475E+03  0.7818609E-02  0.9315098E-01
       -2   -1    0    0    0  501  0.00000000000E+00  0.00000000000E+00  0.67021221017E+03  0.67021221018E+03  0.25500000920E-02 0. -1.
        2   -1    0    0  501    0  0.00000000000E+00  0.00000000000E+00 -0.36858863599E+03  0.36858863600E+03  0.25500000920E-02 0.  1.
    10030    2    1    2    0    0  0.00000000000E+00  0.00000000000E+00  0.30162357418E+03  0.10388008462E+04  0.99404749259E+03 0.  0.
        5    1    3    3  502    0 -0.20664474278E+03  0.31723889407E+03 -0.18565903807E+03  0.42170360924E+03  0.46999998093E+01 0.  1.
       -5    1    3    3    0  502  0.20664474278E+03 -0.31723889407E+03  0.48728261225E+03  0.61709723694E+03  0.46999998093E+01 0. -1.
</event>
<event>
 5   0  0.9243773E-03  0.1001254E+04  0.7818609E-02  0.9307171E-01
       -2   -1    0    0    0  501  0.00000000000E+00  0.00000000000E+00  0.14231229604E+03  0.14231229606E+03  0.25500000920E-02 0.  1.
        2   -1    0    0  501    0  0.00000000000E+00  0.00000000000E+00 -0.17611077713E+04  0.17611077713E+04  0.25500000920E-02 0. -1.
    10030    2    1    2    0    0  0.00000000000E+00  0.00000000000E+00 -0.16187954753E+04  0.19034200674E+04  0.10012537951E+04 0.  0.
        3    1    3    3  502    0  0.95686583665E+02  0.47333709713E+03 -0.10603298864E+04  0.11651194823E+04  0.10100000352E+00 0. -1.
       -3    1    3    3    0  502 -0.95686583665E+02 -0.47333709713E+03 -0.55846558893E+03  0.73830058514E+03  0.10100000352E+00 0.  1.
</event>
<event>
 5   0  0.5349685E-03  0.9934470E+03  0.7818609E-02  0.9315761E-01
        1   -1    0    0  501    0  0.00000000000E+00  0.00000000000E+00  0.14037442542E+04  0.14037442542E+04  0.50400001928E-02 0.  1.
       -1   -1    0    0    0  501  0.00000000000E+00  0.00000000000E+00 -0.17576864440E+03  0.17576864447E+03  0.50400001928E-02 0. -1.
    10030    2    1    2    0    0  0.00000000000E+00  0.00000000000E+00  0.12279756098E+04  0.15795128987E+04  0.99344697837E+03 0.  0.
        4    1    3    3  502    0 -0.30552300111E+03 -0.36730408816E+03  0.39787394013E+03  0.62174100920E+03  0.12699999809E+01 0. -1.
       -4    1    3    3    0  502  0.30552300111E+03  0.36730408816E+03  0.83010166966E+03  0.95777188947E+03  0.12699999809E+01 0.  1.
</event>
<event>
 5   0  0.5310275E-03  0.9955215E+03  0.7818609E-02  0.9313470E-01
        1   -1    0    0  501    0  0.00000000000E+00  0.00000000000E+00  0.10156718381E+04  0.10156718381E+04  0.50400001928E-02 0.  1.
       -1   -1    0    0    0  501  0.00000000000E+00  0.00000000000E+00 -0.24394272750E+03  0.24394272755E+03  0.50400001928E-02 0. -1.
    10030    2    1    2    0    0  0.00000000000E+00  0.00000000000E+00  0.77172911062E+03  0.12596145657E+04  0.99552148843E+03 0.  0.
        1    1    3    3  502    0 -0.31497123906E+03  0.37282388075E+03  0.50958570296E+03  0.70560762196E+03  0.50400001928E-02 0. -1.
       -1    1    3    3    0  502  0.31497123906E+03 -0.37282388075E+03  0.26214340767E+03  0.55400694373E+03  0.50400001928E-02 0.  1.
</event>
<event>
 5   0  0.5310275E-03  0.9863520E+03  0.7818609E-02  0.9323642E-01
        1   -1    0    0  501    0  0.00000000000E+00  0.00000000000E+00  0.76526338882E+03  0.76526338884E+03  0.50400001928E-02 0. -1.
       -1   -1    0    0    0  501  0.00000000000E+00  0.00000000000E+00 -0.31782855821E+03  0.31782855825E+03  0.50400001928E-02 0.  1.
    10030    2    1    2    0    0  0.00000000000E+00  0.00000000000E+00  0.44743483062E+03  0.10830919471E+04  0.98635198494E+03 0.  0.
        1    1    3    3  502    0  0.16464057150E+00 -0.43120970413E+03  0.48652485256E+03  0.65011404247E+03  0.50400001928E-02 0.  1.
       -1    1    3    3    0  502 -0.16464057150E+00  0.43120970413E+03 -0.39090021941E+02  0.43297790461E+03  0.50400001928E-02 0. -1.
</event>
<event>
 5   0  0.8907355E-03  0.9653873E+03  0.7818609E-02  0.9347344E-01
       -2   -1    0    0    0  501  0.00000000000E+00  0.00000000000E+00  0.15902588842E+04  0.15902588842E+04  0.25500000920E-02 0.  1.
        2   -1    0    0  501    0  0.00000000000E+00  0.00000000000E+00 -0.14651271669E+03  0.14651271671E+03  0.25500000920E-02 0. -1.
    10030    2    1    2    0    0  0.00000000000E+00  0.00000000000E+00  0.14437461675E+04  0.17367716009E+04  0.96538727850E+03 0.  0.
        5    1    3    3  502    0  0.31242938296E+03  0.32484645274E+03  0.10326114357E+04  0.11266968556E+04  0.46999998093E+01 0.  1.
       -5    1    3    3    0  502 -0.31242938296E+03 -0.32484645274E+03  0.41113473178E+03  0.61007474531E+03  0.46999998093E+01 0. -1.
</event>
<event>
 5   0  0.9040674E-03  0.9882418E+03  0.7818609E-02  0.9321536E-01
       -2   -1    0    0    0  501  0.00000000000E+00  0.00000000000E+00  0.59893706885E+03  0.59893706885E+03  0.25500000920E-02 0. -1.
        2   -1    0    0  501    0  0.00000000000E+00  0.00000000000E+00 -0.40764791379E+03  0.40764791380E+03  0.25500000920E-02 0.  1.
    10030    2    1    2    0    0  0.00000000000E+00  0.00000000000E+00  0.19128915505E+03  0.10065849827E+04  0.98824176519E+03 0.  0.
        1    1    3    3  502    0  0.15733630250E+03  0.33818609669E+03 -0.23445561914E+03  0.44056098948E+03  0.50400001928E-02 0.  1.
       -1    1    3    3    0  502 -0.15733630250E+03 -0.33818609669E+03  0.42574477419E+03  0.56602399318E+03  0.50400001928E-02 0. -1.
</event>
<event>
 5   0  0.5189877E-03  0.9967404E+03  0.7818609E-02  0.9312127E-01
       -1   -1    0    0    0  501  0.00000000000E+00  0.00000000000E+00  0.16099942623E+03  0.16099942631E+03  0.50400001928E-02 0. -1.
        1   -1    0    0  501    0  0.00000000000E+00  0.00000000000E+00 -0.15426940941E+04  0.15426940941E+04  0.50400001928E-02 0.  1.
    10030    2    1    2    0    0  0.00000000000E+00  0.00000000000E+00 -0.13816946679E+04  0.17036935204E+04  0.99674041570E+03 0.  0.
        3    1    3    3  502    0 -0.29802700787E+03  0.38883739360E+03 -0.53458051751E+03  0.72511444337E+03  0.10100000352E+00 0. -1.
       -3    1    3    3    0  502  0.29802700787E+03 -0.38883739360E+03 -0.84711415039E+03  0.97857907707E+03  0.10100000352E+00 0.  1.
</event>
<event>
 5   0  0.5189877E-03  0.1041649E+04  0.7818609E-02  0.9264009E-01
        1   -1    0    0  501    0  0.00000000000E+00  0.00000000000E+00  0.10826301051E+04  0.10826301051E+04  0.50400001928E-02 0. -1.
       -1   -1    0    0    0  501  0.00000000000E+00  0.00000000000E+00 -0.25055456205E+03  0.25055456210E+03  0.50400001928E-02 0.  1.
    10030    2    1    2    0    0  0.00000000000E+00  0.00000000000E+00  0.83207554302E+03  0.13331846672E+04  0.10416485240E+04 0.  0.
        3    1    3    3  502    0  0.27904240833E+03 -0.20703499333E+03  0.91260753798E+03  0.97651455836E+03  0.10100000352E+00 0. -1.
       -3    1    3    3    0  502 -0.27904240833E+03  0.20703499333E+03 -0.80531994960E+02  0.35667010882E+03  0.10100000352E+00 0.  1.
</event>
<event>
 5   0  0.9040674E-03  0.1001253E+04  0.7818609E-02  0.9307171E-01
        2   -1    0    0  501    0  0.00000000000E+00  0.00000000000E+00  0.75526354388E+03  0.75526354388E+03  0.25500000920E-02 0.  1.
       -2   -1    0    0    0  501  0.00000000000E+00  0.00000000000E+00 -0.33184063823E+03  0.33184063824E+03  0.25500000920E-02 0. -1.
    10030    2    1    2    0    0  0.00000000000E+00  0.00000000000E+00  0.42342290565E+03  0.10871041821E+04  0.10012534873E+04 0.  0.
        1    1    3    3  502    0  0.52036161577E+02 -0.46763545170E+03  0.39735912488E+03  0.61586114664E+03  0.50400001928E-02 0.  1.
       -1    1    3    3    0  502 -0.52036161577E+02  0.46763545170E+03  0.26063780777E+02  0.47124303548E+03  0.50400001928E-02 0. -1.
</event>
<event>
 5   0  0.5310275E-03  0.9779118E+03  0.7818609E-02  0.9333108E-01
       -1   -1    0    0    0  501  0.00000000000E+00  0.00000000000E+00  0.26378359988E+03  0.26378359993E+03  0.50400001928E-02 0. -1.
        1   -1    0    0  501    0  0.00000000000E+00  0.00000000000E+00 -0.90634091886E+03  0.90634091887E+03  0.50400001928E-02 0.  1.
    10030    2    1    2    0    0  0.00000000000E+00  0.00000000000E+00 -0.64255731897E+03  0.11701245188E+04  0.97791179629E+03 0.  0.
        1    1    3    3  502    0  0.29159711217E+03 -0.53277455222E+02  0.14401097738E+03  0.32955504046E+03  0.50400001928E-02 0. -1.
       -1    1    3    3    0  502 -0.29159711217E+03  0.53277455222E+02 -0.78656829636E+03  0.84056947834E+03  0.50400001928E-02 0.  1.
</event>
<event>
 5   0  0.5201968E-03  0.9799105E+03  0.7818609E-02  0.9330857E-01
       -1   -1    0    0    0  501  0.00000000000E+00  0.00000000000E+00  0.65875673807E+03  0.65875673809E+03  0.50400001928E-02 0. -1.
        1   -1    0    0  501    0  0.00000000000E+00  0.00000000000E+00 -0.36440785889E+03  0.36440785892E+03  0.50400001928E-02 0.  1.
    10030    2    1    2    0    0  0.00000000000E+00  0.00000000000E+00  0.29434887918E+03  0.10231645970E+04  0.97991047034E+03 0.  0.
        2    1    3    3  502    0  0.28757840113E+03  0.28914507537E+03  0.43073112185E+03  0.59315723948E+03  0.25500000920E-02 0. -1.
       -2    1    3    3    0  502 -0.28757840113E+03 -0.28914507537E+03 -0.13638224267E+03  0.43000735753E+03  0.25500000920E-02 0.  1.
</event>
<event>
 5   0  0.5349685E-03  0.9517964E+03  0.7818609E-02  0.9363053E-01
       -1   -1    0    0    0  501  0.00000000000E+00  0.00000000000E+00  0.13092830205E+03  0.13092830215E+03  0.50400001928E-02 0.  1.
        1   -1    0    0  501    0  0.00000000000E+00  0.00000000000E+00 -0.17297948540E+04  0.17297948540E+04  0.50400001928E-02 0. -1.
    10030    2    1    2    0    0  0.00000000000E+00  0.00000000000E+00 -0.15988665519E+04  0.18607231561E+04  0.95179641359E+03 0.  0.
        4    1    3    3  502    0 -0.40740060717E+03  0.39574617631E+02 -0.12740339392E+04  0.13381724464E+04  0.12699999809E+01 0. -1.
       -4    1    3    3    0  502  0.40740060717E+03 -0.39574617631E+02 -0.32483261270E+03  0.52255070975E+03  0.12699999809E+01 0.  1.
</event>
<event>
 5   0  0.5201968E-03  0.9978365E+03  0.7818609E-02  0.9310921E-01
       -1   -1    0    0    0  501  0.00000000000E+00  0.00000000000E+00  0.14194373288E+03  0.14194373297E+03  0.50400001928E-02 0.  1.
        1   -1    0    0  501    0  0.00000000000E+00  0.00000000000E+00 -0.17536485766E+04  0.17536485766E+04  0.50400001928E-02 0. -1.
    10030    2    1    2    0    0  0.00000000000E+00  0.00000000000E+00 -0.16117048437E+04  0.18955923096E+04  0.99783651010E+03 0.  0.
        2    1    3    3  502    0 -0.29604903722E+02  0.25670707643E+03  0.49098317486E+01  0.25845517961E+03  0.25500000920E-02 0.  1.
       -2    1    3    3    0  502  0.29604903722E+02 -0.25670707643E+03 -0.16166146755E+04  0.16371371300E+04  0.25500000920E-02 0. -1.
</event>
<event>
 5   0  0.5310275E-03  0.1002652E+04  0.7818609E-02  0.9305641E-01
        1   -1    0    0  501    0  0.00000000000E+00  0.00000000000E+00  0.67769033631E+03  0.67769033633E+03  0.50400001928E-02 0. -1.
       -1   -1    0    0    0  501  0.00000000000E+00  0.00000000000E+00 -0.37085925731E+03  0.37085925734E+03  0.50400001928E-02 0.  1.
    10030    2    1    2    0    0  0.00000000000E+00  0.00000000000E+00  0.30683107900E+03  0.10485495937E+04  0.10026519532E+04 0.  0.
        1    1    3    3  502    0 -0.26514051782E+03 -0.41677770641E+03  0.63914051456E+02  0.49808448756E+03  0.50400001928E-02 0. -1.
       -1    1    3    3    0  502  0.26514051782E+03  0.41677770641E+03  0.24291702755E+03  0.55046510611E+03  0.50400001928E-02 0.  1.
</event>
<event>
 5   0  0.5189877E-03  0.9999416E+03  0.7818609E-02  0.9308609E-01
        1   -1    0    0  501    0  0.00000000000E+00  0.00000000000E+00  0.75598886379E+03  0.75598886381E+03  0.50400001928E-02 0. -1.
       -1   -1    0    0    0  501  0.00000000000E+00  0.00000000000E+00 -0.33065410170E+03  0.33065410174E+03  0.50400001928E-02 0.  1.
    10030    2    1    2    0    0  0.00000000000E+00  0.00000000000E+00  0.42533476209E+03  0.10866429655E+04  0.99994163566E+03 0.  0.
        3    1    3    3  502    0 -0.28493247375E+03  0.36321293499E+03  0.42130554932E+03  0.62498682132E+03  0.10100000352E+00 0.  1.
       -3    1    3    3    0  502  0.28493247375E+03 -0.36321293499E+03  0.40292127710E+01  0.46165614422E+03  0.10100000352E+00 0. -1.
</event>
<event>
 5   0  0.5349685E-03  0.1274358E+04  0.7818609E-02  0.9050150E-01
        1   -1    0    0  501    0  0.00000000000E+00  0.00000000000E+00  0.44881801361E+03  0.44881801364E+03  0.50400001928E-02 0. -1.
       -1   -1    0    0    0  501  0.00000000000E+00  0.00000000000E+00 -0.90459213830E+03  0.90459213831E+03  0.50400001928E-02 0.  1.
    10030    2    1    2    0    0  0.00000000000E+00  0.00000000000E+00 -0.45577412469E+03  0.13534101519E+04  0.12743582646E+04 0.  0.
        4    1    3    3  502    0 -0.26417775681E+03 -0.51857687589E+03  0.47594825145E+02  0.58393385214E+03  0.12699999809E+01 0. -1.
       -4    1    3    3    0  502  0.26417775681E+03  0.51857687589E+03 -0.50336894984E+03  0.76947629980E+03  0.12699999809E+01 0.  1.
</event>
<event>
 5   0  0.9243773E-03  0.9738943E+03  0.7818609E-02  0.9337650E-01
        2   -1    0    0  501    0  0.00000000000E+00  0.00000000000E+00  0.10031259192E+04  0.10031259192E+04  0.25500000920E-02 0.  1.
       -2   -1    0    0    0  501  0.00000000000E+00  0.00000000000E+00 -0.23637863218E+03  0.23637863220E+03  0.25500000920E-02 0. -1.
    10030    2    1    2    0    0  0.00000000000E+00  0.00000000000E+00  0.76674728701E+03  0.12395045514E+04  0.97389431192E+03 0.  0.
        3    1    3    3  502    0  0.16135549394E+03  0.31182377935E+03 -0.46062632354E+02  0.35410653919E+03  0.10100000352E+00 0. -1.
       -3    1    3    3    0  502 -0.16135549394E+03 -0.31182377935E+03  0.81280991937E+03  0.88539801221E+03  0.10100000352E+00 0.  1.
</event>
<event>
 5   0  0.5201968E-03  0.1006677E+04  0.7818609E-02  0.9301252E-01
       -1   -1    0    0    0  501  0.00000000000E+00  0.00000000000E+00  0.18666250807E+03  0.18666250814E+03  0.50400001928E-02 0.  1.
        1   -1    0    0  501    0  0.00000000000E+00  0.00000000000E+00 -0.13572603909E+04  0.13572603909E+04  0.50400001928E-02 0. -1.
    10030    2    1    2    0    0  0.00000000000E+00  0.00000000000E+00 -0.11705978828E+04  0.15439228990E+04  0.10066769665E+04 0.  0.
        2    1    3    3  502    0  0.95117713703E+02  0.54130388461E+02  0.16819377146E+03  0.20066545089E+03  0.25500000920E-02 0.  1.
       -2    1    3    3    0  502 -0.95117713703E+02 -0.54130388461E+02 -0.13387916543E+04  0.13432574481E+04  0.25500000920E-02 0. -1.
</event>
<event>
 5   0  0.5189877E-03  0.1001977E+04  0.7818609E-02  0.9306380E-01
        1   -1    0    0  501    0  0.00000000000E+00  0.00000000000E+00  0.12128229907E+04  0.12128229908E+04  0.50400001928E-02 0.  1.
       -1   -1    0    0    0  501  0.00000000000E+00  0.00000000000E+00 -0.20694631831E+03  0.20694631837E+03  0.50400001928E-02 0. -1.
    10030    2    1    2    0    0  0.00000000000E+00  0.00000000000E+00  0.10058766724E+04  0.14197693091E+04  0.10019765521E+04 0.  0.
        3    1    3    3  502    0  0.45607871418E+03 -0.73650473674E+02  0.22833487906E+03  0.51533388497E+03  0.10100000352E+00 0.  1.
       -3    1    3    3    0  502 -0.45607871418E+03  0.73650473674E+02  0.77754179338E+03  0.90443542415E+03  0.10100000352E+00 0. -1.
</event>
<event>
 5   0  0.3513625E-03  0.9986150E+03  0.7818609E-02  0.9310065E-01
       -4   -1    0    0    0  501  0.00000000000E+00  0.00000000000E+00  0.32447105898E+03  0.32447354440E+03  0.12699999809E+01 0. -1.
        4   -1    0    0  501    0  0.00000000000E+00  0.00000000000E+00 -0.76834606456E+03  0.76834711415E+03  0.12699999809E+01 0.  1.
    10030    2    1    2    0    0  0.00000000000E+00  0.00000000000E+00 -0.44387500558E+03  0.10928206585E+04  0.99861502650E+03 0.  0.
        5    1    3    3  502    0 -0.16931725796E+03 -0.44801429890E+03 -0.67559436379E+02  0.48370601951E+03  0.46999998093E+01 0. -1.
       -5    1    3    3    0  502  0.16931725796E+03  0.44801429890E+03 -0.37631556920E+03  0.60911463904E+03  0.46999998093E+01 0.  1.
</event>
<event>
 5   0  0.9040674E-03  0.9845038E+03  0.7818609E-02  0.9325706E-01
        2   -1    0    0  501    0  0.00000000000E+00  0.00000000000E+00  0.95461363685E+03  0.95461363685E+03  0.25500000920E-02 0. -1.
       -2   -1    0    0    0  501  0.00000000000E+00  0.00000000000E+00 -0.25383247394E+03  0.25383247395E+03  0.25500000920E-02 0.  1.
    10030    2    1    2    0    0  0.00000000000E+00  0.00000000000E+00  0.70078116291E+03  0.12084461108E+04  0.98450381636E+03 0.  0.
        1    1    3    3  502    0  0.60749749022E+02 -0.38381954751E+02 -0.24735975930E+03  0.25758601865E+03  0.50400001928E-02 0.  1.
       -1    1    3    3    0  502 -0.60749749022E+02  0.38381954751E+02  0.94814092221E+03  0.95086009215E+03  0.50400001928E-02 0. -1.
</event>
<event>
 5   0  0.3513625E-03  0.9943387E+03  0.7818609E-02  0.9314776E-01
        3   -1    0    0  501    0  0.00000000000E+00  0.00000000000E+00  0.74998825654E+03  0.74998826334E+03  0.10100000352E+00 0. -1.
       -3   -1    0    0    0  501  0.00000000000E+00  0.00000000000E+00 -0.32957495942E+03  0.32957497489E+03  0.10100000352E+00 0.  1.
    10030    2    1    2    0    0  0.00000000000E+00  0.00000000000E+00  0.42041329713E+03  0.10795632382E+04  0.99433869730E+03 0.  0.
        3    1    3    3  502    0  0.46959398155E+03  0.11271632002E+03  0.81955531691E+02  0.48983690722E+03  0.10100000352E+00 0.  1.
       -3    1    3    3    0  502 -0.46959398155E+03 -0.11271632002E+03  0.33845776544E+03  0.58972633101E+03  0.10100000352E+00 0. -1.
</event>
<event>
 5   0  0.5310275E-03  0.1005485E+04  0.7818609E-02  0.9302550E-01
       -1   -1    0    0    0  501  0.00000000000E+00  0.00000000000E+00  0.58908680180E+03  0.58908680182E+03  0.50400001928E-02 0. -1.
        1   -1    0    0  501    0  0.00000000000E+00  0.00000000000E+00 -0.42905356209E+03  0.42905356212E+03  0.50400001928E-02 0.  1.
    10030    2    1    2    0    0  0.00000000000E+00  0.00000000000E+00  0.16003323971E+03  0.10181403639E+04  0.10054845413E+04 0.  0.
        1    1    3    3  502    0  0.63908968342E+02  0.38435279346E+02 -0.42342149555E+03  0.42993882106E+03  0.50400001928E-02 0.  1.
       -1    1    3    3    0  502 -0.63908968342E+02 -0.38435279346E+02  0.58345473526E+03  0.58820154289E+03  0.50400001928E-02 0. -1.
</event>
<event>
 5   0  0.8968798E-03  0.9791520E+03  0.7818609E-02  0.9331711E-01
        2   -1    0    0  501    0  0.00000000000E+00  0.00000000000E+00  0.70552427023E+03  0.70552427023E+03  0.25500000920E-02 0. -1.
       -2   -1    0    0    0  501  0.00000000000E+00  0.00000000000E+00 -0.33972562853E+03  0.33972562854E+03  0.25500000920E-02 0.  1.
    10030    2    1    2    0    0  0.00000000000E+00  0.00000000000E+00  0.36579864170E+03  0.10452498988E+04  0.97915203345E+03 0.  0.
        2    1    3    3  502    0  0.18314665092E+03 -0.22081168477E+03 -0.24059787808E+03  0.37441665937E+03  0.25500000920E-02 0.  1.
       -2    1    3    3    0  502 -0.18314665092E+03  0.22081168477E+03  0.60639651977E+03  0.67083323940E+03  0.25500000920E-02 0. -1.
</event>
<event>
 5   0  0.5072205E-03  0.9919601E+03  0.7818609E-02  0.9317407E-01
        1   -1    0    0  501    0  0.00000000000E+00  0.00000000000E+00  0.11304240719E+04  0.11304240719E+04  0.50400001928E-02 0. -1.
       -1   -1    0    0    0  501  0.00000000000E+00  0.00000000000E+00 -0.21761407401E+03  0.21761407407E+03  0.50400001928E-02 0.  1.
    10030    2    1    2    0    0  0.00000000000E+00  0.00000000000E+00  0.91280999789E+03  0.13480381460E+04  0.99196005502E+03 0.  0.
        5    1    3    3  502    0 -0.40083739302E+03 -0.29169271398E+03  0.43630139180E+03  0.66040612468E+03  0.46999998093E+01 0.  1.
       -5    1    3    3    0  502  0.40083739302E+03  0.29169271398E+03  0.47650860608E+03  0.68763202129E+03  0.46999998093E+01 0. -1.
</event>
<event>
 5   0  0.5349685E-03  0.9968460E+03  0.7818609E-02  0.9312011E-01
       -1   -1    0    0    0  501  0.00000000000E+00  0.00000000000E+00  0.26188577077E+03  0.26188577082E+03  0.50400001928E-02 0.  1.
        1   -1    0    0  501    0  0.00000000000E+00  0.00000000000E+00 -0.94860239777E+03  0.94860239778E+03  0.50400001928E-02 0. -1.
    10030    2    1    2    0    0  0.00000000000E+00  0.00000000000E+00 -0.68671662699E+03  0.12104881686E+04  0.99684596631E+03 0.  0.
        4    1    3    3  502    0 -0.20982401941E+03  0.30830888608E+03 -0.74489822443E+03  0.83303989461E+03  0.12699999809E+01 0. -1.
       -4    1    3    3    0  502  0.20982401941E+03 -0.30830888608E+03  0.58181597442E+02  0.37744827399E+03  0.12699999809E+01 0.  1.
</event>
<event>
 5   0  0.5189877E-03  0.1000634E+04  0.7818609E-02  0.9307849E-01
       -1   -1    0    0    0  501  0.00000000000E+00  0.00000000000E+00  0.59095430335E+03  0.59095430337E+03  0.50400001928E-02 0.  1.
        1   -1    0    0  501    0  0.00000000000E+00  0.00000000000E+00 -0.42358152059E+03  0.42358152062E+03  0.50400001928E-02 0. -1.
    10030    2    1    2    0    0  0.00000000000E+00  0.00000000000E+00  0.16737278276E+03  0.10145358240E+04  0.10006344436E+04 0.  0.
        3    1    3    3  502    0  0.16617928864E+03 -0.39925895135E+03 -0.17139182302E+03  0.46518645015E+03  0.10100000352E+00 0. -1.
       -3    1    3    3    0  502 -0.16617928864E+03  0.39925895135E+03  0.33876460578E+03  0.54934937384E+03  0.10100000352E+00 0.  1.
</event>
<event>
 5   0  0.3513625E-03  0.9825425E+03  0.7818609E-02  0.9327902E-01
       -3   -1    0    0    0  501  0.00000000000E+00  0.00000000000E+00  0.96723014300E+03  0.96723014827E+03  0.10100000352E+00 0. -1.
        3   -1    0    0  501    0  0.00000000000E+00  0.00000000000E+00 -0.24952430959E+03  0.24952433003E+03  0.10100000352E+00 0.  1.
    10030    2    1    2    0    0  0.00000000000E+00  0.00000000000E+00  0.71770583341E+03  0.12167544783E+04  0.98254251673E+03 0.  0.
        4    1    3    3  502    0 -0.40209837383E+03 -0.53176914553E+02  0.70211908900E+03  0.81085369489E+03  0.12699999809E+01 0. -1.
       -4    1    3    3    0  502  0.40209837383E+03  0.53176914553E+02  0.15586744405E+02  0.40590078342E+03  0.12699999809E+01 0.  1.
</event>
<event>
 5   0  0.9243773E-03  0.1006912E+04  0.7818609E-02  0.9300996E-01
        2   -1    0    0  501    0  0.00000000000E+00  0.00000000000E+00  0.41481849259E+03  0.41481849259E+03  0.25500000920E-02 0.  1.
       -2   -1    0    0    0  501  0.00000000000E+00  0.00000000000E+00 -0.61103304461E+03  0.61103304461E+03  0.25500000920E-02 0. -1.
    10030    2    1    2    0    0  0.00000000000E+00  0.00000000000E+00 -0.19621455202E+03  0.10258515372E+04  0.10069117270E+04 0.  0.
        3    1    3    3  502    0  0.12579757762E+03  0.20643751646E+03 -0.54803186123E+03  0.59898281266E+03  0.10100000352E+00 0. -1.
       -3    1    3    3    0  502 -0.12579757762E+03 -0.20643751646E+03  0.35181730921E+03  0.42686872455E+03  0.10100000352E+00 0.  1.
</event>
<event>
 5   0  0.8875655E-03  0.9478678E+03  0.7818609E-02  0.9367646E-01
       -2   -1    0    0    0  501  0.00000000000E+00  0.00000000000E+00  0.28058486429E+03  0.28058486430E+03  0.25500000920E-02 0.  1.
        2   -1    0    0  501    0  0.00000000000E+00  0.00000000000E+00 -0.80051837494E+03  0.80051837494E+03  0.25500000920E-02 0. -1.
    10030    2    1    2    0    0  0.00000000000E+00  0.00000000000E+00 -0.51993351065E+03  0.10811032392E+04  0.94786779585E+03 0.  0.
        4    1    3    3  502    0  0.39283528093E+03 -0.76575255061E+02 -0.54947308965E+03  0.67978350729E+03  0.12699999809E+01 0. -1.
       -4    1    3    3    0  502 -0.39283528093E+03  0.76575255061E+02  0.29539579002E+02  0.40131973196E+03  0.12699999809E+01 0.  1.
</event>
<event>
 5   0  0.5349685E-03  0.1013791E+04  0.7818609E-02  0.9293547E-01
        1   -1    0    0  501    0  0.00000000000E+00  0.00000000000E+00  0.13696441295E+04  0.13696441295E+04  0.50400001928E-02 0.  1.
       -1   -1    0    0    0  501  0.00000000000E+00  0.00000000000E+00 -0.18759840961E+03  0.18759840968E+03  0.50400001928E-02 0. -1.
    10030    2    1    2    0    0  0.00000000000E+00  0.00000000000E+00  0.11820457199E+04  0.15572425392E+04  0.10137910248E+04 0.  0.
        4    1    3    3  502    0  0.20135963303E+03  0.45050617639E+03  0.76909924591E+03  0.91379252555E+03  0.12699999809E+01 0.  1.
       -4    1    3    3    0  502 -0.20135963303E+03 -0.45050617639E+03  0.41294647400E+03  0.64345001366E+03  0.12699999809E+01 0. -1.
</event>
<event>
 5   0  0.5072205E-03  0.1007342E+04  0.7818609E-02  0.9300529E-01
        1   -1    0    0  501    0  0.00000000000E+00  0.00000000000E+00  0.28320311207E+03  0.28320311211E+03  0.50400001928E-02 0.  1.
       -1   -1    0    0    0  501  0.00000000000E+00  0.00000000000E+00 -0.89576877877E+03  0.89576877878E+03  0.50400001928E-02 0. -1.
    10030    2    1    2    0    0  0.00000000000E+00  0.00000000000E+00 -0.61256566670E+03  0.11789718909E+04  0.10073420588E+04 0.  0.
        5    1    3    3  502    0 -0.13807500061E+02  0.26945562890E+03  0.19145914507E+03  0.33087108855E+03  0.46999998093E+01 0.  1.
       -5    1    3    3    0  502  0.13807500061E+02 -0.26945562890E+03 -0.80402481178E+03  0.84810080235E+03  0.46999998093E+01 0. -1.
</event>
<event>
 5   0  0.9243773E-03  0.1010731E+04  0.7818609E-02  0.9296852E-01
        2   -1    0    0  501    0  0.00000000000E+00  0.00000000000E+00  0.72129994038E+03  0.72129994038E+03  0.25500000920E-02 0.  1.
       -2   -1    0    0    0  501  0.00000000000E+00  0.00000000000E+00 -0.35407530841E+03  0.35407530842E+03  0.25500000920E-02 0. -1.
    10030    2    1    2    0    0  0.00000000000E+00  0.00000000000E+00  0.36722463197E+03  0.10753752488E+04  0.10107314161E+04 0.  0.
        3    1    3    3  502    0 -0.20851485679E+03  0.44831400540E+03  0.72376104971E+02  0.49970211497E+03  0.10100000352E+00 0. -1.
       -3    1    3    3    0  502  0.20851485679E+03 -0.44831400540E+03  0.29484852700E+03  0.57567313383E+03  0.10100000352E+00 0.  1.
</event>
<event>
 5   0  0.5349685E-03  0.1028007E+04  0.7818609E-02  0.9278349E-01
        1   -1    0    0  501    0  0.00000000000E+00  0.00000000000E+00  0.66047973207E+03  0.66047973209E+03  0.50400001928E-02 0.  1.
       -1   -1    0    0    0  501  0.00000000000E+00  0.00000000000E+00 -0.40001180190E+03  0.40001180194E+03  0.50400001928E-02 0. -1.
    10030    2    1    2    0    0  0.00000000000E+00  0.00000000000E+00  0.26046793017E+03  0.10604915340E+04  0.10280071746E+04 0.  0.
        4    1    3    3  502    0 -0.86488930739E+02  0.26023481013E+03  0.57870757022E+03  0.64039562481E+03  0.12699999809E+01 0.  1.
       -4    1    3    3    0  502  0.86488930739E+02 -0.26023481013E+03 -0.31823964005E+03  0.42009590922E+03  0.12699999809E+01 0. -1.
</event>
<event>
 5   0  0.9243773E-03  0.1007617E+04  0.7818609E-02  0.9300230E-01
       -2   -1    0    0    0  501  0.00000000000E+00  0.00000000000E+00  0.17750229107E+03  0.17750229109E+03  0.25500000920E-02 0.  1.
        2   -1    0    0  501    0  0.00000000000E+00  0.00000000000E+00 -0.14299696558E+04  0.14299696558E+04  0.25500000920E-02 0. -1.
    10030    2    1    2    0    0  0.00000000000E+00  0.00000000000E+00 -0.12524673647E+04  0.16074719469E+04  0.10076167725E+04 0.  0.
        3    1    3    3  502    0 -0.22206411903E+02 -0.46502884676E+03 -0.31904462875E+03  0.56438855267E+03  0.10100000352E+00 0.  1.
       -3    1    3    3    0  502  0.22206411903E+02  0.46502884676E+03 -0.93342273595E+03  0.10430833942E+04  0.10100000352E+00 0. -1.
</event>
<event>
 5   0  0.5072205E-03  0.9941395E+03  0.7818609E-02  0.9314996E-01
        1   -1    0    0  501    0  0.00000000000E+00  0.00000000000E+00  0.77949319561E+03  0.77949319562E+03  0.50400001928E-02 0. -1.
       -1   -1    0    0    0  501  0.00000000000E+00  0.00000000000E+00 -0.31697305431E+03  0.31697305435E+03  0.50400001928E-02 0.  1.
    10030    2    1    2    0    0  0.00000000000E+00  0.00000000000E+00  0.46252014130E+03  0.10964662500E+04  0.99413950541E+03 0.  0.
        5    1    3    3  502    0  0.31189446338E+03  0.38519244837E+03  0.27259965267E+03  0.56567131728E+03  0.46999998093E+01 0. -1.
       -5    1    3    3    0  502 -0.31189446338E+03 -0.38519244837E+03  0.18992048863E+03  0.53079493268E+03  0.46999998093E+01 0.  1.
</event>
<event>
 5   0  0.5201968E-03  0.1004404E+04  0.7818609E-02  0.9303727E-01
       -1   -1    0    0    0  501  0.00000000000E+00  0.00000000000E+00  0.46041853487E+03  0.46041853489E+03  0.50400001928E-02 0.  1.
        1   -1    0    0  501    0  0.00000000000E+00  0.00000000000E+00 -0.54777776696E+03  0.54777776698E+03  0.50400001928E-02 0. -1.
    10030    2    1    2    0    0  0.00000000000E+00  0.00000000000E+00 -0.87359232091E+02  0.10081963019E+04  0.10044043746E+04 0.  0.
        2    1    3    3  502    0  0.34940561240E+03  0.35675219776E+03  0.99131902018E+01  0.49945438624E+03  0.25500000920E-02 0.  1.
       -2    1    3    3    0  502 -0.34940561240E+03 -0.35675219776E+03 -0.97272422292E+02  0.50874191564E+03  0.25500000920E-02 0. -1.
</event>
<event>
 5   0  0.8907355E-03  0.1003232E+04  0.7818609E-02  0.9305007E-01
       -2   -1    0    0    0  501  0.00000000000E+00  0.00000000000E+00  0.16298703011E+03  0.16298703013E+03  0.25500000920E-02 0.  1.
        2   -1    0    0  501    0  0.00000000000E+00  0.00000000000E+00 -0.15437964448E+04  0.15437964448E+04  0.25500000920E-02 0. -1.
    10030    2    1    2    0    0  0.00000000000E+00  0.00000000000E+00 -0.13808094147E+04  0.17067834749E+04  0.10032323712E+04 0.  0.
        5    1    3    3  502    0  0.15219003969E+03  0.26426101467E+03 -0.12872609915E+02  0.30525970278E+03  0.46999998093E+01 0.  1.
       -5    1    3    3    0  502 -0.15219003969E+03 -0.26426101467E+03 -0.13679368047E+04  0.14015237721E+04  0.46999998093E+01 0. -1.
</event>
<event>
 5   0  0.5310275E-03  0.9974453E+03  0.7818609E-02  0.9311351E-01
        1   -1    0    0  501    0  0.00000000000E+00  0.00000000000E+00  0.35620778013E+03  0.35620778017E+03  0.50400001928E-02 0.  1.
       -1   -1    0    0    0  501  0.00000000000E+00  0.00000000000E+00 -0.69825619148E+03  0.69825619150E+03  0.50400001928E-02 0. -1.
    10030    2    1    2    0    0  0.00000000000E+00  0.00000000000E+00 -0.34204841135E+03  0.10544639717E+04  0.99744531270E+03 0.  0.
        1    1    3    3  502    0 -0.40843885322E+03  0.22369039228E+03  0.17686650082E+02  0.46601771000E+03  0.50400001928E-02 0.  1.
       -1    1    3    3    0  502  0.40843885322E+03 -0.22369039228E+03 -0.35973506143E+03  0.58844626166E+03  0.50400001928E-02 0. -1.
</event>
<event>
 5   0  0.5310275E-03  0.9957739E+03  0.7818609E-02  0.9313192E-01
       -1   -1    0    0    0  501  0.00000000000E+00  0.00000000000E+00  0.65146936306E+03  0.65146936308E+03  0.50400001928E-02 0. -1.
        1   -1    0    0  501    0  0.00000000000E+00  0.00000000000E+00 -0.38051127531E+03  0.38051127535E+03  0.50400001928E-02 0.  1.
    10030    2    1    2    0    0  0.00000000000E+00  0.00000000000E+00  0.27095808774E+03  0.10319806384E+04  0.99577394662E+03 0.  0.
        1    1    3    3  502    0  0.31012217554E+03 -0.92721519489E+02 -0.25658635637E+03  0.41304915233E+03  0.50400001928E-02 0.  1.
       -1    1    3    3    0  502 -0.31012217554E+03  0.92721519489E+02  0.52754444411E+03  0.61893148609E+03  0.50400001928E-02 0. -1.
</event>
<event>
 5   0  0.9243773E-03  0.1015403E+04  0.7818609E-02  0.9291810E-01
       -2   -1    0    0    0  501  0.00000000000E+00  0.00000000000E+00  0.48024779195E+03  0.48024779196E+03  0.25500000920E-02 0. -1.
        2   -1    0    0  501    0  0.00000000000E+00  0.00000000000E+00 -0.53672497550E+03  0.53672497550E+03  0.25500000920E-02 0.  1.
    10030    2    1    2    0    0  0.00000000000E+00  0.00000000000E+00 -0.56477183547E+02  0.10169727675E+04  0.10154033373E+04 0.  0.
        3    1    3    3  502    0  0.35502695746E+03  0.35373466602E+03 -0.10953436336E+03  0.51300111250E+03  0.10100000352E+00 0.  1.
       -3    1    3    3    0  502 -0.35502695746E+03 -0.35373466602E+03  0.53057179817E+02  0.50397165496E+03  0.10100000352E+00 0. -1.
</event>
<event>
 5   0  0.5349685E-03  0.1014456E+04  0.7818609E-02  0.9292830E-01
       -1   -1    0    0    0  501  0.00000000000E+00  0.00000000000E+00  0.18628357760E+03  0.18628357766E+03  0.50400001928E-02 0. -1.
        1   -1    0    0  501    0  0.00000000000E+00  0.00000000000E+00 -0.13811214264E+04  0.13811214264E+04  0.50400001928E-02 0.  1.
    10030    2    1    2    0    0  0.00000000000E+00  0.00000000000E+00 -0.11948378488E+04  0.15674050041E+04  0.10144559931E+04 0.  0.
        4    1    3    3  502    0 -0.14241614921E+03 -0.21313015222E+03  0.78841252527E+02  0.26818720578E+03  0.12699999809E+01 0. -1.
       -4    1    3    3    0  502  0.14241614921E+03  0.21313015222E+03 -0.12736791013E+04  0.12992177983E+04  0.12699999809E+01 0.  1.
</event>
<event>
 5   0  0.5310275E-03  0.9985613E+03  0.7818609E-02  0.9310124E-01
       -1   -1    0    0    0  501  0.00000000000E+00  0.00000000000E+00  0.55792383030E+03  0.55792383032E+03  0.50400001928E-02 0.  1.
        1   -1    0    0  501    0  0.00000000000E+00  0.00000000000E+00 -0.44680145917E+03  0.44680145920E+03  0.50400001928E-02 0. -1.
    10030    2    1    2    0    0  0.00000000000E+00  0.00000000000E+00  0.11112237112E+03  0.10047252895E+04  0.99856132813E+03 0.  0.
        1    1    3    3  502    0 -0.10214206705E+03  0.15242383014E+03 -0.41164892567E+03  0.45068932080E+03  0.50400001928E-02 0. -1.
       -1    1    3    3    0  502  0.10214206705E+03 -0.15242383014E+03  0.52277129679E+03  0.55403596872E+03  0.50400001928E-02 0.  1.
</event>
<event>
 5   0  0.8907355E-03  0.9819754E+03  0.7818609E-02  0.9328538E-01
        2   -1    0    0  501    0  0.00000000000E+00  0.00000000000E+00  0.55199945796E+03  0.55199945796E+03  0.25500000920E-02 0.  1.
       -2   -1    0    0    0  501  0.00000000000E+00  0.00000000000E+00 -0.43671949423E+03  0.43671949424E+03  0.25500000920E-02 0. -1.
    10030    2    1    2    0    0  0.00000000000E+00  0.00000000000E+00  0.11527996372E+03  0.98871895220E+03  0.98197540520E+03 0.  0.
        5    1    3    3  502    0 -0.24016074062E+03 -0.38172595879E+03  0.25302140030E+03  0.51714002742E+03  0.46999998093E+01 0.  1.
       -5    1    3    3    0  502  0.24016074062E+03  0.38172595879E+03 -0.13774143658E+03  0.47157892478E+03  0.46999998093E+01 0. -1.
</event>
<event>
 5   0  0.5072205E-03  0.1005398E+04  0.7818609E-02  0.9302644E-01
        1   -1    0    0  501    0  0.00000000000E+00  0.00000000000E+00  0.31519629695E+03  0.31519629699E+03  0.50400001928E-02 0.  1.
       -1   -1    0    0    0  501  0.00000000000E+00  0.00000000000E+00 -0.80174283268E+03  0.80174283269E+03  0.50400001928E-02 0. -1.
    10030    2    1    2    0    0  0.00000000000E+00  0.00000000000E+00 -0.48654653573E+03  0.11169391297E+04  0.10053981739E+04 0.  0.
        5    1    3    3  502    0 -0.50082805680E+03  0.42862752682E+02 -0.24802882114E+03  0.56054111728E+03  0.46999998093E+01 0.  1.
       -5    1    3    3    0  502  0.50082805680E+03 -0.42862752682E+02 -0.23851771458E+03  0.55639801241E+03  0.46999998093E+01 0. -1.
</event>
<event>
 5   0  0.9243773E-03  0.9968445E+03  0.7818609E-02  0.9312013E-01
       -2   -1    0    0    0  501  0.00000000000E+00  0.00000000000E+00  0.13440007766E+03  0.13440007768E+03  0.25500000920E-02 0. -1.
        2   -1    0    0  501    0  0.00000000000E+00  0.00000000000E+00 -0.18483971511E+04  0.18483971511E+04  0.25500000920E-02 0.  1.
    10030    2    1    2    0    0  0.00000000000E+00  0.00000000000E+00 -0.17139970734E+04  0.19827972287E+04  0.99684446263E+03 0.  0.
        3    1    3    3  502    0 -0.47884698345E+02  0.48960598649E+03 -0.69765219347E+03  0.85365423891E+03  0.10100000352E+00 0. -1.
       -3    1    3    3    0  502  0.47884698345E+02 -0.48960598649E+03 -0.10163448799E+04  0.11291429898E+04  0.10100000352E+00 0.  1.
</event>
<event>
 5   0  0.5201968E-03  0.9787420E+03  0.7818609E-02  0.9332172E-01
       -1   -1    0    0    0  501  0.00000000000E+00  0.00000000000E+00  0.15647931088E+03  0.15647931096E+03  0.50400001928E-02 0. -1.
        1   -1    0    0  501    0  0.00000000000E+00  0.00000000000E+00 -0.15304512210E+04  0.15304512210E+04  0.50400001928E-02 0.  1.
    10030    2    1    2    0    0  0.00000000000E+00  0.00000000000E+00 -0.13739719101E+04  0.16869305319E+04  0.97874195264E+03 0.  0.
        2    1    3    3  502    0  0.43696786840E+03 -0.21442327208E+03 -0.77428942280E+03  0.91457223219E+03  0.25500000920E-02 0. -1.
       -2    1    3    3    0  502 -0.43696786840E+03  0.21442327208E+03 -0.59968248729E+03  0.77235829975E+03  0.25500000920E-02 0.  1.
</event>
<event>
 5   0  0.5349685E-03  0.1008222E+04  0.7818609E-02  0.9299572E-01
       -1   -1    0    0    0  501  0.00000000000E+00  0.00000000000E+00  0.30100749605E+03  0.30100749609E+03  0.50400001928E-02 0.  1.
        1   -1    0    0  501    0  0.00000000000E+00  0.00000000000E+00 -0.84425828780E+03  0.84425828781E+03  0.50400001928E-02 0. -1.
    10030    2    1    2    0    0  0.00000000000E+00  0.00000000000E+00 -0.54325079175E+03  0.11452657839E+04  0.10082223431E+04 0.  0.
        4    1    3    3  502    0  0.90938238811E+02  0.38469264292E+02  0.28991365876E+03  0.30626979937E+03  0.12699999809E+01 0.  1.
       -4    1    3    3    0  502 -0.90938238811E+02 -0.38469264292E+02 -0.83316445051E+03  0.83899598453E+03  0.12699999809E+01 0. -1.
</event>
<event>
 5   0  0.5310275E-03  0.9829428E+03  0.7818609E-02  0.9327453E-01
       -1   -1    0    0    0  501  0.00000000000E+00  0.00000000000E+00  0.12301545048E+03  0.12301545058E+03  0.50400001928E-02 0. -1.
        1   -1    0    0  501    0  0.00000000000E+00  0.00000000000E+00 -0.19635266980E+04  0.19635266980E+04  0.50400001928E-02 0.  1.
    10030    2    1    2    0    0  0.00000000000E+00  0.00000000000E+00 -0.18405112475E+04  0.20865421486E+04  0.98294276821E+03 0.  0.
        1    1    3    3  502    0  0.43936779838E+03 -0.12462650811E+03 -0.53482416550E+03  0.70328707994E+03  0.50400001928E-02 0. -1.
       -1    1    3    3    0  502 -0.43936779838E+03  0.12462650811E+03 -0.13056870820E+04  0.13832550686E+04  0.50400001928E-02 0.  1.
</event>
<event>
 5   0  0.5349685E-03  0.1007662E+04  0.7818609E-02  0.9300181E-01
       -1   -1    0    0    0  501  0.00000000000E+00  0.00000000000E+00  0.24932681487E+03  0.24932681492E+03  0.50400001928E-02 0.  1.
        1   -1    0    0  501    0  0.00000000000E+00  0.00000000000E+00 -0.10181243260E+04  0.10181243260E+04  0.50400001928E-02 0. -1.
    10030    2    1    2    0    0  0.00000000000E+00  0.00000000000E+00 -0.76879751110E+03  0.12674511409E+04  0.10076620373E+04 0.  0.
        4    1    3    3  502    0  0.46654093303E+03  0.52275841771E+01 -0.14522782349E+03  0.48865171998E+03  0.12699999809E+01 0.  1.
       -4    1    3    3    0  502 -0.46654093303E+03 -0.52275841771E+01 -0.62356968760E+03  0.77879942092E+03  0.12699999809E+01 0. -1.
</event>
<event>
 5   0  0.8968798E-03  0.9909226E+03  0.7818609E-02  0.9318557E-01
       -2   -1    0    0    0  501  0.00000000000E+00  0.00000000000E+00  0.16999389565E+04  0.16999389565E+04  0.25500000920E-02 0. -1.
        2   -1    0    0  501    0  0.00000000000E+00  0.00000000000E+00 -0.14440630485E+03  0.14440630487E+03  0.25500000920E-02 0.  1.
    10030    2    1    2    0    0  0.00000000000E+00  0.00000000000E+00  0.15555326516E+04  0.18443452613E+04  0.99092260685E+03 0.  0.
        2    1    3    3  502    0 -0.33136776094E+03  0.10449229744E+03  0.12035397967E+03  0.36770683110E+03  0.25500000920E-02 0.  1.
       -2    1    3    3    0  502  0.33136776094E+03 -0.10449229744E+03  0.14351786719E+04  0.14766384302E+04  0.25500000920E-02 0. -1.
</event>
<event>
 5   0  0.9040674E-03  0.1014387E+04  0.7818609E-02  0.9292905E-01
        2   -1    0    0  501    0  0.00000000000E+00  0.00000000000E+00  0.67001543430E+03  0.67001543431E+03  0.25500000920E-02 0. -1.
       -2   -1    0    0    0  501  0.00000000000E+00  0.00000000000E+00 -0.38393915110E+03  0.38393915110E+03  0.25500000920E-02 0.  1.
    10030    2    1    2    0    0  0.00000000000E+00  0.00000000000E+00  0.28607628321E+03  0.10539545854E+04  0.10143868238E+04 0.  0.
        1    1    3    3  502    0 -0.79214283399E+02 -0.26304709233E+03  0.58602122813E+03  0.64721677615E+03  0.50400001928E-02 0. -1.
       -1    1    3    3    0  502  0.79214283399E+02  0.26304709233E+03 -0.29994494493E+03  0.40673780927E+03  0.50400001928E-02 0.  1.
</event>
<event>
 5   0  0.9243773E-03  0.8508170E+03  0.7818609E-02  0.9489241E-01
       -2   -1    0    0    0  501  0.00000000000E+00  0.00000000000E+00  0.21958773829E+03  0.21958773830E+03  0.25500000920E-02 0. -1.
        2   -1    0    0  501    0  0.00000000000E+00  0.00000000000E+00 -0.82414610352E+03  0.82414610352E+03  0.25500000920E-02 0.  1.
    10030    2    1    2    0    0  0.00000000000E+00  0.00000000000E+00 -0.60455836523E+03  0.10437338418E+04  0.85081696951E+03 0.  0.
        3    1    3    3  502    0 -0.34066005943E+03  0.17846373158E+03 -0.79181223017E+02  0.39264265670E+03  0.10100000352E+00 0. -1.
       -3    1    3    3    0  502  0.34066005943E+03 -0.17846373158E+03 -0.52537714221E+03  0.65109118512E+03  0.10100000352E+00 0.  1.
</event>
<event>
 5   0  0.9040674E-03  0.9797916E+03  0.7818609E-02  0.9330991E-01
        2   -1    0    0  501    0  0.00000000000E+00  0.00000000000E+00  0.26991511416E+03  0.26991511418E+03  0.25500000920E-02 0. -1.
       -2   -1    0    0    0  501  0.00000000000E+00  0.00000000000E+00 -0.88916068599E+03  0.88916068599E+03  0.25500000920E-02 0.  1.
    10030    2    1    2    0    0  0.00000000000E+00  0.00000000000E+00 -0.61924557182E+03  0.11590758002E+04  0.97979162699E+03 0.  0.
        1    1    3    3  502    0 -0.35564261267E+03 -0.19466283390E+03 -0.63493770301E+03  0.75334001194E+03  0.50400001928E-02 0.  1.
       -1    1    3    3    0  502  0.35564261267E+03  0.19466283390E+03  0.15692131191E+02  0.40573578823E+03  0.50400001928E-02 0. -1.
</event>
<event>
 5   0  0.8875655E-03  0.9949222E+03  0.7818609E-02  0.9314132E-01
       -2   -1    0    0    0  501  0.00000000000E+00  0.00000000000E+00  0.42061672926E+03  0.42061672927E+03  0.25500000920E-02 0.  1.
        2   -1    0    0  501    0  0.00000000000E+00  0.00000000000E+00 -0.58834449122E+03  0.58834449122E+03  0.25500000920E-02 0. -1.
    10030    2    1    2    0    0  0.00000000000E+00  0.00000000000E+00 -0.16772776196E+03  0.10089612205E+04  0.99492217903E+03 0.  0.
        4    1    3    3  502    0  0.38609852439E+03 -0.28339358246E+03 -0.22023039815E+03  0.52714991633E+03  0.12699999809E+01 0. -1.
       -4    1    3    3    0  502 -0.38609852439E+03  0.28339358246E+03  0.52502636198E+02  0.48181130417E+03  0.12699999809E+01 0.  1.
</event>
<event>
 5   0  0.5189877E-03  0.1022684E+04  0.7818609E-02  0.9284009E-01
       -1   -1    0    0    0  501  0.00000000000E+00  0.00000000000E+00  0.19709000928E+03  0.19709000935E+03  0.50400001928E-02 0.  1.
        1   -1    0    0  501    0  0.00000000000E+00  0.00000000000E+00 -0.13266566284E+04  0.13266566284E+04  0.50400001928E-02 0. -1.
    10030    2    1    2    0    0  0.00000000000E+00  0.00000000000E+00 -0.11295666191E+04  0.15237466377E+04  0.10226842470E+04 0.  0.
        3    1    3    3  502    0 -0.16528399379E+03  0.86226896194E+02 -0.12742191465E+04  0.12877842676E+04  0.10100000352E+00 0. -1.
       -3    1    3    3    0  502  0.16528399379E+03 -0.86226896194E+02  0.14465252745E+03  0.23596237015E+03  0.10100000352E+00 0.  1.
</event>
<event>
 5   0  0.5310275E-03  0.9738617E+03  0.7818609E-02  0.9337687E-01
       -1   -1    0    0    0  501  0.00000000000E+00  0.00000000000E+00  0.31358784746E+03  0.31358784750E+03  0.50400001928E-02 0.  1.
        1   -1    0    0  501    0  0.00000000000E+00  0.00000000000E+00 -0.75609317714E+03  0.75609317716E+03  0.50400001928E-02 0. -1.
    10030    2    1    2    0    0  0.00000000000E+00  0.00000000000E+00 -0.44250532968E+03  0.10696810247E+04  0.97386165739E+03 0.  0.
        1    1    3    3  502    0  0.29412543947E+03  0.16464037419E+03  0.16472736886E+03  0.37516840623E+03  0.50400001928E-02 0.  1.
       -1    1    3    3    0  502 -0.29412543947E+03 -0.16464037419E+03 -0.60723269854E+03  0.69451261843E+03  0.50400001928E-02 0. -1.
</event>
<event>
 5   0  0.5072205E-03  0.1003847E+04  0.7818609E-02  0.9304335E-01
        1   -1    0    0  501    0  0.00000000000E+00  0.00000000000E+00  0.74045245385E+03  0.74045245386E+03  0.50400001928E-02 0. -1.
       -1   -1    0    0    0  501  0.00000000000E+00  0.00000000000E+00 -0.34023440957E+03  0.34023440960E+03  0.50400001928E-02 0.  1.
    10030    2    1    2    0    0  0.00000000000E+00  0.00000000000E+00  0.40021804428E+03  0.10806868635E+04  0.10038474057E+04 0.  0.
        5    1    3    3  502    0  0.35226087638E+03 -0.21871522004E+03 -0.10434817193E+03  0.42759174862E+03  0.46999998093E+01 0.  1.
       -5    1    3    3    0  502 -0.35226087638E+03  0.21871522004E+03  0.50456621621E+03  0.65309511485E+03  0.46999998093E+01 0. -1.
</event>
<event>
 5   0  0.5310275E-03  0.9986422E+03  0.7818609E-02  0.9310035E-01
        1   -1    0    0  501    0  0.00000000000E+00  0.00000000000E+00  0.84478701584E+03  0.84478701585E+03  0.50400001928E-02 0. -1.
       -1   -1    0    0    0  501  0.00000000000E+00  0.00000000000E+00 -0.29512947875E+03  0.29512947879E+03  0.50400001928E-02 0.  1.
    10030    2    1    2    0    0  0.00000000000E+00  0.00000000000E+00  0.54965753709E+03  0.11399164946E+04  0.99864218151E+03 0.  0.
        1    1    3    3  502    0 -0.69286522762E+02  0.34924470209E+03 -0.12476447570E+03  0.37727795933E+03  0.50400001928E-02 0.  1.
       -1    1    3    3    0  502  0.69286522762E+02 -0.34924470209E+03  0.67442201279E+03  0.76263853531E+03  0.50400001928E-02 0. -1.
</event>
<event>
 5   0  0.5349685E-03  0.1001017E+04  0.7818609E-02  0.9307430E-01
       -1   -1    0    0    0  501  0.00000000000E+00  0.00000000000E+00  0.18479250119E+03  0.18479250125E+03  0.50400001928E-02 0.  1.
        1   -1    0    0  501    0  0.00000000000E+00  0.00000000000E+00 -0.13556230358E+04  0.13556230358E+04  0.50400001928E-02 0. -1.
    10030    2    1    2    0    0  0.00000000000E+00  0.00000000000E+00 -0.11708305346E+04  0.15404155371E+04  0.10010174254E+04 0.  0.
        4    1    3    3  502    0 -0.91726561696E+02 -0.62811525032E+02  0.16555026389E+03  0.19941803472E+03  0.12699999809E+01 0.  1.
       -4    1    3    3    0  502  0.91726561696E+02  0.62811525032E+02 -0.13363807985E+04  0.13409975024E+04  0.12699999809E+01 0. -1.
</event>
<event>
 5   0  0.5189877E-03  0.1021456E+04  0.7818609E-02  0.9285320E-01
        1   -1    0    0  501    0  0.00000000000E+00  0.00000000000E+00  0.34348799134E+03  0.34348799138E+03  0.50400001928E-02 0.  1.
       -1   -1    0    0    0  501  0.00000000000E+00  0.00000000000E+00 -0.75939551962E+03  0.75939551964E+03  0.50400001928E-02 0. -1.
    10030    2    1    2    0    0  0.00000000000E+00  0.00000000000E+00 -0.41590752828E+03  0.11028835110E+04  0.10214562971E+04 0.  0.
        3    1    3    3  502    0  0.45912476237E+03  0.66946889984E+02  0.22524165400E+02  0.46452640584E+03  0.10100000352E+00 0. -1.
       -3    1    3    3    0  502 -0.45912476237E+03 -0.66946889984E+02 -0.43843169368E+03  0.63835710517E+03  0.10100000352E+00 0.  1.
</event>
<event>
 5   0  0.8875655E-03  0.1003657E+04  0.7818609E-02  0.9304543E-01
        2   -1    0    0  501    0  0.00000000000E+00  0.00000000000E+00  0.65305779092E+03  0.65305779093E+03  0.25500000920E-02 0. -1.
       -2   -1    0    0    0  501  0.00000000000E+00  0.00000000000E+00 -0.38561981868E+03  0.38561981869E+03  0.25500000920E-02 0.  1.
    10030    2    1    2    0    0  0.00000000000E+00  0.00000000000E+00  0.26743797224E+03  0.10386776096E+04  0.10036573657E+04 0.  0.
        4    1    3    3  502    0  0.31028122089E+03  0.10788246165E+03  0.52632041342E+03  0.62042554110E+03  0.12699999809E+01 0. -1.
       -4    1    3    3    0  502 -0.31028122089E+03 -0.10788246165E+03 -0.25888244118E+03  0.41825206851E+03  0.12699999809E+01 0.  1.
</event>
<event>
 5   0  0.5201968E-03  0.9972807E+03  0.7818609E-02  0.9311532E-01
        1   -1    0    0  501    0  0.00000000000E+00  0.00000000000E+00  0.11658014557E+04  0.11658014557E+04  0.50400001928E-02 0.  1.
       -1   -1    0    0    0  501  0.00000000000E+00  0.00000000000E+00 -0.21328006223E+03  0.21328006229E+03  0.50400001928E-02 0. -1.
    10030    2    1    2    0    0  0.00000000000E+00  0.00000000000E+00  0.95252139345E+03  0.13790815180E+04  0.99728071687E+03 0.  0.
        2    1    3    3  502    0 -0.48155136331E+03  0.27620375497E+01  0.29732896116E+03  0.56595393408E+03  0.25500000920E-02 0. -1.
       -2    1    3    3    0  502  0.48155136331E+03 -0.27620375497E+01  0.65519243229E+03  0.81312758389E+03  0.25500000920E-02 0.  1.
</event>
<event>
 5   0  0.5189877E-03  0.1002062E+04  0.7818609E-02  0.9306286E-01
        1   -1    0    0  501    0  0.00000000000E+00  0.00000000000E+00  0.13891995772E+04  0.13891995772E+04  0.50400001928E-02 0. -1.
       -1   -1    0    0    0  501  0.00000000000E+00  0.00000000000E+00 -0.18070274406E+03  0.18070274413E+03  0.50400001928E-02 0.  1.
    10030    2    1    2    0    0  0.00000000000E+00  0.00000000000E+00  0.12084968331E+04  0.15699023213E+04  0.10020622250E+04 0.  0.
        3    1    3    3  502    0  0.10148485691E+03 -0.14885828575E+03  0.13366974154E+04  0.13487838804E+04  0.10100000352E+00 0. -1.
       -3    1    3    3    0  502 -0.10148485691E+03  0.14885828575E+03 -0.12820058230E+03  0.22111844093E+03  0.10100000352E+00 0.  1.
</event>
<event>
 5   0  0.8907355E-03  0.1003726E+04  0.7818609E-02  0.9304467E-01
       -2   -1    0    0    0  501  0.00000000000E+00  0.00000000000E+00  0.12035863368E+03  0.12035863371E+03  0.25500000920E-02 0.  1.
        2   -1    0    0  501    0  0.00000000000E+00  0.00000000000E+00 -0.20926348616E+04  0.20926348616E+04  0.25500000920E-02 0. -1.
    10030    2    1    2    0    0  0.00000000000E+00  0.00000000000E+00 -0.19722762279E+04  0.22129934953E+04  0.10037264025E+04 0.  0.
        5    1    3    3  502    0 -0.17106848287E+03  0.46236554743E+03 -0.77933211942E+03  0.92218597237E+03  0.46999998093E+01 0.  1.
       -5    1    3    3    0  502  0.17106848287E+03 -0.46236554743E+03 -0.11929441085E+04  0.12908075229E+04  0.46999998093E+01 0. -1.
</event>
<event>
 5   0  0.5201968E-03  0.9043280E+03  0.7818609E-02  0.9420187E-01
       -1   -1    0    0    0  501  0.00000000000E+00  0.00000000000E+00  0.20511562314E+03  0.20511562320E+03  0.50400001928E-02 0. -1.
        1   -1    0    0  501    0  0.00000000000E+00  0.00000000000E+00 -0.99676597918E+03  0.99676597919E+03  0.50400001928E-02 0.  1.
    10030    2    1    2    0    0  0.00000000000E+00  0.00000000000E+00 -0.79165035604E+03  0.12018816024E+04  0.90432798251E+03 0.  0.
        2    1    3    3  502    0  0.25964029335E+03 -0.78311629847E+02 -0.87668256631E+03  0.91766993815E+03  0.25500000920E-02 0.  1.
       -2    1    3    3    0  502 -0.25964029335E+03  0.78311629847E+02  0.85032210272E+02  0.28421166424E+03  0.25500000920E-02 0. -1.
</event>
<event>
 5   0  0.5189877E-03  0.9977233E+03  0.7818609E-02  0.9311045E-01
        1   -1    0    0  501    0  0.00000000000E+00  0.00000000000E+00  0.38210377328E+03  0.38210377331E+03  0.50400001928E-02 0. -1.
       -1   -1    0    0    0  501  0.00000000000E+00  0.00000000000E+00 -0.65129680613E+03  0.65129680615E+03  0.50400001928E-02 0.  1.
    10030    2    1    2    0    0  0.00000000000E+00  0.00000000000E+00 -0.26919303285E+03  0.10334005795E+04  0.99772334276E+03 0.  0.
        3    1    3    3  502    0  0.39238179773E+03  0.30755094599E+03 -0.11630437943E+03  0.51193532643E+03  0.10100000352E+00 0. -1.
       -3    1    3    3    0  502 -0.39238179773E+03 -0.30755094599E+03 -0.15288865342E+03  0.52146525303E+03  0.10100000352E+00 0.  1.
</event>
<event>
 5   0  0.5072205E-03  0.9876950E+03  0.7818609E-02  0.9322145E-01
        1   -1    0    0  501    0  0.00000000000E+00  0.00000000000E+00  0.24044463618E+03  0.24044463624E+03  0.50400001928E-02 0.  1.
       -1   -1    0    0    0  501  0.00000000000E+00  0.00000000000E+00 -0.10143098737E+04  0.10143098737E+04  0.50400001928E-02 0. -1.
    10030    2    1    2    0    0  0.00000000000E+00  0.00000000000E+00 -0.77386523749E+03  0.12547545099E+04  0.98769503106E+03 0.  0.
        5    1    3    3  502    0  0.11675247234E+03 -0.35117533222E+03  0.28443046049E+02  0.37119583864E+03  0.46999998093E+01 0.  1.
       -5    1    3    3    0  502 -0.11675247234E+03  0.35117533222E+03 -0.80230828354E+03  0.88355867128E+03  0.46999998093E+01 0. -1.
</event>
<event>
 5   0  0.8968798E-03  0.9576403E+03  0.7818609E-02  0.9356265E-01
        2   -1    0    0  501    0  0.00000000000E+00  0.00000000000E+00  0.48578276741E+03  0.48578276742E+03  0.25500000920E-02 0. -1.
       -2   -1    0    0    0  501  0.00000000000E+00  0.00000000000E+00 -0.47195733093E+03  0.47195733094E+03  0.25500000920E-02 0.  1.
    10030    2    1    2    0    0  0.00000000000E+00  0.00000000000E+00  0.13825436479E+02  0.95774009836E+03  0.95764030477E+03 0.  0.
        2    1    3    3  502    0 -0.17039677154E+03  0.15226793425E+03  0.42772747118E+03  0.48494471145E+03  0.25500000920E-02 0. -1.
       -2    1    3    3    0  502  0.17039677154E+03 -0.15226793425E+03 -0.41390203470E+03  0.47279538691E+03  0.25500000920E-02 0.  1.
</event>
<event>
 5   0  0.8968798E-03  0.1003319E+04  0.7818609E-02  0.9304912E-01
        2   -1    0    0  501    0  0.00000000000E+00  0.00000000000E+00  0.44680427487E+03  0.44680427487E+03  0.25500000920E-02 0.  1.
       -2   -1    0    0    0  501  0.00000000000E+00  0.00000000000E+00 -0.56324904727E+03  0.56324904728E+03  0.25500000920E-02 0. -1.
    10030    2    1    2    0    0  0.00000000000E+00  0.00000000000E+00 -0.11644477240E+03  0.10100533221E+04  0.10033186575E+04 0.  0.
        2    1    3    3  502    0  0.19950077498E+03  0.30164854957E+03  0.29177442782E+03  0.46467700977E+03  0.25500000920E-02 0.  1.
       -2    1    3    3    0  502 -0.19950077498E+03 -0.30164854957E+03 -0.40821920022E+03  0.54537631238E+03  0.25500000920E-02 0. -1.
</event>
<event>
 5   0  0.8907355E-03  0.1002058E+04  0.7818609E-02  0.9306291E-01
        2   -1    0    0  501    0  0.00000000000E+00  0.00000000000E+00  0.80665126220E+03  0.80665126221E+03  0.25500000920E-02 0.  1.
       -2   -1    0    0    0  501  0.00000000000E+00  0.00000000000E+00 -0.31119999814E+03  0.31119999815E+03  0.25500000920E-02 0. -1.
    10030    2    1    2    0    0  0.00000000000E+00  0.00000000000E+00  0.49545126406E+03  0.11178512604E+04  0.10020576257E+04 0.  0.
        5    1    3    3  502    0  0.33810640661E+03  0.16895267227E+03 -0.11913256532E+03  0.39632764952E+03  0.46999998093E+01 0. -1.
       -5    1    3    3    0  502 -0.33810640661E+03 -0.16895267227E+03  0.61458382938E+03  0.72152361083E+03  0.46999998093E+01 0.  1.
</event>
<event>
 5   0  0.8875655E-03  0.9997824E+03  0.7818609E-02  0.9308784E-01
        2   -1    0    0  501    0  0.00000000000E+00  0.00000000000E+00  0.16466194374E+04  0.16466194374E+04  0.25500000920E-02 0. -1.
       -2   -1    0    0    0  501  0.00000000000E+00  0.00000000000E+00 -0.15176013776E+03  0.15176013778E+03  0.25500000920E-02 0.  1.
    10030    2    1    2    0    0  0.00000000000E+00  0.00000000000E+00  0.14948592996E+04  0.17983795751E+04  0.99978236167E+03 0.  0.
        4    1    3    3  502    0 -0.33544382878E+03  0.27579336989E+03  0.30205657101E+03  0.52898424375E+03  0.12699999809E+01 0. -1.
       -4    1    3    3    0  502  0.33544382878E+03 -0.27579336989E+03  0.11928027286E+04  0.12693953314E+04  0.12699999809E+01 0.  1.
</event>
<event>
 5   0  0.5310275E-03  0.9976296E+03  0.7818609E-02  0.9311148E-01
        1   -1    0    0  501    0  0.00000000000E+00  0.00000000000E+00  0.59072719046E+03  0.59072719048E+03  0.50400001928E-02 0.  1.
       -1   -1    0    0    0  501  0.00000000000E+00  0.00000000000E+00 -0.42120320444E+03  0.42120320447E+03  0.50400001928E-02 0. -1.
    10030    2    1    2    0    0  0.00000000000E+00  0.00000000000E+00  0.16952398603E+03  0.10119303949E+04  0.99762956170E+03 0.  0.
        1    1    3    3  502    0 -0.27311652530E+03  0.89212053793E+02  0.49836285413E+03  0.57525382340E+03  0.50400001928E-02 0.  1.
       -1    1    3    3    0  502  0.27311652530E+03 -0.89212053793E+02 -0.32883886810E+03  0.43667657155E+03  0.50400001928E-02 0. -1.
</event>
<event>
 5   0  0.8875655E-03  0.9868678E+03  0.7818609E-02  0.9323066E-01
        2   -1    0    0  501    0  0.00000000000E+00  0.00000000000E+00  0.42396192531E+03  0.42396192531E+03  0.25500000920E-02 0. -1.
       -2   -1    0    0    0  501  0.00000000000E+00  0.00000000000E+00 -0.57428978697E+03  0.57428978697E+03  0.25500000920E-02 0.  1.
    10030    2    1    2    0    0  0.00000000000E+00  0.00000000000E+00 -0.15032786166E+03  0.99825171229E+03  0.98686777994E+03 0.  0.
        4    1    3    3  502    0 -0.34359232702E+03 -0.82145643756E+02 -0.42362547193E+03  0.55160107627E+03  0.12699999809E+01 0.  1.
       -4    1    3    3    0  502  0.34359232702E+03  0.82145643756E+02  0.27329761027E+03  0.44665063602E+03  0.12699999809E+01 0. -1.
</event>
<event>
 5   0  0.5349685E-03  0.9991357E+03  0.7818609E-02  0.9309493E-01
        1   -1    0    0  501    0  0.00000000000E+00  0.00000000000E+00  0.34139516076E+03  0.34139516080E+03  0.50400001928E-02 0. -1.
       -1   -1    0    0    0  501  0.00000000000E+00  0.00000000000E+00 -0.73102399979E+03  0.73102399981E+03  0.50400001928E-02 0.  1.
    10030    2    1    2    0    0  0.00000000000E+00  0.00000000000E+00 -0.38962883903E+03  0.10724191606E+04  0.99913573844E+03 0.  0.
        4    1    3    3  502    0  0.47066273966E+03 -0.75540734185E+02 -0.34397985610E+02  0.47792745406E+03  0.12699999809E+01 0. -1.
       -4    1    3    3    0  502 -0.47066273966E+03  0.75540734185E+02 -0.35523085342E+03  0.59449170655E+03  0.12699999809E+01 0.  1.
</event>
<event>
 5   0  0.9040674E-03  0.1003520E+04  0.7818609E-02  0.9304693E-01
       -2   -1    0    0    0  501  0.00000000000E+00  0.00000000000E+00  0.27801798590E+03  0.27801798591E+03  0.25500000920E-02 0. -1.
        2   -1    0    0  501    0  0.00000000000E+00  0.00000000000E+00 -0.90556362988E+03  0.90556362988E+03  0.25500000920E-02 0.  1.
    10030    2    1    2    0    0  0.00000000000E+00  0.00000000000E+00 -0.62754564398E+03  0.11835816158E+04  0.10035197586E+04 0.  0.
        1    1    3    3  502    0 -0.17209029984E+03 -0.11329568445E+03 -0.85336958960E+03  0.87788987914E+03  0.50400001928E-02 0.  1.
       -1    1    3    3    0  502  0.17209029984E+03  0.11329568445E+03  0.22582394562E+03  0.30569173665E+03  0.50400001928E-02 0. -1.
</event>
<event>
 5   0  0.5189877E-03  0.9793449E+03  0.7818609E-02  0.9331494E-01
       -1   -1    0    0    0  501  0.00000000000E+00  0.00000000000E+00  0.44356321568E+03  0.44356321571E+03  0.50400001928E-02 0.  1.
        1   -1    0    0  501    0  0.00000000000E+00  0.00000000000E+00 -0.54057485746E+03  0.54057485749E+03  0.50400001928E-02 0. -1.
    10030    2    1    2    0    0  0.00000000000E+00  0.00000000000E+00 -0.97011641786E+02  0.98413807320E+03  0.97934492824E+03 0.  0.
        3    1    3    3  502    0  0.43231602445E+03  0.13368172950E+03 -0.23653429353E+03  0.51060398746E+03  0.10100000352E+00 0. -1.
       -3    1    3    3    0  502 -0.43231602445E+03 -0.13368172950E+03  0.13952265175E+03  0.47353408573E+03  0.10100000352E+00 0.  1.
</event>
<event>
 5   0  0.9243773E-03  0.1007176E+04  0.7818609E-02  0.9300709E-01
        2   -1    0    0  501    0  0.00000000000E+00  0.00000000000E+00  0.12692369994E+04  0.12692369994E+04  0.25500000920E-02 0. -1.
       -2   -1    0    0    0  501  0.00000000000E+00  0.00000000000E+00 -0.19980564225E+03  0.19980564227E+03  0.25500000920E-02 0.  1.
    10030    2    1    2    0    0  0.00000000000E+00  0.00000000000E+00  0.10694313571E+04  0.14690426417E+04  0.10071756825E+04 0.  0.
        3    1    3    3  502    0 -0.19999821347E+03  0.42235772045E+03  0.80842861550E+03  0.93377843516E+03  0.10100000352E+00 0. -1.
       -3    1    3    3    0  502  0.19999821347E+03 -0.42235772045E+03  0.26100274164E+03  0.53526420650E+03  0.10100000352E+00 0.  1.
</event>
<event>
 5   0  0.5072205E-03  0.9798499E+03  0.7818609E-02  0.9330925E-01
        1   -1    0    0  501    0  0.00000000000E+00  0.00000000000E+00  0.35006261159E+03  0.35006261163E+03  0.50400001928E-02 0. -1.
       -1   -1    0    0    0  501  0.00000000000E+00  0.00000000000E+00 -0.68566726786E+03  0.68566726788E+03  0.50400001928E-02 0.  1.
    10030    2    1    2    0    0  0.00000000000E+00  0.00000000000E+00 -0.33560465627E+03  0.10357298795E+04  0.97984993646E+03 0.  0.
        5    1    3    3  502    0 -0.40468731344E+03 -0.27156222147E+03 -0.22051113086E+03  0.53494402569E+03  0.46999998093E+01 0.  1.
       -5    1    3    3    0  502  0.40468731344E+03  0.27156222147E+03 -0.11509352541E+03  0.50078585381E+03  0.46999998093E+01 0. -1.
</event>
<event>
 5   0  0.9040674E-03  0.9902145E+03  0.7818609E-02  0.9319343E-01
       -2   -1    0    0    0  501  0.00000000000E+00  0.00000000000E+00  0.18379315047E+03  0.18379315049E+03  0.25500000920E-02 0. -1.
        2   -1    0    0  501    0  0.00000000000E+00  0.00000000000E+00 -0.13337340626E+04  0.13337340626E+04  0.25500000920E-02 0.  1.
    10030    2    1    2    0    0  0.00000000000E+00  0.00000000000E+00 -0.11499409121E+04  0.15175272130E+04  0.99021449244E+03 0.  0.
        1    1    3    3  502    0  0.17198009077E+03  0.30667899967E+03 -0.40776503449E+02  0.35396593581E+03  0.50400001928E-02 0.  1.
       -1    1    3    3    0  502 -0.17198009077E+03 -0.30667899967E+03 -0.11091644086E+04  0.11635612772E+04  0.50400001928E-02 0. -1.
</event>
<event>
 5   0  0.9243773E-03  0.9830684E+03  0.7818609E-02  0.9327313E-01
        2   -1    0    0  501    0  0.00000000000E+00  0.00000000000E+00  0.34394520952E+03  0.34394520953E+03  0.25500000920E-02 0.  1.
       -2   -1    0    0    0  501  0.00000000000E+00  0.00000000000E+00 -0.70245450267E+03  0.70245450268E+03  0.25500000920E-02 0. -1.
    10030    2    1    2    0    0  0.00000000000E+00  0.00000000000E+00 -0.35850929315E+03  0.10463997122E+04  0.98306838238E+03 0.  0.
        3    1    3    3  502    0  0.39081564157E+02 -0.21300997548E+03 -0.64893532493E+03  0.68411818018E+03  0.10100000352E+00 0. -1.
       -3    1    3    3    0  502 -0.39081564157E+02  0.21300997548E+03  0.29042603179E+03  0.36228153203E+03  0.10100000352E+00 0.  1.
</event>
<event>
 5   0  0.5072205E-03  0.1059362E+04  0.7818609E-02  0.9245732E-01
       -1   -1    0    0    0  501  0.00000000000E+00  0.00000000000E+00  0.35939028024E+03  0.35939028028E+03  0.50400001928E-02 0. -1.
        1   -1    0    0  501    0  0.00000000000E+00  0.00000000000E+00 -0.78066056679E+03  0.78066056681E+03  0.50400001928E-02 0.  1.
    10030    2    1    2    0    0  0.00000000000E+00  0.00000000000E+00 -0.42127028654E+03  0.11400508471E+04  0.10593617322E+04 0.  0.
        5    1    3    3  502    0 -0.25657775522E+03 -0.27694307833E+03  0.18915805639E+03  0.42229429715E+03  0.46999998093E+01 0. -1.
       -5    1    3    3    0  502  0.25657775522E+03  0.27694307833E+03 -0.61042834294E+03  0.71775654993E+03  0.46999998093E+01 0.  1.
</event>
<event>
 5   0  0.5349685E-03  0.1017104E+04  0.7818609E-02  0.9289981E-01
        1   -1    0    0  501    0  0.00000000000E+00  0.00000000000E+00  0.78314784918E+03  0.78314784920E+03  0.50400001928E-02 0. -1.
       -1   -1    0    0    0  501  0.00000000000E+00  0.00000000000E+00 -0.33023816110E+03  0.33023816114E+03  0.50400001928E-02 0.  1.
    10030    2    1    2    0    0  0.00000000000E+00  0.00000000000E+00  0.45290968808E+03  0.11133860103E+04  0.10171043321E+04 0.  0.
        4    1    3    3  502    0  0.11435764665E+03  0.22977790458E+03  0.70704552956E+03  0.75219050150E+03  0.12699999809E+01 0. -1.
       -4    1    3    3    0  502 -0.11435764665E+03 -0.22977790458E+03 -0.25413584148E+03  0.36119550884E+03  0.12699999809E+01 0.  1.
</event>
<event>
 5   0  0.5201968E-03  0.9861116E+03  0.7818609E-02  0.9323910E-01
       -1   -1    0    0    0  501  0.00000000000E+00  0.00000000000E+00  0.22650895585E+03  0.22650895591E+03  0.50400001928E-02 0.  1.
        1   -1    0    0  501    0  0.00000000000E+00  0.00000000000E+00 -0.10732644083E+04  0.10732644084E+04  0.50400001928E-02 0. -1.
    10030    2    1    2    0    0  0.00000000000E+00  0.00000000000E+00 -0.84675545249E+03  0.12997733643E+04  0.98611155663E+03 0.  0.
        2    1    3    3  502    0  0.23784220475E+03 -0.41687699739E+03 -0.27455345234E+03  0.55293303709E+03  0.25500000920E-02 0.  1.
       -2    1    3    3    0  502 -0.23784220475E+03  0.41687699739E+03 -0.57220200015E+03  0.74684032717E+03  0.25500000920E-02 0. -1.
</event>
<event>
 5   0  0.8875655E-03  0.1006866E+04  0.7818609E-02  0.9301046E-01
       -2   -1    0    0    0  501  0.00000000000E+00  0.00000000000E+00  0.20702663453E+03  0.20702663454E+03  0.25500000920E-02 0. -1.
        2   -1    0    0  501    0  0.00000000000E+00  0.00000000000E+00 -0.12242145896E+04  0.12242145896E+04  0.25500000920E-02 0.  1.
    10030    2    1    2    0    0  0.00000000000E+00  0.00000000000E+00 -0.10171879551E+04  0.14312412241E+04  0.10068664786E+04 0.  0.
        4    1    3    3  502    0  0.33599046726E+03  0.26052950675E+03 -0.12537851648E+03  0.44326809413E+03  0.12699999809E+01 0. -1.
       -4    1    3    3    0  502 -0.33599046726E+03 -0.26052950675E+03 -0.89180943858E+03  0.98797313001E+03  0.12699999809E+01 0.  1.
</event>
<event>
 5   0  0.9040674E-03  0.8911477E+03  0.7818609E-02  0.9436715E-01
        2   -1    0    0  501    0  0.00000000000E+00  0.00000000000E+00  0.13400032363E+04  0.13400032363E+04  0.25500000920E-02 0.  1.
       -2   -1    0    0    0  501  0.00000000000E+00  0.00000000000E+00 -0.14816088221E+03  0.14816088223E+03  0.25500000920E-02 0. -1.
    10030    2    1    2    0    0  0.00000000000E+00  0.00000000000E+00  0.11918423541E+04  0.14881641185E+04  0.89114771317E+03 0.  0.
        1    1    3    3  502    0 -0.33433819860E+03  0.18566985627E+03  0.21408948274E+03  0.43828031351E+03  0.50400001928E-02 0. -1.
       -1    1    3    3    0  502  0.33433819860E+03 -0.18566985627E+03  0.97775287136E+03  0.10498838050E+04  0.50400001928E-02 0.  1.
</event>
<event>
 5   0  0.5310275E-03  0.1026819E+04  0.7818609E-02  0.9279610E-01
        1   -1    0    0  501    0  0.00000000000E+00  0.00000000000E+00  0.44961973201E+03  0.44961973204E+03  0.50400001928E-02 0. -1.
       -1   -1    0    0    0  501  0.00000000000E+00  0.00000000000E+00 -0.58624911364E+03  0.58624911366E+03  0.50400001928E-02 0.  1.
    10030    2    1    2    0    0  0.00000000000E+00  0.00000000000E+00 -0.13662938163E+03  0.10358688457E+04  0.10268187170E+04 0.  0.
        1    1    3    3  502    0 -0.74788219339E+02  0.91313421596E+02  0.43574680264E+03  0.45144954840E+03  0.50400001928E-02 0. -1.
       -1    1    3    3    0  502  0.74788219339E+02 -0.91313421596E+02 -0.57237618426E+03  0.58441929730E+03  0.50400001928E-02 0.  1.
</event>
<event>
 5   0  0.8907355E-03  0.9933146E+03  0.7818609E-02  0.9315908E-01
        2   -1    0    0  501    0  0.00000000000E+00  0.00000000000E+00  0.14054854258E+04  0.14054854258E+04  0.25500000920E-02 0. -1.
       -2   -1    0    0    0  501  0.00000000000E+00  0.00000000000E+00 -0.17550411156E+03  0.17550411158E+03  0.25500000920E-02 0.  1.
    10030    2    1    2    0    0  0.00000000000E+00  0.00000000000E+00  0.12299813142E+04  0.15809895374E+04  0.99331459464E+03 0.  0.
        5    1    3    3  502    0 -0.97625113031E+02  0.52613554013E+02  0.13854901755E+04  0.13899294821E+04  0.46999998093E+01 0. -1.
       -5    1    3    3    0  502  0.97625113031E+02 -0.52613554013E+02 -0.15550886132E+03  0.19106005524E+03  0.46999998093E+01 0.  1.
</event>
<event>
 5   0  0.5349685E-03  0.1129428E+04  0.7818609E-02  0.9176975E-01
       -1   -1    0    0    0  501  0.00000000000E+00  0.00000000000E+00  0.31581329744E+03  0.31581329748E+03  0.50400001928E-02 0. -1.
        1   -1    0    0  501    0  0.00000000000E+00  0.00000000000E+00 -0.10097795541E+04  0.10097795541E+04  0.50400001928E-02 0.  1.
    10030    2    1    2    0    0  0.00000000000E+00  0.00000000000E+00 -0.69396625661E+03  0.13255928515E+04  0.11294278387E+04 0.  0.
        4    1    3    3  502    0  0.67974120481E+02 -0.82205204672E+02  0.30388015893E+03  0.32206046112E+03  0.12699999809E+01 0. -1.
       -4    1    3    3    0  502 -0.67974120481E+02  0.82205204672E+02 -0.99784641554E+03  0.10035323904E+04  0.12699999809E+01 0.  1.
</event>
<event>
 5   0  0.5189877E-03  0.1024168E+04  0.7818609E-02  0.9282427E-01
       -1   -1    0    0    0  501  0.00000000000E+00  0.00000000000E+00  0.22904444344E+03  0.22904444349E+03  0.50400001928E-02 0. -1.
        1   -1    0    0  501    0  0.00000000000E+00  0.00000000000E+00 -0.11448881781E+04  0.11448881781E+04  0.50400001928E-02 0.  1.
    10030    2    1    2    0    0  0.00000000000E+00  0.00000000000E+00 -0.91584373468E+03  0.13739326216E+04  0.10241684932E+04 0.  0.
        3    1    3    3  502    0 -0.41093022573E+03 -0.28765337083E+03 -0.31966067277E+03  0.59480338608E+03  0.10100000352E+00 0. -1.
       -3    1    3    3    0  502  0.41093022573E+03  0.28765337083E+03 -0.59618306190E+03  0.77912923554E+03  0.10100000352E+00 0.  1.
</event>
<event>
 5   0  0.3513625E-03  0.9954481E+03  0.7818609E-02  0.9313551E-01
       -3   -1    0    0    0  501  0.00000000000E+00  0.00000000000E+00  0.39842450496E+03  0.39842451776E+03  0.10100000352E+00 0. -1.
        3   -1    0    0  501    0  0.00000000000E+00  0.00000000000E+00 -0.62177209569E+03  0.62177210389E+03  0.10100000352E+00 0.  1.
    10030    2    1    2    0    0  0.00000000000E+00  0.00000000000E+00 -0.22334759073E+03  0.10201966217E+04  0.99544814056E+03 0.  0.
        4    1    3    3  502    0  0.37171904578E+03 -0.32835953123E+03 -0.69014349502E+02  0.50075904793E+03  0.12699999809E+01 0. -1.
       -4    1    3    3    0  502 -0.37171904578E+03  0.32835953123E+03 -0.15433324123E+03  0.51943757372E+03  0.12699999809E+01 0.  1.
</event>
<event>
 5   0  0.5201968E-03  0.1014147E+04  0.7818609E-02  0.9293163E-01
        1   -1    0    0  501    0  0.00000000000E+00  0.00000000000E+00  0.17048902814E+04  0.17048902814E+04  0.50400001928E-02 0. -1.
       -1   -1    0    0    0  501  0.00000000000E+00  0.00000000000E+00 -0.15081528100E+03  0.15081528108E+03  0.50400001928E-02 0.  1.
    10030    2    1    2    0    0  0.00000000000E+00  0.00000000000E+00  0.15540750004E+04  0.18557055625E+04  0.10141469458E+04 0.  0.
        2    1    3    3  502    0 -0.17731707183E+03 -0.25088159939E+03  0.15152070400E+04  0.15460385813E+04  0.25500000920E-02 0. -1.
       -2    1    3    3    0  502  0.17731707183E+03  0.25088159939E+03  0.38867960413E+02  0.30966698117E+03  0.25500000920E-02 0.  1.
</event>
<event>
 5   0  0.3513625E-03  0.9652154E+03  0.7818609E-02  0.9347541E-01
        3   -1    0    0  501    0  0.00000000000E+00  0.00000000000E+00  0.47335117850E+03  0.47335118927E+03  0.10100000352E+00 0. -1.
       -3   -1    0    0    0  501  0.00000000000E+00  0.00000000000E+00 -0.49204518216E+03  0.49204519253E+03  0.10100000352E+00 0.  1.
    10030    2    1    2    0    0  0.00000000000E+00  0.00000000000E+00 -0.18694003665E+02  0.96539638180E+03  0.96521536882E+03 0.  0.
        1    1    3    3  502    0  0.59403553994E+02  0.15698059658E+03 -0.46191223041E+03  0.49146169592E+03  0.50400001928E-02 0.  1.
       -1    1    3    3    0  502 -0.59403553994E+02 -0.15698059658E+03  0.44321822675E+03  0.47393468587E+03  0.50400001928E-02 0. -1.
</event>
<event>
 5   0  0.8875655E-03  0.9954217E+03  0.7818609E-02  0.9313580E-01
        2   -1    0    0  501    0  0.00000000000E+00  0.00000000000E+00  0.10830531455E+04  0.10830531455E+04  0.25500000920E-02 0. -1.
       -2   -1    0    0    0  501  0.00000000000E+00  0.00000000000E+00 -0.22872018069E+03  0.22872018070E+03  0.25500000920E-02 0.  1.
    10030    2    1    2    0    0  0.00000000000E+00  0.00000000000E+00  0.85433296480E+03  0.13117733262E+04  0.99542174207E+03 0.  0.
        4    1    3    3  502    0  0.31212076674E+02  0.47520865761E+03  0.61775720108E+03  0.78001476550E+03  0.12699999809E+01 0. -1.
       -4    1    3    3    0  502 -0.31212076674E+02 -0.47520865761E+03  0.23657576372E+03  0.53175856070E+03  0.12699999809E+01 0.  1.
</event>
<event>
 5   0  0.5310275E-03  0.1016390E+04  0.7818609E-02  0.9290748E-01
        1   -1    0    0  501    0  0.00000000000E+00  0.00000000000E+00  0.39696232639E+03  0.39696232642E+03  0.50400001928E-02 0. -1.
       -1   -1    0    0    0  501  0.00000000000E+00  0.00000000000E+00 -0.65059675602E+03  0.65059675604E+03  0.50400001928E-02 0.  1.
    10030    2    1    2    0    0  0.00000000000E+00  0.00000000000E+00 -0.25363442963E+03  0.10475590825E+04  0.10163904798E+04 0.  0.
        1    1    3    3  502    0  0.30779965815E+03 -0.24442183155E+02 -0.54283408197E+03  0.62450531659E+03  0.50400001928E-02 0.  1.
       -1    1    3    3    0  502 -0.30779965815E+03  0.24442183155E+02  0.28919965234E+03  0.42305376587E+03  0.50400001928E-02 0. -1.
</event>
<event>
 5   0  0.5189877E-03  0.9940648E+03  0.7818609E-02  0.9315078E-01
        1   -1    0    0  501    0  0.00000000000E+00  0.00000000000E+00  0.38124396029E+03  0.38124396032E+03  0.50400001928E-02 0. -1.
       -1   -1    0    0    0  501  0.00000000000E+00  0.00000000000E+00 -0.64798720974E+03  0.64798720976E+03  0.50400001928E-02 0.  1.
    10030    2    1    2    0    0  0.00000000000E+00  0.00000000000E+00 -0.26674324945E+03  0.10292311701E+04  0.99406480691E+03 0.  0.
        3    1    3    3  502    0  0.15814934655E+03  0.42342289174E+03 -0.34742936143E+03  0.57009238940E+03  0.10100000352E+00 0.  1.
       -3    1    3    3    0  502 -0.15814934655E+03 -0.42342289174E+03  0.80686111979E+02  0.45913878069E+03  0.10100000352E+00 0. -1.
</event>
<event>
 5   0  0.8968798E-03  0.9978734E+03  0.7818609E-02  0.9310880E-01
       -2   -1    0    0    0  501  0.00000000000E+00  0.00000000000E+00  0.40899451486E+03  0.40899451487E+03  0.25500000920E-02 0.  1.
        2   -1    0    0  501    0  0.00000000000E+00  0.00000000000E+00 -0.60865817110E+03  0.60865817110E+03  0.25500000920E-02 0. -1.
    10030    2    1    2    0    0  0.00000000000E+00  0.00000000000E+00 -0.19966365624E+03  0.10176526860E+04  0.99787344570E+03 0.  0.
        2    1    3    3  502    0 -0.21048922901E+03 -0.42415760005E+03 -0.26018222190E+03  0.54028712164E+03  0.25500000920E-02 0. -1.
       -2    1    3    3    0  502  0.21048922901E+03  0.42415760005E+03  0.60518565662E+02  0.47736556433E+03  0.25500000920E-02 0.  1.
</event>
<event>
 5   0  0.8875655E-03  0.1002359E+04  0.7818609E-02  0.9305961E-01
       -2   -1    0    0    0  501  0.00000000000E+00  0.00000000000E+00  0.57824219296E+03  0.57824219296E+03  0.25500000920E-02 0. -1.
        2   -1    0    0  501    0  0.00000000000E+00  0.00000000000E+00 -0.43438714644E+03  0.43438714645E+03  0.25500000920E-02 0.  1.
    10030    2    1    2    0    0  0.00000000000E+00  0.00000000000E+00  0.14385504651E+03  0.10126293394E+04  0.10023591695E+04 0.  0.
        4    1    3    3  502    0  0.20880698010E+03  0.45306946278E+03  0.23403416995E+02  0.49942129096E+03  0.12699999809E+01 0. -1.
       -4    1    3    3    0  502 -0.20880698010E+03 -0.45306946278E+03  0.12045162952E+03  0.51320804845E+03  0.12699999809E+01 0.  1.
</event>
<event>
 5   0  0.5072205E-03  0.9971528E+03  0.7818609E-02  0.9311673E-01
       -1   -1    0    0    0  501  0.00000000000E+00  0.00000000000E+00  0.21428381360E+03  0.21428381366E+03  0.50400001928E-02 0. -1.
        1   -1    0    0  501    0  0.00000000000E+00  0.00000000000E+00 -0.11600428980E+04  0.11600428980E+04  0.50400001928E-02 0.  1.
    10030    2    1    2    0    0  0.00000000000E+00  0.00000000000E+00 -0.94575908444E+03  0.13743267117E+04  0.99715277902E+03 0.  0.
        5    1    3    3  502    0 -0.35949228085E+03 -0.12174747142E+03 -0.91841751420E+03  0.99376554940E+03  0.46999998093E+01 0.  1.
       -5    1    3    3    0  502  0.35949228085E+03  0.12174747142E+03 -0.27341570235E+02  0.38056116230E+03  0.46999998093E+01 0. -1.
</event>
<event>
 5   0  0.8875655E-03  0.1054381E+04  0.7818609E-02  0.9250832E-01
       -2   -1    0    0    0  501  0.00000000000E+00  0.00000000000E+00  0.31992677625E+03  0.31992677626E+03  0.25500000920E-02 0.  1.
        2   -1    0    0  501    0  0.00000000000E+00  0.00000000000E+00 -0.86873016351E+03  0.86873016351E+03  0.25500000920E-02 0. -1.
    10030    2    1    2    0    0  0.00000000000E+00  0.00000000000E+00 -0.54880338726E+03  0.11886569398E+04  0.10543814123E+04 0.  0.
        4    1    3    3  502    0 -0.28755907422E+03  0.21138656482E+03 -0.71182793485E+03  0.79628834143E+03  0.12699999809E+01 0. -1.
       -4    1    3    3    0  502  0.28755907422E+03 -0.21138656482E+03  0.16302454760E+03  0.39236859835E+03  0.12699999809E+01 0.  1.
</event>
<event>
 5   0  0.5201968E-03  0.1005447E+04  0.7818609E-02  0.9302591E-01
       -1   -1    0    0    0  501  0.00000000000E+00  0.00000000000E+00  0.39010481091E+03  0.39010481094E+03  0.50400001928E-02 0.  1.
        1   -1    0    0  501    0  0.00000000000E+00  0.00000000000E+00 -0.64785334237E+03  0.64785334239E+03  0.50400001928E-02 0. -1.
    10030    2    1    2    0    0  0.00000000000E+00  0.00000000000E+00 -0.25774853146E+03  0.10379581533E+04  0.10054465787E+04 0.  0.
        2    1    3    3  502    0 -0.10338211687E+03 -0.10031938468E+03  0.36834168605E+03  0.39550908804E+03  0.25500000920E-02 0.  1.
       -2    1    3    3    0  502  0.10338211687E+03  0.10031938468E+03 -0.62609021751E+03  0.64244906530E+03  0.25500000920E-02 0. -1.
</event>
<event>
 5   0  0.8907355E-03  0.1020982E+04  0.7818609E-02  0.9285826E-01
       -2   -1    0    0    0  501  0.00000000000E+00  0.00000000000E+00  0.13016814075E+03  0.13016814077E+03  0.25500000920E-02 0. -1.
        2   -1    0    0  501    0  0.00000000000E+00  0.00000000000E+00 -0.20020359693E+04  0.20020359693E+04  0.25500000920E-02 0.  1.
    10030    2    1    2    0    0  0.00000000000E+00  0.00000000000E+00 -0.18718678286E+04  0.21322041101E+04  0.10209824678E+04 0.  0.
        5    1    3    3  502    0 -0.88414366218E+02  0.27214891885E+03 -0.53119908824E+02  0.29107722154E+03  0.46999998093E+01 0. -1.
       -5    1    3    3    0  502  0.88414366218E+02 -0.27214891885E+03 -0.18187479198E+04  0.18411268886E+04  0.46999998093E+01 0.  1.
</event>
<event>
 5   0  0.5201968E-03  0.1017562E+04  0.7818609E-02  0.9289490E-01
        1   -1    0    0  501    0  0.00000000000E+00  0.00000000000E+00  0.64669150076E+03  0.64669150078E+03  0.50400001928E-02 0.  1.
       -1   -1    0    0    0  501  0.00000000000E+00  0.00000000000E+00 -0.40028067783E+03  0.40028067786E+03  0.50400001928E-02 0. -1.
    10030    2    1    2    0    0  0.00000000000E+00  0.00000000000E+00  0.24641082293E+03  0.10469721786E+04  0.10175620125E+04 0.  0.
        2    1    3    3  502    0 -0.39244909694E+03 -0.23389209495E+03  0.35358840874E+03  0.57770803056E+03  0.25500000920E-02 0.  1.
       -2    1    3    3    0  502  0.39244909694E+03  0.23389209495E+03 -0.10717758581E+03  0.46926414808E+03  0.25500000920E-02 0. -1.
</event>
<event>
 5   0  0.9243773E-03  0.9983721E+03  0.7818609E-02  0.9310332E-01
       -2   -1    0    0    0  501  0.00000000000E+00  0.00000000000E+00  0.44820016363E+03  0.44820016364E+03  0.25500000920E-02 0. -1.
        2   -1    0    0  501    0  0.00000000000E+00  0.00000000000E+00 -0.55597196279E+03  0.55597196280E+03  0.25500000920E-02 0.  1.
    10030    2    1    2    0    0  0.00000000000E+00  0.00000000000E+00 -0.10777179916E+03  0.10041721264E+04  0.99837212442E+03 0.  0.
        3    1    3    3  502    0 -0.37822068090E+03 -0.51028984175E+02 -0.37751886511E+03  0.53681965724E+03  0.10100000352E+00 0.  1.
       -3    1    3    3    0  502  0.37822068090E+03  0.51028984175E+02  0.26974706594E+03  0.46735246920E+03  0.10100000352E+00 0. -1.
</event>
<event>
 5   0  0.3513625E-03  0.1008406E+04  0.7818609E-02  0.9299373E-01
       -4   -1    0    0    0  501  0.00000000000E+00  0.00000000000E+00  0.37903286866E+03  0.37903499630E+03  0.12699999809E+01 0.  1.
        4   -1    0    0  501    0  0.00000000000E+00  0.00000000000E+00 -0.67070393638E+03  0.67070513877E+03  0.12699999809E+01 0. -1.
    10030    2    1    2    0    0  0.00000000000E+00  0.00000000000E+00 -0.29167106772E+03  0.10497401351E+04  0.10084058406E+04 0.  0.
        4    1    3    3  502    0 -0.13198060946E+03 -0.26986870017E+03 -0.56736694234E+03  0.64199287906E+03  0.12699999809E+01 0. -1.
       -4    1    3    3    0  502  0.13198060946E+03  0.26986870017E+03  0.27569587462E+03  0.40774725601E+03  0.12699999809E+01 0.  1.
</event>
<event>
 5   0  0.8968798E-03  0.9845232E+03  0.7818609E-02  0.9325684E-01
       -2   -1    0    0    0  501  0.00000000000E+00  0.00000000000E+00  0.81754285887E+03  0.81754285887E+03  0.25500000920E-02 0.  1.
        2   -1    0    0  501    0  0.00000000000E+00  0.00000000000E+00 -0.29640215448E+03  0.29640215449E+03  0.25500000920E-02 0. -1.
    10030    2    1    2    0    0  0.00000000000E+00  0.00000000000E+00  0.52114070439E+03  0.11139450134E+04  0.98452316328E+03 0.  0.
        2    1    3    3  502    0  0.14725442394E+03  0.17217479587E+02 -0.27054105444E+03  0.30850084135E+03  0.25500000920E-02 0. -1.
       -2    1    3    3    0  502 -0.14725442394E+03 -0.17217479587E+02  0.79168175882E+03  0.80544417201E+03  0.25500000920E-02 0.  1.
</event>
<event>
 5   0  0.5072205E-03  0.1006767E+04  0.7818609E-02  0.9301154E-01
        1   -1    0    0  501    0  0.00000000000E+00  0.00000000000E+00  0.58603975829E+03  0.58603975832E+03  0.50400001928E-02 0.  1.
       -1   -1    0    0    0  501  0.00000000000E+00  0.00000000000E+00 -0.43238532493E+03  0.43238532496E+03  0.50400001928E-02 0. -1.
    10030    2    1    2    0    0  0.00000000000E+00  0.00000000000E+00  0.15365443336E+03  0.10184250833E+04  0.10067670860E+04 0.  0.
        5    1    3    3  502    0 -0.43455188121E+03  0.69128932421E+02 -0.17045953362E+03  0.47190326271E+03  0.46999998093E+01 0. -1.
       -5    1    3    3    0  502  0.43455188121E+03 -0.69128932421E+02  0.32411396698E+03  0.54652182056E+03  0.46999998093E+01 0.  1.
</event>
<event>
 5   0  0.8875655E-03  0.8732829E+03  0.7818609E-02  0.9459609E-01
        2   -1    0    0  501    0  0.00000000000E+00  0.00000000000E+00  0.63387140664E+03  0.63387140664E+03  0.25500000920E-02 0.  1.
       -2   -1    0    0    0  501  0.00000000000E+00  0.00000000000E+00 -0.30077989204E+03  0.30077989205E+03  0.25500000920E-02 0. -1.
    10030    2    1    2    0    0  0.00000000000E+00  0.00000000000E+00  0.33309151460E+03  0.93465129869E+03  0.87328293986E+03 0.  0.
        4    1    3    3  502    0 -0.14403999252E+03  0.18867204403E+03  0.55878225739E+03  0.60711109669E+03  0.12699999809E+01 0.  1.
       -4    1    3    3    0  502  0.14403999252E+03 -0.18867204403E+03 -0.22569074279E+03  0.32754020200E+03  0.12699999809E+01 0. -1.
</event>
<event>
 5   0  0.8907355E-03  0.9317832E+03  0.7818609E-02  0.9386700E-01
       -2   -1    0    0    0  501  0.00000000000E+00  0.00000000000E+00  0.32182637983E+03  0.32182637984E+03  0.25500000920E-02 0. -1.
        2   -1    0    0  501    0  0.00000000000E+00  0.00000000000E+00 -0.67444746009E+03  0.67444746009E+03  0.25500000920E-02 0.  1.
    10030    2    1    2    0    0  0.00000000000E+00  0.00000000000E+00 -0.35262108026E+03  0.99627383994E+03  0.93178320327E+03 0.  0.
        5    1    3    3  502    0 -0.23461509468E+03 -0.40741565465E+02  0.25181347407E+03  0.34660674190E+03  0.46999998093E+01 0. -1.
       -5    1    3    3    0  502  0.23461509468E+03  0.40741565465E+02 -0.60443455433E+03  0.64966709804E+03  0.46999998093E+01 0.  1.
</event>
<event>
 5   0  0.5349685E-03  0.9894628E+03  0.7818609E-02  0.9320178E-01
       -1   -1    0    0    0  501  0.00000000000E+00  0.00000000000E+00  0.14755506584E+03  0.14755506593E+03  0.50400001928E-02 0.  1.
        1   -1    0    0  501    0  0.00000000000E+00  0.00000000000E+00 -0.16587648188E+04  0.16587648188E+04  0.50400001928E-02 0. -1.
    10030    2    1    2    0    0  0.00000000000E+00  0.00000000000E+00 -0.15112097530E+04  0.18063198848E+04  0.98946278787E+03 0.  0.
        4    1    3    3  502    0  0.15101484595E+03 -0.22702417493E+03 -0.15092126771E+04  0.15336459753E+04  0.12699999809E+01 0. -1.
       -4    1    3    3    0  502 -0.15101484595E+03  0.22702417493E+03 -0.19970758259E+01  0.27267390948E+03  0.12699999809E+01 0.  1.
</event>
<event>
 5   0  0.3513625E-03  0.9804142E+03  0.7818609E-02  0.9330291E-01
        4   -1    0    0  501    0  0.00000000000E+00  0.00000000000E+00  0.33756348233E+03  0.33756587135E+03  0.12699999809E+01 0. -1.
       -4   -1    0    0    0  501  0.00000000000E+00  0.00000000000E+00 -0.71186956071E+03  0.71187069357E+03  0.12699999809E+01 0.  1.
    10030    2    1    2    0    0  0.00000000000E+00  0.00000000000E+00 -0.37430607838E+03  0.10494365649E+04  0.98041423055E+03 0.  0.
        1    1    3    3  502    0 -0.12417549094E+03 -0.47391278206E+03 -0.20538566062E+03  0.53122137303E+03  0.50400001928E-02 0.  1.
       -1    1    3    3    0  502  0.12417549094E+03  0.47391278206E+03 -0.16892041776E+03  0.51821519189E+03  0.50400001928E-02 0. -1.
</event>
<event>
 5   0  0.8907355E-03  0.1004888E+04  0.7818609E-02  0.9303200E-01
        2   -1    0    0  501    0  0.00000000000E+00  0.00000000000E+00  0.27076055352E+03  0.27076055354E+03  0.25500000920E-02 0.  1.
       -2   -1    0    0    0  501  0.00000000000E+00  0.00000000000E+00 -0.93237380344E+03  0.93237380344E+03  0.25500000920E-02 0. -1.
    10030    2    1    2    0    0  0.00000000000E+00  0.00000000000E+00 -0.66161324991E+03  0.12031343570E+04  0.10048881472E+04 0.  0.
        5    1    3    3  502    0 -0.43739879044E+02 -0.19242138491E+03 -0.88400888245E+03  0.90577754478E+03  0.46999998093E+01 0. -1.
       -5    1    3    3    0  502  0.43739879044E+02  0.19242138491E+03  0.22239563254E+03  0.29735681219E+03  0.46999998093E+01 0.  1.
</event>
<event>
 5   0  0.5189877E-03  0.9757472E+03  0.7818609E-02  0.9335552E-01
       -1   -1    0    0    0  501  0.00000000000E+00  0.00000000000E+00  0.31888679498E+03  0.31888679502E+03  0.50400001928E-02 0.  1.
        1   -1    0    0  501    0  0.00000000000E+00  0.00000000000E+00 -0.74641113960E+03  0.74641113961E+03  0.50400001928E-02 0. -1.
    10030    2    1    2    0    0  0.00000000000E+00  0.00000000000E+00 -0.42752434461E+03  0.10652979346E+04  0.97574721332E+03 0.  0.
        3    1    3    3  502    0 -0.19522595328E+03  0.17676246462E+03  0.23461452885E+03  0.35270685998E+03  0.10100000352E+00 0. -1.
       -3    1    3    3    0  502  0.19522595328E+03 -0.17676246462E+03 -0.66213887346E+03  0.71259107465E+03  0.10100000352E+00 0.  1.
</event>
<event>
 5   0  0.9040674E-03  0.1001302E+04  0.7818609E-02  0.9307118E-01
       -2   -1    0    0    0  501  0.00000000000E+00  0.00000000000E+00  0.11253089707E+03  0.11253089709E+03  0.25500000920E-02 0. -1.
        2   -1    0    0  501    0  0.00000000000E+00  0.00000000000E+00 -0.22274020720E+04  0.22274020720E+04  0.25500000920E-02 0.  1.
    10030    2    1    2    0    0  0.00000000000E+00  0.00000000000E+00 -0.21148711749E+04  0.23399329691E+04  0.10013022587E+04 0.  0.
        1    1    3    3  502    0  0.90004276168E+02  0.31165453113E+02  0.91162947650E+02  0.13184361284E+03  0.50400001928E-02 0. -1.
       -1    1    3    3    0  502 -0.90004276168E+02 -0.31165453113E+02 -0.22060341226E+04  0.22080893562E+04  0.50400001928E-02 0.  1.
</event>
<event>
 5   0  0.5310275E-03  0.9748396E+03  0.7818609E-02  0.9336579E-01
        1   -1    0    0  501    0  0.00000000000E+00  0.00000000000E+00  0.74133039646E+03  0.74133039648E+03  0.50400001928E-02 0.  1.
       -1   -1    0    0    0  501  0.00000000000E+00  0.00000000000E+00 -0.32047524800E+03  0.32047524804E+03  0.50400001928E-02 0. -1.
    10030    2    1    2    0    0  0.00000000000E+00  0.00000000000E+00  0.42085514846E+03  0.10618056445E+04  0.97483956154E+03 0.  0.
        1    1    3    3  502    0 -0.23626301038E+03 -0.17683095854E+03 -0.21210845768E+03  0.36342729097E+03  0.50400001928E-02 0. -1.
       -1    1    3    3    0  502  0.23626301038E+03  0.17683095854E+03  0.63296360615E+03  0.69837835355E+03  0.50400001928E-02 0.  1.
</event>
<event>
 5   0  0.9040674E-03  0.8178460E+03  0.7818609E-02  0.9534539E-01
       -2   -1    0    0    0  501  0.00000000000E+00  0.00000000000E+00  0.11817112685E+03  0.11817112688E+03  0.25500000920E-02 0. -1.
        2   -1    0    0  501    0  0.00000000000E+00  0.00000000000E+00 -0.14150498790E+04  0.14150498790E+04  0.25500000920E-02 0.  1.
    10030    2    1    2    0    0  0.00000000000E+00  0.00000000000E+00 -0.12968787521E+04  0.15332210059E+04  0.81784604608E+03 0.  0.
        1    1    3    3  502    0  0.22813667462E+03  0.30670227451E+03 -0.92079108944E+03  0.99697986836E+03  0.50400001928E-02 0.  1.
       -1    1    3    3    0  502 -0.22813667462E+03 -0.30670227451E+03 -0.37608766269E+03  0.53624113751E+03  0.50400001928E-02 0. -1.
</event>
<event>
 5   0  0.9040674E-03  0.1009745E+04  0.7818609E-02  0.9297921E-01
       -2   -1    0    0    0  501  0.00000000000E+00  0.00000000000E+00  0.29957215251E+03  0.29957215252E+03  0.25500000920E-02 0. -1.
        2   -1    0    0  501    0  0.00000000000E+00  0.00000000000E+00 -0.85086682870E+03  0.85086682870E+03  0.25500000920E-02 0.  1.
    10030    2    1    2    0    0  0.00000000000E+00  0.00000000000E+00 -0.55129467618E+03  0.11504389812E+04  0.10097445368E+04 0.  0.
        1    1    3    3  502    0 -0.67340788343E+02 -0.42411550090E+03  0.26840149132E+02  0.43026635182E+03  0.50400001928E-02 0. -1.
       -1    1    3    3    0  502  0.67340788343E+02  0.42411550090E+03 -0.57813482532E+03  0.72017262941E+03  0.50400001928E-02 0.  1.
</event>
<event>
 5   0  0.8907355E-03  0.9368390E+03  0.7818609E-02  0.9380667E-01
       -2   -1    0    0    0  501  0.00000000000E+00  0.00000000000E+00  0.42715995394E+03  0.42715995395E+03  0.25500000920E-02 0. -1.
        2   -1    0    0  501    0  0.00000000000E+00  0.00000000000E+00 -0.51366427445E+03  0.51366427446E+03  0.25500000920E-02 0.  1.
    10030    2    1    2    0    0  0.00000000000E+00  0.00000000000E+00 -0.86504320509E+02  0.94082422840E+03  0.93683895696E+03 0.  0.
        5    1    3    3  502    0  0.40156175394E+03  0.10872626186E+03  0.17288763901E+03  0.45053908595E+03  0.46999998093E+01 0. -1.
       -5    1    3    3    0  502 -0.40156175394E+03 -0.10872626186E+03 -0.25939195952E+03  0.49028514245E+03  0.46999998093E+01 0.  1.
</event>
<event>
 5   0  0.9243773E-03  0.1005553E+04  0.7818609E-02  0.9302476E-01
       -2   -1    0    0    0  501  0.00000000000E+00  0.00000000000E+00  0.22276658601E+03  0.22276658603E+03  0.25500000920E-02 0.  1.
        2   -1    0    0  501    0  0.00000000000E+00  0.00000000000E+00 -0.11347486083E+04  0.11347486083E+04  0.25500000920E-02 0. -1.
    10030    2    1    2    0    0  0.00000000000E+00  0.00000000000E+00 -0.91198202232E+03  0.13575151944E+04  0.10055527305E+04 0.  0.
        3    1    3    3  502    0  0.32788077075E+03 -0.29680712208E+03 -0.13315918759E+03  0.46187838982E+03  0.10100000352E+00 0.  1.
       -3    1    3    3    0  502 -0.32788077075E+03  0.29680712208E+03 -0.77882283473E+03  0.89563680454E+03  0.10100000352E+00 0. -1.
</event>
<event>
 5   0  0.5201968E-03  0.1007785E+04  0.7818609E-02  0.9300047E-01
        1   -1    0    0  501    0  0.00000000000E+00  0.00000000000E+00  0.12450668924E+04  0.12450668924E+04  0.50400001928E-02 0.  1.
       -1   -1    0    0    0  501  0.00000000000E+00  0.00000000000E+00 -0.20393089876E+03  0.20393089882E+03  0.50400001928E-02 0. -1.
    10030    2    1    2    0    0  0.00000000000E+00  0.00000000000E+00  0.10411359936E+04  0.14489977912E+04  0.10077849184E+04 0.  0.
        2    1    3    3  502    0  0.45480916807E+03 -0.16966604535E+03  0.32622667592E+03  0.58486048798E+03  0.25500000920E-02 0. -1.
       -2    1    3    3    0  502 -0.45480916807E+03  0.16966604535E+03  0.71490931771E+03  0.86413730324E+03  0.25500000920E-02 0.  1.
</event>
<event>
 5   0  0.5189877E-03  0.1003401E+04  0.7818609E-02  0.9304823E-01
       -1   -1    0    0    0  501  0.00000000000E+00  0.00000000000E+00  0.16196358461E+03  0.16196358469E+03  0.50400001928E-02 0.  1.
        1   -1    0    0  501    0  0.00000000000E+00  0.00000000000E+00 -0.15540735100E+04  0.15540735100E+04  0.50400001928E-02 0. -1.
    10030    2    1    2    0    0  0.00000000000E+00  0.00000000000E+00 -0.13921099254E+04  0.17160370947E+04  0.10034008501E+04 0.  0.
        3    1    3    3  502    0 -0.20782742246E+03 -0.46211424927E+02 -0.14729839994E+04  0.14882908338E+04  0.10100000352E+00 0. -1.
       -3    1    3    3    0  502  0.20782742246E+03  0.46211424927E+02  0.80874073978E+02  0.22774626092E+03  0.10100000352E+00 0.  1.
</event>
<event>
 5   0  0.3513625E-03  0.9828608E+03  0.7818609E-02  0.9327545E-01
       -3   -1    0    0    0  501  0.00000000000E+00  0.00000000000E+00  0.23877774663E+03  0.23877776799E+03  0.10100000352E+00 0.  1.
        3   -1    0    0  501    0  0.00000000000E+00  0.00000000000E+00 -0.10114167868E+04  0.10114167918E+04  0.10100000352E+00 0. -1.
    10030    2    1    2    0    0  0.00000000000E+00  0.00000000000E+00 -0.77263904016E+03  0.12501945598E+04  0.98286079943E+03 0.  0.
        2    1    3    3  502    0  0.37042986482E+03  0.19335980059E+02  0.23712487067E+02  0.37169133286E+03  0.25500000920E-02 0.  1.
       -2    1    3    3    0  502 -0.37042986482E+03 -0.19335980059E+02 -0.79635152723E+03  0.87850322697E+03  0.25500000920E-02 0. -1.
</event>
<event>
 5   0  0.3513625E-03  0.1002157E+04  0.7818609E-02  0.9306182E-01
       -3   -1    0    0    0  501  0.00000000000E+00  0.00000000000E+00  0.46727251051E+03  0.46727252143E+03  0.10100000352E+00 0. -1.
        3   -1    0    0  501    0  0.00000000000E+00  0.00000000000E+00 -0.53733023353E+03  0.53733024302E+03  0.10100000352E+00 0.  1.
    10030    2    1    2    0    0  0.00000000000E+00  0.00000000000E+00 -0.70057723020E+02  0.10046027645E+04  0.10021569886E+04 0.  0.
        3    1    3    3  502    0  0.26691323595E+03 -0.28984981392E+03  0.27528122098E+03  0.48066136830E+03  0.10100000352E+00 0. -1.
       -3    1    3    3    0  502 -0.26691323595E+03  0.28984981392E+03 -0.34533894400E+03  0.52394139615E+03  0.10100000352E+00 0.  1.
</event>
<event>
 5   0  0.5201968E-03  0.9986859E+03  0.7818609E-02  0.9309987E-01
        1   -1    0    0  501    0  0.00000000000E+00  0.00000000000E+00  0.11565922427E+04  0.11565922427E+04  0.50400001928E-02 0.  1.
       -1   -1    0    0    0  501  0.00000000000E+00  0.00000000000E+00 -0.21558450026E+03  0.21558450031E+03  0.50400001928E-02 0. -1.
    10030    2    1    2    0    0  0.00000000000E+00  0.00000000000E+00  0.94100774240E+03  0.13721767430E+04  0.99868585788E+03 0.  0.
        2    1    3    3  502    0  0.27614678388E+03  0.99237575672E+02  0.10256305209E+04  0.10667816590E+04  0.25500000920E-02 0.  1.
       -2    1    3    3    0  502 -0.27614678388E+03 -0.99237575672E+02 -0.84622778460E+02  0.30539508397E+03  0.25500000920E-02 0. -1.
</event>
<event>
 5   0  0.5310275E-03  0.1008741E+04  0.7818609E-02  0.9299010E-01
       -1   -1    0    0    0  501  0.00000000000E+00  0.00000000000E+00  0.40985553063E+03  0.40985553066E+03  0.50400001928E-02 0. -1.
        1   -1    0    0  501    0  0.00000000000E+00  0.00000000000E+00 -0.62068091185E+03  0.62068091187E+03  0.50400001928E-02 0.  1.
    10030    2    1    2    0    0  0.00000000000E+00  0.00000000000E+00 -0.21082538122E+03  0.10305364425E+04  0.10087408082E+04 0.  0.
        1    1    3    3  502    0  0.56681517387E+02 -0.54248355060E+02 -0.61440854411E+03  0.61939772162E+03  0.50400001928E-02 0.  1.
       -1    1    3    3    0  502 -0.56681517387E+02  0.54248355060E+02  0.40358316290E+03  0.41113872092E+03  0.50400001928E-02 0. -1.
</event>
<event>
 5   0  0.8875655E-03  0.1022825E+04  0.7818609E-02  0.9283859E-01
        2   -1    0    0  501    0  0.00000000000E+00  0.00000000000E+00  0.89150116995E+03  0.89150116996E+03  0.25500000920E-02 0.  1.
       -2   -1    0    0    0  501  0.00000000000E+00  0.00000000000E+00 -0.29337351203E+03  0.29337351204E+03  0.25500000920E-02 0. -1.
    10030    2    1    2    0    0  0.00000000000E+00  0.00000000000E+00  0.59812765792E+03  0.11848746820E+04  0.10228251644E+04 0.  0.
        4    1    3    3  502    0 -0.45466681423E+03  0.21444479318E+03  0.40793643452E+03  0.64739650045E+03  0.12699999809E+01 0. -1.
       -4    1    3    3    0  502  0.45466681423E+03 -0.21444479318E+03  0.19019122340E+03  0.53747818155E+03  0.12699999809E+01 0.  1.
</event>
<event>
 5   0  0.5189877E-03  0.9303934E+03  0.7818609E-02  0.9388366E-01
        1   -1    0    0  501    0  0.00000000000E+00  0.00000000000E+00  0.77693984989E+03  0.77693984991E+03  0.50400001928E-02 0. -1.
       -1   -1    0    0    0  501  0.00000000000E+00  0.00000000000E+00 -0.27853890051E+03  0.27853890055E+03  0.50400001928E-02 0.  1.
    10030    2    1    2    0    0  0.00000000000E+00  0.00000000000E+00  0.49840094938E+03  0.10554787505E+04  0.93039340407E+03 0.  0.
        3    1    3    3  502    0 -0.27045900232E+03 -0.11716565149E+03 -0.15909218657E+03  0.33494207836E+03  0.10100000352E+00 0.  1.
       -3    1    3    3    0  502  0.27045900232E+03  0.11716565149E+03  0.65749313595E+03  0.72053667210E+03  0.10100000352E+00 0. -1.
</event>
<event>
 5   0  0.8968798E-03  0.9936671E+03  0.7818609E-02  0.9315518E-01
        2   -1    0    0  501    0  0.00000000000E+00  0.00000000000E+00  0.91133954087E+03  0.91133954088E+03  0.25500000920E-02 0.  1.
       -2   -1    0    0    0  501  0.00000000000E+00  0.00000000000E+00 -0.27085795692E+03  0.27085795693E+03  0.25500000920E-02 0. -1.
    10030    2    1    2    0    0  0.00000000000E+00  0.00000000000E+00  0.64048158395E+03  0.11821974978E+04  0.99366707928E+03 0.  0.
        2    1    3    3  502    0 -0.38687440504E+03  0.31098073502E+03  0.34583367390E+03  0.60496425749E+03  0.25500000920E-02 0.  1.
       -2    1    3    3    0  502  0.38687440504E+03 -0.31098073502E+03  0.29464791005E+03  0.57723324032E+03  0.25500000920E-02 0. -1.
</event>
<event>
 5   0  0.5072205E-03  0.9827158E+03  0.7818609E-02  0.9327708E-01
       -1   -1    0    0    0  501  0.00000000000E+00  0.00000000000E+00  0.38979462365E+03  0.38979462368E+03  0.50400001928E-02 0.  1.
        1   -1    0    0  501    0  0.00000000000E+00  0.00000000000E+00 -0.61938406089E+03  0.61938406091E+03  0.50400001928E-02 0. -1.
    10030    2    1    2    0    0  0.00000000000E+00  0.00000000000E+00 -0.22958943724E+03  0.10091786846E+04  0.98271578177E+03 0.  0.
        5    1    3    3  502    0  0.30214986252E+03 -0.75424146002E+02 -0.50506416525E+03  0.59337613892E+03  0.46999998093E+01 0. -1.
       -5    1    3    3    0  502 -0.30214986252E+03  0.75424146002E+02  0.27547472801E+03  0.41580254568E+03  0.46999998093E+01 0.  1.
</event>
<event>
 5   0  0.8875655E-03  0.1011882E+04  0.7818609E-02  0.9295608E-01
       -2   -1    0    0    0  501  0.00000000000E+00  0.00000000000E+00  0.31171142577E+03  0.31171142578E+03  0.25500000920E-02 0.  1.
        2   -1    0    0  501    0  0.00000000000E+00  0.00000000000E+00 -0.82119683212E+03  0.82119683213E+03  0.25500000920E-02 0. -1.
    10030    2    1    2    0    0  0.00000000000E+00  0.00000000000E+00 -0.50948540635E+03  0.11329082579E+04  0.10118822765E+04 0.  0.
        4    1    3    3  502    0  0.18704943455E+03 -0.12057581441E+02  0.27140240415E+03  0.32983898211E+03  0.12699999809E+01 0.  1.
       -4    1    3    3    0  502 -0.18704943455E+03  0.12057581441E+02 -0.78088781051E+03  0.80306927580E+03  0.12699999809E+01 0. -1.
</event>
<event>
 5   0  0.9040674E-03  0.9937098E+03  0.7818609E-02  0.9315471E-01
        2   -1    0    0  501    0  0.00000000000E+00  0.00000000000E+00  0.45029803922E+03  0.45029803923E+03  0.25500000920E-02 0. -1.
       -2   -1    0    0    0  501  0.00000000000E+00  0.00000000000E+00 -0.54822534068E+03  0.54822534068E+03  0.25500000920E-02 0.  1.
    10030    2    1    2    0    0  0.00000000000E+00  0.00000000000E+00 -0.97927301455E+02  0.99852337991E+03  0.99370980868E+03 0.  0.
        1    1    3    3  502    0  0.19613715583E+03  0.22670819985E+03  0.34918594623E+03  0.46021431622E+03  0.50400001928E-02 0. -1.
       -1    1    3    3    0  502 -0.19613715583E+03 -0.22670819985E+03 -0.44711324769E+03  0.53830906370E+03  0.50400001928E-02 0.  1.
</event>
<event>
 5   0  0.9040674E-03  0.1006972E+04  0.7818609E-02  0.9300931E-01
        2   -1    0    0  501    0  0.00000000000E+00  0.00000000000E+00  0.12273939364E+04  0.12273939364E+04  0.25500000920E-02 0.  1.
       -2   -1    0    0    0  501  0.00000000000E+00  0.00000000000E+00 -0.20653355881E+03  0.20653355883E+03  0.25500000920E-02 0. -1.
    10030    2    1    2    0    0  0.00000000000E+00  0.00000000000E+00  0.10208603775E+04  0.14339274952E+04  0.10069717727E+04 0.  0.
        1    1    3    3  502    0 -0.26612234176E+03  0.62839740872E+01  0.11189921620E+04  0.11502191304E+04  0.50400001928E-02 0.  1.
       -1    1    3    3    0  502  0.26612234176E+03 -0.62839740872E+01 -0.98131784496E+02  0.28370836482E+03  0.50400001928E-02 0. -1.
</event>
<event>
 5   0  0.5349685E-03  0.9984669E+03  0.7818609E-02  0.9310228E-01
        1   -1    0    0  501    0  0.00000000000E+00  0.00000000000E+00  0.71763341045E+03  0.71763341047E+03  0.50400001928E-02 0.  1.
       -1   -1    0    0    0  501  0.00000000000E+00  0.00000000000E+00 -0.34729993050E+03  0.34729993053E+03  0.50400001928E-02 0. -1.
    10030    2    1    2    0    0  0.00000000000E+00  0.00000000000E+00  0.37033347995E+03  0.10649333410E+04  0.99846689199E+03 0.  0.
        4    1    3    3  502    0  0.72019742094E+02 -0.40388086203E+03  0.48857844279E+03  0.63797891942E+03  0.12699999809E+01 0.  1.
       -4    1    3    3    0  502 -0.72019742094E+02  0.40388086203E+03 -0.11824496284E+03  0.42695442158E+03  0.12699999809E+01 0. -1.
</event>
<event>
 5   0  0.8875655E-03  0.9858722E+03  0.7818609E-02  0.9324177E-01
        2   -1    0    0  501    0  0.00000000000E+00  0.00000000000E+00  0.11003647701E+04  0.11003647701E+04  0.25500000920E-02 0.  1.
       -2   -1    0    0    0  501  0.00000000000E+00  0.00000000000E+00 -0.22082313728E+03  0.22082313729E+03  0.25500000920E-02 0. -1.
    10030    2    1    2    0    0  0.00000000000E+00  0.00000000000E+00  0.87954163282E+03  0.13211879074E+04  0.98587220408E+03 0.  0.
        4    1    3    3  502    0 -0.36954235161E+03  0.52297462384E+02  0.87129766953E+03  0.94787014725E+03  0.12699999809E+01 0.  1.
       -4    1    3    3    0  502  0.36954235161E+03 -0.52297462384E+02  0.82439632816E+01  0.37331776014E+03  0.12699999809E+01 0. -1.
</event>
<event>
 5   0  0.8875655E-03  0.1006482E+04  0.7818609E-02  0.9301464E-01
        2   -1    0    0  501    0  0.00000000000E+00  0.00000000000E+00  0.17423183948E+04  0.17423183948E+04  0.25500000920E-02 0. -1.
       -2   -1    0    0    0  501  0.00000000000E+00  0.00000000000E+00 -0.14535315673E+03  0.14535315675E+03  0.25500000920E-02 0.  1.
    10030    2    1    2    0    0  0.00000000000E+00  0.00000000000E+00  0.15969652381E+04  0.18876715516E+04  0.10064819496E+04 0.  0.
        4    1    3    3  502    0  0.14873955417E+03  0.25452675171E+03  0.15634133503E+04  0.15909651910E+04  0.12699999809E+01 0. -1.
       -4    1    3    3    0  502 -0.14873955417E+03 -0.25452675171E+03  0.33551887812E+02  0.29670636055E+03  0.12699999809E+01 0.  1.
</event>
<event>
 5   0  0.3513625E-03  0.9987382E+03  0.7818609E-02  0.9309930E-01
       -4   -1    0    0    0  501  0.00000000000E+00  0.00000000000E+00  0.48346290979E+03  0.48346457786E+03  0.12699999809E+01 0. -1.
        4   -1    0    0  501    0  0.00000000000E+00  0.00000000000E+00 -0.51579526219E+03  0.51579682569E+03  0.12699999809E+01 0.  1.
    10030    2    1    2    0    0  0.00000000000E+00  0.00000000000E+00 -0.32332352395E+02  0.99926140355E+03  0.99873818973E+03 0.  0.
        3    1    3    3  502    0  0.28885272586E+03 -0.33623862319E+02 -0.42233823198E+03  0.51277290660E+03  0.10100000352E+00 0.  1.
       -3    1    3    3    0  502 -0.28885272586E+03  0.33623862319E+02  0.39000587958E+03  0.48648849695E+03  0.10100000352E+00 0. -1.
</event>
<event>
 5   0  0.8875655E-03  0.1002890E+04  0.7818609E-02  0.9305381E-01
        2   -1    0    0  501    0  0.00000000000E+00  0.00000000000E+00  0.10043609134E+04  0.10043609134E+04  0.25500000920E-02 0.  1.
       -2   -1    0    0    0  501  0.00000000000E+00  0.00000000000E+00 -0.25035534321E+03  0.25035534322E+03  0.25500000920E-02 0. -1.
    10030    2    1    2    0    0  0.00000000000E+00  0.00000000000E+00  0.75400557017E+03  0.12547162566E+04  0.10028900661E+04 0.  0.
        4    1    3    3  502    0  0.26381229547E+02  0.41851773516E+03  0.72098135759E+03  0.83406762005E+03  0.12699999809E+01 0.  1.
       -4    1    3    3    0  502 -0.26381229547E+02 -0.41851773516E+03  0.33024212572E+02  0.42064863655E+03  0.12699999809E+01 0. -1.
</event>
<event>
 5   0  0.5189877E-03  0.1012809E+04  0.7818609E-02  0.9294607E-01
       -1   -1    0    0    0  501  0.00000000000E+00  0.00000000000E+00  0.62132193858E+03  0.62132193860E+03  0.50400001928E-02 0. -1.
        1   -1    0    0  501    0  0.00000000000E+00  0.00000000000E+00 -0.41274151434E+03  0.41274151437E+03  0.50400001928E-02 0.  1.
    10030    2    1    2    0    0  0.00000000000E+00  0.00000000000E+00  0.20858042424E+03  0.10340634530E+04  0.10128086845E+04 0.  0.
        3    1    3    3  502    0  0.12022139446E+03 -0.37045579177E+03  0.43474075495E+03  0.58368674095E+03  0.10100000352E+00 0. -1.
       -3    1    3    3    0  502 -0.12022139446E+03  0.37045579177E+03 -0.22616033071E+03  0.45037671202E+03  0.10100000352E+00 0.  1.
</event>
<event>
 5   0  0.5072205E-03  0.9993405E+03  0.7818609E-02  0.9309268E-01
       -1   -1    0    0    0  501  0.00000000000E+00  0.00000000000E+00  0.18224704271E+03  0.18224704278E+03  0.50400001928E-02 0. -1.
        1   -1    0    0  501    0  0.00000000000E+00  0.00000000000E+00 -0.13699555813E+04  0.13699555813E+04  0.50400001928E-02 0.  1.
    10030    2    1    2    0    0  0.00000000000E+00  0.00000000000E+00 -0.11877085386E+04  0.15522026241E+04  0.99934048931E+03 0.  0.
        5    1    3    3  502    0 -0.44099993584E+03 -0.60673805445E+02 -0.94628968628E+03  0.10457765127E+04  0.46999998093E+01 0.  1.
       -5    1    3    3    0  502  0.44099993584E+03  0.60673805445E+02 -0.24141885232E+03  0.50642611143E+03  0.46999998093E+01 0. -1.
</event>
<event>
 5   0  0.5072205E-03  0.1001351E+04  0.7818609E-02  0.9307065E-01
        1   -1    0    0  501    0  0.00000000000E+00  0.00000000000E+00  0.50207500860E+03  0.50207500862E+03  0.50400001928E-02 0.  1.
       -1   -1    0    0    0  501  0.00000000000E+00  0.00000000000E+00 -0.49927941725E+03  0.49927941728E+03  0.50400001928E-02 0. -1.
    10030    2    1    2    0    0  0.00000000000E+00  0.00000000000E+00  0.27955913439E+01  0.10013544259E+04  0.10013505235E+04 0.  0.
        5    1    3    3  502    0  0.35341856701E+03 -0.52107418557E+01 -0.35317627601E+03  0.49968730949E+03  0.46999998093E+01 0. -1.
       -5    1    3    3    0  502 -0.35341856701E+03  0.52107418557E+01  0.35597186735E+03  0.50166711640E+03  0.46999998093E+01 0.  1.
</event>
<event>
 5   0  0.5201968E-03  0.9996816E+03  0.7818609E-02  0.9308894E-01
        1   -1    0    0  501    0  0.00000000000E+00  0.00000000000E+00  0.57271701834E+03  0.57271701836E+03  0.50400001928E-02 0. -1.
       -1   -1    0    0    0  501  0.00000000000E+00  0.00000000000E+00 -0.43623785377E+03  0.43623785380E+03  0.50400001928E-02 0.  1.
    10030    2    1    2    0    0  0.00000000000E+00  0.00000000000E+00  0.13647916456E+03  0.10089548722E+04  0.99968163517E+03 0.  0.
        2    1    3    3  502    0  0.37451397454E+03 -0.10743641159E+03 -0.24777435564E+03  0.46173090754E+03  0.25500000920E-02 0.  1.
       -2    1    3    3    0  502 -0.37451397454E+03  0.10743641159E+03  0.38425352021E+03  0.54722396462E+03  0.25500000920E-02 0. -1.
</event>
<event>
 5   0  0.9243773E-03  0.1003443E+04  0.7818609E-02  0.9304776E-01
       -2   -1    0    0    0  501  0.00000000000E+00  0.00000000000E+00  0.32535970637E+03  0.32535970638E+03  0.25500000920E-02 0. -1.
        2   -1    0    0  501    0  0.00000000000E+00  0.00000000000E+00 -0.77368082255E+03  0.77368082256E+03  0.25500000920E-02 0.  1.
    10030    2    1    2    0    0  0.00000000000E+00  0.00000000000E+00 -0.44832111618E+03  0.10990405289E+04  0.10034432027E+04 0.  0.
        3    1    3    3  502    0  0.41012830230E+03 -0.98366562857E+02  0.73469375956E+02  0.42811092539E+03  0.10100000352E+00 0.  1.
       -3    1    3    3    0  502 -0.41012830230E+03  0.98366562857E+02 -0.52179049214E+03  0.67092960355E+03  0.10100000352E+00 0. -1.
</event>
<event>
 5   0  0.8907355E-03  0.9965876E+03  0.7818609E-02  0.9312295E-01
       -2   -1    0    0    0  501  0.00000000000E+00  0.00000000000E+00  0.37547953902E+03  0.37547953903E+03  0.25500000920E-02 0.  1.
        2   -1    0    0  501    0  0.00000000000E+00  0.00000000000E+00 -0.66127891207E+03  0.66127891208E+03  0.25500000920E-02 0. -1.
    10030    2    1    2    0    0  0.00000000000E+00  0.00000000000E+00 -0.28579937305E+03  0.10367584511E+04  0.99658757984E+03 0.  0.
        5    1    3    3  502    0  0.16164947049E+03  0.25920150829E+02  0.34667812778E+03  0.38341911769E+03  0.46999998093E+01 0.  1.
       -5    1    3    3    0  502 -0.16164947049E+03 -0.25920150829E+02 -0.63247750083E+03  0.65333933342E+03  0.46999998093E+01 0. -1.
</event>
<event>
 5   0  0.8968798E-03  0.1008796E+04  0.7818609E-02  0.9298950E-01
        2   -1    0    0  501    0  0.00000000000E+00  0.00000000000E+00  0.14801908383E+03  0.14801908385E+03  0.25500000920E-02 0.  1.
       -2   -1    0    0    0  501  0.00000000000E+00  0.00000000000E+00 -0.17188151236E+04  0.17188151236E+04  0.25500000920E-02 0. -1.
    10030    2    1    2    0    0  0.00000000000E+00  0.00000000000E+00 -0.15707960397E+04  0.18668342074E+04  0.10087961933E+04 0.  0.
        2    1    3    3  502    0  0.41929987471E+03 -0.59154091735E+02 -0.27824479251E+03  0.50668703957E+03  0.25500000920E-02 0.  1.
       -2    1    3    3    0  502 -0.41929987471E+03  0.59154091735E+02 -0.12925512472E+04  0.13601471678E+04  0.25500000920E-02 0. -1.
</event>
<event>
 5   0  0.5201968E-03  0.1012732E+04  0.7818609E-02  0.9294689E-01
        1   -1    0    0  501    0  0.00000000000E+00  0.00000000000E+00  0.14310113006E+04  0.14310113006E+04  0.50400001928E-02 0.  1.
       -1   -1    0    0    0  501  0.00000000000E+00  0.00000000000E+00 -0.17917870101E+03  0.17917870108E+03  0.50400001928E-02 0. -1.
    10030    2    1    2    0    0  0.00000000000E+00  0.00000000000E+00  0.12518325996E+04  0.16101900017E+04  0.10127324346E+04 0.  0.
        2    1    3    3  502    0  0.11100141704E+03  0.25661394580E+03  0.12971574199E+04  0.13269474005E+04  0.25500000920E-02 0.  1.
       -2    1    3    3    0  502 -0.11100141704E+03 -0.25661394580E+03 -0.45324820314E+02  0.28324260115E+03  0.25500000920E-02 0. -1.
</event>
<event>
 5   0  0.9040674E-03  0.9837871E+03  0.7818609E-02  0.9326508E-01
       -2   -1    0    0    0  501  0.00000000000E+00  0.00000000000E+00  0.12978678281E+04  0.12978678281E+04  0.25500000920E-02 0.  1.
        2   -1    0    0  501    0  0.00000000000E+00  0.00000000000E+00 -0.18642828405E+03  0.18642828407E+03  0.25500000920E-02 0. -1.
    10030    2    1    2    0    0  0.00000000000E+00  0.00000000000E+00  0.11114395440E+04  0.14842961121E+04  0.98378711544E+03 0.  0.
        1    1    3    3  502    0 -0.19750620291E+03  0.18807513605E+03  0.11733496961E+04  0.12046287670E+04  0.50400001928E-02 0. -1.
       -1    1    3    3    0  502  0.19750620291E+03 -0.18807513605E+03 -0.61910152042E+02  0.27966734515E+03  0.50400001928E-02 0.  1.
</event>
<event>
 5   0  0.3513625E-03  0.9940580E+03  0.7818609E-02  0.9315086E-01
       -3   -1    0    0    0  501  0.00000000000E+00  0.00000000000E+00  0.59282645590E+03  0.59282646450E+03  0.10100000352E+00 0.  1.
        3   -1    0    0  501    0  0.00000000000E+00  0.00000000000E+00 -0.41671189821E+03  0.41671191045E+03  0.10100000352E+00 0. -1.
    10030    2    1    2    0    0  0.00000000000E+00  0.00000000000E+00  0.17611455769E+03  0.10095383749E+04  0.99405804310E+03 0.  0.
        2    1    3    3  502    0  0.89817978515E+02 -0.29633447881E+03 -0.30678571709E+03  0.43588859679E+03  0.25500000920E-02 0. -1.
       -2    1    3    3    0  502 -0.89817978515E+02  0.29633447881E+03  0.48290027478E+03  0.57364977816E+03  0.25500000920E-02 0.  1.
</event>
<event>
 5   0  0.3513625E-03  0.9987520E+03  0.7818609E-02  0.9309915E-01
        4   -1    0    0  501    0  0.00000000000E+00  0.00000000000E+00  0.10240652980E+03  0.10241440448E+03  0.12699999809E+01 0. -1.
       -4   -1    0    0    0  501  0.00000000000E+00  0.00000000000E+00 -0.24350595190E+04  0.24350598502E+04  0.12699999809E+01 0.  1.
    10030    2    1    2    0    0  0.00000000000E+00  0.00000000000E+00 -0.23326529892E+04  0.25374742547E+04  0.99875203380E+03 0.  0.
        1    1    3    3  502    0 -0.71924206904E+02 -0.17370507599E+03 -0.23417142249E+04  0.23492492537E+04  0.50400001928E-02 0.  1.
       -1    1    3    3    0  502  0.71924206904E+02  0.17370507599E+03  0.90612356995E+01  0.18822500094E+03  0.50400001928E-02 0. -1.
</event>
<event>
 5   0  0.5310275E-03  0.1029264E+04  0.7818609E-02  0.9277018E-01
        1   -1    0    0  501    0  0.00000000000E+00  0.00000000000E+00  0.82877591689E+03  0.82877591691E+03  0.50400001928E-02 0. -1.
       -1   -1    0    0    0  501  0.00000000000E+00  0.00000000000E+00 -0.31956321494E+03  0.31956321498E+03  0.50400001928E-02 0.  1.
    10030    2    1    2    0    0  0.00000000000E+00  0.00000000000E+00  0.50921270195E+03  0.11483391319E+04  0.10292643907E+04 0.  0.
        1    1    3    3  502    0 -0.42185387222E+02  0.95216781291E+01 -0.31753231206E+03  0.32046378653E+03  0.50400001928E-02 0.  1.
       -1    1    3    3    0  502  0.42185387222E+02 -0.95216781291E+01  0.82674501401E+03  0.82787534536E+03  0.50400001928E-02 0. -1.
</event>
<event>
 5   0  0.3513625E-03  0.1008493E+04  0.7818609E-02  0.9299278E-01
        3   -1    0    0  501    0  0.00000000000E+00  0.00000000000E+00  0.35731350048E+03  0.35731351475E+03  0.10100000352E+00 0. -1.
       -3   -1    0    0    0  501  0.00000000000E+00  0.00000000000E+00 -0.71160107413E+03  0.71160108130E+03  0.10100000352E+00 0.  1.
    10030    2    1    2    0    0  0.00000000000E+00  0.00000000000E+00 -0.35428757365E+03  0.10689145961E+04  0.10084932964E+04 0.  0.
        5    1    3    3  502    0 -0.77531922431E+02  0.26299962933E+03  0.27136651257E+03  0.38580030867E+03  0.46999998093E+01 0. -1.
       -5    1    3    3    0  502  0.77531922431E+02 -0.26299962933E+03 -0.62565408622E+03  0.68311428738E+03  0.46999998093E+01 0.  1.
</event>
<event>
 5   0  0.5189877E-03  0.9709695E+03  0.7818609E-02  0.9340971E-01
       -1   -1    0    0    0  501  0.00000000000E+00  0.00000000000E+00  0.20024166510E+03  0.20024166516E+03  0.50400001928E-02 0. -1.
        1   -1    0    0  501    0  0.00000000000E+00  0.00000000000E+00 -0.11770549535E+04  0.11770549535E+04  0.50400001928E-02 0.  1.
    10030    2    1    2    0    0  0.00000000000E+00  0.00000000000E+00 -0.97681328844E+03  0.13772966187E+04  0.97096950284E+03 0.  0.
        3    1    3    3  502    0 -0.20456005709E+03 -0.26719012953E+03 -0.98479217144E+03  0.10406973688E+04  0.10100000352E+00 0.  1.
       -3    1    3    3    0  502  0.20456005709E+03  0.26719012953E+03  0.79788829989E+01  0.33659924993E+03  0.10100000352E+00 0. -1.
</event>
<event>
 5   0  0.5201968E-03  0.9446141E+03  0.7818609E-02  0.9371468E-01
       -1   -1    0    0    0  501  0.00000000000E+00  0.00000000000E+00  0.46085478944E+03  0.46085478947E+03  0.50400001928E-02 0. -1.
        1   -1    0    0  501    0  0.00000000000E+00  0.00000000000E+00 -0.48404388045E+03  0.48404388048E+03  0.50400001928E-02 0.  1.
    10030    2    1    2    0    0  0.00000000000E+00  0.00000000000E+00 -0.23189091009E+02  0.94489866994E+03  0.94461408126E+03 0.  0.
        2    1    3    3  502    0 -0.24996594251E+03 -0.36664662835E+03 -0.17338757363E+03  0.47641995465E+03  0.25500000920E-02 0.  1.
       -2    1    3    3    0  502  0.24996594251E+03  0.36664662835E+03  0.15019848262E+03  0.46847871529E+03  0.25500000920E-02 0. -1.
</event>
<event>
 5   0  0.5189877E-03  0.1006326E+04  0.7818609E-02  0.9301633E-01
       -1   -1    0    0    0  501  0.00000000000E+00  0.00000000000E+00  0.48181076485E+03  0.48181076488E+03  0.50400001928E-02 0. -1.
        1   -1    0    0  501    0  0.00000000000E+00  0.00000000000E+00 -0.52546166357E+03  0.52546166359E+03  0.50400001928E-02 0.  1.
    10030    2    1    2    0    0  0.00000000000E+00  0.00000000000E+00 -0.43650898718E+02  0.10072724285E+04  0.10063261619E+04 0.  0.
        3    1    3    3  502    0 -0.14158121389E+03  0.44647056174E+03 -0.20582396377E+03  0.51160992650E+03  0.10100000352E+00 0.  1.
       -3    1    3    3    0  502  0.14158121389E+03 -0.44647056174E+03  0.16217306505E+03  0.49566250197E+03  0.10100000352E+00 0. -1.
</event>
<event>
 5   0  0.5349685E-03  0.1026875E+04  0.7818609E-02  0.9279550E-01
       -1   -1    0    0    0  501  0.00000000000E+00  0.00000000000E+00  0.41253027432E+03  0.41253027435E+03  0.50400001928E-02 0.  1.
        1   -1    0    0  501    0  0.00000000000E+00  0.00000000000E+00 -0.63902687600E+03  0.63902687602E+03  0.50400001928E-02 0. -1.
    10030    2    1    2    0    0  0.00000000000E+00  0.00000000000E+00 -0.22649660168E+03  0.10515571504E+04  0.10268747392E+04 0.  0.
        4    1    3    3  502    0  0.32407596576E+02  0.28799786971E+03 -0.54725530558E+03  0.61926004849E+03  0.12699999809E+01 0. -1.
       -4    1    3    3    0  502 -0.32407596576E+02 -0.28799786971E+03  0.32075870390E+03  0.43229710189E+03  0.12699999809E+01 0.  1.
</event>
<event>
 5   0  0.5201968E-03  0.1011173E+04  0.7818609E-02  0.9296375E-01
        1   -1    0    0  501    0  0.00000000000E+00  0.00000000000E+00  0.10662881608E+04  0.10662881608E+04  0.50400001928E-02 0.  1.
       -1   -1    0    0    0  501  0.00000000000E+00  0.00000000000E+00 -0.23972648528E+03  0.23972648534E+03  0.50400001928E-02 0. -1.
    10030    2    1    2    0    0  0.00000000000E+00  0.00000000000E+00  0.82656167550E+03  0.13060146461E+04  0.10111726126E+04 0.  0.
        2    1    3    3  502    0  0.24346723693E+03  0.70917006735E+01 -0.15895211063E+03  0.29084765971E+03  0.25500000920E-02 0. -1.
       -2    1    3    3    0  502 -0.24346723693E+03 -0.70917006735E+01  0.98551378613E+03  0.10151669864E+04  0.25500000920E-02 0.  1.
</event>
<event>
 5   0  0.8968798E-03  0.9997962E+03  0.7818609E-02  0.9308768E-01
        2   -1    0    0  501    0  0.00000000000E+00  0.00000000000E+00  0.44569431765E+03  0.44569431766E+03  0.25500000920E-02 0.  1.
       -2   -1    0    0    0  501  0.00000000000E+00  0.00000000000E+00 -0.56069396279E+03  0.56069396280E+03  0.25500000920E-02 0. -1.
    10030    2    1    2    0    0  0.00000000000E+00  0.00000000000E+00 -0.11499964515E+03  0.10063882805E+04  0.99979620556E+03 0.  0.
        2    1    3    3  502    0 -0.84412652082E+01 -0.23539336340E+03  0.38633462581E+03  0.45247732937E+03  0.25500000920E-02 0.  1.
       -2    1    3    3    0  502  0.84412652082E+01  0.23539336340E+03 -0.50133427095E+03  0.55391095108E+03  0.25500000920E-02 0. -1.
</event>
<event>
 5   0  0.5201968E-03  0.9751442E+03  0.7818609E-02  0.9336234E-01
       -1   -1    0    0    0  501  0.00000000000E+00  0.00000000000E+00  0.66309095326E+03  0.66309095328E+03  0.50400001928E-02 0. -1.
        1   -1    0    0  501    0  0.00000000000E+00  0.00000000000E+00 -0.35851272205E+03  0.35851272209E+03  0.50400001928E-02 0.  1.
    10030    2    1    2    0    0  0.00000000000E+00  0.00000000000E+00  0.30457823120E+03  0.10216036754E+04  0.97514417939E+03 0.  0.
        2    1    3    3  502    0 -0.15881706321E+03  0.44477902309E+03  0.27920242316E+03  0.54863943720E+03  0.25500000920E-02 0.  1.
       -2    1    3    3    0  502  0.15881706321E+03 -0.44477902309E+03  0.25375808048E+02  0.47296423817E+03  0.25500000920E-02 0. -1.
</event>
<event>
 5   0  0.5072205E-03  0.1044952E+04  0.7818609E-02  0.9260571E-01
       -1   -1    0    0    0  501  0.00000000000E+00  0.00000000000E+00  0.24328431460E+03  0.24328431465E+03  0.50400001928E-02 0.  1.
        1   -1    0    0  501    0  0.00000000000E+00  0.00000000000E+00 -0.11220666946E+04  0.11220666947E+04  0.50400001928E-02 0. -1.
    10030    2    1    2    0    0  0.00000000000E+00  0.00000000000E+00 -0.87878238005E+03  0.13653510093E+04  0.10449521076E+04 0.  0.
        5    1    3    3  502    0  0.11352000816E+03 -0.28017321774E+03  0.11737945511E+03  0.32432059859E+03  0.46999998093E+01 0.  1.
       -5    1    3    3    0  502 -0.11352000816E+03  0.28017321774E+03 -0.99616183516E+03  0.10410304107E+04  0.46999998093E+01 0. -1.
</event>
<event>
 5   0  0.5072205E-03  0.1004334E+04  0.7818609E-02  0.9303804E-01
        1   -1    0    0  501    0  0.00000000000E+00  0.00000000000E+00  0.55084186941E+03  0.55084186943E+03  0.50400001928E-02 0. -1.
       -1   -1    0    0    0  501  0.00000000000E+00  0.00000000000E+00 -0.45779331442E+03  0.45779331444E+03  0.50400001928E-02 0.  1.
    10030    2    1    2    0    0  0.00000000000E+00  0.00000000000E+00  0.93048554992E+02  0.10086351839E+04  0.10043340583E+04 0.  0.
        5    1    3    3  502    0 -0.13487090466E+03 -0.34427845734E+03  0.38773187348E+03  0.53579465547E+03  0.46999998093E+01 0. -1.
       -5    1    3    3    0  502  0.13487090466E+03  0.34427845734E+03 -0.29468331849E+03  0.47284052841E+03  0.46999998093E+01 0.  1.
</event>
<event>
 5   0  0.9243773E-03  0.9899983E+03  0.7818609E-02  0.9319583E-01
       -2   -1    0    0    0  501  0.00000000000E+00  0.00000000000E+00  0.37192345997E+03  0.37192345998E+03  0.25500000920E-02 0.  1.
        2   -1    0    0  501    0  0.00000000000E+00  0.00000000000E+00 -0.65880260756E+03  0.65880260756E+03  0.25500000920E-02 0. -1.
    10030    2    1    2    0    0  0.00000000000E+00  0.00000000000E+00 -0.28687914759E+03  0.10307260675E+04  0.98999827322E+03 0.  0.
        3    1    3    3  502    0  0.35793650166E+03  0.33912479516E+03 -0.98057734384E+02  0.50273203140E+03  0.10100000352E+00 0.  1.
       -3    1    3    3    0  502 -0.35793650166E+03 -0.33912479516E+03 -0.18882141321E+03  0.52799403614E+03  0.10100000352E+00 0. -1.
</event>
<event>
 5   0  0.9243773E-03  0.9948061E+03  0.7818609E-02  0.9314260E-01
        2   -1    0    0  501    0  0.00000000000E+00  0.00000000000E+00  0.81473528331E+03  0.81473528331E+03  0.25500000920E-02 0. -1.
       -2   -1    0    0    0  501  0.00000000000E+00  0.00000000000E+00 -0.30366893957E+03  0.30366893958E+03  0.25500000920E-02 0.  1.
    10030    2    1    2    0    0  0.00000000000E+00  0.00000000000E+00  0.51106634374E+03  0.11184042229E+04  0.99480611080E+03 0.  0.
        3    1    3    3  502    0  0.89660203856E+02 -0.13261598450E+03  0.78498359663E+03  0.80113994326E+03  0.10100000352E+00 0. -1.
       -3    1    3    3    0  502 -0.89660203856E+02  0.13261598450E+03 -0.27391725289E+03  0.31726427963E+03  0.10100000352E+00 0.  1.
</event>
<event>
 5   0  0.8875655E-03  0.1007643E+04  0.7818609E-02  0.9300202E-01
        2   -1    0    0  501    0  0.00000000000E+00  0.00000000000E+00  0.18789510540E+04  0.18789510540E+04  0.25500000920E-02 0.  1.
       -2   -1    0    0    0  501  0.00000000000E+00  0.00000000000E+00 -0.13509446980E+03  0.13509446982E+03  0.25500000920E-02 0. -1.
    10030    2    1    2    0    0  0.00000000000E+00  0.00000000000E+00  0.17438565842E+04  0.20140455239E+04  0.10076425883E+04 0.  0.
        4    1    3    3  502    0  0.44349149997E+03 -0.23493032984E+03  0.96035692729E+03  0.10835884879E+04  0.12699999809E+01 0. -1.
       -4    1    3    3    0  502 -0.44349149997E+03  0.23493032984E+03  0.78349965695E+03  0.93045703596E+03  0.12699999809E+01 0.  1.
</event>
<event>
 5   0  0.9243773E-03  0.1010290E+04  0.7818609E-02  0.9297331E-01
       -2   -1    0    0    0  501  0.00000000000E+00  0.00000000000E+00  0.52826892452E+03  0.52826892452E+03  0.25500000920E-02 0. -1.
        2   -1    0    0  501    0  0.00000000000E+00  0.00000000000E+00 -0.48303304492E+03  0.48303304492E+03  0.25500000920E-02 0.  1.
    10030    2    1    2    0    0  0.00000000000E+00  0.00000000000E+00  0.45235879600E+02  0.10113019694E+04  0.10102897548E+04 0.  0.
        3    1    3    3  502    0  0.16917902806E+03  0.41310374104E+03  0.25927624166E+03  0.51623679072E+03  0.10100000352E+00 0. -1.
       -3    1    3    3    0  502 -0.16917902806E+03 -0.41310374104E+03 -0.21404036206E+03  0.49506517873E+03  0.10100000352E+00 0.  1.
</event>
<event>
 5   0  0.9040674E-03  0.9973132E+03  0.7818609E-02  0.9311497E-01
       -2   -1    0    0    0  501  0.00000000000E+00  0.00000000000E+00  0.64523894025E+03  0.64523894026E+03  0.25500000920E-02 0. -1.
        2   -1    0    0  501    0  0.00000000000E+00  0.00000000000E+00 -0.38537415816E+03  0.38537415817E+03  0.25500000920E-02 0.  1.
    10030    2    1    2    0    0  0.00000000000E+00  0.00000000000E+00  0.25986478210E+03  0.10306130984E+04  0.99731321744E+03 0.  0.
        1    1    3    3  502    0 -0.38545250839E+03 -0.19779783352E+03 -0.12521397736E+03  0.45097245960E+03  0.50400001928E-02 0.  1.
       -1    1    3    3    0  502  0.38545250839E+03  0.19779783352E+03  0.38507875945E+03  0.57964063882E+03  0.50400001928E-02 0. -1.
</event>
<event>
 5   0  0.9243773E-03  0.9938181E+03  0.7818609E-02  0.9315351E-01
        2   -1    0    0  501    0  0.00000000000E+00  0.00000000000E+00  0.14180033080E+04  0.14180033080E+04  0.25500000920E-02 0.  1.
       -2   -1    0    0    0  501  0.00000000000E+00  0.00000000000E+00 -0.17413118468E+03  0.17413118470E+03  0.25500000920E-02 0. -1.
    10030    2    1    2    0    0  0.00000000000E+00  0.00000000000E+00  0.12438721233E+04  0.15921344927E+04  0.99381808378E+03 0.  0.
        3    1    3    3  502    0 -0.94495679309E+02 -0.19344488504E+03 -0.95534234731E+02  0.23553589358E+03  0.10100000352E+00 0. -1.
       -3    1    3    3    0  502  0.94495679309E+02  0.19344488504E+03  0.13394063580E+04  0.13565985991E+04  0.10100000352E+00 0.  1.
</event>
<event>
 5   0  0.8907355E-03  0.9978415E+03  0.7818609E-02  0.9310915E-01
       -2   -1    0    0    0  501  0.00000000000E+00  0.00000000000E+00  0.26281705646E+03  0.26281705648E+03  0.25500000920E-02 0.  1.
        2   -1    0    0  501    0  0.00000000000E+00  0.00000000000E+00 -0.94713006908E+03  0.94713006908E+03  0.25500000920E-02 0. -1.
    10030    2    1    2    0    0  0.00000000000E+00  0.00000000000E+00 -0.68431301261E+03  0.12099471256E+04  0.99784154424E+03 0.  0.
        5    1    3    3  502    0 -0.89910650598E+02  0.48805308910E+03 -0.40422398083E+03  0.64007722936E+03  0.46999998093E+01 0.  1.
       -5    1    3    3    0  502  0.89910650598E+02 -0.48805308910E+03 -0.28008903179E+03  0.56986989620E+03  0.46999998093E+01 0. -1.
</event>
<event>
 5   0  0.5189877E-03  0.1071464E+04  0.7818609E-02  0.9233460E-01
        1   -1    0    0  501    0  0.00000000000E+00  0.00000000000E+00  0.85549153802E+03  0.85549153804E+03  0.50400001928E-02 0.  1.
       -1   -1    0    0    0  501  0.00000000000E+00  0.00000000000E+00 -0.33548990627E+03  0.33548990630E+03  0.50400001928E-02 0. -1.
    10030    2    1    2    0    0  0.00000000000E+00  0.00000000000E+00  0.52000163176E+03  0.11909814443E+04  0.10714640002E+04 0.  0.
        3    1    3    3  502    0  0.42089409591E+03 -0.32987749538E+03  0.22419309567E+03  0.57985649628E+03  0.10100000352E+00 0.  1.
       -3    1    3    3    0  502 -0.42089409591E+03  0.32987749538E+03  0.29580853609E+03  0.61112494807E+03  0.10100000352E+00 0. -1.
</event>
<event>
 5   0  0.3513625E-03  0.1012026E+04  0.7818609E-02  0.9295452E-01
        3   -1    0    0  501    0  0.00000000000E+00  0.00000000000E+00  0.71117002886E+03  0.71117003603E+03  0.10100000352E+00 0. -1.
       -3   -1    0    0    0  501  0.00000000000E+00  0.00000000000E+00 -0.36003953435E+03  0.36003954852E+03  0.10100000352E+00 0.  1.
    10030    2    1    2    0    0  0.00000000000E+00  0.00000000000E+00  0.35113049450E+03  0.10712095845E+04  0.10120263583E+04 0.  0.
        5    1    3    3  502    0 -0.21907956945E+03 -0.36160527929E+03 -0.11867125249E+03  0.43915736579E+03  0.46999998093E+01 0.  1.
       -5    1    3    3    0  502  0.21907956945E+03  0.36160527929E+03  0.46980174699E+03  0.63205221876E+03  0.46999998093E+01 0. -1.
</event>
<event>
 5   0  0.5310275E-03  0.9233969E+03  0.7818609E-02  0.9396798E-01
       -1   -1    0    0    0  501  0.00000000000E+00  0.00000000000E+00  0.18229421111E+03  0.18229421118E+03  0.50400001928E-02 0.  1.
        1   -1    0    0  501    0  0.00000000000E+00  0.00000000000E+00 -0.11693483953E+04  0.11693483953E+04  0.50400001928E-02 0. -1.
    10030    2    1    2    0    0  0.00000000000E+00  0.00000000000E+00 -0.98705418422E+03  0.13516426065E+04  0.92339686657E+03 0.  0.
        1    1    3    3  502    0 -0.27665597583E+03  0.16341605428E+03 -0.82207130548E+01  0.32142015479E+03  0.50400001928E-02 0.  1.
       -1    1    3    3    0  502  0.27665597583E+03 -0.16341605428E+03 -0.97883347117E+03  0.10302224517E+04  0.50400001928E-02 0. -1.
</event>
<event>
 5   0  0.5189877E-03  0.9928192E+03  0.7818609E-02  0.9316456E-01
       -1   -1    0    0    0  501  0.00000000000E+00  0.00000000000E+00  0.24429116320E+03  0.24429116326E+03  0.50400001928E-02 0.  1.
        1   -1    0    0  501    0  0.00000000000E+00  0.00000000000E+00 -0.10087245168E+04  0.10087245168E+04  0.50400001928E-02 0. -1.
    10030    2    1    2    0    0  0.00000000000E+00  0.00000000000E+00 -0.76443335359E+03  0.12530156801E+04  0.99281918918E+03 0.  0.
        3    1    3    3  502    0  0.48720188795E+03 -0.12942775195E+02 -0.26322416154E+03  0.55391349909E+03  0.10100000352E+00 0.  1.
       -3    1    3    3    0  502 -0.48720188795E+03  0.12942775195E+02 -0.50120919205E+03  0.69910218098E+03  0.10100000352E+00 0. -1.
</event>
<event>
 5   0  0.5349685E-03  0.1003081E+04  0.7818609E-02  0.9305172E-01
        1   -1    0    0  501    0  0.00000000000E+00  0.00000000000E+00  0.20950147851E+04  0.20950147851E+04  0.50400001928E-02 0.  1.
       -1   -1    0    0    0  501  0.00000000000E+00  0.00000000000E+00 -0.12006741398E+03  0.12006741409E+03  0.50400001928E-02 0. -1.
    10030    2    1    2    0    0  0.00000000000E+00  0.00000000000E+00  0.19749473711E+04  0.22150821992E+04  0.10030812682E+04 0.  0.
        4    1    3    3  502    0 -0.37160932927E+03  0.23391333362E+03  0.15226449649E+04  0.15846950001E+04  0.12699999809E+01 0.  1.
       -4    1    3    3    0  502  0.37160932927E+03 -0.23391333362E+03  0.45230240623E+03  0.63038719913E+03  0.12699999809E+01 0. -1.
</event>
<event>
 5   0  0.5349685E-03  0.9886360E+03  0.7818609E-02  0.9321097E-01
       -1   -1    0    0    0  501  0.00000000000E+00  0.00000000000E+00  0.83075239751E+03  0.83075239753E+03  0.50400001928E-02 0.  1.
        1   -1    0    0  501    0  0.00000000000E+00  0.00000000000E+00 -0.29413127705E+03  0.29413127709E+03  0.50400001928E-02 0. -1.
    10030    2    1    2    0    0  0.00000000000E+00  0.00000000000E+00  0.53662112046E+03  0.11248836746E+04  0.98863595651E+03 0.  0.
        4    1    3    3  502    0 -0.13332928596E+03  0.27533824748E+03  0.71010010259E+03  0.77319571754E+03  0.12699999809E+01 0.  1.
       -4    1    3    3    0  502  0.13332928596E+03 -0.27533824748E+03 -0.17347898213E+03  0.35168795709E+03  0.12699999809E+01 0. -1.
</event>
<event>
 5   0  0.8875655E-03  0.1086927E+04  0.7818609E-02  0.9218028E-01
       -2   -1    0    0    0  501  0.00000000000E+00  0.00000000000E+00  0.45091308617E+03  0.45091308618E+03  0.25500000920E-02 0.  1.
        2   -1    0    0  501    0  0.00000000000E+00  0.00000000000E+00 -0.65501028346E+03  0.65501028346E+03  0.25500000920E-02 0. -1.
    10030    2    1    2    0    0  0.00000000000E+00  0.00000000000E+00 -0.20409719729E+03  0.11059233696E+04  0.10869272439E+04 0.  0.
        4    1    3    3  502    0  0.72204482185E+02 -0.10567919093E+03  0.43535792737E+03  0.45378377722E+03  0.12699999809E+01 0.  1.
       -4    1    3    3    0  502 -0.72204482185E+02  0.10567919093E+03 -0.63945512466E+03  0.65213959242E+03  0.12699999809E+01 0. -1.
</event>
<event>
 5   0  0.8907355E-03  0.9999754E+03  0.7818609E-02  0.9308572E-01
       -2   -1    0    0    0  501  0.00000000000E+00  0.00000000000E+00  0.25760805965E+03  0.25760805967E+03  0.25500000920E-02 0.  1.
        2   -1    0    0  501    0  0.00000000000E+00  0.00000000000E+00 -0.97041881064E+03  0.97041881065E+03  0.25500000920E-02 0. -1.
    10030    2    1    2    0    0  0.00000000000E+00  0.00000000000E+00 -0.71281075099E+03  0.12280268703E+04  0.99997541344E+03 0.  0.
        5    1    3    3  502    0  0.12012731639E+03  0.31774440713E+03 -0.80690909427E+03  0.87550925570E+03  0.46999998093E+01 0. -1.
       -5    1    3    3    0  502 -0.12012731639E+03 -0.31774440713E+03  0.94098343281E+02  0.35251761461E+03  0.46999998093E+01 0.  1.
</event>
<event>
 5   0  0.5349685E-03  0.9935326E+03  0.7818609E-02  0.9315667E-01
       -1   -1    0    0    0  501  0.00000000000E+00  0.00000000000E+00  0.13323118244E+03  0.13323118254E+03  0.50400001928E-02 0.  1.
        1   -1    0    0  501    0  0.00000000000E+00  0.00000000000E+00 -0.18522446281E+04  0.18522446281E+04  0.50400001928E-02 0. -1.
    10030    2    1    2    0    0  0.00000000000E+00  0.00000000000E+00 -0.17190134456E+04  0.19854758106E+04  0.99353257033E+03 0.  0.
        4    1    3    3  502    0 -0.24656742693E+03 -0.82816968537E+02 -0.17052834356E+04  0.17250064797E+04  0.12699999809E+01 0. -1.
       -4    1    3    3    0  502  0.24656742693E+03  0.82816968537E+02 -0.13730010061E+02  0.26046933097E+03  0.12699999809E+01 0.  1.
</event>
<event>
 5   0  0.9243773E-03  0.1000371E+04  0.7818609E-02  0.9308138E-01
       -2   -1    0    0    0  501  0.00000000000E+00  0.00000000000E+00  0.24526535188E+03  0.24526535189E+03  0.25500000920E-02 0.  1.
        2   -1    0    0  501    0  0.00000000000E+00  0.00000000000E+00 -0.10200598104E+04  0.10200598104E+04  0.25500000920E-02 0. -1.
    10030    2    1    2    0    0  0.00000000000E+00  0.00000000000E+00 -0.77479445849E+03  0.12653251623E+04  0.10003705880E+04 0.  0.
        3    1    3    3  502    0 -0.37529843495E+03  0.29258972669E+03 -0.58223297436E+03  0.75196602986E+03  0.10100000352E+00 0.  1.
       -3    1    3    3    0  502  0.37529843495E+03 -0.29258972669E+03 -0.19256148414E+03  0.51335913240E+03  0.10100000352E+00 0. -1.
</event>
<event>
 5   0  0.9040674E-03  0.1002856E+04  0.7818609E-02  0.9305418E-01
        2   -1    0    0  501    0  0.00000000000E+00  0.00000000000E+00  0.97580238677E+03  0.97580238678E+03  0.25500000920E-02 0.  1.
       -2   -1    0    0    0  501  0.00000000000E+00  0.00000000000E+00 -0.25766494515E+03  0.25766494517E+03  0.25500000920E-02 0. -1.
    10030    2    1    2    0    0  0.00000000000E+00  0.00000000000E+00  0.71813744162E+03  0.12334673319E+04  0.10028560584E+04 0.  0.
        1    1    3    3  502    0  0.37566336183E+02  0.71738443424E+02  0.96770662977E+03  0.97108895330E+03  0.50400001928E-02 0.  1.
       -1    1    3    3    0  502 -0.37566336183E+02 -0.71738443424E+02 -0.24956918815E+03  0.26237837865E+03  0.50400001928E-02 0. -1.
</event>
<event>
 5   0  0.8968798E-03  0.9825861E+03  0.7818609E-02  0.9327853E-01
        2   -1    0    0  501    0  0.00000000000E+00  0.00000000000E+00  0.29632390129E+03  0.29632390130E+03  0.25500000920E-02 0.  1.
       -2   -1    0    0    0  501  0.00000000000E+00  0.00000000000E+00 -0.81454401646E+03  0.81454401646E+03  0.25500000920E-02 0. -1.
    10030    2    1    2    0    0  0.00000000000E+00  0.00000000000E+00 -0.51822011517E+03  0.11108679178E+04  0.98258609951E+03 0.  0.
        2    1    3    3  502    0 -0.35769933708E+03  0.22174821709E+03  0.27453426217E+02  0.42175203396E+03  0.25500000920E-02 0.  1.
       -2    1    3    3    0  502  0.35769933708E+03 -0.22174821709E+03 -0.54567354138E+03  0.68911588380E+03  0.25500000920E-02 0. -1.
</event>
<event>
 5   0  0.3513625E-03  0.1009019E+04  0.7818609E-02  0.9298708E-01
        4   -1    0    0  501    0  0.00000000000E+00  0.00000000000E+00  0.45226384026E+03  0.45226562340E+03  0.12699999809E+01 0. -1.
       -4   -1    0    0    0  501  0.00000000000E+00  0.00000000000E+00 -0.56278713160E+03  0.56278856456E+03  0.12699999809E+01 0.  1.
    10030    2    1    2    0    0  0.00000000000E+00  0.00000000000E+00 -0.11052329134E+03  0.10150541880E+04  0.10090191309E+04 0.  0.
        1    1    3    3  502    0 -0.87600354228E+02 -0.34996766478E+03  0.29952139905E+03  0.46889685110E+03  0.50400001928E-02 0. -1.
       -1    1    3    3    0  502  0.87600354228E+02  0.34996766478E+03 -0.41004469039E+03  0.54615733686E+03  0.50400001928E-02 0.  1.
</event>
<event>
 5   0  0.5349685E-03  0.9743820E+03  0.7818609E-02  0.9337097E-01
        1   -1    0    0  501    0  0.00000000000E+00  0.00000000000E+00  0.66292998207E+03  0.66292998209E+03  0.50400001928E-02 0.  1.
       -1   -1    0    0    0  501  0.00000000000E+00  0.00000000000E+00 -0.35803943110E+03  0.35803943113E+03  0.50400001928E-02 0. -1.
    10030    2    1    2    0    0  0.00000000000E+00  0.00000000000E+00  0.30489055097E+03  0.10209694132E+04  0.97438200653E+03 0.  0.
        4    1    3    3  502    0  0.20786673484E+03  0.38751049211E+03 -0.67296969059E+02  0.44486341263E+03  0.12699999809E+01 0. -1.
       -4    1    3    3    0  502 -0.20786673484E+03 -0.38751049211E+03  0.37218752003E+03  0.57610600059E+03  0.12699999809E+01 0.  1.
</event>
<event>
 5   0  0.8907355E-03  0.9938415E+03  0.7818609E-02  0.9315325E-01
        2   -1    0    0  501    0  0.00000000000E+00  0.00000000000E+00  0.62749348136E+03  0.62749348137E+03  0.25500000920E-02 0. -1.
       -2   -1    0    0    0  501  0.00000000000E+00  0.00000000000E+00 -0.39351836493E+03  0.39351836494E+03  0.25500000920E-02 0.  1.
    10030    2    1    2    0    0  0.00000000000E+00  0.00000000000E+00  0.23397511643E+03  0.10210118463E+04  0.99384145375E+03 0.  0.
        5    1    3    3  502    0 -0.10098671142E+02  0.49492606523E+03  0.16122669768E+03  0.52064376616E+03  0.46999998093E+01 0. -1.
       -5    1    3    3    0  502  0.10098671142E+02 -0.49492606523E+03  0.72748418754E+02  0.50036808015E+03  0.46999998093E+01 0.  1.
</event>
<event>
 5   0  0.3513625E-03  0.1004424E+04  0.7818609E-02  0.9303706E-01
        4   -1    0    0  501    0  0.00000000000E+00  0.00000000000E+00  0.26091888244E+03  0.26092197323E+03  0.12699999809E+01 0.  1.
       -4   -1    0    0    0  501  0.00000000000E+00  0.00000000000E+00 -0.96663861656E+03  0.96663945084E+03  0.12699999809E+01 0. -1.
    10030    2    1    2    0    0  0.00000000000E+00  0.00000000000E+00 -0.70571973411E+03  0.12275614241E+04  0.10044235694E+04 0.  0.
        4    1    3    3  502    0  0.27211804977E+03 -0.44716636927E+02  0.16010654407E+03  0.31887854896E+03  0.12699999809E+01 0.  1.
       -4    1    3    3    0  502 -0.27211804977E+03  0.44716636927E+02 -0.86582627819E+03  0.90868287512E+03  0.12699999809E+01 0. -1.
</event>
<event>
 5   0  0.5072205E-03  0.1011190E+04  0.7818609E-02  0.9296356E-01
       -1   -1    0    0    0  501  0.00000000000E+00  0.00000000000E+00  0.63983909496E+03  0.63983909498E+03  0.50400001928E-02 0.  1.
        1   -1    0    0  501    0  0.00000000000E+00  0.00000000000E+00 -0.39951674328E+03  0.39951674331E+03  0.50400001928E-02 0. -1.
    10030    2    1    2    0    0  0.00000000000E+00  0.00000000000E+00  0.24032235169E+03  0.10393558383E+04  0.10111902521E+04 0.  0.
        5    1    3    3  502    0  0.98517869639E+02  0.18271556139E+03  0.59399356520E+03  0.62923858155E+03  0.46999998093E+01 0.  1.
       -5    1    3    3    0  502 -0.98517869639E+02 -0.18271556139E+03 -0.35367121351E+03  0.41011725674E+03  0.46999998093E+01 0. -1.
</event>
<event>
 5   0  0.5349685E-03  0.1010407E+04  0.7818609E-02  0.9297204E-01
       -1   -1    0    0    0  501  0.00000000000E+00  0.00000000000E+00  0.35049430175E+03  0.35049430178E+03  0.50400001928E-02 0. -1.
        1   -1    0    0  501    0  0.00000000000E+00  0.00000000000E+00 -0.72820123155E+03  0.72820123156E+03  0.50400001928E-02 0.  1.
    10030    2    1    2    0    0  0.00000000000E+00  0.00000000000E+00 -0.37770692980E+03  0.10786955333E+04  0.10104066156E+04 0.  0.
        4    1    3    3  502    0  0.34228060629E+03  0.66180600974E+02  0.20149892727E+03  0.40266526542E+03  0.12699999809E+01 0. -1.
       -4    1    3    3    0  502 -0.34228060629E+03 -0.66180600974E+02 -0.57920585706E+03  0.67603026792E+03  0.12699999809E+01 0.  1.
</event>
<event>
 5   0  0.5189877E-03  0.1010598E+04  0.7818609E-02  0.9296997E-01
       -1   -1    0    0    0  501  0.00000000000E+00  0.00000000000E+00  0.25541117882E+03  0.25541117887E+03  0.50400001928E-02 0. -1.
        1   -1    0    0  501    0  0.00000000000E+00  0.00000000000E+00 -0.99967117799E+03  0.99967117801E+03  0.50400001928E-02 0.  1.
    10030    2    1    2    0    0  0.00000000000E+00  0.00000000000E+00 -0.74425999917E+03  0.12550823569E+04  0.10105982269E+04 0.  0.
        3    1    3    3  502    0  0.32640155004E+03 -0.10064295537E+03 -0.83458514465E+03  0.90177566512E+03  0.10100000352E+00 0.  1.
       -3    1    3    3    0  502 -0.32640155004E+03  0.10064295537E+03  0.90325145478E+02  0.35330669176E+03  0.10100000352E+00 0. -1.
</event>
<event>
 5   0  0.3513625E-03  0.1007962E+04  0.7818609E-02  0.9299855E-01
       -3   -1    0    0    0  501  0.00000000000E+00  0.00000000000E+00  0.60146131977E+03  0.60146132825E+03  0.10100000352E+00 0.  1.
        3   -1    0    0  501    0  0.00000000000E+00  0.00000000000E+00 -0.42229992628E+03  0.42229993836E+03  0.10100000352E+00 0. -1.
    10030    2    1    2    0    0  0.00000000000E+00  0.00000000000E+00  0.17916139349E+03  0.10237612666E+04  0.10079624626E+04 0.  0.
        4    1    3    3  502    0 -0.43416871768E+03  0.19119048743E+03  0.26236231068E+03  0.54211795106E+03  0.12699999809E+01 0.  1.
       -4    1    3    3    0  502  0.43416871768E+03 -0.19119048743E+03 -0.83200917187E+02  0.48164331555E+03  0.12699999809E+01 0. -1.
</event>
<event>
 5   0  0.5072205E-03  0.9107039E+03  0.7818609E-02  0.9412299E-01
        1   -1    0    0  501    0  0.00000000000E+00  0.00000000000E+00  0.10981520509E+03  0.10981520520E+03  0.50400001928E-02 0. -1.
       -1   -1    0    0    0  501  0.00000000000E+00  0.00000000000E+00 -0.18881302940E+04  0.18881302940E+04  0.50400001928E-02 0.  1.
    10030    2    1    2    0    0  0.00000000000E+00  0.00000000000E+00 -0.17783150889E+04  0.19979454992E+04  0.91070393781E+03 0.  0.
        5    1    3    3  502    0  0.34508403891E+02 -0.39282073232E+03 -0.38972892046E+03  0.55444537974E+03  0.46999998093E+01 0. -1.
       -5    1    3    3    0  502 -0.34508403891E+02  0.39282073232E+03 -0.13885861684E+04  0.14435001194E+04  0.46999998093E+01 0.  1.
</event>
<event>
 5   0  0.5310275E-03  0.9702880E+03  0.7818609E-02  0.9341746E-01
        1   -1    0    0  501    0  0.00000000000E+00  0.00000000000E+00  0.93452945770E+03  0.93452945771E+03  0.50400001928E-02 0.  1.
       -1   -1    0    0    0  501  0.00000000000E+00  0.00000000000E+00 -0.25185371456E+03  0.25185371461E+03  0.50400001928E-02 0. -1.
    10030    2    1    2    0    0  0.00000000000E+00  0.00000000000E+00  0.68267574314E+03  0.11863831723E+04  0.97028803008E+03 0.  0.
        1    1    3    3  502    0  0.14604250431E+03 -0.22614095317E+03  0.83483005280E+03  0.87715982628E+03  0.50400001928E-02 0.  1.
       -1    1    3    3    0  502 -0.14604250431E+03  0.22614095317E+03 -0.15215430966E+03  0.30922334604E+03  0.50400001928E-02 0. -1.
</event>
<event>
 5   0  0.5072205E-03  0.1002508E+04  0.7818609E-02  0.9305799E-01
       -1   -1    0    0    0  501  0.00000000000E+00  0.00000000000E+00  0.53493895893E+03  0.53493895896E+03  0.50400001928E-02 0.  1.
        1   -1    0    0  501    0  0.00000000000E+00  0.00000000000E+00 -0.46968993116E+03  0.46968993119E+03  0.50400001928E-02 0. -1.
    10030    2    1    2    0    0  0.00000000000E+00  0.00000000000E+00  0.65249027775E+02  0.10046288901E+04  0.10025077413E+04 0.  0.
        5    1    3    3  502    0  0.83813157261E+01  0.82595182430E+02 -0.46273011768E+03  0.47014195986E+03  0.46999998093E+01 0. -1.
       -5    1    3    3    0  502 -0.83813157261E+01 -0.82595182430E+02  0.52797914545E+03  0.53448693028E+03  0.46999998093E+01 0.  1.
</event>
<event>
 5   0  0.9040674E-03  0.9835145E+03  0.7818609E-02  0.9326813E-01
        2   -1    0    0  501    0  0.00000000000E+00  0.00000000000E+00  0.76758884094E+03  0.76758884095E+03  0.25500000920E-02 0. -1.
       -2   -1    0    0    0  501  0.00000000000E+00  0.00000000000E+00 -0.31504523387E+03  0.31504523388E+03  0.25500000920E-02 0.  1.
    10030    2    1    2    0    0  0.00000000000E+00  0.00000000000E+00  0.45254360707E+03  0.10826340748E+04  0.98351452642E+03 0.  0.
        1    1    3    3  502    0 -0.56864535949E+02 -0.38870544621E+03  0.55188665973E+03  0.67742481840E+03  0.50400001928E-02 0. -1.
       -1    1    3    3    0  502  0.56864535949E+02  0.38870544621E+03 -0.99343052664E+02  0.40520925644E+03  0.50400001928E-02 0.  1.
</event>
<event>
 5   0  0.5310275E-03  0.1002264E+04  0.7818609E-02  0.9306066E-01
       -1   -1    0    0    0  501  0.00000000000E+00  0.00000000000E+00  0.11600115413E+03  0.11600115423E+03  0.50400001928E-02 0.  1.
        1   -1    0    0  501    0  0.00000000000E+00  0.00000000000E+00 -0.21649190886E+04  0.21649190886E+04  0.50400001928E-02 0. -1.
    10030    2    1    2    0    0  0.00000000000E+00  0.00000000000E+00 -0.20489179345E+04  0.22809202429E+04  0.10022636639E+04 0.  0.
        1    1    3    3  502    0 -0.40214985844E+03 -0.17976718181E+03 -0.48068660623E+03  0.65199720991E+03  0.50400001928E-02 0.  1.
       -1    1    3    3    0  502  0.40214985844E+03  0.17976718181E+03 -0.15682313283E+04  0.16289230330E+04  0.50400001928E-02 0. -1.
</event>
<event>
 5   0  0.8875655E-03  0.9655300E+03  0.7818609E-02  0.9347180E-01
        2   -1    0    0  501    0  0.00000000000E+00  0.00000000000E+00  0.57204734528E+03  0.57204734529E+03  0.25500000920E-02 0.  1.
       -2   -1    0    0    0  501  0.00000000000E+00  0.00000000000E+00 -0.40741743046E+03  0.40741743047E+03  0.25500000920E-02 0. -1.
    10030    2    1    2    0    0  0.00000000000E+00  0.00000000000E+00  0.16462991482E+03  0.97946477576E+03  0.96553002962E+03 0.  0.
        4    1    3    3  502    0 -0.85848761032E+02 -0.43197553578E+03  0.28287406621E+03  0.52344266498E+03  0.12699999809E+01 0.  1.
       -4    1    3    3    0  502  0.85848761032E+02  0.43197553578E+03 -0.11824415139E+03  0.45602211078E+03  0.12699999809E+01 0. -1.
</event>
<event>
 5   0  0.8907355E-03  0.9862161E+03  0.7818609E-02  0.9323793E-01
        2   -1    0    0  501    0  0.00000000000E+00  0.00000000000E+00  0.50411189233E+03  0.50411189234E+03  0.25500000920E-02 0.  1.
       -2   -1    0    0    0  501  0.00000000000E+00  0.00000000000E+00 -0.48234444680E+03  0.48234444681E+03  0.25500000920E-02 0. -1.
    10030    2    1    2    0    0  0.00000000000E+00  0.00000000000E+00  0.21767445526E+02  0.98645633915E+03  0.98621614637E+03 0.  0.
        5    1    3    3  502    0  0.76492644477E+02 -0.19701116927E+03  0.45649077197E+03  0.50306107021E+03  0.46999998093E+01 0.  1.
       -5    1    3    3    0  502 -0.76492644477E+02  0.19701116927E+03 -0.43472332644E+03  0.48339526893E+03  0.46999998093E+01 0. -1.
</event>
<event>
 5   0  0.5201968E-03  0.9951894E+03  0.7818609E-02  0.9313837E-01
        1   -1    0    0  501    0  0.00000000000E+00  0.00000000000E+00  0.40650818675E+03  0.40650818678E+03  0.50400001928E-02 0. -1.
       -1   -1    0    0    0  501  0.00000000000E+00  0.00000000000E+00 -0.60909097401E+03  0.60909097403E+03  0.50400001928E-02 0.  1.
    10030    2    1    2    0    0  0.00000000000E+00  0.00000000000E+00 -0.20258278726E+03  0.10155991608E+04  0.99518936377E+03 0.  0.
        2    1    3    3  502    0  0.16843907910E+03  0.45827377765E+03 -0.33338039495E+01  0.48825986207E+03  0.25500000920E-02 0. -1.
       -2    1    3    3    0  502 -0.16843907910E+03 -0.45827377765E+03 -0.19924898331E+03  0.52733929875E+03  0.25500000920E-02 0.  1.
</event>
<event>
 5   0  0.5310275E-03  0.9324379E+03  0.7818609E-02  0.9385917E-01
        1   -1    0    0  501    0  0.00000000000E+00  0.00000000000E+00  0.74800352193E+03  0.74800352194E+03  0.50400001928E-02 0.  1.
       -1   -1    0    0    0  501  0.00000000000E+00  0.00000000000E+00 -0.29058703796E+03  0.29058703800E+03  0.50400001928E-02 0. -1.
    10030    2    1    2    0    0  0.00000000000E+00  0.00000000000E+00  0.45741648397E+03  0.10385905599E+04  0.93243793970E+03 0.  0.
        1    1    3    3  502    0 -0.25403674501E+03 -0.16197789673E+03  0.62500614031E+03  0.69383296426E+03  0.50400001928E-02 0.  1.
       -1    1    3    3    0  502  0.25403674501E+03  0.16197789673E+03 -0.16758965634E+03  0.34475759568E+03  0.50400001928E-02 0. -1.
</event>
<event>
 5   0  0.8968798E-03  0.1006737E+04  0.7818609E-02  0.9301187E-01
        2   -1    0    0  501    0  0.00000000000E+00  0.00000000000E+00  0.13262150333E+04  0.13262150333E+04  0.25500000920E-02 0.  1.
       -2   -1    0    0    0  501  0.00000000000E+00  0.00000000000E+00 -0.19105475285E+03  0.19105475287E+03  0.25500000920E-02 0. -1.
    10030    2    1    2    0    0  0.00000000000E+00  0.00000000000E+00  0.11351602805E+04  0.15172697862E+04  0.10067366794E+04 0.  0.
        2    1    3    3  502    0 -0.46257822616E+03  0.73288592425E+02  0.28955955706E+03  0.55063106540E+03  0.25500000920E-02 0.  1.
       -2    1    3    3    0  502  0.46257822616E+03 -0.73288592425E+02  0.84560072343E+03  0.96663872081E+03  0.25500000920E-02 0. -1.
</event>
<event>
 5   0  0.5189877E-03  0.9186694E+03  0.7818609E-02  0.9402540E-01
        1   -1    0    0  501    0  0.00000000000E+00  0.00000000000E+00  0.22175342338E+03  0.22175342343E+03  0.50400001928E-02 0.  1.
       -1   -1    0    0    0  501  0.00000000000E+00  0.00000000000E+00 -0.95145476465E+03  0.95145476466E+03  0.50400001928E-02 0. -1.
    10030    2    1    2    0    0  0.00000000000E+00  0.00000000000E+00 -0.72970134127E+03  0.11732081881E+04  0.91866936662E+03 0.  0.
        3    1    3    3  502    0  0.18460401793E+03  0.99237653165E+02 -0.88683101588E+03  0.91126067411E+03  0.10100000352E+00 0. -1.
       -3    1    3    3    0  502 -0.18460401793E+03 -0.99237653165E+02  0.15712967461E+03  0.26194751399E+03  0.10100000352E+00 0.  1.
</event>
<event>
 5   0  0.5189877E-03  0.9975581E+03  0.7818609E-02  0.9311227E-01
       -1   -1    0    0    0  501  0.00000000000E+00  0.00000000000E+00  0.20636091733E+03  0.20636091739E+03  0.50400001928E-02 0. -1.
        1   -1    0    0  501    0  0.00000000000E+00  0.00000000000E+00 -0.12055604619E+04  0.12055604619E+04  0.50400001928E-02 0.  1.
    10030    2    1    2    0    0  0.00000000000E+00  0.00000000000E+00 -0.99919954457E+03  0.14119213793E+04  0.99755814441E+03 0.  0.
        3    1    3    3  502    0  0.30266414511E+03  0.97259845169E+02 -0.10435827576E+04  0.10909308156E+04  0.10100000352E+00 0.  1.
       -3    1    3    3    0  502 -0.30266414511E+03 -0.97259845169E+02  0.44383213014E+02  0.32099056374E+03  0.10100000352E+00 0. -1.
</event>
<event>
 5   0  0.8968798E-03  0.9961067E+03  0.7818609E-02  0.9312825E-01
       -2   -1    0    0    0  501  0.00000000000E+00  0.00000000000E+00  0.87697795774E+03  0.87697795774E+03  0.25500000920E-02 0. -1.
        2   -1    0    0  501    0  0.00000000000E+00  0.00000000000E+00 -0.28285445376E+03  0.28285445377E+03  0.25500000920E-02 0.  1.
    10030    2    1    2    0    0  0.00000000000E+00  0.00000000000E+00  0.59412350398E+03  0.11598324115E+04  0.99610666338E+03 0.  0.
        2    1    3    3  502    0 -0.79018039265E+02  0.43320116480E+03  0.26112028410E+02  0.44112236143E+03  0.25500000920E-02 0.  1.
       -2    1    3    3    0  502  0.79018039265E+02 -0.43320116480E+03  0.56801147557E+03  0.71871005009E+03  0.25500000920E-02 0. -1.
</event>
<event>
 5   0  0.5189877E-03  0.9713816E+03  0.7818609E-02  0.9340502E-01
       -1   -1    0    0    0  501  0.00000000000E+00  0.00000000000E+00  0.73249685681E+03  0.73249685683E+03  0.50400001928E-02 0. -1.
        1   -1    0    0  501    0  0.00000000000E+00  0.00000000000E+00 -0.32204312460E+03  0.32204312464E+03  0.50400001928E-02 0.  1.
    10030    2    1    2    0    0  0.00000000000E+00  0.00000000000E+00  0.41045373221E+03  0.10545399815E+04  0.97138164808E+03 0.  0.
        3    1    3    3  502    0 -0.44815131632E+03  0.16730204090E+03  0.11397122926E+03  0.49175098018E+03  0.10100000352E+00 0. -1.
       -3    1    3    3    0  502  0.44815131632E+03 -0.16730204090E+03  0.29648250294E+03  0.56278900128E+03  0.10100000352E+00 0.  1.
</event>
<event>
 5   0  0.9243773E-03  0.1008394E+04  0.7818609E-02  0.9299386E-01
       -2   -1    0    0    0  501  0.00000000000E+00  0.00000000000E+00  0.22125726792E+03  0.22125726793E+03  0.25500000920E-02 0. -1.
        2   -1    0    0  501    0  0.00000000000E+00  0.00000000000E+00 -0.11489551371E+04  0.11489551371E+04  0.25500000920E-02 0.  1.
    10030    2    1    2    0    0  0.00000000000E+00  0.00000000000E+00 -0.92769786913E+03  0.13702124050E+04  0.10083941186E+04 0.  0.
        3    1    3    3  502    0 -0.35105809452E+03 -0.93681837500E+02 -0.93884185633E+03  0.10066986211E+04  0.10100000352E+00 0.  1.
       -3    1    3    3    0  502  0.35105809452E+03  0.93681837500E+02  0.11143987192E+02  0.36351378386E+03  0.10100000352E+00 0. -1.
</event>
<event>
 5   0  0.9243773E-03  0.9662883E+03  0.7818609E-02  0.9346312E-01
        2   -1    0    0  501    0  0.00000000000E+00  0.00000000000E+00  0.11132183427E+04  0.11132183427E+04  0.25500000920E-02 0.  1.
       -2   -1    0    0    0  501  0.00000000000E+00  0.00000000000E+00 -0.20968778412E+03  0.20968778413E+03  0.25500000920E-02 0. -1.
    10030    2    1    2    0    0  0.00000000000E+00  0.00000000000E+00  0.90353055857E+03  0.13229061268E+04  0.96628833695E+03 0.  0.
        3    1    3    3  502    0  0.61785586139E+01  0.27646322103E+03  0.99415853575E+03  0.10319017839E+04  0.10100000352E+00 0.  1.
       -3    1    3    3    0  502 -0.61785586139E+01 -0.27646322103E+03 -0.90627977177E+02  0.29100434295E+03  0.10100000352E+00 0. -1.
</event>
<event>
 5   0  0.8968798E-03  0.9714692E+03  0.7818609E-02  0.9340402E-01
        2   -1    0    0  501    0  0.00000000000E+00  0.00000000000E+00  0.28245939549E+03  0.28245939550E+03  0.25500000920E-02 0.  1.
       -2   -1    0    0    0  501  0.00000000000E+00  0.00000000000E+00 -0.83529926137E+03  0.83529926137E+03  0.25500000920E-02 0. -1.
    10030    2    1    2    0    0  0.00000000000E+00  0.00000000000E+00 -0.55283986589E+03  0.11177586569E+04  0.97146924691E+03 0.  0.
        2    1    3    3  502    0  0.40382290802E+03  0.16497588553E+03 -0.30592395345E+02  0.43729381256E+03  0.25500000920E-02 0.  1.
       -2    1    3    3    0  502 -0.40382290802E+03 -0.16497588553E+03 -0.52224747054E+03  0.68046484431E+03  0.25500000920E-02 0. -1.
</event>
<event>
 5   0  0.5349685E-03  0.1002634E+04  0.7818609E-02  0.9305661E-01
        1   -1    0    0  501    0  0.00000000000E+00  0.00000000000E+00  0.44569594930E+03  0.44569594933E+03  0.50400001928E-02 0.  1.
       -1   -1    0    0    0  501  0.00000000000E+00  0.00000000000E+00 -0.56387932041E+03  0.56387932044E+03  0.50400001928E-02 0. -1.
    10030    2    1    2    0    0  0.00000000000E+00  0.00000000000E+00 -0.11818337111E+03  0.10095752698E+04  0.10026339891E+04 0.  0.
        4    1    3    3  502    0  0.20194923273E+03 -0.18774626003E+03 -0.48066063375E+03  0.55413753572E+03  0.12699999809E+01 0. -1.
       -4    1    3    3    0  502 -0.20194923273E+03  0.18774626003E+03  0.36247726265E+03  0.45543773404E+03  0.12699999809E+01 0.  1.
</event>
<event>
 5   0  0.9040674E-03  0.1008805E+04  0.7818609E-02  0.9298940E-01
       -2   -1    0    0    0  501  0.00000000000E+00  0.00000000000E+00  0.14243878173E+03  0.14243878175E+03  0.25500000920E-02 0.  1.
        2   -1    0    0  501    0  0.00000000000E+00  0.00000000000E+00 -0.17861845344E+04  0.17861845344E+04  0.25500000920E-02 0. -1.
    10030    2    1    2    0    0  0.00000000000E+00  0.00000000000E+00 -0.16437457527E+04  0.19286233162E+04  0.10088051329E+04 0.  0.
        1    1    3    3  502    0 -0.42257355979E+02 -0.43457473467E+03 -0.13046937221E+04  0.13758148832E+04  0.50400001928E-02 0. -1.
       -1    1    3    3    0  502  0.42257355979E+02  0.43457473467E+03 -0.33905203054E+03  0.55280843299E+03  0.50400001928E-02 0.  1.
</event>
<event>
 5   0  0.8968798E-03  0.9417171E+03  0.7818609E-02  0.9374885E-01
        2   -1    0    0  501    0  0.00000000000E+00  0.00000000000E+00  0.75909016351E+03  0.75909016351E+03  0.25500000920E-02 0.  1.
       -2   -1    0    0    0  501  0.00000000000E+00  0.00000000000E+00 -0.29207038700E+03  0.29207038701E+03  0.25500000920E-02 0. -1.
    10030    2    1    2    0    0  0.00000000000E+00  0.00000000000E+00  0.46701977651E+03  0.10511605505E+04  0.94171706543E+03 0.  0.
        2    1    3    3  502    0 -0.34704351175E+03  0.29622010532E+03  0.36330920870E+03  0.58324877280E+03  0.25500000920E-02 0.  1.
       -2    1    3    3    0  502  0.34704351175E+03 -0.29622010532E+03  0.10371056781E+03  0.46791177771E+03  0.25500000920E-02 0. -1.
</event>
<event>
 5   0  0.9040674E-03  0.1027209E+04  0.7818609E-02  0.9279195E-01
        2   -1    0    0  501    0  0.00000000000E+00  0.00000000000E+00  0.21852310295E+04  0.21852310295E+04  0.25500000920E-02 0.  1.
       -2   -1    0    0    0  501  0.00000000000E+00  0.00000000000E+00 -0.12071484189E+03  0.12071484192E+03  0.25500000920E-02 0. -1.
    10030    2    1    2    0    0  0.00000000000E+00  0.00000000000E+00  0.20645161876E+04  0.23059458714E+04  0.10272094592E+04 0.  0.
        1    1    3    3  502    0  0.33007659377E+03  0.27764323444E+03  0.16582231041E+04  0.17134001828E+04  0.50400001928E-02 0.  1.
       -1    1    3    3    0  502 -0.33007659377E+03 -0.27764323444E+03  0.40629308353E+03  0.59254568865E+03  0.50400001928E-02 0. -1.
</event>
<event>
 5   0  0.9243773E-03  0.9941510E+03  0.7818609E-02  0.9314983E-01
       -2   -1    0    0    0  501  0.00000000000E+00  0.00000000000E+00  0.33383301202E+03  0.33383301203E+03  0.25500000920E-02 0.  1.
        2   -1    0    0  501    0  0.00000000000E+00  0.00000000000E+00 -0.74014260905E+03  0.74014260905E+03  0.25500000920E-02 0. -1.
    10030    2    1    2    0    0  0.00000000000E+00  0.00000000000E+00 -0.40630959703E+03  0.10739756211E+04  0.99415096743E+03 0.  0.
        3    1    3    3  502    0  0.41502853839E+03 -0.42975120040E+02 -0.49501120879E+03  0.64740378100E+03  0.10100000352E+00 0. -1.
       -3    1    3    3    0  502 -0.41502853839E+03  0.42975120040E+02  0.88701611758E+02  0.42657184008E+03  0.10100000352E+00 0.  1.
</event>
<event>
 5   0  0.3513625E-03  0.9967796E+03  0.7818609E-02  0.9312084E-01
        4   -1    0    0  501    0  0.00000000000E+00  0.00000000000E+00  0.25518082506E+03  0.25518398535E+03  0.12699999809E+01 0.  1.
       -4   -1    0    0    0  501  0.00000000000E+00  0.00000000000E+00 -0.97338789635E+03  0.97338872485E+03  0.12699999809E+01 0. -1.
    10030    2    1    2    0    0  0.00000000000E+00  0.00000000000E+00 -0.71820707129E+03  0.12285727102E+04  0.99677956790E+03 0.  0.
        5    1    3    3  502    0  0.36294476739E+03  0.13029042702E+03  0.30008610701E+02  0.38681663132E+03  0.46999998093E+01 0.  1.
       -5    1    3    3    0  502 -0.36294476739E+03 -0.13029042702E+03 -0.74821568199E+03  0.84175607888E+03  0.46999998093E+01 0. -1.
</event>
<event>
 5   0  0.9040674E-03  0.1033944E+04  0.7818609E-02  0.9272080E-01
       -2   -1    0    0    0  501  0.00000000000E+00  0.00000000000E+00  0.22367652830E+03  0.22367652831E+03  0.25500000920E-02 0. -1.
        2   -1    0    0  501    0  0.00000000000E+00  0.00000000000E+00 -0.11948500443E+04  0.11948500443E+04  0.25500000920E-02 0.  1.
    10030    2    1    2    0    0  0.00000000000E+00  0.00000000000E+00 -0.97117351596E+03  0.14185265726E+04  0.10339437311E+04 0.  0.
        1    1    3    3  502    0 -0.28303518331E+03 -0.29368875684E+03 -0.49792349234E+02  0.41090300431E+03  0.50400001928E-02 0. -1.
       -1    1    3    3    0  502  0.28303518331E+03  0.29368875684E+03 -0.92138116672E+03  0.10076235683E+04  0.50400001928E-02 0.  1.
</event>
<event>
 5   0  0.8875655E-03  0.1003152E+04  0.7818609E-02  0.9305094E-01
        2   -1    0    0  501    0  0.00000000000E+00  0.00000000000E+00  0.28482878336E+03  0.28482878337E+03  0.25500000920E-02 0.  1.
       -2   -1    0    0    0  501  0.00000000000E+00  0.00000000000E+00 -0.88326283753E+03  0.88326283753E+03  0.25500000920E-02 0. -1.
    10030    2    1    2    0    0  0.00000000000E+00  0.00000000000E+00 -0.59843405417E+03  0.11680916209E+04  0.10031523900E+04 0.  0.
        4    1    3    3  502    0 -0.37444702955E+03 -0.32571786971E+03 -0.38378283366E+03  0.62737037299E+03  0.12699999809E+01 0. -1.
       -4    1    3    3    0  502  0.37444702955E+03  0.32571786971E+03 -0.21465122051E+03  0.54072124792E+03  0.12699999809E+01 0.  1.
</event>
<event>
 5   0  0.5310275E-03  0.9996167E+03  0.7818609E-02  0.9308965E-01
        1   -1    0    0  501    0  0.00000000000E+00  0.00000000000E+00  0.17357255615E+04  0.17357255615E+04  0.50400001928E-02 0. -1.
       -1   -1    0    0    0  501  0.00000000000E+00  0.00000000000E+00 -0.14392159371E+03  0.14392159380E+03  0.50400001928E-02 0.  1.
    10030    2    1    2    0    0  0.00000000000E+00  0.00000000000E+00  0.15918039678E+04  0.18796471553E+04  0.99961670483E+03 0.  0.
        1    1    3    3  502    0 -0.13637626186E+03  0.62770372833E+02  0.16923263997E+04  0.16989724093E+04  0.50400001928E-02 0. -1.
       -1    1    3    3    0  502  0.13637626186E+03 -0.62770372833E+02 -0.10052243189E+03  0.18067474600E+03  0.50400001928E-02 0.  1.
</event>
<event>
 5   0  0.5201968E-03  0.9979840E+03  0.7818609E-02  0.9310759E-01
       -1   -1    0    0    0  501  0.00000000000E+00  0.00000000000E+00  0.12234122163E+03  0.12234122173E+03  0.50400001928E-02 0.  1.
        1   -1    0    0  501    0  0.00000000000E+00  0.00000000000E+00 -0.20352338874E+04  0.20352338875E+04  0.50400001928E-02 0. -1.
    10030    2    1    2    0    0  0.00000000000E+00  0.00000000000E+00 -0.19128926658E+04  0.21575751092E+04  0.99798396824E+03 0.  0.
        2    1    3    3  502    0 -0.17737184274E+03 -0.38749588024E+02  0.48401022708E+02  0.18789614199E+03  0.25500000920E-02 0.  1.
       -2    1    3    3    0  502  0.17737184274E+03  0.38749588024E+02 -0.19612936885E+04  0.19696789672E+04  0.25500000920E-02 0. -1.
</event>
<event>
 5   0  0.5072205E-03  0.9931654E+03  0.7818609E-02  0.9316073E-01
        1   -1    0    0  501    0  0.00000000000E+00  0.00000000000E+00  0.47336838288E+03  0.47336838291E+03  0.50400001928E-02 0. -1.
       -1   -1    0    0    0  501  0.00000000000E+00  0.00000000000E+00 -0.52093546214E+03  0.52093546217E+03  0.50400001928E-02 0.  1.
    10030    2    1    2    0    0  0.00000000000E+00  0.00000000000E+00 -0.47567079264E+02  0.99430384508E+03  0.99316539876E+03 0.  0.
        5    1    3    3  502    0 -0.12312515874E+03 -0.89359597317E+02 -0.49700638297E+03  0.51979070505E+03  0.46999998093E+01 0.  1.
       -5    1    3    3    0  502  0.12312515874E+03  0.89359597317E+02  0.44943930370E+03  0.47451314003E+03  0.46999998093E+01 0. -1.
</event>
<event>
 5   0  0.5072205E-03  0.1002135E+04  0.7818609E-02  0.9306206E-01
        1   -1    0    0  501    0  0.00000000000E+00  0.00000000000E+00  0.23032968110E+04  0.23032968111E+04  0.50400001928E-02 0. -1.
       -1   -1    0    0    0  501  0.00000000000E+00  0.00000000000E+00 -0.10900406725E+03  0.10900406737E+03  0.50400001928E-02 0.  1.
    10030    2    1    2    0    0  0.00000000000E+00  0.00000000000E+00  0.21942927438E+04  0.24123008784E+04  0.10021351618E+04 0.  0.
        5    1    3    3  502    0  0.24935768861E+02 -0.27603845968E+03  0.21019094325E+04  0.21201095199E+04  0.46999998093E+01 0. -1.
       -5    1    3    3    0  502 -0.24935768861E+02  0.27603845968E+03  0.92383311244E+02  0.29219135851E+03  0.46999998093E+01 0.  1.
</event>
<event>
 5   0  0.5189877E-03  0.1195854E+04  0.7818609E-02  0.9116494E-01
        1   -1    0    0  501    0  0.00000000000E+00  0.00000000000E+00  0.81565048894E+03  0.81565048896E+03  0.50400001928E-02 0. -1.
       -1   -1    0    0    0  501  0.00000000000E+00  0.00000000000E+00 -0.43832066487E+03  0.43832066490E+03  0.50400001928E-02 0.  1.
    10030    2    1    2    0    0  0.00000000000E+00  0.00000000000E+00  0.37732982407E+03  0.12539711539E+04  0.11958536109E+04 0.  0.
        3    1    3    3  502    0  0.46054043944E+03  0.37620056892E+03  0.12324635422E+03  0.60730061621E+03  0.10100000352E+00 0.  1.
       -3    1    3    3    0  502 -0.46054043944E+03 -0.37620056892E+03  0.25408346985E+03  0.64667053765E+03  0.10100000352E+00 0. -1.
</event>
<event>
 5   0  0.8875655E-03  0.9745831E+03  0.7818609E-02  0.9336869E-01
       -2   -1    0    0    0  501  0.00000000000E+00  0.00000000000E+00  0.20874779323E+03  0.20874779325E+03  0.25500000920E-02 0.  1.
        2   -1    0    0  501    0  0.00000000000E+00  0.00000000000E+00 -0.11375117700E+04  0.11375117700E+04  0.25500000920E-02 0. -1.
    10030    2    1    2    0    0  0.00000000000E+00  0.00000000000E+00 -0.92876397676E+03  0.13462595632E+04  0.97458313504E+03 0.  0.
        4    1    3    3  502    0  0.20039221143E+03  0.31915787378E+03 -0.89111717244E+03  0.96752788834E+03  0.12699999809E+01 0. -1.
       -4    1    3    3    0  502 -0.20039221143E+03 -0.31915787378E+03 -0.37646804323E+02  0.37873167491E+03  0.12699999809E+01 0.  1.
</event>
<event>
 5   0  0.5310275E-03  0.1002153E+04  0.7818609E-02  0.9306186E-01
       -1   -1    0    0    0  501  0.00000000000E+00  0.00000000000E+00  0.15538499627E+03  0.15538499635E+03  0.50400001928E-02 0.  1.
        1   -1    0    0  501    0  0.00000000000E+00  0.00000000000E+00 -0.16158437121E+04  0.16158437121E+04  0.50400001928E-02 0. -1.
    10030    2    1    2    0    0  0.00000000000E+00  0.00000000000E+00 -0.14604587158E+04  0.17712287085E+04  0.10021534199E+04 0.  0.
        1    1    3    3  502    0 -0.41051265072E+03  0.24571914296E+03 -0.99344681928E+03  0.11026491357E+04  0.50400001928E-02 0. -1.
       -1    1    3    3    0  502  0.41051265072E+03 -0.24571914296E+03 -0.46701189656E+03  0.66857957280E+03  0.50400001928E-02 0.  1.
</event>
<event>
 5   0  0.8907355E-03  0.1110939E+04  0.7818609E-02  0.9194595E-01
        2   -1    0    0  501    0  0.00000000000E+00  0.00000000000E+00  0.52046193720E+03  0.52046193721E+03  0.25500000920E-02 0. -1.
       -2   -1    0    0    0  501  0.00000000000E+00  0.00000000000E+00 -0.59283145358E+03  0.59283145359E+03  0.25500000920E-02 0.  1.
    10030    2    1    2    0    0  0.00000000000E+00  0.00000000000E+00 -0.72369516380E+02  0.11132933908E+04  0.11109387144E+04 0.  0.
        5    1    3    3  502    0 -0.51893473021E+03  0.12433525753E+03 -0.19069198361E+03  0.56669042086E+03  0.46999998093E+01 0.  1.
       -5    1    3    3    0  502  0.51893473021E+03 -0.12433525753E+03  0.11832246724E+03  0.54660296993E+03  0.46999998093E+01 0. -1.
</event>
<event>
 5   0  0.8907355E-03  0.9978051E+03  0.7818609E-02  0.9310955E-01
        2   -1    0    0  501    0  0.00000000000E+00  0.00000000000E+00  0.12220511473E+04  0.12220511473E+04  0.25500000920E-02 0. -1.
       -2   -1    0    0    0  501  0.00000000000E+00  0.00000000000E+00 -0.20367704318E+03  0.20367704319E+03  0.25500000920E-02 0.  1.
    10030    2    1    2    0    0  0.00000000000E+00  0.00000000000E+00  0.10183741042E+04  0.14257281905E+04  0.99780511987E+03 0.  0.
        5    1    3    3  502    0  0.29771674598E+03  0.27952309857E+03  0.99740110089E+02  0.42040290559E+03  0.46999998093E+01 0.  1.
       -5    1    3    3    0  502 -0.29771674598E+03 -0.27952309857E+03  0.91863399406E+03  0.10053252849E+04  0.46999998093E+01 0. -1.
</event>
<event>
 5   0  0.8907355E-03  0.9996893E+03  0.7818609E-02  0.9308886E-01
       -2   -1    0    0    0  501  0.00000000000E+00  0.00000000000E+00  0.93724614963E+03  0.93724614964E+03  0.25500000920E-02 0.  1.
        2   -1    0    0  501    0  0.00000000000E+00  0.00000000000E+00 -0.26657314129E+03  0.26657314130E+03  0.25500000920E-02 0. -1.
    10030    2    1    2    0    0  0.00000000000E+00  0.00000000000E+00  0.67067300835E+03  0.12038192909E+04  0.99968925227E+03 0.  0.
        5    1    3    3  502    0  0.54380152279E+02  0.47629161482E+03  0.50568480282E+03  0.69681426012E+03  0.46999998093E+01 0.  1.
       -5    1    3    3    0  502 -0.54380152279E+02 -0.47629161482E+03  0.16498820553E+03  0.50700503082E+03  0.46999998093E+01 0. -1.
</event>
<event>
 5   0  0.8968798E-03  0.9930259E+03  0.7818609E-02  0.9316227E-01
       -2   -1    0    0    0  501  0.00000000000E+00  0.00000000000E+00  0.14084047172E+03  0.14084047174E+03  0.25500000920E-02 0. -1.
        2   -1    0    0  501    0  0.00000000000E+00  0.00000000000E+00 -0.17503855964E+04  0.17503855964E+04  0.25500000920E-02 0.  1.
    10030    2    1    2    0    0  0.00000000000E+00  0.00000000000E+00 -0.16095451247E+04  0.18912260682E+04  0.99302594753E+03 0.  0.
        2    1    3    3  502    0  0.46538274943E+03 -0.13773922543E+03 -0.60528102818E+03  0.77583395180E+03  0.25500000920E-02 0. -1.
       -2    1    3    3    0  502 -0.46538274943E+03  0.13773922543E+03 -0.10042640965E+04  0.11153921164E+04  0.25500000920E-02 0.  1.
</event>
<event>
 5   0  0.5349685E-03  0.9972727E+03  0.7818609E-02  0.9311541E-01
       -1   -1    0    0    0  501  0.00000000000E+00  0.00000000000E+00  0.22109922671E+03  0.22109922676E+03  0.50400001928E-02 0.  1.
        1   -1    0    0  501    0  0.00000000000E+00  0.00000000000E+00 -0.11245547773E+04  0.11245547773E+04  0.50400001928E-02 0. -1.
    10030    2    1    2    0    0  0.00000000000E+00  0.00000000000E+00 -0.90345555058E+03  0.13456540041E+04  0.99727266421E+03 0.  0.
        4    1    3    3  502    0  0.47175237540E+03  0.14963625714E+03 -0.53375203607E+03  0.72789708205E+03  0.12699999809E+01 0. -1.
       -4    1    3    3    0  502 -0.47175237540E+03 -0.14963625714E+03 -0.36970351450E+03  0.61775692200E+03  0.12699999809E+01 0.  1.
</event>
<event>
 5   0  0.9040674E-03  0.9969244E+03  0.7818609E-02  0.9311924E-01
        2   -1    0    0  501    0  0.00000000000E+00  0.00000000000E+00  0.40231175826E+03  0.40231175826E+03  0.25500000920E-02 0.  1.
       -2   -1    0    0    0  501  0.00000000000E+00  0.00000000000E+00 -0.61759213729E+03  0.61759213729E+03  0.25500000920E-02 0. -1.
    10030    2    1    2    0    0  0.00000000000E+00  0.00000000000E+00 -0.21528037903E+03  0.10199038956E+04  0.99692442772E+03 0.  0.
        1    1    3    3  502    0 -0.26893968403E+03 -0.34814631271E+03 -0.34741440800E+03  0.56056326995E+03  0.50400001928E-02 0. -1.
       -1    1    3    3    0  502  0.26893968403E+03  0.34814631271E+03  0.13213402897E+03  0.45934062561E+03  0.50400001928E-02 0.  1.
</event>
<event>
 5   0  0.8907355E-03  0.1005255E+04  0.7818609E-02  0.9302800E-01
       -2   -1    0    0    0  501  0.00000000000E+00  0.00000000000E+00  0.11906504188E+04  0.11906504188E+04  0.25500000920E-02 0.  1.
        2   -1    0    0  501    0  0.00000000000E+00  0.00000000000E+00 -0.21218165535E+03  0.21218165537E+03  0.25500000920E-02 0. -1.
    10030    2    1    2    0    0  0.00000000000E+00  0.00000000000E+00  0.97846876343E+03  0.14028320741E+04  0.10052545485E+04 0.  0.
        5    1    3    3  502    0  0.11556299730E+03 -0.24165309702E+03 -0.10424027439E+03  0.28747026011E+03  0.46999998093E+01 0. -1.
       -5    1    3    3    0  502 -0.11556299730E+03  0.24165309702E+03  0.10827090378E+04  0.11153618140E+04  0.46999998093E+01 0.  1.
</event>
<event>
 5   0  0.8875655E-03  0.9992396E+03  0.7818609E-02  0.9309379E-01
       -2   -1    0    0    0  501  0.00000000000E+00  0.00000000000E+00  0.56256419630E+03  0.56256419631E+03  0.25500000920E-02 0. -1.
        2   -1    0    0  501    0  0.00000000000E+00  0.00000000000E+00 -0.44371818007E+03  0.44371818007E+03  0.25500000920E-02 0.  1.
    10030    2    1    2    0    0  0.00000000000E+00  0.00000000000E+00  0.11884601624E+03  0.10062823764E+04  0.99923963364E+03 0.  0.
        4    1    3    3  502    0  0.26724199876E+03  0.69101723687E+02  0.47880143353E+03  0.55267147544E+03  0.12699999809E+01 0. -1.
       -4    1    3    3    0  502 -0.26724199876E+03 -0.69101723687E+02 -0.35995541729E+03  0.45361090094E+03  0.12699999809E+01 0.  1.
</event>
<event>
 5   0  0.9243773E-03  0.9892182E+03  0.7818609E-02  0.9320450E-01
       -2   -1    0    0    0  501  0.00000000000E+00  0.00000000000E+00  0.24353142358E+03  0.24353142359E+03  0.25500000920E-02 0. -1.
        2   -1    0    0  501    0  0.00000000000E+00  0.00000000000E+00 -0.10045445807E+04  0.10045445807E+04  0.25500000920E-02 0.  1.
    10030    2    1    2    0    0  0.00000000000E+00  0.00000000000E+00 -0.76101315713E+03  0.12480760043E+04  0.98921822021E+03 0.  0.
        3    1    3    3  502    0  0.18082829260E+03  0.44262603499E+03 -0.54020487661E+03  0.72141388757E+03  0.10100000352E+00 0. -1.
       -3    1    3    3    0  502 -0.18082829260E+03 -0.44262603499E+03 -0.22080828051E+03  0.52666211673E+03  0.10100000352E+00 0.  1.
</event>
<event>
 5   0  0.8907355E-03  0.9984096E+03  0.7818609E-02  0.9310291E-01
        2   -1    0    0  501    0  0.00000000000E+00  0.00000000000E+00  0.12834157292E+04  0.12834157292E+04  0.25500000920E-02 0.  1.
       -2   -1    0    0    0  501  0.00000000000E+00  0.00000000000E+00 -0.19417356961E+03  0.19417356963E+03  0.25500000920E-02 0. -1.
    10030    2    1    2    0    0  0.00000000000E+00  0.00000000000E+00  0.10892421596E+04  0.14775892988E+04  0.99840956215E+03 0.  0.
        5    1    3    3  502    0 -0.92208806805E+02  0.48701139591E+03  0.45705696678E+03  0.67424455851E+03  0.46999998093E+01 0.  1.
       -5    1    3    3    0  502  0.92208806805E+02 -0.48701139591E+03  0.63218519282E+03  0.80334474033E+03  0.46999998093E+01 0. -1.
</event>
<event>
 5   0  0.5349685E-03  0.1006156E+04  0.7818609E-02  0.9301818E-01
        1   -1    0    0  501    0  0.00000000000E+00  0.00000000000E+00  0.31590128226E+03  0.31590128230E+03  0.50400001928E-02 0. -1.
       -1   -1    0    0    0  501  0.00000000000E+00  0.00000000000E+00 -0.80116060996E+03  0.80116060998E+03  0.50400001928E-02 0.  1.
    10030    2    1    2    0    0  0.00000000000E+00  0.00000000000E+00 -0.48525932770E+03  0.11170618923E+04  0.10061563775E+04 0.  0.
        4    1    3    3  502    0  0.10117849655E+03 -0.18062088173E+03 -0.75167210709E+03  0.77966246578E+03  0.12699999809E+01 0.  1.
       -4    1    3    3    0  502 -0.10117849655E+03  0.18062088173E+03  0.26641277939E+03  0.33739942649E+03  0.12699999809E+01 0. -1.
</event>
<event>
 5   0  0.5189877E-03  0.9981158E+03  0.7818609E-02  0.9310614E-01
        1   -1    0    0  501    0  0.00000000000E+00  0.00000000000E+00  0.52593759431E+03  0.52593759434E+03  0.50400001928E-02 0. -1.
       -1   -1    0    0    0  501  0.00000000000E+00  0.00000000000E+00 -0.47355199123E+03  0.47355199125E+03  0.50400001928E-02 0.  1.
    10030    2    1    2    0    0  0.00000000000E+00  0.00000000000E+00  0.52385603087E+02  0.99948958559E+03  0.99811581507E+03 0.  0.
        3    1    3    3  502    0 -0.27752600115E+03  0.19045107032E+03  0.39516499393E+03  0.51908349437E+03  0.10100000352E+00 0. -1.
       -3    1    3    3    0  502  0.27752600115E+03 -0.19045107032E+03 -0.34277939084E+03  0.48040609122E+03  0.10100000352E+00 0.  1.
</event>
<event>
 5   0  0.5072205E-03  0.9877049E+03  0.7818609E-02  0.9322134E-01
       -1   -1    0    0    0  501  0.00000000000E+00  0.00000000000E+00  0.18262861047E+04  0.18262861047E+04  0.50400001928E-02 0. -1.
        1   -1    0    0  501    0  0.00000000000E+00  0.00000000000E+00 -0.13354436553E+03  0.13354436563E+03  0.50400001928E-02 0.  1.
    10030    2    1    2    0    0  0.00000000000E+00  0.00000000000E+00  0.16927417391E+04  0.19598304703E+04  0.98770485314E+03 0.  0.
        5    1    3    3  502    0  0.32599783358E+03  0.19867761093E+03  0.14679146778E+04  0.15167540908E+04  0.46999998093E+01 0. -1.
       -5    1    3    3    0  502 -0.32599783358E+03 -0.19867761093E+03  0.22482706131E+03  0.44307637951E+03  0.46999998093E+01 0.  1.
</event>
<event>
 5   0  0.9040674E-03  0.9963173E+03  0.7818609E-02  0.9312593E-01
       -2   -1    0    0    0  501  0.00000000000E+00  0.00000000000E+00  0.63139699916E+03  0.63139699916E+03  0.25500000920E-02 0.  1.
        2   -1    0    0  501    0  0.00000000000E+00  0.00000000000E+00 -0.39303644687E+03  0.39303644688E+03  0.25500000920E-02 0. -1.
    10030    2    1    2    0    0  0.00000000000E+00  0.00000000000E+00  0.23836055229E+03  0.10244334460E+04  0.99631728504E+03 0.  0.
        1    1    3    3  502    0 -0.16384992364E+03  0.14847731547E+03  0.57817399453E+03  0.61901331057E+03  0.50400001928E-02 0.  1.
       -1    1    3    3    0  502  0.16384992364E+03 -0.14847731547E+03 -0.33981344224E+03  0.40542013547E+03  0.50400001928E-02 0. -1.
</event>
<event>
 5   0  0.8907355E-03  0.1000745E+04  0.7818609E-02  0.9307728E-01
        2   -1    0    0  501    0  0.00000000000E+00  0.00000000000E+00  0.71920665675E+03  0.71920665675E+03  0.25500000920E-02 0. -1.
       -2   -1    0    0    0  501  0.00000000000E+00  0.00000000000E+00 -0.34812324224E+03  0.34812324225E+03  0.25500000920E-02 0.  1.
    10030    2    1    2    0    0  0.00000000000E+00  0.00000000000E+00  0.37108341451E+03  0.10673298990E+04  0.10007448290E+04 0.  0.
        5    1    3    3  502    0 -0.39255858917E+03 -0.38838513328E+02  0.51381951388E+03  0.64779877964E+03  0.46999998093E+01 0. -1.
       -5    1    3    3    0  502  0.39255858917E+03  0.38838513328E+02 -0.14273609937E+03  0.41953111936E+03  0.46999998093E+01 0.  1.
</event>
<event>
 5   0  0.5072205E-03  0.9460744E+03  0.7818609E-02  0.9369751E-01
        1   -1    0    0  501    0  0.00000000000E+00  0.00000000000E+00  0.11761163330E+04  0.11761163330E+04  0.50400001928E-02 0. -1.
       -1   -1    0    0    0  501  0.00000000000E+00  0.00000000000E+00 -0.19025683402E+03  0.19025683409E+03  0.50400001928E-02 0.  1.
    10030    2    1    2    0    0  0.00000000000E+00  0.00000000000E+00  0.98585949900E+03  0.13663731671E+04  0.94607435230E+03 0.  0.
        5    1    3    3  502    0 -0.27687555738E+03 -0.29071670693E+03  0.85418366573E+03  0.94383690474E+03  0.46999998093E+01 0. -1.
       -5    1    3    3    0  502  0.27687555738E+03  0.29071670693E+03  0.13167583328E+03  0.42253626239E+03  0.46999998093E+01 0.  1.
</event>
<event>
 5   0  0.5310275E-03  0.9949136E+03  0.7818609E-02  0.9314141E-01
       -1   -1    0    0    0  501  0.00000000000E+00  0.00000000000E+00  0.11350798035E+03  0.11350798046E+03  0.50400001928E-02 0.  1.
        1   -1    0    0  501    0  0.00000000000E+00  0.00000000000E+00 -0.21801397129E+04  0.21801397130E+04  0.50400001928E-02 0. -1.
    10030    2    1    2    0    0  0.00000000000E+00  0.00000000000E+00 -0.20666317326E+04  0.22936476934E+04  0.99491357580E+03 0.  0.
        1    1    3    3  502    0  0.14245688250E+02  0.38037670254E+03 -0.17716615599E+04  0.18120910734E+04  0.50400001928E-02 0. -1.
       -1    1    3    3    0  502 -0.14245688250E+02 -0.38037670254E+03 -0.29497017272E+03  0.48155662003E+03  0.50400001928E-02 0.  1.
</event>
<event>
 5   0  0.8875655E-03  0.9999964E+03  0.7818609E-02  0.9308549E-01
       -2   -1    0    0    0  501  0.00000000000E+00  0.00000000000E+00  0.23361693886E+03  0.23361693888E+03  0.25500000920E-02 0. -1.
        2   -1    0    0  501    0  0.00000000000E+00  0.00000000000E+00 -0.10701201988E+04  0.10701201988E+04  0.25500000920E-02 0.  1.
    10030    2    1    2    0    0  0.00000000000E+00  0.00000000000E+00 -0.83650325996E+03  0.13037371377E+04  0.99999641014E+03 0.  0.
        4    1    3    3  502    0 -0.78625954599E+02 -0.45699850335E+03 -0.66204409689E+03  0.80829058632E+03  0.12699999809E+01 0.  1.
       -4    1    3    3    0  502  0.78625954599E+02  0.45699850335E+03 -0.17445916307E+03  0.49544655138E+03  0.12699999809E+01 0. -1.
</event>
<event>
 5   0  0.5310275E-03  0.9965849E+03  0.7818609E-02  0.9312298E-01
        1   -1    0    0  501    0  0.00000000000E+00  0.00000000000E+00  0.12238772876E+04  0.12238772876E+04  0.50400001928E-02 0. -1.
       -1   -1    0    0    0  501  0.00000000000E+00  0.00000000000E+00 -0.20287603617E+03  0.20287603623E+03  0.50400001928E-02 0.  1.
    10030    2    1    2    0    0  0.00000000000E+00  0.00000000000E+00  0.10210012515E+04  0.14267533239E+04  0.99658491445E+03 0.  0.
        1    1    3    3  502    0  0.79926771044E+02  0.17630675070E+03  0.11678459723E+04  0.11837806276E+04  0.50400001928E-02 0. -1.
       -1    1    3    3    0  502 -0.79926771044E+02 -0.17630675070E+03 -0.14684472089E+03  0.24297269630E+03  0.50400001928E-02 0.  1.
</event>
<event>
 5   0  0.8875655E-03  0.1007708E+04  0.7818609E-02  0.9300131E-01
       -2   -1    0    0    0  501  0.00000000000E+00  0.00000000000E+00  0.30198364448E+03  0.30198364449E+03  0.25500000920E-02 0.  1.
        2   -1    0    0  501    0  0.00000000000E+00  0.00000000000E+00 -0.84067032828E+03  0.84067032828E+03  0.25500000920E-02 0. -1.
    10030    2    1    2    0    0  0.00000000000E+00  0.00000000000E+00 -0.53868668380E+03  0.11426539728E+04  0.10077076750E+04 0.  0.
        4    1    3    3  502    0 -0.47834757336E+03 -0.14871394279E+03 -0.33077218036E+03  0.60028666978E+03  0.12699999809E+01 0. -1.
       -4    1    3    3    0  502  0.47834757336E+03  0.14871394279E+03 -0.20791450344E+03  0.54236730299E+03  0.12699999809E+01 0.  1.
</event>
<event>
 5   0  0.9040674E-03  0.1017033E+04  0.7818609E-02  0.9290058E-01
       -2   -1    0    0    0  501  0.00000000000E+00  0.00000000000E+00  0.27849579103E+03  0.27849579104E+03  0.25500000920E-02 0.  1.
        2   -1    0    0  501    0  0.00000000000E+00  0.00000000000E+00 -0.92852048339E+03  0.92852048340E+03  0.25500000920E-02 0. -1.
    10030    2    1    2    0    0  0.00000000000E+00  0.00000000000E+00 -0.65002469237E+03  0.12070162744E+04  0.10170330310E+04 0.  0.
        1    1    3    3  502    0  0.27509230814E+03  0.23033882470E+03 -0.75268476474E+03  0.83382618528E+03  0.50400001928E-02 0. -1.
       -1    1    3    3    0  502 -0.27509230814E+03 -0.23033882470E+03  0.10266007237E+03  0.37319008916E+03  0.50400001928E-02 0.  1.
</event>
<event>
 5   0  0.3513625E-03  0.1061552E+04  0.7818609E-02  0.9243498E-01
       -4   -1    0    0    0  501  0.00000000000E+00  0.00000000000E+00  0.39195696975E+03  0.39195902724E+03  0.12699999809E+01 0.  1.
        4   -1    0    0  501    0  0.00000000000E+00  0.00000000000E+00 -0.71875547425E+03  0.71875659626E+03  0.12699999809E+01 0. -1.
    10030    2    1    2    0    0  0.00000000000E+00  0.00000000000E+00 -0.32679850450E+03  0.11107156235E+04  0.10615516633E+04 0.  0.
        4    1    3    3  502    0 -0.56559115680E+00 -0.39496055482E+03  0.20760286334E+03  0.44620031547E+03  0.12699999809E+01 0.  1.
       -4    1    3    3    0  502  0.56559115680E+00  0.39496055482E+03 -0.53440136784E+03  0.66451530803E+03  0.12699999809E+01 0. -1.
</event>
<event>
 5   0  0.5310275E-03  0.1051286E+04  0.7818609E-02  0.9254017E-01
       -1   -1    0    0    0  501  0.00000000000E+00  0.00000000000E+00  0.64974434160E+03  0.64974434162E+03  0.50400001928E-02 0.  1.
        1   -1    0    0  501    0  0.00000000000E+00  0.00000000000E+00 -0.42524491616E+03  0.42524491619E+03  0.50400001928E-02 0. -1.
    10030    2    1    2    0    0  0.00000000000E+00  0.00000000000E+00  0.22449942543E+03  0.10749892578E+04  0.10512858376E+04 0.  0.
        1    1    3    3  502    0  0.76831656214E+02 -0.98166951617E+02 -0.40991114928E+03  0.42844720108E+03  0.50400001928E-02 0. -1.
       -1    1    3    3    0  502 -0.76831656214E+02  0.98166951617E+02  0.63441057471E+03  0.64654205673E+03  0.50400001928E-02 0.  1.
</event>
<event>
 5   0  0.5072205E-03  0.1003525E+04  0.7818609E-02  0.9304687E-01
       -1   -1    0    0    0  501  0.00000000000E+00  0.00000000000E+00  0.18135237537E+03  0.18135237544E+03  0.50400001928E-02 0.  1.
        1   -1    0    0  501    0  0.00000000000E+00  0.00000000000E+00 -0.13882673089E+04  0.13882673089E+04  0.50400001928E-02 0. -1.
    10030    2    1    2    0    0  0.00000000000E+00  0.00000000000E+00 -0.12069149335E+04  0.15696196843E+04  0.10035249358E+04 0.  0.
        5    1    3    3  502    0  0.81521973109E+02 -0.15108555370E+03  0.13394991673E+03  0.21780116351E+03  0.46999998093E+01 0.  1.
       -5    1    3    3    0  502 -0.81521973109E+02  0.15108555370E+03 -0.13408648502E+04  0.13518185208E+04  0.46999998093E+01 0. -1.
</event>
<event>
 5   0  0.8875655E-03  0.9983622E+03  0.7818609E-02  0.9310343E-01
        2   -1    0    0  501    0  0.00000000000E+00  0.00000000000E+00  0.18578662194E+04  0.18578662194E+04  0.25500000920E-02 0. -1.
       -2   -1    0    0    0  501  0.00000000000E+00  0.00000000000E+00 -0.13412257075E+03  0.13412257077E+03  0.25500000920E-02 0.  1.
    10030    2    1    2    0    0  0.00000000000E+00  0.00000000000E+00  0.17237436487E+04  0.19919887902E+04  0.99836224583E+03 0.  0.
        4    1    3    3  502    0  0.42727527352E+03  0.13418103055E+03  0.42195747523E+03  0.61531978038E+03  0.12699999809E+01 0.  1.
       -4    1    3    3    0  502 -0.42727527352E+03 -0.13418103055E+03  0.13017861734E+04  0.13766690098E+04  0.12699999809E+01 0. -1.
</event>
<event>
 5   0  0.3513625E-03  0.1006112E+04  0.7818609E-02  0.9301866E-01
       -3   -1    0    0    0  501  0.00000000000E+00  0.00000000000E+00  0.55829891062E+03  0.55829891976E+03  0.10100000352E+00 0.  1.
        3   -1    0    0  501    0  0.00000000000E+00  0.00000000000E+00 -0.45327968307E+03  0.45327969432E+03  0.10100000352E+00 0. -1.
    10030    2    1    2    0    0  0.00000000000E+00  0.00000000000E+00  0.10501922755E+03  0.10115786141E+04  0.10061124462E+04 0.  0.
        5    1    3    3  502    0  0.34512563101E+03 -0.35490680341E+03 -0.37266785521E+02  0.49646897546E+03  0.46999998093E+01 0. -1.
       -5    1    3    3    0  502 -0.34512563101E+03  0.35490680341E+03  0.14228601307E+03  0.51510963862E+03  0.46999998093E+01 0.  1.
</event>
<event>
 5   0  0.5349685E-03  0.9955554E+03  0.7818609E-02  0.9313433E-01
       -1   -1    0    0    0  501  0.00000000000E+00  0.00000000000E+00  0.43016013774E+03  0.43016013777E+03  0.50400001928E-02 0.  1.
        1   -1    0    0  501    0  0.00000000000E+00  0.00000000000E+00 -0.57602422064E+03  0.57602422066E+03  0.50400001928E-02 0. -1.
    10030    2    1    2    0    0  0.00000000000E+00  0.00000000000E+00 -0.14586408290E+03  0.10061843584E+04  0.99555543918E+03 0.  0.
        4    1    3    3  502    0  0.29468725878E+02 -0.65599691828E+02  0.42488052155E+03  0.43092551081E+03  0.12699999809E+01 0.  1.
       -4    1    3    3    0  502 -0.29468725878E+02  0.65599691828E+02 -0.57074460444E+03  0.57525884763E+03  0.12699999809E+01 0. -1.
</event>
<event>
 5   0  0.8875655E-03  0.9889011E+03  0.7818609E-02  0.9320802E-01
        2   -1    0    0  501    0  0.00000000000E+00  0.00000000000E+00  0.65000855190E+03  0.65000855191E+03  0.25500000920E-02 0.  1.
       -2   -1    0    0    0  501  0.00000000000E+00  0.00000000000E+00 -0.37612017325E+03  0.37612017325E+03  0.25500000920E-02 0. -1.
    10030    2    1    2    0    0  0.00000000000E+00  0.00000000000E+00  0.27388837866E+03  0.10261287252E+04  0.98890106514E+03 0.  0.
        4    1    3    3  502    0  0.29048114661E+03  0.39861622169E+03  0.10091640401E+03  0.50344803330E+03  0.12699999809E+01 0. -1.
       -4    1    3    3    0  502 -0.29048114661E+03 -0.39861622169E+03  0.17297197464E+03  0.52268069186E+03  0.12699999809E+01 0.  1.
</event>
<event>
 5   0  0.5201968E-03  0.1001771E+04  0.7818609E-02  0.9306605E-01
       -1   -1    0    0    0  501  0.00000000000E+00  0.00000000000E+00  0.61443188523E+03  0.61443188525E+03  0.50400001928E-02 0. -1.
        1   -1    0    0  501    0  0.00000000000E+00  0.00000000000E+00 -0.40832203800E+03  0.40832203804E+03  0.50400001928E-02 0.  1.
    10030    2    1    2    0    0  0.00000000000E+00  0.00000000000E+00  0.20610984723E+03  0.10227539233E+04  0.10017705917E+04 0.  0.
        2    1    3    3  502    0 -0.31168708297E+03  0.28224244834E+02 -0.29621290586E+03  0.43091476105E+03  0.25500000920E-02 0.  1.
       -2    1    3    3    0  502  0.31168708297E+03 -0.28224244834E+02  0.50232275308E+03  0.59183916224E+03  0.25500000920E-02 0. -1.
</event>
<event>
 5   0  0.9040674E-03  0.1000205E+04  0.7818609E-02  0.9308320E-01
       -2   -1    0    0    0  501  0.00000000000E+00  0.00000000000E+00  0.19988247041E+03  0.19988247042E+03  0.25500000920E-02 0.  1.
        2   -1    0    0  501    0  0.00000000000E+00  0.00000000000E+00 -0.12512471062E+04  0.12512471062E+04  0.25500000920E-02 0. -1.
    10030    2    1    2    0    0  0.00000000000E+00  0.00000000000E+00 -0.10513646358E+04  0.14511295766E+04  0.10002047044E+04 0.  0.
        1    1    3    3  502    0 -0.18891276801E+03  0.37732087922E+03 -0.91509854808E+03  0.10077025516E+04  0.50400001928E-02 0. -1.
       -1    1    3    3    0  502  0.18891276801E+03 -0.37732087922E+03 -0.13626608770E+03  0.44342702500E+03  0.50400001928E-02 0.  1.
</event>
<event>
 5   0  0.5310275E-03  0.9925424E+03  0.7818609E-02  0.9316762E-01
        1   -1    0    0  501    0  0.00000000000E+00  0.00000000000E+00  0.45241069219E+03  0.45241069222E+03  0.50400001928E-02 0. -1.
       -1   -1    0    0    0  501  0.00000000000E+00  0.00000000000E+00 -0.54438392592E+03  0.54438392594E+03  0.50400001928E-02 0.  1.
    10030    2    1    2    0    0  0.00000000000E+00  0.00000000000E+00 -0.91973233724E+02  0.99679461816E+03  0.99254240971E+03 0.  0.
        1    1    3    3  502    0 -0.21793329566E+03  0.19890402544E+03  0.35475595508E+03  0.46142119629E+03  0.50400001928E-02 0. -1.
       -1    1    3    3    0  502  0.21793329566E+03 -0.19890402544E+03 -0.44672918880E+03  0.53537342187E+03  0.50400001928E-02 0.  1.
</event>
<event>
 5   0  0.5310275E-03  0.1004599E+04  0.7818609E-02  0.9303515E-01
       -1   -1    0    0    0  501  0.00000000000E+00  0.00000000000E+00  0.37554742640E+03  0.37554742643E+03  0.50400001928E-02 0.  1.
        1   -1    0    0  501    0  0.00000000000E+00  0.00000000000E+00 -0.67183266474E+03  0.67183266476E+03  0.50400001928E-02 0. -1.
    10030    2    1    2    0    0  0.00000000000E+00  0.00000000000E+00 -0.29628523834E+03  0.10473800912E+04  0.10045994789E+04 0.  0.
        1    1    3    3  502    0  0.53786428561E+02  0.17813824744E+03  0.33828636681E+03  0.38608791886E+03  0.50400001928E-02 0.  1.
       -1    1    3    3    0  502 -0.53786428561E+02 -0.17813824744E+03 -0.63457160515E+03  0.66129217233E+03  0.50400001928E-02 0. -1.
</event>
<event>
 5   0  0.5189877E-03  0.9396368E+03  0.7818609E-02  0.9377346E-01
        1   -1    0    0  501    0  0.00000000000E+00  0.00000000000E+00  0.73001122778E+03  0.73001122780E+03  0.50400001928E-02 0.  1.
       -1   -1    0    0    0  501  0.00000000000E+00  0.00000000000E+00 -0.30236432533E+03  0.30236432537E+03  0.50400001928E-02 0. -1.
    10030    2    1    2    0    0  0.00000000000E+00  0.00000000000E+00  0.42764690246E+03  0.10323755532E+04  0.93963684985E+03 0.  0.
        3    1    3    3  502    0  0.28375695659E+02 -0.43475384183E+03  0.20648830322E+02  0.43616793496E+03  0.10100000352E+00 0. -1.
       -3    1    3    3    0  502 -0.28375695659E+02  0.43475384183E+03  0.40699807214E+03  0.59620761821E+03  0.10100000352E+00 0.  1.
</event>
<event>
 5   0  0.9243773E-03  0.1020254E+04  0.7818609E-02  0.9286605E-01
        2   -1    0    0  501    0  0.00000000000E+00  0.00000000000E+00  0.73896497803E+03  0.73896497804E+03  0.25500000920E-02 0. -1.
       -2   -1    0    0    0  501  0.00000000000E+00  0.00000000000E+00 -0.35215444922E+03  0.35215444923E+03  0.25500000920E-02 0.  1.
    10030    2    1    2    0    0  0.00000000000E+00  0.00000000000E+00  0.38681052881E+03  0.10911194273E+04  0.10202544876E+04 0.  0.
        3    1    3    3  502    0 -0.14057115091E+03 -0.45620309688E+03  0.38575401754E+03  0.61374887887E+03  0.10100000352E+00 0.  1.
       -3    1    3    3    0  502  0.14057115091E+03  0.45620309688E+03  0.10565112747E+01  0.47737054840E+03  0.10100000352E+00 0. -1.
</event>
<event>
 5   0  0.8968798E-03  0.9181424E+03  0.7818609E-02  0.9403182E-01
        2   -1    0    0  501    0  0.00000000000E+00  0.00000000000E+00  0.27630179561E+03  0.27630179562E+03  0.25500000920E-02 0. -1.
       -2   -1    0    0    0  501  0.00000000000E+00  0.00000000000E+00 -0.76273975551E+03  0.76273975551E+03  0.25500000920E-02 0.  1.
    10030    2    1    2    0    0  0.00000000000E+00  0.00000000000E+00 -0.48643795990E+03  0.10390415511E+04  0.91814239427E+03 0.  0.
        2    1    3    3  502    0 -0.42625009778E+03 -0.15371889214E+03 -0.15984479388E+03  0.48048829517E+03  0.25500000920E-02 0. -1.
       -2    1    3    3    0  502  0.42625009778E+03  0.15371889214E+03 -0.32659316601E+03  0.55855325597E+03  0.25500000920E-02 0.  1.
</event>
<event>
 5   0  0.5201968E-03  0.8656666E+03  0.7818609E-02  0.9469548E-01
        1   -1    0    0  501    0  0.00000000000E+00  0.00000000000E+00  0.22861724187E+03  0.22861724193E+03  0.50400001928E-02 0. -1.
       -1   -1    0    0    0  501  0.00000000000E+00  0.00000000000E+00 -0.81946859278E+03  0.81946859279E+03  0.50400001928E-02 0.  1.
    10030    2    1    2    0    0  0.00000000000E+00  0.00000000000E+00 -0.59085135091E+03  0.10480858347E+04  0.86566656287E+03 0.  0.
        2    1    3    3  502    0 -0.21694281116E+03  0.24695998319E+03 -0.63635063207E+03  0.71623707217E+03  0.25500000920E-02 0.  1.
       -2    1    3    3    0  502  0.21694281116E+03 -0.24695998319E+03  0.45499281160E+02  0.33184876255E+03  0.25500000920E-02 0. -1.
</event>
<event>
 5   0  0.9040674E-03  0.9941919E+03  0.7818609E-02  0.9314938E-01
       -2   -1    0    0    0  501  0.00000000000E+00  0.00000000000E+00  0.63792985699E+03  0.63792985699E+03  0.25500000920E-02 0. -1.
        2   -1    0    0  501    0  0.00000000000E+00  0.00000000000E+00 -0.38735353518E+03  0.38735353519E+03  0.25500000920E-02 0.  1.
    10030    2    1    2    0    0  0.00000000000E+00  0.00000000000E+00  0.25057632180E+03  0.10252833922E+04  0.99419190363E+03 0.  0.
        1    1    3    3  502    0 -0.20087249162E+02  0.24855644692E+03 -0.31818396162E+03  0.40425838068E+03  0.50400001928E-02 0.  1.
       -1    1    3    3    0  502  0.20087249162E+02 -0.24855644692E+03  0.56876028343E+03  0.62102501151E+03  0.50400001928E-02 0. -1.
</event>
<event>
 5   0  0.8907355E-03  0.1011030E+04  0.7818609E-02  0.9296530E-01
        2   -1    0    0  501    0  0.00000000000E+00  0.00000000000E+00  0.10472154122E+04  0.10472154122E+04  0.25500000920E-02 0.  1.
       -2   -1    0    0    0  501  0.00000000000E+00  0.00000000000E+00 -0.24402360934E+03  0.24402360935E+03  0.25500000920E-02 0. -1.
    10030    2    1    2    0    0  0.00000000000E+00  0.00000000000E+00  0.80319180282E+03  0.12912390215E+04  0.10110297417E+04 0.  0.
        5    1    3    3  502    0 -0.40424614127E+02 -0.24557798804E+03 -0.16032283179E+03  0.29608815922E+03  0.46999998093E+01 0. -1.
       -5    1    3    3    0  502  0.40424614127E+02  0.24557798804E+03  0.96351463460E+03  0.99515086230E+03  0.46999998093E+01 0.  1.
</event>
<event>
 5   0  0.5349685E-03  0.9579124E+03  0.7818609E-02  0.9355950E-01
        1   -1    0    0  501    0  0.00000000000E+00  0.00000000000E+00  0.16264030239E+04  0.16264030239E+04  0.50400001928E-02 0.  1.
       -1   -1    0    0    0  501  0.00000000000E+00  0.00000000000E+00 -0.14104687541E+03  0.14104687550E+03  0.50400001928E-02 0. -1.
    10030    2    1    2    0    0  0.00000000000E+00  0.00000000000E+00  0.14853561485E+04  0.17674498995E+04  0.95791244856E+03 0.  0.
        4    1    3    3  502    0  0.36967742733E+03  0.13900841359E+03  0.12426054631E+04  0.13038614532E+04  0.12699999809E+01 0.  1.
       -4    1    3    3    0  502 -0.36967742733E+03 -0.13900841359E+03  0.24275068544E+03  0.46358844626E+03  0.12699999809E+01 0. -1.
</event>
<event>
 5   0  0.9040674E-03  0.9906912E+03  0.7818609E-02  0.9318814E-01
       -2   -1    0    0    0  501  0.00000000000E+00  0.00000000000E+00  0.45536448526E+03  0.45536448527E+03  0.25500000920E-02 0.  1.
        2   -1    0    0  501    0  0.00000000000E+00  0.00000000000E+00 -0.53883708592E+03  0.53883708592E+03  0.25500000920E-02 0. -1.
    10030    2    1    2    0    0  0.00000000000E+00  0.00000000000E+00 -0.83472600657E+02  0.99420157119E+03  0.99069121783E+03 0.  0.
        1    1    3    3  502    0 -0.17587528951E+03 -0.46263661822E+03 -0.21602452805E+02  0.49541035916E+03  0.50400001928E-02 0.  1.
       -1    1    3    3    0  502  0.17587528951E+03  0.46263661822E+03 -0.61870147851E+02  0.49879121203E+03  0.50400001928E-02 0. -1.
</event>
<event>
 5   0  0.5310275E-03  0.1006464E+04  0.7818609E-02  0.9301484E-01
        1   -1    0    0  501    0  0.00000000000E+00  0.00000000000E+00  0.75577661258E+03  0.75577661259E+03  0.50400001928E-02 0.  1.
       -1   -1    0    0    0  501  0.00000000000E+00  0.00000000000E+00 -0.33507546670E+03  0.33507546674E+03  0.50400001928E-02 0. -1.
    10030    2    1    2    0    0  0.00000000000E+00  0.00000000000E+00  0.42070114587E+03  0.10908520793E+04  0.10064635139E+04 0.  0.
        1    1    3    3  502    0  0.38846641909E+01  0.16749285909E+03 -0.30396091961E+03  0.34707519234E+03  0.50400001928E-02 0. -1.
       -1    1    3    3    0  502 -0.38846641909E+01 -0.16749285909E+03  0.72466206548E+03  0.74377688700E+03  0.50400001928E-02 0.  1.
</event>
<event>
 5   0  0.9040674E-03  0.1007333E+04  0.7818609E-02  0.9300539E-01
        2   -1    0    0  501    0  0.00000000000E+00  0.00000000000E+00  0.46621620401E+03  0.46621620401E+03  0.25500000920E-02 0.  1.
       -2   -1    0    0    0  501  0.00000000000E+00  0.00000000000E+00 -0.54412466481E+03  0.54412466481E+03  0.25500000920E-02 0. -1.
    10030    2    1    2    0    0  0.00000000000E+00  0.00000000000E+00 -0.77908460801E+02  0.10103408688E+04  0.10073325881E+04 0.  0.
        1    1    3    3  502    0 -0.44918863200E+03  0.16605189398E+03 -0.19542035397E+03  0.51723570390E+03  0.50400001928E-02 0. -1.
       -1    1    3    3    0  502  0.44918863200E+03 -0.16605189398E+03  0.11751189317E+03  0.49310516493E+03  0.50400001928E-02 0.  1.
</event>
<event>
 5   0  0.5349685E-03  0.1022058E+04  0.7818609E-02  0.9284678E-01
       -1   -1    0    0    0  501  0.00000000000E+00  0.00000000000E+00  0.45684297534E+03  0.45684297537E+03  0.50400001928E-02 0.  1.
        1   -1    0    0  501    0  0.00000000000E+00  0.00000000000E+00 -0.57164146362E+03  0.57164146365E+03  0.50400001928E-02 0. -1.
    10030    2    1    2    0    0  0.00000000000E+00  0.00000000000E+00 -0.11479848828E+03  0.10284844390E+04  0.10220575074E+04 0.  0.
        4    1    3    3  502    0  0.12866189467E+03 -0.31533075342E+03 -0.44079559687E+03  0.55703656820E+03  0.12699999809E+01 0. -1.
       -4    1    3    3    0  502 -0.12866189467E+03  0.31533075342E+03  0.32599710859E+03  0.47144787082E+03  0.12699999809E+01 0.  1.
</event>
<event>
 5   0  0.8968798E-03  0.9915263E+03  0.7818609E-02  0.9317888E-01
        2   -1    0    0  501    0  0.00000000000E+00  0.00000000000E+00  0.81102640519E+03  0.81102640519E+03  0.25500000920E-02 0. -1.
       -2   -1    0    0    0  501  0.00000000000E+00  0.00000000000E+00 -0.30304946632E+03  0.30304946633E+03  0.25500000920E-02 0.  1.
    10030    2    1    2    0    0  0.00000000000E+00  0.00000000000E+00  0.50797693887E+03  0.11140758715E+04  0.99152633706E+03 0.  0.
        2    1    3    3  502    0  0.20045778720E+03 -0.59074124246E+02  0.75911748046E+03  0.78735787654E+03  0.25500000920E-02 0. -1.
       -2    1    3    3    0  502 -0.20045778720E+03  0.59074124246E+02 -0.25114054159E+03  0.32671799498E+03  0.25500000920E-02 0.  1.
</event>
<event>
 5   0  0.8968798E-03  0.1004414E+04  0.7818609E-02  0.9303716E-01
        2   -1    0    0  501    0  0.00000000000E+00  0.00000000000E+00  0.42578567232E+03  0.42578567233E+03  0.25500000920E-02 0.  1.
       -2   -1    0    0    0  501  0.00000000000E+00  0.00000000000E+00 -0.59234500670E+03  0.59234500671E+03  0.25500000920E-02 0. -1.
    10030    2    1    2    0    0  0.00000000000E+00  0.00000000000E+00 -0.16655933438E+03  0.10181306790E+04  0.10044142909E+04 0.  0.
        2    1    3    3  502    0 -0.13231038339E+03  0.11636638561E+03 -0.55998354770E+03  0.58705088958E+03  0.25500000920E-02 0. -1.
       -2    1    3    3    0  502  0.13231038339E+03 -0.11636638561E+03  0.39342421332E+03  0.43107978946E+03  0.25500000920E-02 0.  1.
</event>
<event>
 5   0  0.5349685E-03  0.9964982E+03  0.7818609E-02  0.9312394E-01
       -1   -1    0    0    0  501  0.00000000000E+00  0.00000000000E+00  0.58388798258E+03  0.58388798260E+03  0.50400001928E-02 0.  1.
        1   -1    0    0  501    0  0.00000000000E+00  0.00000000000E+00 -0.42517088669E+03  0.42517088672E+03  0.50400001928E-02 0. -1.
    10030    2    1    2    0    0  0.00000000000E+00  0.00000000000E+00  0.15871709588E+03  0.10090588693E+04  0.99649821135E+03 0.  0.
        4    1    3    3  502    0  0.13951478245E+03  0.42847886288E+03 -0.13590524677E+03  0.47067011745E+03  0.12699999809E+01 0. -1.
       -4    1    3    3    0  502 -0.13951478245E+03 -0.42847886288E+03  0.29462234265E+03  0.53838875188E+03  0.12699999809E+01 0.  1.
</event>
<event>
 5   0  0.5072205E-03  0.9569894E+03  0.7818609E-02  0.9357018E-01
        1   -1    0    0  501    0  0.00000000000E+00  0.00000000000E+00  0.33377339805E+03  0.33377339809E+03  0.50400001928E-02 0. -1.
       -1   -1    0    0    0  501  0.00000000000E+00  0.00000000000E+00 -0.68596599440E+03  0.68596599442E+03  0.50400001928E-02 0.  1.
    10030    2    1    2    0    0  0.00000000000E+00  0.00000000000E+00 -0.35219259635E+03  0.10197393925E+04  0.95698944806E+03 0.  0.
        5    1    3    3  502    0 -0.14810952865E+03  0.63870651808E+02  0.30390635457E+03  0.34408873126E+03  0.46999998093E+01 0. -1.
       -5    1    3    3    0  502  0.14810952865E+03 -0.63870651808E+02 -0.65609895092E+03  0.67565066124E+03  0.46999998093E+01 0.  1.
</event>
<event>
 5   0  0.3513625E-03  0.1002994E+04  0.7818609E-02  0.9305267E-01
        4   -1    0    0  501    0  0.00000000000E+00  0.00000000000E+00  0.44998533181E+03  0.44998712398E+03  0.12699999809E+01 0. -1.
       -4   -1    0    0    0  501  0.00000000000E+00  0.00000000000E+00 -0.55890143582E+03  0.55890287874E+03  0.12699999809E+01 0.  1.
    10030    2    1    2    0    0  0.00000000000E+00  0.00000000000E+00 -0.10891610401E+03  0.10088900027E+04  0.10029936789E+04 0.  0.
        5    1    3    3  502    0  0.27175521001E+03  0.41954231809E+03 -0.94822990635E+02  0.50880265367E+03  0.46999998093E+01 0. -1.
       -5    1    3    3    0  502 -0.27175521001E+03 -0.41954231809E+03 -0.14093113376E+02  0.50008734904E+03  0.46999998093E+01 0.  1.
</event>
<event>
 5   0  0.9243773E-03  0.1011448E+04  0.7818609E-02  0.9296077E-01
       -2   -1    0    0    0  501  0.00000000000E+00  0.00000000000E+00  0.11903668143E+03  0.11903668146E+03  0.25500000920E-02 0.  1.
        2   -1    0    0  501    0  0.00000000000E+00  0.00000000000E+00 -0.21485541671E+04  0.21485541671E+04  0.25500000920E-02 0. -1.
    10030    2    1    2    0    0  0.00000000000E+00  0.00000000000E+00 -0.20295174857E+04  0.22675908485E+04  0.10114479877E+04 0.  0.
        3    1    3    3  502    0 -0.21187212014E+01 -0.41341901040E+03 -0.16677595869E+04  0.17182379977E+04  0.10100000352E+00 0. -1.
       -3    1    3    3    0  502  0.21187212014E+01  0.41341901040E+03 -0.36175789881E+03  0.54935285081E+03  0.10100000352E+00 0.  1.
</event>
<event>
 5   0  0.5201968E-03  0.9038370E+03  0.7818609E-02  0.9420798E-01
        1   -1    0    0  501    0  0.00000000000E+00  0.00000000000E+00  0.87310401544E+03  0.87310401545E+03  0.50400001928E-02 0.  1.
       -1   -1    0    0    0  501  0.00000000000E+00  0.00000000000E+00 -0.23391294482E+03  0.23391294488E+03  0.50400001928E-02 0. -1.
    10030    2    1    2    0    0  0.00000000000E+00  0.00000000000E+00  0.63919107061E+03  0.11070169603E+04  0.90383700173E+03 0.  0.
        2    1    3    3  502    0  0.39015056905E+03  0.55323037384E+02  0.59058373667E+03  0.70997693978E+03  0.25500000920E-02 0.  1.
       -2    1    3    3    0  502 -0.39015056905E+03 -0.55323037384E+02  0.48607333945E+02  0.39704002055E+03  0.25500000920E-02 0. -1.
</event>
<event>
 5   0  0.5310275E-03  0.9540456E+03  0.7818609E-02  0.9360434E-01
       -1   -1    0    0    0  501  0.00000000000E+00  0.00000000000E+00  0.45891999223E+03  0.45891999226E+03  0.50400001928E-02 0.  1.
        1   -1    0    0  501    0  0.00000000000E+00  0.00000000000E+00 -0.49583973205E+03  0.49583973208E+03  0.50400001928E-02 0. -1.
    10030    2    1    2    0    0  0.00000000000E+00  0.00000000000E+00 -0.36919739822E+02  0.95475972433E+03  0.95404562994E+03 0.  0.
        1    1    3    3  502    0  0.43675990046E+03 -0.42671981907E+02  0.16868453240E+03  0.47014314861E+03  0.50400001928E-02 0.  1.
       -1    1    3    3    0  502 -0.43675990046E+03  0.42671981907E+02 -0.20560427222E+03  0.48461657572E+03  0.50400001928E-02 0. -1.
</event>
<event>
 5   0  0.9040674E-03  0.1003445E+04  0.7818609E-02  0.9304774E-01
        2   -1    0    0  501    0  0.00000000000E+00  0.00000000000E+00  0.31638628410E+03  0.31638628412E+03  0.25500000920E-02 0. -1.
       -2   -1    0    0    0  501  0.00000000000E+00  0.00000000000E+00 -0.79562747686E+03  0.79562747687E+03  0.25500000920E-02 0.  1.
    10030    2    1    2    0    0  0.00000000000E+00  0.00000000000E+00 -0.47924119276E+03  0.11120137610E+04  0.10034453068E+04 0.  0.
        1    1    3    3  502    0  0.43100107407E+03  0.15890339401E+03 -0.16013709164E+02  0.45963969953E+03  0.50400001928E-02 0. -1.
       -1    1    3    3    0  502 -0.43100107407E+03 -0.15890339401E+03 -0.46322748359E+03  0.65237406145E+03  0.50400001928E-02 0.  1.
</event>
<event>
 5   0  0.5072205E-03  0.1007076E+04  0.7818609E-02  0.9300818E-01
       -1   -1    0    0    0  501  0.00000000000E+00  0.00000000000E+00  0.66931585777E+03  0.66931585779E+03  0.50400001928E-02 0. -1.
        1   -1    0    0  501    0  0.00000000000E+00  0.00000000000E+00 -0.37882061612E+03  0.37882061615E+03  0.50400001928E-02 0.  1.
    10030    2    1    2    0    0  0.00000000000E+00  0.00000000000E+00  0.29049524165E+03  0.10481364739E+04  0.10070762546E+04 0.  0.
        5    1    3    3  502    0  0.49424061878E+03 -0.80471436725E+02  0.90380941011E+02  0.50886171587E+03  0.46999998093E+01 0. -1.
       -5    1    3    3    0  502 -0.49424061878E+03  0.80471436725E+02  0.20011430064E+03  0.53927475807E+03  0.46999998093E+01 0.  1.
</event>
<event>
 5   0  0.5072205E-03  0.9944961E+03  0.7818609E-02  0.9314602E-01
       -1   -1    0    0    0  501  0.00000000000E+00  0.00000000000E+00  0.18659246242E+03  0.18659246249E+03  0.50400001928E-02 0.  1.
        1   -1    0    0  501    0  0.00000000000E+00  0.00000000000E+00 -0.13251105718E+04  0.13251105719E+04  0.50400001928E-02 0. -1.
    10030    2    1    2    0    0  0.00000000000E+00  0.00000000000E+00 -0.11385181094E+04  0.15117030343E+04  0.99449614306E+03 0.  0.
        5    1    3    3  502    0 -0.16927959805E+03 -0.21142935951E+02  0.14068156553E+03  0.22116961576E+03  0.46999998093E+01 0.  1.
       -5    1    3    3    0  502  0.16927959805E+03  0.21142935951E+02 -0.12791996750E+04  0.12905334186E+04  0.46999998093E+01 0. -1.
</event>
<event>
 5   0  0.8968798E-03  0.1020192E+04  0.7818609E-02  0.9286672E-01
        2   -1    0    0  501    0  0.00000000000E+00  0.00000000000E+00  0.55806018874E+03  0.55806018875E+03  0.25500000920E-02 0.  1.
       -2   -1    0    0    0  501  0.00000000000E+00  0.00000000000E+00 -0.46625385620E+03  0.46625385621E+03  0.25500000920E-02 0. -1.
    10030    2    1    2    0    0  0.00000000000E+00  0.00000000000E+00  0.91806332543E+02  0.10243140450E+04  0.10201915800E+04 0.  0.
        2    1    3    3  502    0 -0.13889498748E+03  0.44080690100E+03 -0.17082824515E+03  0.49273200714E+03  0.25500000920E-02 0. -1.
       -2    1    3    3    0  502  0.13889498748E+03 -0.44080690100E+03  0.26263457769E+03  0.53158203781E+03  0.25500000920E-02 0.  1.
</event>
<event>
 5   0  0.8968798E-03  0.9975070E+03  0.7818609E-02  0.9311283E-01
       -2   -1    0    0    0  501  0.00000000000E+00  0.00000000000E+00  0.26550544134E+03  0.26550544135E+03  0.25500000920E-02 0. -1.
        2   -1    0    0  501    0  0.00000000000E+00  0.00000000000E+00 -0.93691140749E+03  0.93691140750E+03  0.25500000920E-02 0.  1.
    10030    2    1    2    0    0  0.00000000000E+00  0.00000000000E+00 -0.67140596615E+03  0.12024168489E+04  0.99750704610E+03 0.  0.
        2    1    3    3  502    0  0.35877319702E+03  0.12208383078E+02  0.81672199597E+02  0.36815431508E+03  0.25500000920E-02 0. -1.
       -2    1    3    3    0  502 -0.35877319702E+03 -0.12208383078E+02 -0.75307816575E+03  0.83426253377E+03  0.25500000920E-02 0.  1.
</event>
<event>
 5   0  0.5189877E-03  0.9984926E+03  0.7818609E-02  0.9310200E-01
       -1   -1    0    0    0  501  0.00000000000E+00  0.00000000000E+00  0.22671659238E+03  0.22671659244E+03  0.50400001928E-02 0. -1.
        1   -1    0    0  501    0  0.00000000000E+00  0.00000000000E+00 -0.10993764075E+04  0.10993764075E+04  0.50400001928E-02 0.  1.
    10030    2    1    2    0    0  0.00000000000E+00  0.00000000000E+00 -0.87265981513E+03  0.13260930000E+04  0.99849260968E+03 0.  0.
        3    1    3    3  502    0 -0.18374541634E+03  0.45538716142E+02  0.17720211212E+03  0.25930050412E+03  0.10100000352E+00 0. -1.
       -3    1    3    3    0  502  0.18374541634E+03 -0.45538716142E+02 -0.10498619272E+04  0.10667924958E+04  0.10100000352E+00 0.  1.
</event>
<event>
 5   0  0.8907355E-03  0.1001313E+04  0.7818609E-02  0.9307106E-01
       -2   -1    0    0    0  501  0.00000000000E+00  0.00000000000E+00  0.36542855057E+03  0.36542855058E+03  0.25500000920E-02 0. -1.
        2   -1    0    0  501    0  0.00000000000E+00  0.00000000000E+00 -0.68592541954E+03  0.68592541954E+03  0.25500000920E-02 0.  1.
    10030    2    1    2    0    0  0.00000000000E+00  0.00000000000E+00 -0.32049686897E+03  0.10513539701E+04  0.10013126023E+04 0.  0.
        5    1    3    3  502    0 -0.26339865856E+03  0.32239296102E+03 -0.45220696944E+03  0.61467821489E+03  0.46999998093E+01 0.  1.
       -5    1    3    3    0  502  0.26339865856E+03 -0.32239296102E+03  0.13171010047E+03  0.43667575524E+03  0.46999998093E+01 0. -1.
</event>
<event>
 5   0  0.5349685E-03  0.9885425E+03  0.7818609E-02  0.9321201E-01
       -1   -1    0    0    0  501  0.00000000000E+00  0.00000000000E+00  0.44537798342E+03  0.44537798345E+03  0.50400001928E-02 0.  1.
        1   -1    0    0  501    0  0.00000000000E+00  0.00000000000E+00 -0.54853201708E+03  0.54853201711E+03  0.50400001928E-02 0. -1.
    10030    2    1    2    0    0  0.00000000000E+00  0.00000000000E+00 -0.10315403366E+03  0.99391000056E+03  0.98854253047E+03 0.  0.
        4    1    3    3  502    0 -0.19436734012E+03 -0.45291027453E+03 -0.14009838675E+02  0.49305604971E+03  0.12699999809E+01 0.  1.
       -4    1    3    3    0  502  0.19436734012E+03  0.45291027453E+03 -0.89144194985E+02  0.50085395085E+03  0.12699999809E+01 0. -1.
</event>
<event>
 5   0  0.8968798E-03  0.1002481E+04  0.7818609E-02  0.9305828E-01
        2   -1    0    0  501    0  0.00000000000E+00  0.00000000000E+00  0.23233089200E+04  0.23233089200E+04  0.25500000920E-02 0.  1.
       -2   -1    0    0    0  501  0.00000000000E+00  0.00000000000E+00 -0.10813970743E+03  0.10813970746E+03  0.25500000920E-02 0. -1.
    10030    2    1    2    0    0  0.00000000000E+00  0.00000000000E+00  0.22151692126E+04  0.24314486275E+04  0.10024808166E+04 0.  0.
        2    1    3    3  502    0 -0.97210032137E+02 -0.19303049966E+03  0.22044895771E+04  0.22150586583E+04  0.25500000920E-02 0.  1.
       -2    1    3    3    0  502  0.97210032137E+02  0.19303049966E+03  0.10679635494E+02  0.21638996919E+03  0.25500000920E-02 0. -1.
</event>
<event>
 5   0  0.5189877E-03  0.1006694E+04  0.7818609E-02  0.9301233E-01
        1   -1    0    0  501    0  0.00000000000E+00  0.00000000000E+00  0.99909122623E+03  0.99909122625E+03  0.50400001928E-02 0. -1.
       -1   -1    0    0    0  501  0.00000000000E+00  0.00000000000E+00 -0.25358875842E+03  0.25358875847E+03  0.50400001928E-02 0.  1.
    10030    2    1    2    0    0  0.00000000000E+00  0.00000000000E+00  0.74550246781E+03  0.12526799847E+04  0.10066942011E+04 0.  0.
        3    1    3    3  502    0  0.13706424082E+03  0.25589216319E+03  0.88443621997E+03  0.93085704740E+03  0.10100000352E+00 0. -1.
       -3    1    3    3    0  502 -0.13706424082E+03 -0.25589216319E+03 -0.13893375216E+03  0.32182293732E+03  0.10100000352E+00 0.  1.
</event>
<event>
 5   0  0.5072205E-03  0.1001962E+04  0.7818609E-02  0.9306395E-01
        1   -1    0    0  501    0  0.00000000000E+00  0.00000000000E+00  0.95121755088E+03  0.95121755089E+03  0.50400001928E-02 0. -1.
       -1   -1    0    0    0  501  0.00000000000E+00  0.00000000000E+00 -0.26385339699E+03  0.26385339704E+03  0.50400001928E-02 0.  1.
    10030    2    1    2    0    0  0.00000000000E+00  0.00000000000E+00  0.68736415389E+03  0.12150709479E+04  0.10019620394E+04 0.  0.
        5    1    3    3  502    0 -0.18868679739E+01  0.20132073675E+03 -0.21260679335E+03  0.29284353824E+03  0.46999998093E+01 0.  1.
       -5    1    3    3    0  502  0.18868679739E+01 -0.20132073675E+03  0.89997094723E+03  0.92222740969E+03  0.46999998093E+01 0. -1.
</event>
<event>
 5   0  0.5201968E-03  0.9049787E+03  0.7818609E-02  0.9419379E-01
       -1   -1    0    0    0  501  0.00000000000E+00  0.00000000000E+00  0.19468966837E+03  0.19468966843E+03  0.50400001928E-02 0. -1.
        1   -1    0    0  501    0  0.00000000000E+00  0.00000000000E+00 -0.10516561883E+04  0.10516561883E+04  0.50400001928E-02 0.  1.
    10030    2    1    2    0    0  0.00000000000E+00  0.00000000000E+00 -0.85696651989E+03  0.12463458567E+04  0.90497866179E+03 0.  0.
        2    1    3    3  502    0 -0.30631437812E+03 -0.13956761020E+03 -0.12030333801E+02  0.33682687689E+03  0.25500000920E-02 0. -1.
       -2    1    3    3    0  502  0.30631437812E+03  0.13956761020E+03 -0.84493618608E+03  0.90951897980E+03  0.25500000920E-02 0.  1.
</event>
<event>
 5   0  0.5072205E-03  0.9914317E+03  0.7818609E-02  0.9317993E-01
       -1   -1    0    0    0  501  0.00000000000E+00  0.00000000000E+00  0.81089821940E+03  0.81089821942E+03  0.50400001928E-02 0.  1.
        1   -1    0    0  501    0  0.00000000000E+00  0.00000000000E+00 -0.30303950623E+03  0.30303950627E+03  0.50400001928E-02 0. -1.
    10030    2    1    2    0    0  0.00000000000E+00  0.00000000000E+00  0.50785871317E+03  0.11139377257E+04  0.99143168406E+03 0.  0.
        5    1    3    3  502    0 -0.35530431880E+03  0.19449274595E+03  0.57496923025E+03  0.70333512135E+03  0.46999998093E+01 0.  1.
       -5    1    3    3    0  502  0.35530431880E+03 -0.19449274595E+03 -0.67110517080E+02  0.41060260434E+03  0.46999998093E+01 0. -1.
</event>
<event>
 5   0  0.8968798E-03  0.1149409E+04  0.7818609E-02  0.9158329E-01
       -2   -1    0    0    0  501  0.00000000000E+00  0.00000000000E+00  0.34119684068E+03  0.34119684069E+03  0.25500000920E-02 0. -1.
        2   -1    0    0  501    0  0.00000000000E+00  0.00000000000E+00 -0.96802000655E+03  0.96802000655E+03  0.25500000920E-02 0.  1.
    10030    2    1    2    0    0  0.00000000000E+00  0.00000000000E+00 -0.62682316587E+03  0.13092168472E+04  0.11494091838E+04 0.  0.
        2    1    3    3  502    0 -0.55137809476E+03 -0.14552347932E+03 -0.23214418476E+03  0.61569944692E+03  0.25500000920E-02 0.  1.
       -2    1    3    3    0  502  0.55137809476E+03  0.14552347932E+03 -0.39467898110E+03  0.69351740032E+03  0.25500000920E-02 0. -1.
</event>
<event>
 5   0  0.8968798E-03  0.1028554E+04  0.7818609E-02  0.9277770E-01
       -2   -1    0    0    0  501  0.00000000000E+00  0.00000000000E+00  0.89275301866E+03  0.89275301866E+03  0.25500000920E-02 0.  1.
        2   -1    0    0  501    0  0.00000000000E+00  0.00000000000E+00 -0.29625335474E+03  0.29625335475E+03  0.25500000920E-02 0. -1.
    10030    2    1    2    0    0  0.00000000000E+00  0.00000000000E+00  0.59649966391E+03  0.11890063734E+04  0.10285544745E+04 0.  0.
        2    1    3    3  502    0  0.14644344437E+03  0.24908495548E+03  0.79004773138E+03  0.84122792114E+03  0.25500000920E-02 0.  1.
       -2    1    3    3    0  502 -0.14644344437E+03 -0.24908495548E+03 -0.19354806746E+03  0.34777845228E+03  0.25500000920E-02 0. -1.
</event>
<event>
 5   0  0.5201968E-03  0.9768127E+03  0.7818609E-02  0.9334348E-01
       -1   -1    0    0    0  501  0.00000000000E+00  0.00000000000E+00  0.83292151904E+02  0.83292152057E+02  0.50400001928E-02 0. -1.
        1   -1    0    0  501    0  0.00000000000E+00  0.00000000000E+00 -0.28639043961E+04  0.28639043961E+04  0.50400001928E-02 0.  1.
    10030    2    1    2    0    0  0.00000000000E+00  0.00000000000E+00 -0.27806122442E+04  0.29471965482E+04  0.97681269490E+03 0.  0.
        2    1    3    3  502    0 -0.10611450450E+03 -0.37674492938E+03 -0.22717275730E+04  0.23051991662E+04  0.25500000920E-02 0.  1.
       -2    1    3    3    0  502  0.10611450450E+03  0.37674492938E+03 -0.50888467122E+03  0.64199738199E+03  0.25500000920E-02 0. -1.
</event>
<event>
 5   0  0.8875655E-03  0.9826439E+03  0.7818609E-02  0.9327788E-01
       -2   -1    0    0    0  501  0.00000000000E+00  0.00000000000E+00  0.18519773529E+03  0.18519773530E+03  0.25500000920E-02 0.  1.
        2   -1    0    0  501    0  0.00000000000E+00  0.00000000000E+00 -0.13034567797E+04  0.13034567797E+04  0.25500000920E-02 0. -1.
    10030    2    1    2    0    0  0.00000000000E+00  0.00000000000E+00 -0.11182590444E+04  0.14886545150E+04  0.98264386967E+03 0.  0.
        4    1    3    3  502    0 -0.11036822891E+03 -0.18321707298E+03 -0.12292196878E+04  0.12476907852E+04  0.12699999809E+01 0. -1.
       -4    1    3    3    0  502  0.11036822891E+03  0.18321707298E+03  0.11096064339E+03  0.24096372977E+03  0.12699999809E+01 0.  1.
</event>
<event>
 5   0  0.5072205E-03  0.9993583E+03  0.7818609E-02  0.9309249E-01
        1   -1    0    0  501    0  0.00000000000E+00  0.00000000000E+00  0.14872846594E+04  0.14872846594E+04  0.50400001928E-02 0. -1.
       -1   -1    0    0    0  501  0.00000000000E+00  0.00000000000E+00 -0.16787588756E+03  0.16787588763E+03  0.50400001928E-02 0.  1.
    10030    2    1    2    0    0  0.00000000000E+00  0.00000000000E+00  0.13194087718E+04  0.16551605470E+04  0.99935825870E+03 0.  0.
        5    1    3    3  502    0 -0.40599701084E+03 -0.18609217437E+03  0.10307622789E+04  0.11233685218E+04  0.46999998093E+01 0. -1.
       -5    1    3    3    0  502  0.40599701084E+03  0.18609217437E+03  0.28864649285E+03  0.53179202515E+03  0.46999998093E+01 0.  1.
</event>
<event>
 5   0  0.5072205E-03  0.1011168E+04  0.7818609E-02  0.9296380E-01
       -1   -1    0    0    0  501  0.00000000000E+00  0.00000000000E+00  0.14589573724E+03  0.14589573732E+03  0.50400001928E-02 0. -1.
        1   -1    0    0  501    0  0.00000000000E+00  0.00000000000E+00 -0.17520401727E+04  0.17520401727E+04  0.50400001928E-02 0.  1.
    10030    2    1    2    0    0  0.00000000000E+00  0.00000000000E+00 -0.16061444354E+04  0.18979359100E+04  0.10111680231E+04 0.  0.
        5    1    3    3  502    0  0.25178565080E+03 -0.27784199606E+03 -0.16655689635E+03  0.41031144079E+03  0.46999998093E+01 0. -1.
       -5    1    3    3    0  502 -0.25178565080E+03  0.27784199606E+03 -0.14395875391E+04  0.14876244692E+04  0.46999998093E+01 0.  1.
</event>
<event>
 5   0  0.5189877E-03  0.1020326E+04  0.7818609E-02  0.9286528E-01
       -1   -1    0    0    0  501  0.00000000000E+00  0.00000000000E+00  0.40915558698E+03  0.40915558701E+03  0.50400001928E-02 0. -1.
        1   -1    0    0  501    0  0.00000000000E+00  0.00000000000E+00 -0.63610627595E+03  0.63610627597E+03  0.50400001928E-02 0.  1.
    10030    2    1    2    0    0  0.00000000000E+00  0.00000000000E+00 -0.22695068897E+03  0.10452618630E+04  0.10203262944E+04 0.  0.
        3    1    3    3  502    0  0.45575818532E+03 -0.12502562202E+03  0.83364908031E+02  0.47989232932E+03  0.10100000352E+00 0. -1.
       -3    1    3    3    0  502 -0.45575818532E+03  0.12502562202E+03 -0.31031559700E+03  0.56536953366E+03  0.10100000352E+00 0.  1.
</event>
<event>
 5   0  0.8968798E-03  0.9934056E+03  0.7818609E-02  0.9315807E-01
        2   -1    0    0  501    0  0.00000000000E+00  0.00000000000E+00  0.16588557400E+04  0.16588557400E+04  0.25500000920E-02 0. -1.
       -2   -1    0    0    0  501  0.00000000000E+00  0.00000000000E+00 -0.14872520584E+03  0.14872520586E+03  0.25500000920E-02 0.  1.
    10030    2    1    2    0    0  0.00000000000E+00  0.00000000000E+00  0.15101305341E+04  0.18075809458E+04  0.99340557961E+03 0.  0.
        2    1    3    3  502    0 -0.32409345969E+03  0.29951360170E+03  0.11698684285E+04  0.12503347985E+04  0.25500000920E-02 0.  1.
       -2    1    3    3    0  502  0.32409345969E+03 -0.29951360170E+03  0.34026210561E+03  0.55724614736E+03  0.25500000920E-02 0. -1.
</event>
<event>
 5   0  0.5310275E-03  0.9981309E+03  0.7818609E-02  0.9310597E-01
        1   -1    0    0  501    0  0.00000000000E+00  0.00000000000E+00  0.56359183235E+03  0.56359183237E+03  0.50400001928E-02 0.  1.
       -1   -1    0    0    0  501  0.00000000000E+00  0.00000000000E+00 -0.44192674591E+03  0.44192674594E+03  0.50400001928E-02 0. -1.
    10030    2    1    2    0    0  0.00000000000E+00  0.00000000000E+00  0.12166508643E+03  0.10055185783E+04  0.99813086219E+03 0.  0.
        1    1    3    3  502    0 -0.19402485012E+02  0.46801194390E+03 -0.11264735206E+03  0.48176868101E+03  0.50400001928E-02 0. -1.
       -1    1    3    3    0  502  0.19402485012E+02 -0.46801194390E+03  0.23431243850E+03  0.52374989729E+03  0.50400001928E-02 0.  1.
</event>
<event>
 5   0  0.8968798E-03  0.9513725E+03  0.7818609E-02  0.9363548E-01
        2   -1    0    0  501    0  0.00000000000E+00  0.00000000000E+00  0.78337197767E+03  0.78337197767E+03  0.25500000920E-02 0.  1.
       -2   -1    0    0    0  501  0.00000000000E+00  0.00000000000E+00 -0.28885055026E+03  0.28885055027E+03  0.25500000920E-02 0. -1.
    10030    2    1    2    0    0  0.00000000000E+00  0.00000000000E+00  0.49452142741E+03  0.10722225279E+04  0.95137253863E+03 0.  0.
        2    1    3    3  502    0 -0.21113255315E+03  0.39682056259E+03  0.71813656617E+02  0.45519305264E+03  0.25500000920E-02 0. -1.
       -2    1    3    3    0  502  0.21113255315E+03 -0.39682056259E+03  0.42270777080E+03  0.61702947530E+03  0.25500000920E-02 0.  1.
</event>
<event>
 5   0  0.8968798E-03  0.9914664E+03  0.7818609E-02  0.9317954E-01
       -2   -1    0    0    0  501  0.00000000000E+00  0.00000000000E+00  0.33268380109E+03  0.33268380110E+03  0.25500000920E-02 0. -1.
        2   -1    0    0  501    0  0.00000000000E+00  0.00000000000E+00 -0.73869363241E+03  0.73869363241E+03  0.25500000920E-02 0.  1.
    10030    2    1    2    0    0  0.00000000000E+00  0.00000000000E+00 -0.40600983131E+03  0.10713774335E+04  0.99146639980E+03 0.  0.
        2    1    3    3  502    0 -0.40527748453E+03 -0.54486867937E+02  0.99818803414E+02  0.42093045954E+03  0.25500000920E-02 0. -1.
       -2    1    3    3    0  502  0.40527748453E+03  0.54486867937E+02 -0.50582863473E+03  0.65044697398E+03  0.25500000920E-02 0.  1.
</event>
<event>
 5   0  0.5189877E-03  0.1002835E+04  0.7818609E-02  0.9305441E-01
        1   -1    0    0  501    0  0.00000000000E+00  0.00000000000E+00  0.64692456916E+03  0.64692456918E+03  0.50400001928E-02 0. -1.
       -1   -1    0    0    0  501  0.00000000000E+00  0.00000000000E+00 -0.38863787204E+03  0.38863787208E+03  0.50400001928E-02 0.  1.
    10030    2    1    2    0    0  0.00000000000E+00  0.00000000000E+00  0.25828669712E+03  0.10355624413E+04  0.10028347580E+04 0.  0.
        3    1    3    3  502    0  0.48493498488E+03 -0.12727060178E+03  0.12116915036E+03  0.51579232142E+03  0.10100000352E+00 0. -1.
       -3    1    3    3    0  502 -0.48493498488E+03  0.12727060178E+03  0.13711754675E+03  0.51977011983E+03  0.10100000352E+00 0.  1.
</event>
<event>
 5   0  0.5310275E-03  0.1001042E+04  0.7818609E-02  0.9307403E-01
        1   -1    0    0  501    0  0.00000000000E+00  0.00000000000E+00  0.98425626538E+03  0.98425626539E+03  0.50400001928E-02 0. -1.
       -1   -1    0    0    0  501  0.00000000000E+00  0.00000000000E+00 -0.25452834268E+03  0.25452834273E+03  0.50400001928E-02 0.  1.
    10030    2    1    2    0    0  0.00000000000E+00  0.00000000000E+00  0.72972792270E+03  0.12387846081E+04  0.10010416895E+04 0.  0.
        1    1    3    3  502    0  0.30267013217E+03  0.37234789952E+03  0.18868288895E+03  0.51560973594E+03  0.50400001928E-02 0.  1.
       -1    1    3    3    0  502 -0.30267013217E+03 -0.37234789952E+03  0.54104503375E+03  0.72317487219E+03  0.50400001928E-02 0. -1.
</event>
<event>
 5   0  0.5189877E-03  0.1001229E+04  0.7818609E-02  0.9307198E-01
        1   -1    0    0  501    0  0.00000000000E+00  0.00000000000E+00  0.53852239718E+03  0.53852239720E+03  0.50400001928E-02 0. -1.
       -1   -1    0    0    0  501  0.00000000000E+00  0.00000000000E+00 -0.46537516606E+03  0.46537516609E+03  0.50400001928E-02 0.  1.
    10030    2    1    2    0    0  0.00000000000E+00  0.00000000000E+00  0.73147231119E+02  0.10038975633E+04  0.10012291447E+04 0.  0.
        3    1    3    3  502    0  0.95507586280E+02  0.18462091712E+03  0.49320845517E+03  0.53522067648E+03  0.10100000352E+00 0. -1.
       -3    1    3    3    0  502 -0.95507586280E+02 -0.18462091712E+03 -0.42006122405E+03  0.46867688681E+03  0.10100000352E+00 0.  1.
</event>
<event>
 5   0  0.5072205E-03  0.7441284E+03  0.7818609E-02  0.9644607E-01
       -1   -1    0    0    0  501  0.00000000000E+00  0.00000000000E+00  0.91958378394E+02  0.91958378532E+02  0.50400001928E-02 0. -1.
        1   -1    0    0  501    0  0.00000000000E+00  0.00000000000E+00 -0.15053740293E+04  0.15053740293E+04  0.50400001928E-02 0.  1.
    10030    2    1    2    0    0  0.00000000000E+00  0.00000000000E+00 -0.14134156509E+04  0.15973324078E+04  0.74412836185E+03 0.  0.
        5    1    3    3  502    0 -0.20054168915E+03 -0.19296015811E+03 -0.17671911018E+03  0.32970035731E+03  0.46999998093E+01 0. -1.
       -5    1    3    3    0  502  0.20054168915E+03  0.19296015811E+03 -0.12366965407E+04  0.12676320505E+04  0.46999998093E+01 0.  1.
</event>
<event>
 5   0  0.5349685E-03  0.1014101E+04  0.7818609E-02  0.9293213E-01
        1   -1    0    0  501    0  0.00000000000E+00  0.00000000000E+00  0.80516218773E+03  0.80516218774E+03  0.50400001928E-02 0. -1.
       -1   -1    0    0    0  501  0.00000000000E+00  0.00000000000E+00 -0.31931468672E+03  0.31931468676E+03  0.50400001928E-02 0.  1.
    10030    2    1    2    0    0  0.00000000000E+00  0.00000000000E+00  0.48584750100E+03  0.11244768745E+04  0.10141008072E+04 0.  0.
        4    1    3    3  502    0 -0.22437912515E+03  0.20116881768E+03 -0.20923831830E+03  0.36687487207E+03  0.12699999809E+01 0.  1.
       -4    1    3    3    0  502  0.22437912515E+03 -0.20116881768E+03  0.69508581930E+03  0.75760200244E+03  0.12699999809E+01 0. -1.
</event>
<event>
 5   0  0.5349685E-03  0.9666609E+03  0.7818609E-02  0.9345886E-01
       -1   -1    0    0    0  501  0.00000000000E+00  0.00000000000E+00  0.71101938601E+03  0.71101938603E+03  0.50400001928E-02 0. -1.
        1   -1    0    0  501    0  0.00000000000E+00  0.00000000000E+00 -0.32855406992E+03  0.32855406995E+03  0.50400001928E-02 0.  1.
    10030    2    1    2    0    0  0.00000000000E+00  0.00000000000E+00  0.38246531609E+03  0.10395734560E+04  0.96666087764E+03 0.  0.
        4    1    3    3  502    0 -0.93394514525E+02 -0.45229662633E+03  0.37962854962E+02  0.46339784720E+03  0.12699999809E+01 0. -1.
       -4    1    3    3    0  502  0.93394514525E+02  0.45229662633E+03  0.34450246113E+03  0.57617560878E+03  0.12699999809E+01 0.  1.
</event>
<event>
 5   0  0.9040674E-03  0.9909890E+03  0.7818609E-02  0.9318483E-01
       -2   -1    0    0    0  501  0.00000000000E+00  0.00000000000E+00  0.29287168592E+03  0.29287168593E+03  0.25500000920E-02 0. -1.
        2   -1    0    0  501    0  0.00000000000E+00  0.00000000000E+00 -0.83830166560E+03  0.83830166560E+03  0.25500000920E-02 0.  1.
    10030    2    1    2    0    0  0.00000000000E+00  0.00000000000E+00 -0.54542997968E+03  0.11311733515E+04  0.99098904559E+03 0.  0.
        1    1    3    3  502    0  0.20171932791E+03 -0.55936895591E+01  0.24384135662E+03  0.31651316535E+03  0.50400001928E-02 0. -1.
       -1    1    3    3    0  502 -0.20171932791E+03  0.55936895591E+01 -0.78927133630E+03  0.81466018618E+03  0.50400001928E-02 0.  1.
</event>
<event>
 5   0  0.9243773E-03  0.1026844E+04  0.7818609E-02  0.9279583E-01
        2   -1    0    0  501    0  0.00000000000E+00  0.00000000000E+00  0.63142083903E+03  0.63142083903E+03  0.25500000920E-02 0. -1.
       -2   -1    0    0    0  501  0.00000000000E+00  0.00000000000E+00 -0.41747461372E+03  0.41747461372E+03  0.25500000920E-02 0.  1.
    10030    2    1    2    0    0  0.00000000000E+00  0.00000000000E+00  0.21394622531E+03  0.10488954528E+04  0.10268440405E+04 0.  0.
        3    1    3    3  502    0  0.25730546606E+03 -0.28401171898E+03 -0.24202677377E+03  0.45326121476E+03  0.10100000352E+00 0.  1.
       -3    1    3    3    0  502 -0.25730546606E+03  0.28401171898E+03  0.45597299908E+03  0.59563423800E+03  0.10100000352E+00 0. -1.
</event>
<event>
 5   0  0.5072205E-03  0.1018908E+04  0.7818609E-02  0.9288047E-01
       -1   -1    0    0    0  501  0.00000000000E+00  0.00000000000E+00  0.96642372559E+03  0.96642372560E+03  0.50400001928E-02 0. -1.
        1   -1    0    0  501    0  0.00000000000E+00  0.00000000000E+00 -0.26856046360E+03  0.26856046364E+03  0.50400001928E-02 0.  1.
    10030    2    1    2    0    0  0.00000000000E+00  0.00000000000E+00  0.69786326199E+03  0.12349841892E+04  0.10189076579E+04 0.  0.
        5    1    3    3  502    0 -0.83409428451E+02 -0.45836204016E+03  0.99151087244E+02  0.47634642931E+03  0.46999998093E+01 0.  1.
       -5    1    3    3    0  502  0.83409428451E+02  0.45836204016E+03  0.59871217475E+03  0.75863775994E+03  0.46999998093E+01 0. -1.
</event>
<event>
 5   0  0.8968798E-03  0.9971224E+03  0.7818609E-02  0.9311707E-01
       -2   -1    0    0    0  501  0.00000000000E+00  0.00000000000E+00  0.28580727958E+03  0.28580727959E+03  0.25500000920E-02 0. -1.
        2   -1    0    0  501    0  0.00000000000E+00  0.00000000000E+00 -0.86968834400E+03  0.86968834401E+03  0.25500000920E-02 0.  1.
    10030    2    1    2    0    0  0.00000000000E+00  0.00000000000E+00 -0.58388106442E+03  0.11554956236E+04  0.99712237903E+03 0.  0.
        2    1    3    3  502    0 -0.17215918675E+03  0.23127464776E+03 -0.76328186245E+03  0.81592030851E+03  0.25500000920E-02 0.  1.
       -2    1    3    3    0  502  0.17215918675E+03 -0.23127464776E+03  0.17940079803E+03  0.33957531509E+03  0.25500000920E-02 0. -1.
</event>
<event>
 5   0  0.8875655E-03  0.9744716E+03  0.7818609E-02  0.9336996E-01
       -2   -1    0    0    0  501  0.00000000000E+00  0.00000000000E+00  0.80110535134E+03  0.80110535134E+03  0.25500000920E-02 0.  1.
        2   -1    0    0  501    0  0.00000000000E+00  0.00000000000E+00 -0.29633896833E+03  0.29633896835E+03  0.25500000920E-02 0. -1.
    10030    2    1    2    0    0  0.00000000000E+00  0.00000000000E+00  0.50476638300E+03  0.10974443197E+04  0.97447161755E+03 0.  0.
        4    1    3    3  502    0  0.10457658136E+03 -0.12625563860E+03  0.76910925264E+03  0.78638883706E+03  0.12699999809E+01 0.  1.
       -4    1    3    3    0  502 -0.10457658136E+03  0.12625563860E+03 -0.26434286964E+03  0.31105548263E+03  0.12699999809E+01 0. -1.
</event>
<event>
 5   0  0.5349685E-03  0.1009173E+04  0.7818609E-02  0.9298541E-01
        1   -1    0    0  501    0  0.00000000000E+00  0.00000000000E+00  0.33171723198E+03  0.33171723202E+03  0.50400001928E-02 0. -1.
       -1   -1    0    0    0  501  0.00000000000E+00  0.00000000000E+00 -0.76754371130E+03  0.76754371132E+03  0.50400001928E-02 0.  1.
    10030    2    1    2    0    0  0.00000000000E+00  0.00000000000E+00 -0.43582647932E+03  0.10992609433E+04  0.10091728799E+04 0.  0.
        4    1    3    3  502    0  0.19261124017E+03  0.18879113329E+03  0.24661209939E+03  0.36545905696E+03  0.12699999809E+01 0. -1.
       -4    1    3    3    0  502 -0.19261124017E+03 -0.18879113329E+03 -0.68243857871E+03  0.73380188638E+03  0.12699999809E+01 0.  1.
</event>
<event>
 5   0  0.8907355E-03  0.1008620E+04  0.7818609E-02  0.9299140E-01
       -2   -1    0    0    0  501  0.00000000000E+00  0.00000000000E+00  0.11811952196E+03  0.11811952199E+03  0.25500000920E-02 0. -1.
        2   -1    0    0  501    0  0.00000000000E+00  0.00000000000E+00 -0.21531471599E+04  0.21531471599E+04  0.25500000920E-02 0.  1.
    10030    2    1    2    0    0  0.00000000000E+00  0.00000000000E+00 -0.20350276379E+04  0.22712666819E+04  0.10086202720E+04 0.  0.
        5    1    3    3  502    0  0.44766858933E+03  0.42017076785E+02 -0.50335054110E+03  0.67494922612E+03  0.46999998093E+01 0. -1.
       -5    1    3    3    0  502 -0.44766858933E+03 -0.42017076785E+02 -0.15316770968E+04  0.15963174557E+04  0.46999998093E+01 0.  1.
</event>
<event>
 5   0  0.9040674E-03  0.9947356E+03  0.7818609E-02  0.9314338E-01
        2   -1    0    0  501    0  0.00000000000E+00  0.00000000000E+00  0.95392202831E+03  0.95392202831E+03  0.25500000920E-02 0. -1.
       -2   -1    0    0    0  501  0.00000000000E+00  0.00000000000E+00 -0.25932382563E+03  0.25932382565E+03  0.25500000920E-02 0.  1.
    10030    2    1    2    0    0  0.00000000000E+00  0.00000000000E+00  0.69459820268E+03  0.12132458540E+04  0.99473556234E+03 0.  0.
        1    1    3    3  502    0 -0.33140856371E+03  0.24000760820E+03  0.69214230590E+03  0.80404991122E+03  0.50400001928E-02 0. -1.
       -1    1    3    3    0  502  0.33140856371E+03 -0.24000760820E+03  0.24558967794E+01  0.40919594274E+03  0.50400001928E-02 0.  1.
</event>
<event>
 5   0  0.5349685E-03  0.1000720E+04  0.7818609E-02  0.9307755E-01
       -1   -1    0    0    0  501  0.00000000000E+00  0.00000000000E+00  0.17169999571E+03  0.17169999578E+03  0.50400001928E-02 0. -1.
        1   -1    0    0  501    0  0.00000000000E+00  0.00000000000E+00 -0.14581265321E+04  0.14581265321E+04  0.50400001928E-02 0.  1.
    10030    2    1    2    0    0  0.00000000000E+00  0.00000000000E+00 -0.12864265364E+04  0.16298265279E+04  0.10007203793E+04 0.  0.
        4    1    3    3  502    0 -0.25404660805E+03 -0.30970489802E+03 -0.15488363201E+03  0.42947334642E+03  0.12699999809E+01 0. -1.
       -4    1    3    3    0  502  0.25404660805E+03  0.30970489802E+03 -0.11315429044E+04  0.12003531815E+04  0.12699999809E+01 0.  1.
</event>
<event>
 5   0  0.3513625E-03  0.9827579E+03  0.7818609E-02  0.9327660E-01
        3   -1    0    0  501    0  0.00000000000E+00  0.00000000000E+00  0.13954598084E+04  0.13954598120E+04  0.10100000352E+00 0.  1.
       -3   -1    0    0    0  501  0.00000000000E+00  0.00000000000E+00 -0.17302771620E+03  0.17302774568E+03  0.10100000352E+00 0. -1.
    10030    2    1    2    0    0  0.00000000000E+00  0.00000000000E+00  0.12224320922E+04  0.15684875577E+04  0.98275785356E+03 0.  0.
        1    1    3    3  502    0 -0.35419443196E+03  0.31309151852E+03  0.39724849130E+03  0.61748389328E+03  0.50400001928E-02 0. -1.
       -1    1    3    3    0  502  0.35419443196E+03 -0.31309151852E+03  0.82518360089E+03  0.95100366445E+03  0.50400001928E-02 0.  1.
</event>
<event>
 5   0  0.5310275E-03  0.9417776E+03  0.7818609E-02  0.9374813E-01
        1   -1    0    0  501    0  0.00000000000E+00  0.00000000000E+00  0.86535916820E+03  0.86535916821E+03  0.50400001928E-02 0.  1.
       -1   -1    0    0    0  501  0.00000000000E+00  0.00000000000E+00 -0.25623611521E+03  0.25623611526E+03  0.50400001928E-02 0. -1.
    10030    2    1    2    0    0  0.00000000000E+00  0.00000000000E+00  0.60912305299E+03  0.11215952835E+04  0.94177762037E+03 0.  0.
        1    1    3    3  502    0  0.11035133475E+03 -0.32975983997E+03  0.68270389898E+03  0.76616159056E+03  0.50400001928E-02 0.  1.
       -1    1    3    3    0  502 -0.11035133475E+03  0.32975983997E+03 -0.73580845992E+02  0.35543369291E+03  0.50400001928E-02 0. -1.
</event>
<event>
 5   0  0.8875655E-03  0.1001138E+04  0.7818609E-02  0.9307297E-01
       -2   -1    0    0    0  501  0.00000000000E+00  0.00000000000E+00  0.11110294895E+03  0.11110294898E+03  0.25500000920E-02 0.  1.
        2   -1    0    0  501    0  0.00000000000E+00  0.00000000000E+00 -0.22552917462E+04  0.22552917462E+04  0.25500000920E-02 0. -1.
    10030    2    1    2    0    0  0.00000000000E+00  0.00000000000E+00 -0.21441887973E+04  0.23663946952E+04  0.10011384795E+04 0.  0.
        4    1    3    3  502    0 -0.86673368244E+02 -0.12634839343E+03  0.54308394134E+02  0.16256446062E+03  0.12699999809E+01 0.  1.
       -4    1    3    3    0  502  0.86673368244E+02  0.12634839343E+03 -0.21984971914E+04  0.22038302346E+04  0.12699999809E+01 0. -1.
</event>
<event>
 5   0  0.9243773E-03  0.1004398E+04  0.7818609E-02  0.9303735E-01
       -2   -1    0    0    0  501  0.00000000000E+00  0.00000000000E+00  0.33664078212E+03  0.33664078213E+03  0.25500000920E-02 0. -1.
        2   -1    0    0  501    0  0.00000000000E+00  0.00000000000E+00 -0.74917753129E+03  0.74917753130E+03  0.25500000920E-02 0.  1.
    10030    2    1    2    0    0  0.00000000000E+00  0.00000000000E+00 -0.41253674917E+03  0.10858183134E+04  0.10043977501E+04 0.  0.
        3    1    3    3  502    0 -0.45870998082E+03  0.19056262022E+02  0.13763917660E+02  0.45931192370E+03  0.10100000352E+00 0. -1.
       -3    1    3    3    0  502  0.45870998082E+03 -0.19056262022E+02 -0.42630066683E+03  0.62650638972E+03  0.10100000352E+00 0.  1.
</event>
<event>
 5   0  0.8968798E-03  0.9904269E+03  0.7818609E-02  0.9319107E-01
        2   -1    0    0  501    0  0.00000000000E+00  0.00000000000E+00  0.14232367462E+04  0.14232367462E+04  0.25500000920E-02 0.  1.
       -2   -1    0    0    0  501  0.00000000000E+00  0.00000000000E+00 -0.17230889258E+03  0.17230889259E+03  0.25500000920E-02 0. -1.
    10030    2    1    2    0    0  0.00000000000E+00  0.00000000000E+00  0.12509278536E+04  0.15955456388E+04  0.99042687288E+03 0.  0.
        2    1    3    3  502    0 -0.12342298987E+03 -0.20743237060E+02  0.13973390798E+04  0.14029326500E+04  0.25500000920E-02 0.  1.
       -2    1    3    3    0  502  0.12342298987E+03  0.20743237060E+02 -0.14641122619E+03  0.19261298885E+03  0.25500000920E-02 0. -1.
</event>
<event>
 5   0  0.8968798E-03  0.1011120E+04  0.7818609E-02  0.9296432E-01
        2   -1    0    0  501    0  0.00000000000E+00  0.00000000000E+00  0.65597136735E+03  0.65597136736E+03  0.25500000920E-02 0. -1.
       -2   -1    0    0    0  501  0.00000000000E+00  0.00000000000E+00 -0.38963712344E+03  0.38963712345E+03  0.25500000920E-02 0.  1.
    10030    2    1    2    0    0  0.00000000000E+00  0.00000000000E+00  0.26633424391E+03  0.10456084908E+04  0.10111197687E+04 0.  0.
        2    1    3    3  502    0  0.89442926834E+02  0.46539420353E+03  0.31523792400E+03  0.56918077144E+03  0.25500000920E-02 0. -1.
       -2    1    3    3    0  502 -0.89442926834E+02 -0.46539420353E+03 -0.48903680091E+02  0.47642771936E+03  0.25500000920E-02 0.  1.
</event>
<event>
 5   0  0.8875655E-03  0.1002202E+04  0.7818609E-02  0.9306133E-01
       -2   -1    0    0    0  501  0.00000000000E+00  0.00000000000E+00  0.31425684956E+03  0.31425684957E+03  0.25500000920E-02 0.  1.
        2   -1    0    0  501    0  0.00000000000E+00  0.00000000000E+00 -0.79903477353E+03  0.79903477354E+03  0.25500000920E-02 0. -1.
    10030    2    1    2    0    0  0.00000000000E+00  0.00000000000E+00 -0.48477792397E+03  0.11132916231E+04  0.10022018771E+04 0.  0.
        4    1    3    3  502    0  0.41097046187E+03 -0.47263017007E+02  0.71746773505E+02  0.41985679191E+03  0.12699999809E+01 0.  1.
       -4    1    3    3    0  502 -0.41097046187E+03  0.47263017007E+02 -0.55652469748E+03  0.69343483119E+03  0.12699999809E+01 0. -1.
</event>
<event>
 5   0  0.8907355E-03  0.1003825E+04  0.7818609E-02  0.9304359E-01
       -2   -1    0    0    0  501  0.00000000000E+00  0.00000000000E+00  0.20127113129E+03  0.20127113131E+03  0.25500000920E-02 0.  1.
        2   -1    0    0  501    0  0.00000000000E+00  0.00000000000E+00 -0.12516263831E+04  0.12516263831E+04  0.25500000920E-02 0. -1.
    10030    2    1    2    0    0  0.00000000000E+00  0.00000000000E+00 -0.10503552518E+04  0.14528975144E+04  0.10038252001E+04 0.  0.
        5    1    3    3  502    0 -0.22070603375E+03  0.23110736189E+03  0.34957469383E+02  0.32150564648E+03  0.46999998093E+01 0.  1.
       -5    1    3    3    0  502  0.22070603375E+03 -0.23110736189E+03 -0.10853127212E+04  0.11313918679E+04  0.46999998093E+01 0. -1.
</event>
<event>
 5   0  0.8907355E-03  0.9859764E+03  0.7818609E-02  0.9324061E-01
        2   -1    0    0  501    0  0.00000000000E+00  0.00000000000E+00  0.12543704210E+04  0.12543704210E+04  0.25500000920E-02 0.  1.
       -2   -1    0    0    0  501  0.00000000000E+00  0.00000000000E+00 -0.19375247623E+03  0.19375247625E+03  0.25500000920E-02 0. -1.
    10030    2    1    2    0    0  0.00000000000E+00  0.00000000000E+00  0.10606179448E+04  0.14481228973E+04  0.98597642000E+03 0.  0.
        5    1    3    3  502    0  0.32613681747E+03 -0.11296452899E+03  0.13350806433E+02  0.34543674174E+03  0.46999998093E+01 0. -1.
       -5    1    3    3    0  502 -0.32613681747E+03  0.11296452899E+03  0.10472671383E+04  0.11026861555E+04  0.46999998093E+01 0.  1.
</event>
<event>
 5   0  0.9243773E-03  0.9623974E+03  0.7818609E-02  0.9350776E-01
       -2   -1    0    0    0  501  0.00000000000E+00  0.00000000000E+00  0.21400826744E+03  0.21400826745E+03  0.25500000920E-02 0. -1.
        2   -1    0    0  501    0  0.00000000000E+00  0.00000000000E+00 -0.10819777853E+04  0.10819777853E+04  0.25500000920E-02 0.  1.
    10030    2    1    2    0    0  0.00000000000E+00  0.00000000000E+00 -0.86796951791E+03  0.12959860528E+04  0.96239740494E+03 0.  0.
        3    1    3    3  502    0 -0.70874383508E+02  0.28643239758E+02  0.20577940083E+03  0.21951944203E+03  0.10100000352E+00 0. -1.
       -3    1    3    3    0  502  0.70874383508E+02 -0.28643239758E+02 -0.10737489187E+04  0.10764666108E+04  0.10100000352E+00 0.  1.
</event>
<event>
 5   0  0.5349685E-03  0.9965430E+03  0.7818609E-02  0.9312345E-01
       -1   -1    0    0    0  501  0.00000000000E+00  0.00000000000E+00  0.53056503520E+03  0.53056503522E+03  0.50400001928E-02 0. -1.
        1   -1    0    0  501    0  0.00000000000E+00  0.00000000000E+00 -0.46794355201E+03  0.46794355203E+03  0.50400001928E-02 0.  1.
    10030    2    1    2    0    0  0.00000000000E+00  0.00000000000E+00  0.62621483191E+02  0.99850858726E+03  0.99654299891E+03 0.  0.
        4    1    3    3  502    0  0.37062365648E+03  0.18149542946E+03 -0.24847180006E+03  0.48170772672E+03  0.12699999809E+01 0.  1.
       -4    1    3    3    0  502 -0.37062365648E+03 -0.18149542946E+03  0.31109328326E+03  0.51680086053E+03  0.12699999809E+01 0. -1.
</event>
<event>
 5   0  0.5310275E-03  0.9956140E+03  0.7818609E-02  0.9313368E-01
        1   -1    0    0  501    0  0.00000000000E+00  0.00000000000E+00  0.36104818246E+03  0.36104818249E+03  0.50400001928E-02 0.  1.
       -1   -1    0    0    0  501  0.00000000000E+00  0.00000000000E+00 -0.68636773462E+03  0.68636773464E+03  0.50400001928E-02 0. -1.
    10030    2    1    2    0    0  0.00000000000E+00  0.00000000000E+00 -0.32531955216E+03  0.10474159171E+04  0.99561402785E+03 0.  0.
        1    1    3    3  502    0  0.40106688037E+03 -0.44872257512E+01 -0.47285178144E+03  0.62005127607E+03  0.50400001928E-02 0.  1.
       -1    1    3    3    0  502 -0.40106688037E+03  0.44872257512E+01  0.14753222928E+03  0.42736464106E+03  0.50400001928E-02 0. -1.
</event>
<event>
 5   0  0.8968798E-03  0.9988604E+03  0.7818609E-02  0.9309796E-01
        2   -1    0    0  501    0  0.00000000000E+00  0.00000000000E+00  0.53228656432E+03  0.53228656433E+03  0.25500000920E-02 0.  1.
       -2   -1    0    0    0  501  0.00000000000E+00  0.00000000000E+00 -0.46860192581E+03  0.46860192581E+03  0.25500000920E-02 0. -1.
    10030    2    1    2    0    0  0.00000000000E+00  0.00000000000E+00  0.63684638517E+02  0.10008884901E+04  0.99886036888E+03 0.  0.
        2    1    3    3  502    0 -0.91225647556E+02  0.48590798934E+03 -0.39024800027E+02  0.49593510452E+03  0.25500000920E-02 0.  1.
       -2    1    3    3    0  502  0.91225647556E+02 -0.48590798934E+03  0.10270943854E+03  0.50495338562E+03  0.25500000920E-02 0. -1.
</event>
<event>
 5   0  0.8875655E-03  0.1006401E+04  0.7818609E-02  0.9301552E-01
        2   -1    0    0  501    0  0.00000000000E+00  0.00000000000E+00  0.89459592534E+03  0.89459592534E+03  0.25500000920E-02 0. -1.
       -2   -1    0    0    0  501  0.00000000000E+00  0.00000000000E+00 -0.28304476328E+03  0.28304476329E+03  0.25500000920E-02 0.  1.
    10030    2    1    2    0    0  0.00000000000E+00  0.00000000000E+00  0.61155116206E+03  0.11776406886E+04  0.10064008981E+04 0.  0.
        4    1    3    3  502    0  0.29597449033E+03 -0.11236294755E+01  0.78196640642E+03  0.83610719118E+03  0.12699999809E+01 0. -1.
       -4    1    3    3    0  502 -0.29597449033E+03  0.11236294755E+01 -0.17041524436E+03  0.34153349745E+03  0.12699999809E+01 0.  1.
</event>
<event>
 5   0  0.5072205E-03  0.1016092E+04  0.7818609E-02  0.9291069E-01
        1   -1    0    0  501    0  0.00000000000E+00  0.00000000000E+00  0.32161853581E+03  0.32161853585E+03  0.50400001928E-02 0.  1.
       -1   -1    0    0    0  501  0.00000000000E+00  0.00000000000E+00 -0.80253736692E+03  0.80253736694E+03  0.50400001928E-02 0. -1.
    10030    2    1    2    0    0  0.00000000000E+00  0.00000000000E+00 -0.48091883111E+03  0.11241559028E+04  0.10160923047E+04 0.  0.
        5    1    3    3  502    0  0.12369811937E+03 -0.29106634203E+03  0.19940143623E+03  0.37390354768E+03  0.46999998093E+01 0.  1.
       -5    1    3    3    0  502 -0.12369811937E+03  0.29106634203E+03 -0.68032026734E+03  0.75025235511E+03  0.46999998093E+01 0. -1.
</event>
<event>
 5   0  0.3513625E-03  0.1011101E+04  0.7818609E-02  0.9296452E-01
       -3   -1    0    0    0  501  0.00000000000E+00  0.00000000000E+00  0.23365074340E+03  0.23365076523E+03  0.10100000352E+00 0.  1.
        3   -1    0    0  501    0  0.00000000000E+00  0.00000000000E+00 -0.10938611033E+04  0.10938611080E+04  0.10100000352E+00 0. -1.
    10030    2    1    2    0    0  0.00000000000E+00  0.00000000000E+00 -0.86021035989E+03  0.13275118732E+04  0.10111013353E+04 0.  0.
        2    1    3    3  502    0  0.38590179360E+03  0.26466924172E+03 -0.17888625808E+03  0.50096935551E+03  0.25500000920E-02 0.  1.
       -2    1    3    3    0  502 -0.38590179360E+03 -0.26466924172E+03 -0.68132410181E+03  0.82654251768E+03  0.25500000920E-02 0. -1.
</event>
<event>
 5   0  0.9040674E-03  0.1009796E+04  0.7818609E-02  0.9297866E-01
        2   -1    0    0  501    0  0.00000000000E+00  0.00000000000E+00  0.88449717663E+03  0.88449717663E+03  0.25500000920E-02 0. -1.
       -2   -1    0    0    0  501  0.00000000000E+00  0.00000000000E+00 -0.28821097451E+03  0.28821097452E+03  0.25500000920E-02 0.  1.
    10030    2    1    2    0    0  0.00000000000E+00  0.00000000000E+00  0.59628620212E+03  0.11727081512E+04  0.10097956095E+04 0.  0.
        1    1    3    3  502    0  0.16563793437E+02 -0.48699891804E+03  0.14460335547E+03  0.50828381429E+03  0.50400001928E-02 0.  1.
       -1    1    3    3    0  502 -0.16563793437E+02  0.48699891804E+03  0.45168284666E+03  0.66442433686E+03  0.50400001928E-02 0. -1.
</event>
<event>
 5   0  0.5072205E-03  0.9914628E+03  0.7818609E-02  0.9317958E-01
        1   -1    0    0  501    0  0.00000000000E+00  0.00000000000E+00  0.88186936218E+03  0.88186936219E+03  0.50400001928E-02 0. -1.
       -1   -1    0    0    0  501  0.00000000000E+00  0.00000000000E+00 -0.27866894106E+03  0.27866894111E+03  0.50400001928E-02 0.  1.
    10030    2    1    2    0    0  0.00000000000E+00  0.00000000000E+00  0.60320042111E+03  0.11605383033E+04  0.99146276047E+03 0.  0.
        5    1    3    3  502    0 -0.39804016861E+03  0.30250619536E+02 -0.42417428689E+02  0.40146283024E+03  0.46999998093E+01 0.  1.
       -5    1    3    3    0  502  0.39804016861E+03 -0.30250619536E+02  0.64561784980E+03  0.75907547306E+03  0.46999998093E+01 0. -1.
</event>
<event>
 5   0  0.5349685E-03  0.1004820E+04  0.7818609E-02  0.9303274E-01
       -1   -1    0    0    0  501  0.00000000000E+00  0.00000000000E+00  0.19187486741E+04  0.19187486741E+04  0.50400001928E-02 0. -1.
        1   -1    0    0  501    0  0.00000000000E+00  0.00000000000E+00 -0.13155230822E+03  0.13155230832E+03  0.50400001928E-02 0.  1.
    10030    2    1    2    0    0  0.00000000000E+00  0.00000000000E+00  0.17871963659E+04  0.20503009825E+04  0.10048200179E+04 0.  0.
        4    1    3    3  502    0  0.40772586348E+03  0.13936783894E+03  0.14207750866E+04  0.14846774848E+04  0.12699999809E+01 0.  1.
       -4    1    3    3    0  502 -0.40772586348E+03 -0.13936783894E+03  0.36642127934E+03  0.56562349768E+03  0.12699999809E+01 0. -1.
</event>
<event>
 5   0  0.5349685E-03  0.1004319E+04  0.7818609E-02  0.9303820E-01
        1   -1    0    0  501    0  0.00000000000E+00  0.00000000000E+00  0.63580096540E+03  0.63580096542E+03  0.50400001928E-02 0.  1.
       -1   -1    0    0    0  501  0.00000000000E+00  0.00000000000E+00 -0.39660888207E+03  0.39660888210E+03  0.50400001928E-02 0. -1.
    10030    2    1    2    0    0  0.00000000000E+00  0.00000000000E+00  0.23919208333E+03  0.10324098475E+04  0.10043192921E+04 0.  0.
        4    1    3    3  502    0  0.45828308237E+03 -0.19946414795E+03  0.69727669332E+02  0.50465125648E+03  0.12699999809E+01 0. -1.
       -4    1    3    3    0  502 -0.45828308237E+03  0.19946414795E+03  0.16946441400E+03  0.52775859104E+03  0.12699999809E+01 0.  1.
</event>
<event>
 5   0  0.5310275E-03  0.1000370E+04  0.7818609E-02  0.9308139E-01
       -1   -1    0    0    0  501  0.00000000000E+00  0.00000000000E+00  0.16262915863E+03  0.16262915871E+03  0.50400001928E-02 0. -1.
        1   -1    0    0  501    0  0.00000000000E+00  0.00000000000E+00 -0.15383777691E+04  0.15383777692E+04  0.50400001928E-02 0.  1.
    10030    2    1    2    0    0  0.00000000000E+00  0.00000000000E+00 -0.13757486105E+04  0.17010069279E+04  0.10003700962E+04 0.  0.
        1    1    3    3  502    0 -0.69709420381E+02  0.49387762741E+03 -0.62401231962E+03  0.79885285830E+03  0.50400001928E-02 0. -1.
       -1    1    3    3    0  502  0.69709420381E+02 -0.49387762741E+03 -0.75173629090E+03  0.90215406957E+03  0.50400001928E-02 0.  1.
</event>
<event>
 5   0  0.5310275E-03  0.1003262E+04  0.7818609E-02  0.9304974E-01
       -1   -1    0    0    0  501  0.00000000000E+00  0.00000000000E+00  0.13673576142E+03  0.13673576151E+03  0.50400001928E-02 0.  1.
        1   -1    0    0  501    0  0.00000000000E+00  0.00000000000E+00 -0.18402924133E+04  0.18402924133E+04  0.50400001928E-02 0. -1.
    10030    2    1    2    0    0  0.00000000000E+00  0.00000000000E+00 -0.17035566519E+04  0.19770281748E+04  0.10032622478E+04 0.  0.
        1    1    3    3  502    0 -0.84486037954E+02 -0.43627065651E+03 -0.13103983192E+04  0.13836956787E+04  0.50400001928E-02 0. -1.
       -1    1    3    3    0  502  0.84486037954E+02  0.43627065651E+03 -0.39315833271E+03  0.59333249611E+03  0.50400001928E-02 0.  1.
</event>
<event>
 5   0  0.3513625E-03  0.9396313E+03  0.7818609E-02  0.9377353E-01
       -4   -1    0    0    0  501  0.00000000000E+00  0.00000000000E+00  0.37330217238E+03  0.37330433269E+03  0.12699999809E+01 0. -1.
        4   -1    0    0  501    0  0.00000000000E+00  0.00000000000E+00 -0.59127717160E+03  0.59127853551E+03  0.12699999809E+01 0.  1.
    10030    2    1    2    0    0  0.00000000000E+00  0.00000000000E+00 -0.21797499922E+03  0.96458286820E+03  0.93963131564E+03 0.  0.
        3    1    3    3  502    0 -0.33636979241E+03  0.20535473857E+03 -0.37153581520E+03  0.54162171123E+03  0.10100000352E+00 0.  1.
       -3    1    3    3    0  502  0.33636979241E+03 -0.20535473857E+03  0.15356081598E+03  0.42296115697E+03  0.10100000352E+00 0. -1.
</event>
<event>
 5   0  0.5072205E-03  0.1014096E+04  0.7818609E-02  0.9293219E-01
        1   -1    0    0  501    0  0.00000000000E+00  0.00000000000E+00  0.69175629267E+03  0.69175629269E+03  0.50400001928E-02 0. -1.
       -1   -1    0    0    0  501  0.00000000000E+00  0.00000000000E+00 -0.37165900129E+03  0.37165900132E+03  0.50400001928E-02 0.  1.
    10030    2    1    2    0    0  0.00000000000E+00  0.00000000000E+00  0.32009729138E+03  0.10634152940E+04  0.10140955633E+04 0.  0.
        5    1    3    3  502    0  0.37444689604E+03 -0.11467911435E+01 -0.19843025046E+03  0.42380236830E+03  0.46999998093E+01 0.  1.
       -5    1    3    3    0  502 -0.37444689604E+03  0.11467911435E+01  0.51852754185E+03  0.63961292571E+03  0.46999998093E+01 0. -1.
</event>
<event>
 5   0  0.9243773E-03  0.1002459E+04  0.7818609E-02  0.9305852E-01
       -2   -1    0    0    0  501  0.00000000000E+00  0.00000000000E+00  0.20548664339E+03  0.20548664340E+03  0.25500000920E-02 0.  1.
        2   -1    0    0  501    0  0.00000000000E+00  0.00000000000E+00 -0.12226148298E+04  0.12226148298E+04  0.25500000920E-02 0. -1.
    10030    2    1    2    0    0  0.00000000000E+00  0.00000000000E+00 -0.10171281864E+04  0.14281014732E+04  0.10024590117E+04 0.  0.
        3    1    3    3  502    0  0.13203258261E+03  0.30468422443E+02 -0.11960270296E+04  0.12036783596E+04  0.10100000352E+00 0. -1.
       -3    1    3    3    0  502 -0.13203258261E+03 -0.30468422443E+02  0.17889884317E+03  0.22442311362E+03  0.10100000352E+00 0.  1.
</event>
<event>
 5   0  0.5189877E-03  0.1005588E+04  0.7818609E-02  0.9302437E-01
        1   -1    0    0  501    0  0.00000000000E+00  0.00000000000E+00  0.11040633979E+04  0.11040633979E+04  0.50400001928E-02 0.  1.
       -1   -1    0    0    0  501  0.00000000000E+00  0.00000000000E+00 -0.22897402275E+03  0.22897402281E+03  0.50400001928E-02 0. -1.
    10030    2    1    2    0    0  0.00000000000E+00  0.00000000000E+00  0.87508937511E+03  0.13330374207E+04  0.10055880620E+04 0.  0.
        3    1    3    3  502    0 -0.19669468555E+03 -0.26841219048E+02  0.10499118389E+04  0.10685149180E+04  0.10100000352E+00 0.  1.
       -3    1    3    3    0  502  0.19669468555E+03  0.26841219048E+02 -0.17482246380E+03  0.26452250266E+03  0.10100000352E+00 0. -1.
</event>
<event>
 5   0  0.5201968E-03  0.1003817E+04  0.7818609E-02  0.9304368E-01
       -1   -1    0    0    0  501  0.00000000000E+00  0.00000000000E+00  0.70253683335E+03  0.70253683337E+03  0.50400001928E-02 0. -1.
        1   -1    0    0  501    0  0.00000000000E+00  0.00000000000E+00 -0.35857503832E+03  0.35857503835E+03  0.50400001928E-02 0.  1.
    10030    2    1    2    0    0  0.00000000000E+00  0.00000000000E+00  0.34396179503E+03  0.10611118717E+04  0.10038170590E+04 0.  0.
        2    1    3    3  502    0 -0.38437877079E+03 -0.10406207413E+03  0.49492822837E+03  0.63524003806E+03  0.25500000920E-02 0. -1.
       -2    1    3    3    0  502  0.38437877079E+03  0.10406207413E+03 -0.15096643334E+03  0.42587183366E+03  0.25500000920E-02 0.  1.
</event>
<event>
 5   0  0.8907355E-03  0.1002879E+04  0.7818609E-02  0.9305393E-01
       -2   -1    0    0    0  501  0.00000000000E+00  0.00000000000E+00  0.25663043274E+03  0.25663043275E+03  0.25500000920E-02 0. -1.
        2   -1    0    0  501    0  0.00000000000E+00  0.00000000000E+00 -0.97978051138E+03  0.97978051138E+03  0.25500000920E-02 0.  1.
    10030    2    1    2    0    0  0.00000000000E+00  0.00000000000E+00 -0.72315007864E+03  0.12364109441E+04  0.10028788494E+04 0.  0.
        5    1    3    3  502    0  0.13005765781E+03  0.84358557049E+02  0.22631781755E+03  0.27435962720E+03  0.46999998093E+01 0. -1.
       -5    1    3    3    0  502 -0.13005765781E+03 -0.84358557049E+02 -0.94946789619E+03  0.96205131692E+03  0.46999998093E+01 0.  1.
</event>
<event>
 5   0  0.9243773E-03  0.1033679E+04  0.7818609E-02  0.9272358E-01
       -2   -1    0    0    0  501  0.00000000000E+00  0.00000000000E+00  0.15740795373E+03  0.15740795375E+03  0.25500000920E-02 0. -1.
        2   -1    0    0  501    0  0.00000000000E+00  0.00000000000E+00 -0.16970121913E+04  0.16970121913E+04  0.25500000920E-02 0.  1.
    10030    2    1    2    0    0  0.00000000000E+00  0.00000000000E+00 -0.15396042376E+04  0.18544201451E+04  0.10336792859E+04 0.  0.
        3    1    3    3  502    0  0.44302495373E+02 -0.74362190083E+02  0.14431195470E+03  0.16828070858E+03  0.10100000352E+00 0. -1.
       -3    1    3    3    0  502 -0.44302495373E+02  0.74362190083E+02 -0.16839161923E+04  0.16861394365E+04  0.10100000352E+00 0.  1.
</event>
<event>
 5   0  0.5310275E-03  0.1004118E+04  0.7818609E-02  0.9304039E-01
       -1   -1    0    0    0  501  0.00000000000E+00  0.00000000000E+00  0.22735727777E+03  0.22735727782E+03  0.50400001928E-02 0. -1.
        1   -1    0    0  501    0  0.00000000000E+00  0.00000000000E+00 -0.11086668608E+04  0.11086668608E+04  0.50400001928E-02 0.  1.
    10030    2    1    2    0    0  0.00000000000E+00  0.00000000000E+00 -0.88130958301E+03  0.13360241386E+04  0.10041184780E+04 0.  0.
        1    1    3    3  502    0  0.37162061870E+03 -0.33520036258E+03 -0.38739457783E+03  0.63287891913E+03  0.50400001928E-02 0.  1.
       -1    1    3    3    0  502 -0.37162061870E+03  0.33520036258E+03 -0.49391500518E+03  0.70314521948E+03  0.50400001928E-02 0. -1.
</event>
<event>
 5   0  0.8875655E-03  0.1001462E+04  0.7818609E-02  0.9306943E-01
       -2   -1    0    0    0  501  0.00000000000E+00  0.00000000000E+00  0.18426485096E+03  0.18426485098E+03  0.25500000920E-02 0.  1.
        2   -1    0    0  501    0  0.00000000000E+00  0.00000000000E+00 -0.13607131700E+04  0.13607131700E+04  0.25500000920E-02 0. -1.
    10030    2    1    2    0    0  0.00000000000E+00  0.00000000000E+00 -0.11764483191E+04  0.15449780210E+04  0.10014621500E+04 0.  0.
        4    1    3    3  502    0  0.37919725765E+03 -0.29006285094E+03 -0.35526297917E+03  0.59509697947E+03  0.12699999809E+01 0. -1.
       -4    1    3    3    0  502 -0.37919725765E+03  0.29006285094E+03 -0.82118533989E+03  0.94988104153E+03  0.12699999809E+01 0.  1.
</event>
<event>
 5   0  0.9040674E-03  0.9832305E+03  0.7818609E-02  0.9327131E-01
        2   -1    0    0  501    0  0.00000000000E+00  0.00000000000E+00  0.69673976514E+03  0.69673976514E+03  0.25500000920E-02 0. -1.
       -2   -1    0    0    0  501  0.00000000000E+00  0.00000000000E+00 -0.34688070042E+03  0.34688070043E+03  0.25500000920E-02 0.  1.
    10030    2    1    2    0    0  0.00000000000E+00  0.00000000000E+00  0.34985906472E+03  0.10436204656E+04  0.98323054824E+03 0.  0.
        1    1    3    3  502    0 -0.57585141889E+02 -0.52098948659E+02  0.69018874312E+03  0.69454362726E+03  0.50400001928E-02 0. -1.
       -1    1    3    3    0  502  0.57585141889E+02  0.52098948659E+02 -0.34032967840E+03  0.34907683831E+03  0.50400001928E-02 0.  1.
</event>
<event>
 5   0  0.9243773E-03  0.9971745E+03  0.7818609E-02  0.9311649E-01
       -2   -1    0    0    0  501  0.00000000000E+00  0.00000000000E+00  0.34858898273E+03  0.34858898274E+03  0.25500000920E-02 0.  1.
        2   -1    0    0  501    0  0.00000000000E+00  0.00000000000E+00 -0.71312997829E+03  0.71312997830E+03  0.25500000920E-02 0. -1.
    10030    2    1    2    0    0  0.00000000000E+00  0.00000000000E+00 -0.36454099557E+03  0.10617189610E+04  0.99717451571E+03 0.  0.
        3    1    3    3  502    0 -0.12557452194E+03  0.44706283516E+03 -0.37555620828E+03  0.59722409104E+03  0.10100000352E+00 0. -1.
       -3    1    3    3    0  502  0.12557452194E+03 -0.44706283516E+03  0.11015212718E+02  0.46449487000E+03  0.10100000352E+00 0.  1.
</event>
<event>
 5   0  0.5072205E-03  0.1016766E+04  0.7818609E-02  0.9290345E-01
       -1   -1    0    0    0  501  0.00000000000E+00  0.00000000000E+00  0.24079301585E+03  0.24079301591E+03  0.50400001928E-02 0.  1.
        1   -1    0    0  501    0  0.00000000000E+00  0.00000000000E+00 -0.10733418875E+04  0.10733418875E+04  0.50400001928E-02 0. -1.
    10030    2    1    2    0    0  0.00000000000E+00  0.00000000000E+00 -0.83254887161E+03  0.13141349034E+04  0.10167659124E+04 0.  0.
        5    1    3    3  502    0 -0.49083657041E+03 -0.10432650519E+03 -0.31106280593E+03  0.59041232861E+03  0.46999998093E+01 0. -1.
       -5    1    3    3    0  502  0.49083657041E+03  0.10432650519E+03 -0.52148606568E+03  0.72372257478E+03  0.46999998093E+01 0.  1.
</event>
<event>
 5   0  0.5201968E-03  0.9931645E+03  0.7818609E-02  0.9316074E-01
       -1   -1    0    0    0  501  0.00000000000E+00  0.00000000000E+00  0.33667284346E+03  0.33667284350E+03  0.50400001928E-02 0. -1.
        1   -1    0    0  501    0  0.00000000000E+00  0.00000000000E+00 -0.73244379805E+03  0.73244379807E+03  0.50400001928E-02 0.  1.
    10030    2    1    2    0    0  0.00000000000E+00  0.00000000000E+00 -0.39577095459E+03  0.10691166416E+04  0.99316451043E+03 0.  0.
        2    1    3    3  502    0  0.31102749838E+02 -0.15527170158E+03  0.30876409100E+03  0.34700424530E+03  0.25500000920E-02 0. -1.
       -2    1    3    3    0  502 -0.31102749838E+02  0.15527170158E+03 -0.70453504560E+03  0.72211239626E+03  0.25500000920E-02 0.  1.
</event>
<event>
 5   0  0.5310275E-03  0.9731518E+03  0.7818609E-02  0.9338492E-01
       -1   -1    0    0    0  501  0.00000000000E+00  0.00000000000E+00  0.19397323703E+03  0.19397323710E+03  0.50400001928E-02 0. -1.
        1   -1    0    0  501    0  0.00000000000E+00  0.00000000000E+00 -0.12205605694E+04  0.12205605694E+04  0.50400001928E-02 0.  1.
    10030    2    1    2    0    0  0.00000000000E+00  0.00000000000E+00 -0.10265873323E+04  0.14145338065E+04  0.97315175525E+03 0.  0.
        1    1    3    3  502    0 -0.28683992815E+03 -0.23391103727E+03 -0.54179258464E+02  0.37406805505E+03  0.50400001928E-02 0. -1.
       -1    1    3    3    0  502  0.28683992815E+03  0.23391103727E+03 -0.97240807389E+03  0.10404657514E+04  0.50400001928E-02 0.  1.
</event>
<event>
 5   0  0.8968798E-03  0.1006898E+04  0.7818609E-02  0.9301011E-01
        2   -1    0    0  501    0  0.00000000000E+00  0.00000000000E+00  0.13100747588E+04  0.13100747588E+04  0.25500000920E-02 0. -1.
       -2   -1    0    0    0  501  0.00000000000E+00  0.00000000000E+00 -0.19347063619E+03  0.19347063620E+03  0.25500000920E-02 0.  1.
    10030    2    1    2    0    0  0.00000000000E+00  0.00000000000E+00  0.11166041226E+04  0.15035453950E+04  0.10068982015E+04 0.  0.
        2    1    3    3  502    0 -0.13853799081E+03  0.26773775119E+03  0.11604051315E+04  0.11989229948E+04  0.25500000920E-02 0. -1.
       -2    1    3    3    0  502  0.13853799081E+03 -0.26773775119E+03 -0.43801008872E+02  0.30462240019E+03  0.25500000920E-02 0.  1.
</event>
<event>
 5   0  0.8875655E-03  0.1007136E+04  0.7818609E-02  0.9300752E-01
       -2   -1    0    0    0  501  0.00000000000E+00  0.00000000000E+00  0.23096232759E+03  0.23096232761E+03  0.25500000920E-02 0.  1.
        2   -1    0    0  501    0  0.00000000000E+00  0.00000000000E+00 -0.10979318911E+04  0.10979318911E+04  0.25500000920E-02 0. -1.
    10030    2    1    2    0    0  0.00000000000E+00  0.00000000000E+00 -0.86696956353E+03  0.13288942187E+04  0.10071363465E+04 0.  0.
        4    1    3    3  502    0  0.22081008718E+03 -0.76804564908E+02  0.15501312527E+03  0.28051152863E+03  0.12699999809E+01 0. -1.
       -4    1    3    3    0  502 -0.22081008718E+03  0.76804564908E+02 -0.10219826888E+04  0.10483826901E+04  0.12699999809E+01 0.  1.
</event>
<event>
 5   0  0.5201968E-03  0.1009294E+04  0.7818609E-02  0.9298409E-01
       -1   -1    0    0    0  501  0.00000000000E+00  0.00000000000E+00  0.19318555982E+03  0.19318555989E+03  0.50400001928E-02 0. -1.
        1   -1    0    0  501    0  0.00000000000E+00  0.00000000000E+00 -0.13182597113E+04  0.13182597114E+04  0.50400001928E-02 0.  1.
    10030    2    1    2    0    0  0.00000000000E+00  0.00000000000E+00 -0.11250741515E+04  0.15114452712E+04  0.10092942889E+04 0.  0.
        2    1    3    3  502    0 -0.10094980054E+03 -0.41318144136E+03 -0.15582970253E+03  0.45298196643E+03  0.25500000920E-02 0. -1.
       -2    1    3    3    0  502  0.10094980054E+03  0.41318144136E+03 -0.96924444900E+03  0.10584633048E+04  0.25500000920E-02 0.  1.
</event>
<event>
 5   0  0.3513625E-03  0.9961261E+03  0.7818609E-02  0.9312804E-01
       -3   -1    0    0    0  501  0.00000000000E+00  0.00000000000E+00  0.14805140665E+04  0.14805140700E+04  0.10100000352E+00 0.  1.
        3   -1    0    0  501    0  0.00000000000E+00  0.00000000000E+00 -0.16755448662E+03  0.16755451706E+03  0.10100000352E+00 0. -1.
    10030    2    1    2    0    0  0.00000000000E+00  0.00000000000E+00  0.13129595799E+04  0.16480685870E+04  0.99612610100E+03 0.  0.
        3    1    3    3  502    0 -0.22632110952E+03 -0.49610015038E+02 -0.72963710740E+02  0.24291173601E+03  0.10100000352E+00 0. -1.
       -3    1    3    3    0  502  0.22632110952E+03  0.49610015038E+02  0.13859232906E+04  0.14051568510E+04  0.10100000352E+00 0.  1.
</event>
<event>
 5   0  0.5072205E-03  0.9899399E+03  0.7818609E-02  0.9319648E-01
        1   -1    0    0  501    0  0.00000000000E+00  0.00000000000E+00  0.61679668095E+03  0.61679668097E+03  0.50400001928E-02 0.  1.
       -1   -1    0    0    0  501  0.00000000000E+00  0.00000000000E+00 -0.39720586922E+03  0.39720586925E+03  0.50400001928E-02 0. -1.
    10030    2    1    2    0    0  0.00000000000E+00  0.00000000000E+00  0.21959081173E+03  0.10140025502E+04  0.98993992104E+03 0.  0.
        5    1    3    3  502    0 -0.25319841957E+03 -0.11620718961E+03 -0.30924466171E+03  0.41625461124E+03  0.46999998093E+01 0. -1.
       -5    1    3    3    0  502  0.25319841957E+03  0.11620718961E+03  0.52883547343E+03  0.59774793898E+03  0.46999998093E+01 0.  1.
</event>
<event>
 5   0  0.5201968E-03  0.1010275E+04  0.7818609E-02  0.9297346E-01
        1   -1    0    0  501    0  0.00000000000E+00  0.00000000000E+00  0.18913568069E+04  0.18913568069E+04  0.50400001928E-02 0. -1.
       -1   -1    0    0    0  501  0.00000000000E+00  0.00000000000E+00 -0.13491056373E+03  0.13491056383E+03  0.50400001928E-02 0.  1.
    10030    2    1    2    0    0  0.00000000000E+00  0.00000000000E+00  0.17564462431E+04  0.20262673707E+04  0.10102752360E+04 0.  0.
        2    1    3    3  502    0 -0.68967506260E+02  0.49922849809E+03  0.94707312190E+03  0.10728155053E+04  0.25500000920E-02 0. -1.
       -2    1    3    3    0  502  0.68967506260E+02 -0.49922849809E+03  0.80937312125E+03  0.95345186540E+03  0.25500000920E-02 0.  1.
</event>
<event>
 5   0  0.3513625E-03  0.9544802E+03  0.7818609E-02  0.9359929E-01
        3   -1    0    0  501    0  0.00000000000E+00  0.00000000000E+00  0.29633641470E+03  0.29633643191E+03  0.10100000352E+00 0. -1.
       -3   -1    0    0    0  501  0.00000000000E+00  0.00000000000E+00 -0.76857953758E+03  0.76857954422E+03  0.10100000352E+00 0.  1.
    10030    2    1    2    0    0  0.00000000000E+00  0.00000000000E+00 -0.47224312289E+03  0.10649159761E+04  0.95448020885E+03 0.  0.
        2    1    3    3  502    0 -0.78837820611E+02  0.10302892467E+03  0.27628570626E+03  0.30522803404E+03  0.25500000920E-02 0. -1.
       -2    1    3    3    0  502  0.78837820611E+02 -0.10302892467E+03 -0.74852882914E+03  0.75968794208E+03  0.25500000920E-02 0.  1.
</event>
<event>
 5   0  0.8968798E-03  0.9970946E+03  0.7818609E-02  0.9311737E-01
       -2   -1    0    0    0  501  0.00000000000E+00  0.00000000000E+00  0.16290216184E+04  0.16290216184E+04  0.25500000920E-02 0.  1.
        2   -1    0    0  501    0  0.00000000000E+00  0.00000000000E+00 -0.15257589059E+03  0.15257589061E+03  0.25500000920E-02 0. -1.
    10030    2    1    2    0    0  0.00000000000E+00  0.00000000000E+00  0.14764457278E+04  0.17815975090E+04  0.99709462787E+03 0.  0.
        2    1    3    3  502    0 -0.35290626432E+03  0.97178448383E+02  0.13344581792E+03  0.38960783944E+03  0.25500000920E-02 0. -1.
       -2    1    3    3    0  502  0.35290626432E+03 -0.97178448383E+02  0.13429999099E+04  0.13919896696E+04  0.25500000920E-02 0.  1.
</event>
<event>
 5   0  0.9243773E-03  0.1100673E+04  0.7818609E-02  0.9204536E-01
        2   -1    0    0  501    0  0.00000000000E+00  0.00000000000E+00  0.65271935839E+03  0.65271935839E+03  0.25500000920E-02 0.  1.
       -2   -1    0    0    0  501  0.00000000000E+00  0.00000000000E+00 -0.46401278290E+03  0.46401278291E+03  0.25500000920E-02 0. -1.
    10030    2    1    2    0    0  0.00000000000E+00  0.00000000000E+00  0.18870657548E+03  0.11167321413E+04  0.11006727505E+04 0.  0.
        3    1    3    3  502    0 -0.14646721926E+03 -0.39139246929E+03  0.45766936279E+03  0.61975960434E+03  0.10100000352E+00 0.  1.
       -3    1    3    3    0  502  0.14646721926E+03  0.39139246929E+03 -0.26896278731E+03  0.49697253696E+03  0.10100000352E+00 0. -1.
</event>
<event>
 5   0  0.8968798E-03  0.1006397E+04  0.7818609E-02  0.9301556E-01
        2   -1    0    0  501    0  0.00000000000E+00  0.00000000000E+00  0.51947277507E+03  0.51947277508E+03  0.25500000920E-02 0.  1.
       -2   -1    0    0    0  501  0.00000000000E+00  0.00000000000E+00 -0.48743431203E+03  0.48743431204E+03  0.25500000920E-02 0. -1.
    10030    2    1    2    0    0  0.00000000000E+00  0.00000000000E+00  0.32038463041E+02  0.10069070871E+04  0.10063972471E+04 0.  0.
        2    1    3    3  502    0  0.17557858454E+03  0.45602942775E+03  0.13615577294E+03  0.50727613076E+03  0.25500000920E-02 0.  1.
       -2    1    3    3    0  502 -0.17557858454E+03 -0.45602942775E+03 -0.10411730989E+03  0.49963095636E+03  0.25500000920E-02 0. -1.
</event>
<event>
 5   0  0.5189877E-03  0.9981151E+03  0.7818609E-02  0.9310614E-01
        1   -1    0    0  501    0  0.00000000000E+00  0.00000000000E+00  0.17094044213E+04  0.17094044213E+04  0.50400001928E-02 0.  1.
       -1   -1    0    0    0  501  0.00000000000E+00  0.00000000000E+00 -0.14569896620E+03  0.14569896629E+03  0.50400001928E-02 0. -1.
    10030    2    1    2    0    0  0.00000000000E+00  0.00000000000E+00  0.15637054551E+04  0.18551033876E+04  0.99811513785E+03 0.  0.
        3    1    3    3  502    0  0.13635276195E+03  0.48005316697E+03  0.77457607683E+03  0.92141805268E+03  0.10100000352E+00 0.  1.
       -3    1    3    3    0  502 -0.13635276195E+03 -0.48005316697E+03  0.78912937828E+03  0.93368533493E+03  0.10100000352E+00 0. -1.
</event>
<event>
 5   0  0.5072205E-03  0.9210906E+03  0.7818609E-02  0.9399595E-01
        1   -1    0    0  501    0  0.00000000000E+00  0.00000000000E+00  0.16846252601E+03  0.16846252608E+03  0.50400001928E-02 0. -1.
       -1   -1    0    0    0  501  0.00000000000E+00  0.00000000000E+00 -0.12590453714E+04  0.12590453714E+04  0.50400001928E-02 0.  1.
    10030    2    1    2    0    0  0.00000000000E+00  0.00000000000E+00 -0.10905828454E+04  0.14275078975E+04  0.92109057900E+03 0.  0.
        5    1    3    3  502    0 -0.28966573031E+03 -0.32428613738E+03 -0.31019031355E+03  0.53414216725E+03  0.46999998093E+01 0. -1.
       -5    1    3    3    0  502  0.28966573031E+03  0.32428613738E+03 -0.78039253182E+03  0.89336573022E+03  0.46999998093E+01 0.  1.
</event>
<event>
 5   0  0.8907355E-03  0.9529198E+03  0.7818609E-02  0.9361744E-01
        2   -1    0    0  501    0  0.00000000000E+00  0.00000000000E+00  0.80782956709E+03  0.80782956709E+03  0.25500000920E-02 0.  1.
       -2   -1    0    0    0  501  0.00000000000E+00  0.00000000000E+00 -0.28101721980E+03  0.28101721982E+03  0.25500000920E-02 0. -1.
    10030    2    1    2    0    0  0.00000000000E+00  0.00000000000E+00  0.52681234728E+03  0.10888467869E+04  0.95291976373E+03 0.  0.
        5    1    3    3  502    0 -0.10114862418E+03  0.21694647992E+03  0.73410715415E+03  0.77216074952E+03  0.46999998093E+01 0.  1.
       -5    1    3    3    0  502  0.10114862418E+03 -0.21694647992E+03 -0.20729480687E+03  0.31668603739E+03  0.46999998093E+01 0. -1.
</event>
<event>
 5   0  0.5072205E-03  0.1052493E+04  0.7818609E-02  0.9252774E-01
        1   -1    0    0  501    0  0.00000000000E+00  0.00000000000E+00  0.89887790374E+03  0.89887790375E+03  0.50400001928E-02 0.  1.
       -1   -1    0    0    0  501  0.00000000000E+00  0.00000000000E+00 -0.30808980711E+03  0.30808980715E+03  0.50400001928E-02 0. -1.
    10030    2    1    2    0    0  0.00000000000E+00  0.00000000000E+00  0.59078809663E+03  0.12069677109E+04  0.10524925083E+04 0.  0.
        5    1    3    3  502    0 -0.50736471532E+03 -0.93282645031E+02  0.41452816088E+03  0.66179777302E+03  0.46999998093E+01 0. -1.
       -5    1    3    3    0  502  0.50736471532E+03  0.93282645031E+02  0.17625993576E+03  0.54516993788E+03  0.46999998093E+01 0.  1.
</event>
<event>
 5   0  0.5201968E-03  0.9840951E+03  0.7818609E-02  0.9326163E-01
        1   -1    0    0  501    0  0.00000000000E+00  0.00000000000E+00  0.83912261664E+03  0.83912261665E+03  0.50400001928E-02 0.  1.
       -1   -1    0    0    0  501  0.00000000000E+00  0.00000000000E+00 -0.28852847822E+03  0.28852847826E+03  0.50400001928E-02 0. -1.
    10030    2    1    2    0    0  0.00000000000E+00  0.00000000000E+00  0.55059413842E+03  0.11276510949E+04  0.98409505973E+03 0.  0.
        2    1    3    3  502    0  0.14605180690E+02 -0.74384562404E+02 -0.28179724335E+03  0.29181511406E+03  0.25500000920E-02 0. -1.
       -2    1    3    3    0  502 -0.14605180690E+02  0.74384562404E+02  0.83239138177E+03  0.83583598085E+03  0.25500000920E-02 0.  1.
</event>
<event>
 5   0  0.8907355E-03  0.1006513E+04  0.7818609E-02  0.9301430E-01
        2   -1    0    0  501    0  0.00000000000E+00  0.00000000000E+00  0.88180742544E+03  0.88180742545E+03  0.25500000920E-02 0.  1.
       -2   -1    0    0    0  501  0.00000000000E+00  0.00000000000E+00 -0.28721380261E+03  0.28721380262E+03  0.25500000920E-02 0. -1.
    10030    2    1    2    0    0  0.00000000000E+00  0.00000000000E+00  0.59459362283E+03  0.11690212281E+04  0.10065133160E+04 0.  0.
        5    1    3    3  502    0  0.44482027667E+03 -0.14379210486E+03  0.80929237117E+02  0.47446061941E+03  0.46999998093E+01 0. -1.
       -5    1    3    3    0  502 -0.44482027667E+03  0.14379210486E+03  0.51366438571E+03  0.69456060866E+03  0.46999998093E+01 0.  1.
</event>
<event>
 5   0  0.5310275E-03  0.1047072E+04  0.7818609E-02  0.9258373E-01
        1   -1    0    0  501    0  0.00000000000E+00  0.00000000000E+00  0.74337206319E+03  0.74337206321E+03  0.50400001928E-02 0.  1.
       -1   -1    0    0    0  501  0.00000000000E+00  0.00000000000E+00 -0.36871141083E+03  0.36871141086E+03  0.50400001928E-02 0. -1.
    10030    2    1    2    0    0  0.00000000000E+00  0.00000000000E+00  0.37466065237E+03  0.11120834741E+04  0.10470716541E+04 0.  0.
        1    1    3    3  502    0  0.10520986663E+03 -0.15029098981E+03  0.70811507919E+03  0.73149399386E+03  0.50400001928E-02 0.  1.
       -1    1    3    3    0  502 -0.10520986663E+03  0.15029098981E+03 -0.33345442682E+03  0.38058948021E+03  0.50400001928E-02 0. -1.
</event>
<event>
 5   0  0.9243773E-03  0.9952286E+03  0.7818609E-02  0.9313794E-01
        2   -1    0    0  501    0  0.00000000000E+00  0.00000000000E+00  0.42297669306E+03  0.42297669306E+03  0.25500000920E-02 0.  1.
       -2   -1    0    0    0  501  0.00000000000E+00  0.00000000000E+00 -0.58542227601E+03  0.58542227602E+03  0.25500000920E-02 0. -1.
    10030    2    1    2    0    0  0.00000000000E+00  0.00000000000E+00 -0.16244558295E+03  0.10083989691E+04  0.99522857346E+03 0.  0.
        3    1    3    3  502    0 -0.39673281556E+02  0.46453013503E+03  0.95026707050E+02  0.47580699961E+03  0.10100000352E+00 0.  1.
       -3    1    3    3    0  502  0.39673281556E+02 -0.46453013503E+03 -0.25747229000E+03  0.53259196947E+03  0.10100000352E+00 0. -1.
</event>
<event>
 5   0  0.9040674E-03  0.9467324E+03  0.7818609E-02  0.9368978E-01
        2   -1    0    0  501    0  0.00000000000E+00  0.00000000000E+00  0.51950534216E+03  0.51950534217E+03  0.25500000920E-02 0. -1.
       -2   -1    0    0    0  501  0.00000000000E+00  0.00000000000E+00 -0.43132483165E+03  0.43132483166E+03  0.25500000920E-02 0.  1.
    10030    2    1    2    0    0  0.00000000000E+00  0.00000000000E+00  0.88180510511E+02  0.95083017382E+03  0.94673238934E+03 0.  0.
        1    1    3    3  502    0 -0.30909458654E+02 -0.19248028434E+03 -0.38913687805E+03  0.43523736556E+03  0.50400001928E-02 0.  1.
       -1    1    3    3    0  502  0.30909458654E+02  0.19248028434E+03  0.47731738856E+03  0.51559280827E+03  0.50400001928E-02 0. -1.
</event>
<event>
 5   0  0.9243773E-03  0.1121631E+04  0.7818609E-02  0.9184362E-01
       -2   -1    0    0    0  501  0.00000000000E+00  0.00000000000E+00  0.21306511965E+03  0.21306511966E+03  0.25500000920E-02 0.  1.
        2   -1    0    0  501    0  0.00000000000E+00  0.00000000000E+00 -0.14761394514E+04  0.14761394514E+04  0.25500000920E-02 0. -1.
    10030    2    1    2    0    0  0.00000000000E+00  0.00000000000E+00 -0.12630743318E+04  0.16892045711E+04  0.11216306502E+04 0.  0.
        3    1    3    3  502    0 -0.15321505975E+03  0.23749728845E+03 -0.13610414617E+04  0.13900768638E+04  0.10100000352E+00 0. -1.
       -3    1    3    3    0  502  0.15321505975E+03 -0.23749728845E+03  0.97967129891E+02  0.29912770733E+03  0.10100000352E+00 0.  1.
</event>
<event>
 5   0  0.3513625E-03  0.1001882E+04  0.7818609E-02  0.9306483E-01
        4   -1    0    0  501    0  0.00000000000E+00  0.00000000000E+00  0.10226806794E+04  0.10226814680E+04  0.12699999809E+01 0.  1.
       -4   -1    0    0    0  501  0.00000000000E+00  0.00000000000E+00 -0.24537399174E+03  0.24537727833E+03  0.12699999809E+01 0. -1.
    10030    2    1    2    0    0  0.00000000000E+00  0.00000000000E+00  0.77730668767E+03  0.12680587463E+04  0.10018818780E+04 0.  0.
        3    1    3    3  502    0  0.29859006100E+03 -0.31798605805E+03  0.76899225057E+02  0.44292737402E+03  0.10100000352E+00 0. -1.
       -3    1    3    3    0  502 -0.29859006100E+03  0.31798605805E+03  0.70040746262E+03  0.82513137229E+03  0.10100000352E+00 0.  1.
</event>
<event>
 5   0  0.8875655E-03  0.1005769E+04  0.7818609E-02  0.9302240E-01
       -2   -1    0    0    0  501  0.00000000000E+00  0.00000000000E+00  0.18238819776E+03  0.18238819778E+03  0.25500000920E-02 0. -1.
        2   -1    0    0  501    0  0.00000000000E+00  0.00000000000E+00 -0.13865640629E+04  0.13865640629E+04  0.25500000920E-02 0.  1.
    10030    2    1    2    0    0  0.00000000000E+00  0.00000000000E+00 -0.12041758652E+04  0.15689522607E+04  0.10057691992E+04 0.  0.
        4    1    3    3  502    0  0.24083692358E+03  0.14412948557E+03 -0.12530118189E+04  0.12840622896E+04  0.12699999809E+01 0.  1.
       -4    1    3    3    0  502 -0.24083692358E+03 -0.14412948557E+03  0.48835953718E+02  0.28488997112E+03  0.12699999809E+01 0. -1.
</event>
<event>
 5   0  0.5072205E-03  0.9403302E+03  0.7818609E-02  0.9376525E-01
       -1   -1    0    0    0  501  0.00000000000E+00  0.00000000000E+00  0.18052897472E+03  0.18052897479E+03  0.50400001928E-02 0.  1.
        1   -1    0    0  501    0  0.00000000000E+00  0.00000000000E+00 -0.12244860184E+04  0.12244860184E+04  0.50400001928E-02 0. -1.
    10030    2    1    2    0    0  0.00000000000E+00  0.00000000000E+00 -0.10439570437E+04  0.14050149932E+04  0.94033016651E+03 0.  0.
        5    1    3    3  502    0  0.32624705126E+03  0.16951800026E+03 -0.95979800365E+03  0.10278170015E+04  0.46999998093E+01 0. -1.
       -5    1    3    3    0  502 -0.32624705126E+03 -0.16951800026E+03 -0.84159040002E+02  0.37719799162E+03  0.46999998093E+01 0.  1.
</event>
<event>
 5   0  0.3513625E-03  0.9926010E+03  0.7818609E-02  0.9316697E-01
       -4   -1    0    0    0  501  0.00000000000E+00  0.00000000000E+00  0.33989232419E+03  0.33989469684E+03  0.12699999809E+01 0.  1.
        4   -1    0    0  501    0  0.00000000000E+00  0.00000000000E+00 -0.72467758516E+03  0.72467869800E+03  0.12699999809E+01 0. -1.
    10030    2    1    2    0    0  0.00000000000E+00  0.00000000000E+00 -0.38478526097E+03  0.10645733948E+04  0.99260103564E+03 0.  0.
        4    1    3    3  502    0 -0.19716931538E+03  0.56455200790E+02  0.29231689900E+03  0.35709062010E+03  0.12699999809E+01 0.  1.
       -4    1    3    3    0  502  0.19716931538E+03 -0.56455200790E+02 -0.67710215997E+03  0.70748277474E+03  0.12699999809E+01 0. -1.
</event>
<event>
 5   0  0.3513625E-03  0.1011212E+04  0.7818609E-02  0.9296332E-01
        3   -1    0    0  501    0  0.00000000000E+00  0.00000000000E+00  0.17908689628E+04  0.17908689657E+04  0.10100000352E+00 0. -1.
       -3   -1    0    0    0  501  0.00000000000E+00  0.00000000000E+00 -0.14274495585E+03  0.14274499158E+03  0.10100000352E+00 0.  1.
    10030    2    1    2    0    0  0.00000000000E+00  0.00000000000E+00  0.16481240070E+04  0.19336139573E+04  0.10112122395E+04 0.  0.
        1    1    3    3  502    0 -0.30324358428E+02  0.15285492542E+03  0.17438025953E+04  0.17507517489E+04  0.50400001928E-02 0. -1.
       -1    1    3    3    0  502  0.30324358428E+02 -0.15285492542E+03 -0.95678588337E+02  0.18286220832E+03  0.50400001928E-02 0.  1.
</event>
<event>
 5   0  0.3513625E-03  0.1001697E+04  0.7818609E-02  0.9306685E-01
        3   -1    0    0  501    0  0.00000000000E+00  0.00000000000E+00  0.23842241105E+03  0.23842243244E+03  0.10100000352E+00 0. -1.
       -3   -1    0    0    0  501  0.00000000000E+00  0.00000000000E+00 -0.10521217362E+04  0.10521217411E+04  0.10100000352E+00 0.  1.
    10030    2    1    2    0    0  0.00000000000E+00  0.00000000000E+00 -0.81369932517E+03  0.12905441735E+04  0.10016973954E+04 0.  0.
        1    1    3    3  502    0 -0.31561038168E+03 -0.38770120280E+03 -0.36761749406E+03  0.62053586330E+03  0.50400001928E-02 0. -1.
       -1    1    3    3    0  502  0.31561038168E+03  0.38770120280E+03 -0.44608183111E+03  0.67000831021E+03  0.50400001928E-02 0.  1.
</event>
<event>
 5   0  0.5072205E-03  0.9514404E+03  0.7818609E-02  0.9363468E-01
        1   -1    0    0  501    0  0.00000000000E+00  0.00000000000E+00  0.34931997087E+03  0.34931997090E+03  0.50400001928E-02 0.  1.
       -1   -1    0    0    0  501  0.00000000000E+00  0.00000000000E+00 -0.64785797613E+03  0.64785797615E+03  0.50400001928E-02 0. -1.
    10030    2    1    2    0    0  0.00000000000E+00  0.00000000000E+00 -0.29853800527E+03  0.99717794705E+03  0.95144044349E+03 0.  0.
        5    1    3    3  502    0 -0.60970894933E+02 -0.25863765272E+03 -0.56279511711E+03  0.62239161247E+03  0.46999998093E+01 0. -1.
       -5    1    3    3    0  502  0.60970894933E+02  0.25863765272E+03  0.26425711184E+03  0.37478633458E+03  0.46999998093E+01 0.  1.
</event>
<event>
 5   0  0.5201968E-03  0.1002159E+04  0.7818609E-02  0.9306180E-01
       -1   -1    0    0    0  501  0.00000000000E+00  0.00000000000E+00  0.49701246850E+03  0.49701246853E+03  0.50400001928E-02 0.  1.
        1   -1    0    0  501    0  0.00000000000E+00  0.00000000000E+00 -0.50517975271E+03  0.50517975273E+03  0.50400001928E-02 0. -1.
    10030    2    1    2    0    0  0.00000000000E+00  0.00000000000E+00 -0.81672842021E+01  0.10021922213E+04  0.10021589414E+04 0.  0.
        2    1    3    3  502    0  0.17086827324E+03  0.46470718277E+03  0.72937766703E+02  0.50046843091E+03  0.25500000920E-02 0.  1.
       -2    1    3    3    0  502 -0.17086827324E+03 -0.46470718277E+03 -0.81105050905E+02  0.50172379035E+03  0.25500000920E-02 0. -1.
</event>
<event>
 5   0  0.5189877E-03  0.9957309E+03  0.7818609E-02  0.9313240E-01
        1   -1    0    0  501    0  0.00000000000E+00  0.00000000000E+00  0.11511024777E+04  0.11511024777E+04  0.50400001928E-02 0.  1.
       -1   -1    0    0    0  501  0.00000000000E+00  0.00000000000E+00 -0.21533268910E+03  0.21533268916E+03  0.50400001928E-02 0. -1.
    10030    2    1    2    0    0  0.00000000000E+00  0.00000000000E+00  0.93576978856E+03  0.13664351668E+04  0.99573087126E+03 0.  0.
        3    1    3    3  502    0  0.16568916979E+03  0.32609592801E+03  0.93138411692E+03  0.10006337186E+04  0.10100000352E+00 0.  1.
       -3    1    3    3    0  502 -0.16568916979E+03 -0.32609592801E+03  0.43856716390E+01  0.36580144828E+03  0.10100000352E+00 0. -1.
</event>
<event>
 5   0  0.5072205E-03  0.1021084E+04  0.7818609E-02  0.9285718E-01
        1   -1    0    0  501    0  0.00000000000E+00  0.00000000000E+00  0.47956980839E+03  0.47956980841E+03  0.50400001928E-02 0. -1.
       -1   -1    0    0    0  501  0.00000000000E+00  0.00000000000E+00 -0.54351412599E+03  0.54351412601E+03  0.50400001928E-02 0.  1.
    10030    2    1    2    0    0  0.00000000000E+00  0.00000000000E+00 -0.63944317601E+02  0.10230839344E+04  0.10210836700E+04 0.  0.
        5    1    3    3  502    0 -0.10830537240E+03 -0.30602703200E+03  0.36281528286E+03  0.48686714562E+03  0.46999998093E+01 0. -1.
       -5    1    3    3    0  502  0.10830537240E+03  0.30602703200E+03 -0.42675960046E+03  0.53621678880E+03  0.46999998093E+01 0.  1.
</event>
<event>
 5   0  0.8907355E-03  0.9942039E+03  0.7818609E-02  0.9314925E-01
        2   -1    0    0  501    0  0.00000000000E+00  0.00000000000E+00  0.18298644723E+04  0.18298644723E+04  0.25500000920E-02 0. -1.
       -2   -1    0    0    0  501  0.00000000000E+00  0.00000000000E+00 -0.13504297312E+03  0.13504297314E+03  0.25500000920E-02 0.  1.
    10030    2    1    2    0    0  0.00000000000E+00  0.00000000000E+00  0.16948214992E+04  0.19649074455E+04  0.99420388004E+03 0.  0.
        5    1    3    3  502    0  0.34000543374E+03 -0.35249188391E+03  0.67931502613E+03  0.83746356215E+03  0.46999998093E+01 0.  1.
       -5    1    3    3    0  502 -0.34000543374E+03  0.35249188391E+03  0.10155064731E+04  0.11274438833E+04  0.46999998093E+01 0. -1.
</event>
<event>
 5   0  0.5310275E-03  0.1003181E+04  0.7818609E-02  0.9305063E-01
       -1   -1    0    0    0  501  0.00000000000E+00  0.00000000000E+00  0.27485576540E+03  0.27485576545E+03  0.50400001928E-02 0. -1.
        1   -1    0    0  501    0  0.00000000000E+00  0.00000000000E+00 -0.91536301400E+03  0.91536301402E+03  0.50400001928E-02 0.  1.
    10030    2    1    2    0    0  0.00000000000E+00  0.00000000000E+00 -0.64050724860E+03  0.11902187795E+04  0.10031805458E+04 0.  0.
        1    1    3    3  502    0 -0.38963607365E+03 -0.32403311594E+02  0.52536752917E+02  0.39449506324E+03  0.50400001928E-02 0. -1.
       -1    1    3    3    0  502  0.38963607365E+03  0.32403311594E+02 -0.69304400152E+03  0.79572371622E+03  0.50400001928E-02 0.  1.
</event>
<event>
 5   0  0.5072205E-03  0.9893468E+03  0.7818609E-02  0.9320307E-01
        1   -1    0    0  501    0  0.00000000000E+00  0.00000000000E+00  0.19103358461E+04  0.19103358461E+04  0.50400001928E-02 0.  1.
       -1   -1    0    0    0  501  0.00000000000E+00  0.00000000000E+00 -0.12809357715E+03  0.12809357725E+03  0.50400001928E-02 0. -1.
    10030    2    1    2    0    0  0.00000000000E+00  0.00000000000E+00  0.17822422689E+04  0.20384294233E+04  0.98934675862E+03 0.  0.
        5    1    3    3  502    0  0.11333569628E+03 -0.35413570771E+03  0.15632677889E+04  0.16068868502E+04  0.46999998093E+01 0.  1.
       -5    1    3    3    0  502 -0.11333569628E+03  0.35413570771E+03  0.21897448001E+03  0.43154257313E+03  0.46999998093E+01 0. -1.
</event>
<event>
 5   0  0.5349685E-03  0.9945230E+03  0.7818609E-02  0.9314572E-01
       -1   -1    0    0    0  501  0.00000000000E+00  0.00000000000E+00  0.13263052188E+03  0.13263052197E+03  0.50400001928E-02 0.  1.
        1   -1    0    0  501    0  0.00000000000E+00  0.00000000000E+00 -0.18643446330E+04  0.18643446330E+04  0.50400001928E-02 0. -1.
    10030    2    1    2    0    0  0.00000000000E+00  0.00000000000E+00 -0.17317141111E+04  0.19969751550E+04  0.99452300474E+03 0.  0.
        4    1    3    3  502    0  0.23481601746E+03 -0.35425865578E+03 -0.13841693784E+04  0.14479517389E+04  0.12699999809E+01 0. -1.
       -4    1    3    3    0  502 -0.23481601746E+03  0.35425865578E+03 -0.34754473277E+03  0.54902341610E+03  0.12699999809E+01 0.  1.
</event>
<event>
 5   0  0.5201968E-03  0.1022216E+04  0.7818609E-02  0.9284509E-01
       -1   -1    0    0    0  501  0.00000000000E+00  0.00000000000E+00  0.41424486912E+03  0.41424486915E+03  0.50400001928E-02 0. -1.
        1   -1    0    0  501    0  0.00000000000E+00  0.00000000000E+00 -0.63062098639E+03  0.63062098641E+03  0.50400001928E-02 0.  1.
    10030    2    1    2    0    0  0.00000000000E+00  0.00000000000E+00 -0.21637611726E+03  0.10448658556E+04  0.10222162354E+04 0.  0.
        2    1    3    3  502    0 -0.10330028943E+03 -0.20722618418E+03  0.35755900472E+03  0.42598366526E+03  0.25500000920E-02 0. -1.
       -2    1    3    3    0  502  0.10330028943E+03  0.20722618418E+03 -0.57393512199E+03  0.61888219030E+03  0.25500000920E-02 0.  1.
</event>
<event>
 5   0  0.8968798E-03  0.9911945E+03  0.7818609E-02  0.9318256E-01
        2   -1    0    0  501    0  0.00000000000E+00  0.00000000000E+00  0.35968496505E+03  0.35968496506E+03  0.25500000920E-02 0.  1.
       -2   -1    0    0    0  501  0.00000000000E+00  0.00000000000E+00 -0.68286596978E+03  0.68286596978E+03  0.25500000920E-02 0. -1.
    10030    2    1    2    0    0  0.00000000000E+00  0.00000000000E+00 -0.32318100473E+03  0.10425509348E+04  0.99119447634E+03 0.  0.
        2    1    3    3  502    0  0.30866315479E+03  0.76175029423E+02  0.23829347479E+03  0.39731518769E+03  0.25500000920E-02 0.  1.
       -2    1    3    3    0  502 -0.30866315479E+03 -0.76175029423E+02 -0.56147447952E+03  0.64523574715E+03  0.25500000920E-02 0. -1.
</event>
<event>
 5   0  0.9243773E-03  0.9941255E+03  0.7818609E-02  0.9315011E-01
        2   -1    0    0  501    0  0.00000000000E+00  0.00000000000E+00  0.79259342686E+03  0.79259342687E+03  0.25500000920E-02 0. -1.
       -2   -1    0    0    0  501  0.00000000000E+00  0.00000000000E+00 -0.31172522241E+03  0.31172522242E+03  0.25500000920E-02 0.  1.
    10030    2    1    2    0    0  0.00000000000E+00  0.00000000000E+00  0.48086820445E+03  0.11043186493E+04  0.99412546950E+03 0.  0.
        3    1    3    3  502    0  0.28791685274E+03  0.39887330953E+03  0.31957208218E+03  0.58661943119E+03  0.10100000352E+00 0. -1.
       -3    1    3    3    0  502 -0.28791685274E+03 -0.39887330953E+03  0.16129612228E+03  0.51769921809E+03  0.10100000352E+00 0.  1.
</event>
<event>
 5   0  0.8875655E-03  0.9908750E+03  0.7818609E-02  0.9318610E-01
        2   -1    0    0  501    0  0.00000000000E+00  0.00000000000E+00  0.77420688162E+03  0.77420688162E+03  0.25500000920E-02 0.  1.
       -2   -1    0    0    0  501  0.00000000000E+00  0.00000000000E+00 -0.31704486036E+03  0.31704486037E+03  0.25500000920E-02 0. -1.
    10030    2    1    2    0    0  0.00000000000E+00  0.00000000000E+00  0.45716202125E+03  0.10912517420E+04  0.99087499248E+03 0.  0.
        4    1    3    3  502    0 -0.37049146289E+03  0.13964883159E+03 -0.99397816005E+02  0.40822452029E+03  0.12699999809E+01 0. -1.
       -4    1    3    3    0  502  0.37049146289E+03 -0.13964883159E+03  0.55655983726E+03  0.68302722170E+03  0.12699999809E+01 0.  1.
</event>
<event>
 5   0  0.5189877E-03  0.1004594E+04  0.7818609E-02  0.9303520E-01
       -1   -1    0    0    0  501  0.00000000000E+00  0.00000000000E+00  0.42926891313E+03  0.42926891316E+03  0.50400001928E-02 0. -1.
        1   -1    0    0  501    0  0.00000000000E+00  0.00000000000E+00 -0.58774923874E+03  0.58774923877E+03  0.50400001928E-02 0.  1.
    10030    2    1    2    0    0  0.00000000000E+00  0.00000000000E+00 -0.15848032562E+03  0.10170181519E+04  0.10045943996E+04 0.  0.
        3    1    3    3  502    0 -0.62643978678E+02 -0.36967246254E+03  0.25913955735E+03  0.45577990084E+03  0.10100000352E+00 0. -1.
       -3    1    3    3    0  502  0.62643978678E+02  0.36967246254E+03 -0.41761988296E+03  0.56123825108E+03  0.10100000352E+00 0.  1.
</event>
<event>
 5   0  0.9040674E-03  0.1004560E+04  0.7818609E-02  0.9303558E-01
        2   -1    0    0  501    0  0.00000000000E+00  0.00000000000E+00  0.22088703060E+04  0.22088703060E+04  0.25500000920E-02 0.  1.
       -2   -1    0    0    0  501  0.00000000000E+00  0.00000000000E+00 -0.11421447494E+03  0.11421447497E+03  0.25500000920E-02 0. -1.
    10030    2    1    2    0    0  0.00000000000E+00  0.00000000000E+00  0.20946558310E+04  0.23230847810E+04  0.10045595299E+04 0.  0.
        1    1    3    3  502    0 -0.44549264111E+03  0.22053330881E+02  0.51326157949E+03  0.67999080265E+03  0.50400001928E-02 0. -1.
       -1    1    3    3    0  502  0.44549264111E+03 -0.22053330881E+02  0.15813942516E+04  0.16430939783E+04  0.50400001928E-02 0.  1.
</event>
<event>
 5   0  0.8907355E-03  0.1007553E+04  0.7818609E-02  0.9300300E-01
       -2   -1    0    0    0  501  0.00000000000E+00  0.00000000000E+00  0.28058617904E+03  0.28058617905E+03  0.25500000920E-02 0. -1.
        2   -1    0    0  501    0  0.00000000000E+00  0.00000000000E+00 -0.90450161701E+03  0.90450161701E+03  0.25500000920E-02 0.  1.
    10030    2    1    2    0    0  0.00000000000E+00  0.00000000000E+00 -0.62391543797E+03  0.11850877961E+04  0.10075527831E+04 0.  0.
        5    1    3    3  502    0  0.11403072722E+02  0.19604845330E+03 -0.85759925256E+03  0.87980883952E+03  0.46999998093E+01 0.  1.
       -5    1    3    3    0  502 -0.11403072722E+02 -0.19604845330E+03  0.23368381459E+03  0.30527895654E+03  0.46999998093E+01 0. -1.
</event>
<event>
 5   0  0.5349685E-03  0.9996890E+03  0.7818609E-02  0.9308886E-01
        1   -1    0    0  501    0  0.00000000000E+00  0.00000000000E+00  0.47265838242E+03  0.47265838245E+03  0.50400001928E-02 0.  1.
       -1   -1    0    0    0  501  0.00000000000E+00  0.00000000000E+00 -0.52859425002E+03  0.52859425005E+03  0.50400001928E-02 0. -1.
    10030    2    1    2    0    0  0.00000000000E+00  0.00000000000E+00 -0.55935867602E+02  0.10012526325E+04  0.99968895802E+03 0.  0.
        4    1    3    3  502    0  0.31258009038E+02 -0.12483032733E+01  0.47167534429E+03  0.47271330075E+03  0.12699999809E+01 0.  1.
       -4    1    3    3    0  502 -0.31258009038E+02  0.12483032733E+01 -0.52761121189E+03  0.52853933175E+03  0.12699999809E+01 0. -1.
</event>
<event>
 5   0  0.5201968E-03  0.9928494E+03  0.7818609E-02  0.9316422E-01
        1   -1    0    0  501    0  0.00000000000E+00  0.00000000000E+00  0.64420784376E+03  0.64420784378E+03  0.50400001928E-02 0.  1.
       -1   -1    0    0    0  501  0.00000000000E+00  0.00000000000E+00 -0.38254343283E+03  0.38254343287E+03  0.50400001928E-02 0. -1.
    10030    2    1    2    0    0  0.00000000000E+00  0.00000000000E+00  0.26166441093E+03  0.10267512767E+04  0.99284939450E+03 0.  0.
        2    1    3    3  502    0  0.38226132580E+03  0.15583209234E+03  0.41598308008E+03  0.58604546336E+03  0.25500000920E-02 0.  1.
       -2    1    3    3    0  502 -0.38226132580E+03 -0.15583209234E+03 -0.15431866916E+03  0.44070581329E+03  0.25500000920E-02 0. -1.
</event>
<event>
 5   0  0.5201968E-03  0.9914529E+03  0.7818609E-02  0.9317969E-01
        1   -1    0    0  501    0  0.00000000000E+00  0.00000000000E+00  0.39727077560E+03  0.39727077563E+03  0.50400001928E-02 0.  1.
       -1   -1    0    0    0  501  0.00000000000E+00  0.00000000000E+00 -0.61858234973E+03  0.61858234975E+03  0.50400001928E-02 0. -1.
    10030    2    1    2    0    0  0.00000000000E+00  0.00000000000E+00 -0.22131157413E+03  0.10158531254E+04  0.99145285288E+03 0.  0.
        2    1    3    3  502    0  0.15602768339E+03  0.42823833379E+03  0.89109078846E+02  0.46440621922E+03  0.25500000920E-02 0.  1.
       -2    1    3    3    0  502 -0.15602768339E+03 -0.42823833379E+03 -0.31042065297E+03  0.55144690616E+03  0.25500000920E-02 0. -1.
</event>
<event>
 5   0  0.5189877E-03  0.9756775E+03  0.7818609E-02  0.9335631E-01
       -1   -1    0    0    0  501  0.00000000000E+00  0.00000000000E+00  0.12478902540E+03  0.12478902550E+03  0.50400001928E-02 0.  1.
        1   -1    0    0  501    0  0.00000000000E+00  0.00000000000E+00 -0.19071119135E+04  0.19071119135E+04  0.50400001928E-02 0. -1.
    10030    2    1    2    0    0  0.00000000000E+00  0.00000000000E+00 -0.17823228881E+04  0.20319009390E+04  0.97567748180E+03 0.  0.
        3    1    3    3  502    0 -0.76684343476E+02  0.12022880807E+03 -0.18627373906E+04  0.18681879058E+04  0.10100000352E+00 0. -1.
       -3    1    3    3    0  502  0.76684343476E+02 -0.12022880807E+03  0.80414502510E+02  0.16371303320E+03  0.10100000352E+00 0.  1.
</event>
<event>
 5   0  0.5201968E-03  0.1002165E+04  0.7818609E-02  0.9306174E-01
        1   -1    0    0  501    0  0.00000000000E+00  0.00000000000E+00  0.50361030241E+03  0.50361030244E+03  0.50400001928E-02 0.  1.
       -1   -1    0    0    0  501  0.00000000000E+00  0.00000000000E+00 -0.49856712153E+03  0.49856712155E+03  0.50400001928E-02 0. -1.
    10030    2    1    2    0    0  0.00000000000E+00  0.00000000000E+00  0.50431808863E+01  0.10021774240E+04  0.10021647347E+04 0.  0.
        2    1    3    3  502    0 -0.39727230440E+03 -0.30413053820E+03  0.30142055218E+02  0.50122770435E+03  0.25500000920E-02 0.  1.
       -2    1    3    3    0  502  0.39727230440E+03  0.30413053820E+03 -0.25098874332E+02  0.50094971964E+03  0.25500000920E-02 0. -1.
</event>
<event>
 5   0  0.8968798E-03  0.1036835E+04  0.7818609E-02  0.9269043E-01
       -2   -1    0    0    0  501  0.00000000000E+00  0.00000000000E+00  0.19123605548E+03  0.19123605550E+03  0.25500000920E-02 0. -1.
        2   -1    0    0  501    0  0.00000000000E+00  0.00000000000E+00 -0.14053659406E+04  0.14053659406E+04  0.25500000920E-02 0.  1.
    10030    2    1    2    0    0  0.00000000000E+00  0.00000000000E+00 -0.12141298852E+04  0.15966019961E+04  0.10368348741E+04 0.  0.
        2    1    3    3  502    0 -0.79732629523E+02 -0.22625537501E+03  0.10062349749E+03  0.26014202887E+03  0.25500000920E-02 0. -1.
       -2    1    3    3    0  502  0.79732629523E+02  0.22625537501E+03 -0.13147533827E+04  0.13364599673E+04  0.25500000920E-02 0.  1.
</event>
<event>
 5   0  0.8968798E-03  0.9926257E+03  0.7818609E-02  0.9316670E-01
       -2   -1    0    0    0  501  0.00000000000E+00  0.00000000000E+00  0.23512506594E+03  0.23512506596E+03  0.25500000920E-02 0. -1.
        2   -1    0    0  501    0  0.00000000000E+00  0.00000000000E+00 -0.10476400276E+04  0.10476400276E+04  0.25500000920E-02 0.  1.
    10030    2    1    2    0    0  0.00000000000E+00  0.00000000000E+00 -0.81251496165E+03  0.12827650936E+04  0.99262567081E+03 0.  0.
        2    1    3    3  502    0 -0.28917755325E+03 -0.36443341925E+03 -0.62968273546E+03  0.78290211502E+03  0.25500000920E-02 0.  1.
       -2    1    3    3    0  502  0.28917755325E+03  0.36443341925E+03 -0.18283222620E+03  0.49986297854E+03  0.25500000920E-02 0. -1.
</event>
<event>
 5   0  0.9243773E-03  0.1000673E+04  0.7818609E-02  0.9307807E-01
        2   -1    0    0  501    0  0.00000000000E+00  0.00000000000E+00  0.61266517537E+03  0.61266517538E+03  0.25500000920E-02 0. -1.
       -2   -1    0    0    0  501  0.00000000000E+00  0.00000000000E+00 -0.40860257317E+03  0.40860257318E+03  0.25500000920E-02 0.  1.
    10030    2    1    2    0    0  0.00000000000E+00  0.00000000000E+00  0.20406260220E+03  0.10212677486E+04  0.10006729079E+04 0.  0.
        3    1    3    3  502    0  0.49794205074E+03 -0.45219606347E+02  0.12100033739E+03  0.51442413487E+03  0.10100000352E+00 0. -1.
       -3    1    3    3    0  502 -0.49794205074E+03  0.45219606347E+02  0.83062264813E+02  0.50684361368E+03  0.10100000352E+00 0.  1.
</event>
<event>
 5   0  0.3513625E-03  0.1000980E+04  0.7818609E-02  0.9307471E-01
        3   -1    0    0  501    0  0.00000000000E+00  0.00000000000E+00  0.24060269384E+03  0.24060271504E+03  0.10100000352E+00 0. -1.
       -3   -1    0    0    0  501  0.00000000000E+00  0.00000000000E+00 -0.10410938808E+04  0.10410938857E+04  0.10100000352E+00 0.  1.
    10030    2    1    2    0    0  0.00000000000E+00  0.00000000000E+00 -0.80049118692E+03  0.12816966007E+04  0.10009795382E+04 0.  0.
        3    1    3    3  502    0 -0.68714600410E+01  0.40002709445E+03 -0.78527592116E+03  0.88132126708E+03  0.10100000352E+00 0. -1.
       -3    1    3    3    0  502  0.68714600410E+01 -0.40002709445E+03 -0.15215265757E+02  0.40037533362E+03  0.10100000352E+00 0.  1.
</event>
<event>
 5   0  0.5310275E-03  0.9944955E+03  0.7818609E-02  0.9314603E-01
       -1   -1    0    0    0  501  0.00000000000E+00  0.00000000000E+00  0.16601037504E+03  0.16601037511E+03  0.50400001928E-02 0.  1.
        1   -1    0    0  501    0  0.00000000000E+00  0.00000000000E+00 -0.14893968516E+04  0.14893968516E+04  0.50400001928E-02 0. -1.
    10030    2    1    2    0    0  0.00000000000E+00  0.00000000000E+00 -0.13233864766E+04  0.16554072267E+04  0.99449551027E+03 0.  0.
        1    1    3    3  502    0  0.42775241003E+02 -0.20445463511E+03  0.89439008816E+02  0.22722402026E+03  0.50400001928E-02 0.  1.
       -1    1    3    3    0  502 -0.42775241003E+02  0.20445463511E+03 -0.14128254854E+04  0.14281832065E+04  0.50400001928E-02 0. -1.
</event>
<event>
 5   0  0.5201968E-03  0.9971155E+03  0.7818609E-02  0.9311714E-01
       -1   -1    0    0    0  501  0.00000000000E+00  0.00000000000E+00  0.20285778717E+03  0.20285778723E+03  0.50400001928E-02 0. -1.
        1   -1    0    0  501    0  0.00000000000E+00  0.00000000000E+00 -0.12252911442E+04  0.12252911443E+04  0.50400001928E-02 0.  1.
    10030    2    1    2    0    0  0.00000000000E+00  0.00000000000E+00 -0.10224333571E+04  0.14281489315E+04  0.99711554036E+03 0.  0.
        2    1    3    3  502    0  0.16623749469E+03  0.95687080927E+02 -0.11703285494E+04  0.11859425938E+04  0.25500000920E-02 0.  1.
       -2    1    3    3    0  502 -0.16623749469E+03 -0.95687080927E+02  0.14789519236E+03  0.24220633771E+03  0.25500000920E-02 0. -1.
</event>
<event>
 5   0  0.5201968E-03  0.9967011E+03  0.7818609E-02  0.9312170E-01
        1   -1    0    0  501    0  0.00000000000E+00  0.00000000000E+00  0.65617972127E+03  0.65617972129E+03  0.50400001928E-02 0.  1.
       -1   -1    0    0    0  501  0.00000000000E+00  0.00000000000E+00 -0.37848357793E+03  0.37848357796E+03  0.50400001928E-02 0. -1.
    10030    2    1    2    0    0  0.00000000000E+00  0.00000000000E+00  0.27769614334E+03  0.10346632993E+04  0.99670105588E+03 0.  0.
        2    1    3    3  502    0 -0.38627564733E+03  0.16236233200E+03  0.41890649742E+03  0.59249730477E+03  0.25500000920E-02 0.  1.
       -2    1    3    3    0  502  0.38627564733E+03 -0.16236233200E+03 -0.14121035408E+03  0.44216599448E+03  0.25500000920E-02 0. -1.
</event>
<event>
 5   0  0.9243773E-03  0.9945056E+03  0.7818609E-02  0.9314592E-01
        2   -1    0    0  501    0  0.00000000000E+00  0.00000000000E+00  0.85400591026E+03  0.85400591027E+03  0.25500000920E-02 0. -1.
       -2   -1    0    0    0  501  0.00000000000E+00  0.00000000000E+00 -0.28953003409E+03  0.28953003410E+03  0.25500000920E-02 0.  1.
    10030    2    1    2    0    0  0.00000000000E+00  0.00000000000E+00  0.56447587617E+03  0.11435359444E+04  0.99450562657E+03 0.  0.
        3    1    3    3  502    0  0.11061188872E+03 -0.29916241155E+02  0.83861787309E+03  0.84641001806E+03  0.10100000352E+00 0. -1.
       -3    1    3    3    0  502 -0.11061188872E+03  0.29916241155E+02 -0.27414199692E+03  0.29712592631E+03  0.10100000352E+00 0.  1.
</event>
<event>
 5   0  0.8968798E-03  0.9756487E+03  0.7818609E-02  0.9335664E-01
       -2   -1    0    0    0  501  0.00000000000E+00  0.00000000000E+00  0.11222380185E+04  0.11222380185E+04  0.25500000920E-02 0.  1.
        2   -1    0    0  501    0  0.00000000000E+00  0.00000000000E+00 -0.21205178408E+03  0.21205178410E+03  0.25500000920E-02 0. -1.
    10030    2    1    2    0    0  0.00000000000E+00  0.00000000000E+00  0.91018623440E+03  0.13342898026E+04  0.97564865396E+03 0.  0.
        2    1    3    3  502    0 -0.39385309005E+03 -0.19085263080E+03  0.16041710022E+03  0.46613155791E+03  0.25500000920E-02 0. -1.
       -2    1    3    3    0  502  0.39385309005E+03  0.19085263080E+03  0.74976913417E+03  0.86815824467E+03  0.25500000920E-02 0.  1.
</event>
<event>
 5   0  0.8968798E-03  0.9861587E+03  0.7818609E-02  0.9323857E-01
        2   -1    0    0  501    0  0.00000000000E+00  0.00000000000E+00  0.61934548881E+03  0.61934548881E+03  0.25500000920E-02 0. -1.
       -2   -1    0    0    0  501  0.00000000000E+00  0.00000000000E+00 -0.39255508951E+03  0.39255508951E+03  0.25500000920E-02 0.  1.
    10030    2    1    2    0    0  0.00000000000E+00  0.00000000000E+00  0.22679039930E+03  0.10119005783E+04  0.98615865620E+03 0.  0.
        2    1    3    3  502    0 -0.24063433224E+03 -0.18106352472E+03 -0.28722990576E+03  0.41616090711E+03  0.25500000920E-02 0.  1.
       -2    1    3    3    0  502  0.24063433224E+03  0.18106352472E+03  0.51402030507E+03  0.59573967122E+03  0.25500000920E-02 0. -1.
</event>
<event>
 5   0  0.5349685E-03  0.9961123E+03  0.7818609E-02  0.9312819E-01
        1   -1    0    0  501    0  0.00000000000E+00  0.00000000000E+00  0.10329672516E+04  0.10329672517E+04  0.50400001928E-02 0. -1.
       -1   -1    0    0    0  501  0.00000000000E+00  0.00000000000E+00 -0.24014307229E+03  0.24014307234E+03  0.50400001928E-02 0.  1.
    10030    2    1    2    0    0  0.00000000000E+00  0.00000000000E+00  0.79282417935E+03  0.12731103240E+04  0.99611230176E+03 0.  0.
        4    1    3    3  502    0 -0.39605783658E+03  0.13775087014E+03  0.73988310959E+03  0.85045031654E+03  0.12699999809E+01 0. -1.
       -4    1    3    3    0  502  0.39605783658E+03 -0.13775087014E+03  0.52941069757E+02  0.42266000746E+03  0.12699999809E+01 0.  1.
</event>
<event>
 5   0  0.5072205E-03  0.1008978E+04  0.7818609E-02  0.9298752E-01
        1   -1    0    0  501    0  0.00000000000E+00  0.00000000000E+00  0.43468148804E+03  0.43468148807E+03  0.50400001928E-02 0. -1.
       -1   -1    0    0    0  501  0.00000000000E+00  0.00000000000E+00 -0.58550768093E+03  0.58550768095E+03  0.50400001928E-02 0.  1.
    10030    2    1    2    0    0  0.00000000000E+00  0.00000000000E+00 -0.15082619289E+03  0.10201891690E+04  0.10089783943E+04 0.  0.
        5    1    3    3  502    0 -0.25145021705E+03  0.38183020970E+03  0.14018303845E+03  0.47822055054E+03  0.46999998093E+01 0. -1.
       -5    1    3    3    0  502  0.25145021705E+03 -0.38183020970E+03 -0.29100923134E+03  0.54196861848E+03  0.46999998093E+01 0.  1.
</event>
<event>
 5   0  0.9040674E-03  0.9932821E+03  0.7818609E-02  0.9315944E-01
        2   -1    0    0  501    0  0.00000000000E+00  0.00000000000E+00  0.15274995486E+04  0.15274995486E+04  0.25500000920E-02 0.  1.
       -2   -1    0    0    0  501  0.00000000000E+00  0.00000000000E+00 -0.16147458106E+03  0.16147458108E+03  0.25500000920E-02 0. -1.
    10030    2    1    2    0    0  0.00000000000E+00  0.00000000000E+00  0.13660249675E+04  0.16889741297E+04  0.99328213454E+03 0.  0.
        1    1    3    3  502    0 -0.34821902926E+02 -0.11107148916E+03  0.15039766853E+04  0.15084744978E+04  0.50400001928E-02 0.  1.
       -1    1    3    3    0  502  0.34821902926E+02  0.11107148916E+03 -0.13795171779E+03  0.18049963184E+03  0.50400001928E-02 0. -1.
</event>
<event>
 5   0  0.9243773E-03  0.9607272E+03  0.7818609E-02  0.9352699E-01
       -2   -1    0    0    0  501  0.00000000000E+00  0.00000000000E+00  0.14438609123E+03  0.14438609126E+03  0.25500000920E-02 0.  1.
        2   -1    0    0  501    0  0.00000000000E+00  0.00000000000E+00 -0.15981401488E+04  0.15981401488E+04  0.25500000920E-02 0. -1.
    10030    2    1    2    0    0  0.00000000000E+00  0.00000000000E+00 -0.14537540576E+04  0.17425262401E+04  0.96072724403E+03 0.  0.
        3    1    3    3  502    0 -0.67159666029E+02  0.18294716839E+03 -0.15232159521E+04  0.15356324216E+04  0.10100000352E+00 0. -1.
       -3    1    3    3    0  502  0.67159666029E+02 -0.18294716839E+03  0.69461894506E+02  0.20689381854E+03  0.10100000352E+00 0.  1.
</event>
<event>
 5   0  0.3513625E-03  0.9867597E+03  0.7818609E-02  0.9323187E-01
       -4   -1    0    0    0  501  0.00000000000E+00  0.00000000000E+00  0.62033574251E+03  0.62033704253E+03  0.12699999809E+01 0. -1.
        4   -1    0    0  501    0  0.00000000000E+00  0.00000000000E+00 -0.39240363367E+03  0.39240568882E+03  0.12699999809E+01 0.  1.
    10030    2    1    2    0    0  0.00000000000E+00  0.00000000000E+00  0.22793210884E+03  0.10127427314E+04  0.98675974465E+03 0.  0.
        3    1    3    3  502    0  0.72549850678E+02  0.27288871082E+03  0.52920815935E+03  0.59982748807E+03  0.10100000352E+00 0. -1.
       -3    1    3    3    0  502 -0.72549850678E+02 -0.27288871082E+03 -0.30127605051E+03  0.41291524328E+03  0.10100000352E+00 0.  1.
</event>
<event>
 5   0  0.9243773E-03  0.9951951E+03  0.7818609E-02  0.9313830E-01
        2   -1    0    0  501    0  0.00000000000E+00  0.00000000000E+00  0.15839647493E+04  0.15839647493E+04  0.25500000920E-02 0.  1.
       -2   -1    0    0    0  501  0.00000000000E+00  0.00000000000E+00 -0.15631871401E+03  0.15631871403E+03  0.25500000920E-02 0. -1.
    10030    2    1    2    0    0  0.00000000000E+00  0.00000000000E+00  0.14276460353E+04  0.17402834634E+04  0.99519512193E+03 0.  0.
        3    1    3    3  502    0  0.27520075656E+03  0.39605378765E+03  0.92805852077E+03  0.10458903802E+04  0.10100000352E+00 0.  1.
       -3    1    3    3    0  502 -0.27520075656E+03 -0.39605378765E+03  0.49958751456E+03  0.69439308323E+03  0.10100000352E+00 0. -1.
</event>
<event>
 5   0  0.8968798E-03  0.9199995E+03  0.7818609E-02  0.9400921E-01
        2   -1    0    0  501    0  0.00000000000E+00  0.00000000000E+00  0.46379874987E+03  0.46379874987E+03  0.25500000920E-02 0. -1.
       -2   -1    0    0    0  501  0.00000000000E+00  0.00000000000E+00 -0.45623191208E+03  0.45623191208E+03  0.25500000920E-02 0.  1.
    10030    2    1    2    0    0  0.00000000000E+00  0.00000000000E+00  0.75668377906E+01  0.92003066196E+03  0.91999954451E+03 0.  0.
        2    1    3    3  502    0  0.14775053348E+03 -0.14919607152E+03 -0.40551040497E+03  0.45664907363E+03  0.25500000920E-02 0.  1.
       -2    1    3    3    0  502 -0.14775053348E+03  0.14919607152E+03  0.41307724276E+03  0.46338158832E+03  0.25500000920E-02 0. -1.
</event>
<event>
 5   0  0.8907355E-03  0.1008512E+04  0.7818609E-02  0.9299258E-01
        2   -1    0    0  501    0  0.00000000000E+00  0.00000000000E+00  0.19882348101E+04  0.19882348101E+04  0.25500000920E-02 0.  1.
       -2   -1    0    0    0  501  0.00000000000E+00  0.00000000000E+00 -0.12788945687E+03  0.12788945690E+03  0.25500000920E-02 0. -1.
    10030    2    1    2    0    0  0.00000000000E+00  0.00000000000E+00  0.18603453533E+04  0.21161242670E+04  0.10085123104E+04 0.  0.
        5    1    3    3  502    0 -0.44796580973E+03  0.66527999133E+02  0.13953668494E+04  0.14670276329E+04  0.46999998093E+01 0.  1.
       -5    1    3    3    0  502  0.44796580973E+03 -0.66527999133E+02  0.46497850385E+03  0.64909663410E+03  0.46999998093E+01 0. -1.
</event>
<event>
 5   0  0.5189877E-03  0.9760247E+03  0.7818609E-02  0.9335238E-01
        1   -1    0    0  501    0  0.00000000000E+00  0.00000000000E+00  0.98876910784E+03  0.98876910785E+03  0.50400001928E-02 0. -1.
       -1   -1    0    0    0  501  0.00000000000E+00  0.00000000000E+00 -0.24086115605E+03  0.24086115610E+03  0.50400001928E-02 0.  1.
    10030    2    1    2    0    0  0.00000000000E+00  0.00000000000E+00  0.74790795179E+03  0.12296302639E+04  0.97602473415E+03 0.  0.
        3    1    3    3  502    0 -0.57016765993E+02  0.36128978571E+03 -0.33062162943E+02  0.36725241685E+03  0.10100000352E+00 0.  1.
       -3    1    3    3    0  502  0.57016765993E+02 -0.36128978571E+03  0.78097011473E+03  0.86237784710E+03  0.10100000352E+00 0. -1.
</event>
<event>
 5   0  0.5072205E-03  0.9690539E+03  0.7818609E-02  0.9343153E-01
        1   -1    0    0  501    0  0.00000000000E+00  0.00000000000E+00  0.20078870648E+04  0.20078870648E+04  0.50400001928E-02 0. -1.
       -1   -1    0    0    0  501  0.00000000000E+00  0.00000000000E+00 -0.11692210496E+03  0.11692210507E+03  0.50400001928E-02 0.  1.
    10030    2    1    2    0    0  0.00000000000E+00  0.00000000000E+00  0.18909649598E+04  0.21248091698E+04  0.96905393505E+03 0.  0.
        5    1    3    3  502    0  0.47002065781E+03 -0.34737158474E+02  0.11917860704E+04  0.12816014266E+04  0.46999998093E+01 0.  1.
       -5    1    3    3    0  502 -0.47002065781E+03  0.34737158474E+02  0.69917888936E+03  0.84320774325E+03  0.46999998093E+01 0. -1.
</event>
<event>
 5   0  0.9040674E-03  0.1017287E+04  0.7818609E-02  0.9289785E-01
       -2   -1    0    0    0  501  0.00000000000E+00  0.00000000000E+00  0.16957080105E+03  0.16957080107E+03  0.25500000920E-02 0.  1.
        2   -1    0    0  501    0  0.00000000000E+00  0.00000000000E+00 -0.15257236802E+04  0.15257236802E+04  0.25500000920E-02 0. -1.
    10030    2    1    2    0    0  0.00000000000E+00  0.00000000000E+00 -0.13561528791E+04  0.16952944813E+04  0.10172869539E+04 0.  0.
        1    1    3    3  502    0 -0.45697385435E+03 -0.20321968315E+03 -0.83257365582E+03  0.97123747640E+03  0.50400001928E-02 0. -1.
       -1    1    3    3    0  502  0.45697385435E+03  0.20321968315E+03 -0.52357922331E+03  0.72405700486E+03  0.50400001928E-02 0.  1.
</event>
<event>
 5   0  0.5201968E-03  0.1010335E+04  0.7818609E-02  0.9297282E-01
        1   -1    0    0  501    0  0.00000000000E+00  0.00000000000E+00  0.61449274729E+03  0.61449274731E+03  0.50400001928E-02 0. -1.
       -1   -1    0    0    0  501  0.00000000000E+00  0.00000000000E+00 -0.41529232239E+03  0.41529232242E+03  0.50400001928E-02 0.  1.
    10030    2    1    2    0    0  0.00000000000E+00  0.00000000000E+00  0.19920042490E+03  0.10297850697E+04  0.10103348359E+04 0.  0.
        2    1    3    3  502    0 -0.57837346673E+02  0.44942287188E+03 -0.12801035896E+03  0.47086381094E+03  0.25500000920E-02 0. -1.
       -2    1    3    3    0  502  0.57837346673E+02 -0.44942287188E+03  0.32721078387E+03  0.55892125879E+03  0.25500000920E-02 0.  1.
</event>
<event>
 5   0  0.8968798E-03  0.9895389E+03  0.7818609E-02  0.9320093E-01
        2   -1    0    0  501    0  0.00000000000E+00  0.00000000000E+00  0.74419698353E+03  0.74419698353E+03  0.25500000920E-02 0.  1.
       -2   -1    0    0    0  501  0.00000000000E+00  0.00000000000E+00 -0.32894090731E+03  0.32894090732E+03  0.25500000920E-02 0. -1.
    10030    2    1    2    0    0  0.00000000000E+00  0.00000000000E+00  0.41525607622E+03  0.10731378909E+04  0.98953894514E+03 0.  0.
        2    1    3    3  502    0  0.35165129856E+03  0.32552190525E+02  0.58342680934E+03  0.68198616023E+03  0.25500000920E-02 0.  1.
       -2    1    3    3    0  502 -0.35165129856E+03 -0.32552190525E+02 -0.16817073312E+03  0.39115173062E+03  0.25500000920E-02 0. -1.
</event>
<event>
 5   0  0.5310275E-03  0.9866056E+03  0.7818609E-02  0.9323359E-01
       -1   -1    0    0    0  501  0.00000000000E+00  0.00000000000E+00  0.22081223806E+04  0.22081223806E+04  0.50400001928E-02 0. -1.
        1   -1    0    0  501    0  0.00000000000E+00  0.00000000000E+00 -0.11020569319E+03  0.11020569331E+03  0.50400001928E-02 0.  1.
    10030    2    1    2    0    0  0.00000000000E+00  0.00000000000E+00  0.20979166874E+04  0.23183280739E+04  0.98660561066E+03 0.  0.
        1    1    3    3  502    0  0.42530124872E+03 -0.81153607341E+02  0.49348677574E+03  0.65650305255E+03  0.50400001928E-02 0.  1.
       -1    1    3    3    0  502 -0.42530124872E+03  0.81153607341E+02  0.16044299116E+04  0.16618250213E+04  0.50400001928E-02 0. -1.
</event>
<event>
 5   0  0.8875655E-03  0.9866861E+03  0.7818609E-02  0.9323269E-01
       -2   -1    0    0    0  501  0.00000000000E+00  0.00000000000E+00  0.46231343918E+03  0.46231343918E+03  0.25500000920E-02 0. -1.
        2   -1    0    0  501    0  0.00000000000E+00  0.00000000000E+00 -0.52645526845E+03  0.52645526846E+03  0.25500000920E-02 0.  1.
    10030    2    1    2    0    0  0.00000000000E+00  0.00000000000E+00 -0.64141829278E+02  0.98876870764E+03  0.98668606099E+03 0.  0.
        4    1    3    3  502    0  0.29348962115E+03  0.38275125566E+03  0.71835220158E+02  0.48764392049E+03  0.12699999809E+01 0. -1.
       -4    1    3    3    0  502 -0.29348962115E+03 -0.38275125566E+03 -0.13597704944E+03  0.50112478716E+03  0.12699999809E+01 0.  1.
</event>
<event>
 5   0  0.5349685E-03  0.9917072E+03  0.7818609E-02  0.9317687E-01
       -1   -1    0    0    0  501  0.00000000000E+00  0.00000000000E+00  0.22944688351E+03  0.22944688357E+03  0.50400001928E-02 0. -1.
        1   -1    0    0  501    0  0.00000000000E+00  0.00000000000E+00 -0.10715804866E+04  0.10715804866E+04  0.50400001928E-02 0.  1.
    10030    2    1    2    0    0  0.00000000000E+00  0.00000000000E+00 -0.84213360307E+03  0.13010273702E+04  0.99170722115E+03 0.  0.
        4    1    3    3  502    0  0.39704317238E+03 -0.29127452292E+03 -0.34473838418E+03  0.60110755682E+03  0.12699999809E+01 0. -1.
       -4    1    3    3    0  502 -0.39704317238E+03  0.29127452292E+03 -0.49739521889E+03  0.69991981334E+03  0.12699999809E+01 0.  1.
</event>
<event>
 5   0  0.8907355E-03  0.9361053E+03  0.7818609E-02  0.9381540E-01
        2   -1    0    0  501    0  0.00000000000E+00  0.00000000000E+00  0.67733825411E+03  0.67733825412E+03  0.25500000920E-02 0.  1.
       -2   -1    0    0    0  501  0.00000000000E+00  0.00000000000E+00 -0.32343261552E+03  0.32343261553E+03  0.25500000920E-02 0. -1.
    10030    2    1    2    0    0  0.00000000000E+00  0.00000000000E+00  0.35390563859E+03  0.10007708697E+04  0.93610529991E+03 0.  0.
        5    1    3    3  502    0 -0.18316614647E+03  0.33515057812E+03  0.46614905797E+03  0.60265477802E+03  0.46999998093E+01 0.  1.
       -5    1    3    3    0  502  0.18316614647E+03 -0.33515057812E+03 -0.11224341938E+03  0.39811609163E+03  0.46999998093E+01 0. -1.
</event>
<event>
 5   0  0.5201968E-03  0.7715416E+03  0.7818609E-02  0.9602148E-01
        1   -1    0    0  501    0  0.00000000000E+00  0.00000000000E+00  0.39281198083E+03  0.39281198086E+03  0.50400001928E-02 0. -1.
       -1   -1    0    0    0  501  0.00000000000E+00  0.00000000000E+00 -0.37885580015E+03  0.37885580019E+03  0.50400001928E-02 0.  1.
    10030    2    1    2    0    0  0.00000000000E+00  0.00000000000E+00  0.13956180676E+02  0.77166778105E+03  0.77154156682E+03 0.  0.
        2    1    3    3  502    0 -0.15955498866E+03  0.30494165165E+02 -0.34298114797E+03  0.37950461972E+03  0.25500000920E-02 0.  1.
       -2    1    3    3    0  502  0.15955498866E+03 -0.30494165165E+02  0.35693732865E+03  0.39216316133E+03  0.25500000920E-02 0. -1.
</event>
<event>
 5   0  0.5189877E-03  0.9816432E+03  0.7818609E-02  0.9328910E-01
        1   -1    0    0  501    0  0.00000000000E+00  0.00000000000E+00  0.68723029560E+03  0.68723029561E+03  0.50400001928E-02 0.  1.
       -1   -1    0    0    0  501  0.00000000000E+00  0.00000000000E+00 -0.35054603798E+03  0.35054603802E+03  0.50400001928E-02 0. -1.
    10030    2    1    2    0    0  0.00000000000E+00  0.00000000000E+00  0.33668425761E+03  0.10377763336E+04  0.98164322915E+03 0.  0.
        3    1    3    3  502    0  0.22802085800E+02  0.68615206599E+02  0.68156911613E+03  0.68539364744E+03  0.10100000352E+00 0.  1.
       -3    1    3    3    0  502 -0.22802085800E+02 -0.68615206599E+02 -0.34488485852E+03  0.35238268619E+03  0.10100000352E+00 0. -1.
</event>
<event>
 5   0  0.9040674E-03  0.1012277E+04  0.7818609E-02  0.9295182E-01
       -2   -1    0    0    0  501  0.00000000000E+00  0.00000000000E+00  0.69185844404E+03  0.69185844404E+03  0.25500000920E-02 0.  1.
        2   -1    0    0  501    0  0.00000000000E+00  0.00000000000E+00 -0.37027219405E+03  0.37027219406E+03  0.25500000920E-02 0. -1.
    10030    2    1    2    0    0  0.00000000000E+00  0.00000000000E+00  0.32158624999E+03  0.10621306381E+04  0.10122765315E+04 0.  0.
        1    1    3    3  502    0  0.89937745219E+02 -0.46150305835E+03 -0.35789509859E+02  0.47154507730E+03  0.50400001928E-02 0. -1.
       -1    1    3    3    0  502 -0.89937745219E+02  0.46150305835E+03  0.35737575985E+03  0.59058556080E+03  0.50400001928E-02 0.  1.
</event>
<event>
 5   0  0.5189877E-03  0.9727949E+03  0.7818609E-02  0.9338897E-01
        1   -1    0    0  501    0  0.00000000000E+00  0.00000000000E+00  0.93783042888E+03  0.93783042890E+03  0.50400001928E-02 0. -1.
       -1   -1    0    0    0  501  0.00000000000E+00  0.00000000000E+00 -0.25226570602E+03  0.25226570607E+03  0.50400001928E-02 0.  1.
    10030    2    1    2    0    0  0.00000000000E+00  0.00000000000E+00  0.68556472286E+03  0.11900961350E+04  0.97279485053E+03 0.  0.
        3    1    3    3  502    0  0.66012460450E+02 -0.27278173855E+03 -0.14321601231E+03  0.31508468418E+03  0.10100000352E+00 0.  1.
       -3    1    3    3    0  502 -0.66012460450E+02  0.27278173855E+03  0.82878073517E+03  0.87501145079E+03  0.10100000352E+00 0. -1.
</event>
<event>
 5   0  0.9040674E-03  0.9265850E+03  0.7818609E-02  0.9392946E-01
       -2   -1    0    0    0  501  0.00000000000E+00  0.00000000000E+00  0.14483779832E+03  0.14483779835E+03  0.25500000920E-02 0. -1.
        2   -1    0    0  501    0  0.00000000000E+00  0.00000000000E+00 -0.14819332848E+04  0.14819332848E+04  0.25500000920E-02 0.  1.
    10030    2    1    2    0    0  0.00000000000E+00  0.00000000000E+00 -0.13370954865E+04  0.16267710831E+04  0.92658502956E+03 0.  0.
        1    1    3    3  502    0 -0.26924207200E+03 -0.28831564236E+03 -0.10950790267E+04  0.11639653250E+04  0.50400001928E-02 0.  1.
       -1    1    3    3    0  502  0.26924207200E+03  0.28831564236E+03 -0.24201645972E+03  0.46280575814E+03  0.50400001928E-02 0. -1.
</event>
<event>
 5   0  0.5189877E-03  0.9970553E+03  0.7818609E-02  0.9311780E-01
       -1   -1    0    0    0  501  0.00000000000E+00  0.00000000000E+00  0.35396191555E+03  0.35396191559E+03  0.50400001928E-02 0.  1.
        1   -1    0    0  501    0  0.00000000000E+00  0.00000000000E+00 -0.70213715838E+03  0.70213715840E+03  0.50400001928E-02 0. -1.
    10030    2    1    2    0    0  0.00000000000E+00  0.00000000000E+00 -0.34817524283E+03  0.10560990740E+04  0.99705529152E+03 0.  0.
        3    1    3    3  502    0 -0.25977869124E+03 -0.10814707798E+02 -0.62463260939E+03  0.67658542198E+03  0.10100000352E+00 0. -1.
       -3    1    3    3    0  502  0.25977869124E+03  0.10814707798E+02  0.27645736656E+03  0.37951365200E+03  0.10100000352E+00 0.  1.
</event>
<event>
 5   0  0.5072205E-03  0.1026668E+04  0.7818609E-02  0.9279770E-01
       -1   -1    0    0    0  501  0.00000000000E+00  0.00000000000E+00  0.17545135059E+03  0.17545135067E+03  0.50400001928E-02 0. -1.
        1   -1    0    0  501    0  0.00000000000E+00  0.00000000000E+00 -0.15019089902E+04  0.15019089902E+04  0.50400001928E-02 0.  1.
    10030    2    1    2    0    0  0.00000000000E+00  0.00000000000E+00 -0.13264576396E+04  0.16773603409E+04  0.10266683220E+04 0.  0.
        5    1    3    3  502    0  0.20336704217E+03  0.12431325167E+03 -0.14059798496E+04  0.14260481640E+04  0.46999998093E+01 0.  1.
       -5    1    3    3    0  502 -0.20336704217E+03 -0.12431325167E+03  0.79522210019E+02  0.25131217692E+03  0.46999998093E+01 0. -1.
</event>
<event>
 5   0  0.8875655E-03  0.1008684E+04  0.7818609E-02  0.9299071E-01
        2   -1    0    0  501    0  0.00000000000E+00  0.00000000000E+00  0.11088155700E+04  0.11088155700E+04  0.25500000920E-02 0.  1.
       -2   -1    0    0    0  501  0.00000000000E+00  0.00000000000E+00 -0.22939870332E+03  0.22939870334E+03  0.25500000920E-02 0. -1.
    10030    2    1    2    0    0  0.00000000000E+00  0.00000000000E+00  0.87941686664E+03  0.13382142733E+04  0.10086840020E+04 0.  0.
        4    1    3    3  502    0 -0.23807122943E+03  0.44338204617E+03  0.48358352422E+03  0.69793995942E+03  0.12699999809E+01 0. -1.
       -4    1    3    3    0  502  0.23807122943E+03 -0.44338204617E+03  0.39583334242E+03  0.64027431389E+03  0.12699999809E+01 0.  1.
</event>
<event>
 5   0  0.8968798E-03  0.1009793E+04  0.7818609E-02  0.9297869E-01
        2   -1    0    0  501    0  0.00000000000E+00  0.00000000000E+00  0.21297743974E+03  0.21297743976E+03  0.25500000920E-02 0. -1.
       -2   -1    0    0    0  501  0.00000000000E+00  0.00000000000E+00 -0.11969366007E+04  0.11969366007E+04  0.25500000920E-02 0.  1.
    10030    2    1    2    0    0  0.00000000000E+00  0.00000000000E+00 -0.98395916095E+03  0.14099140404E+04  0.10097930338E+04 0.  0.
        2    1    3    3  502    0  0.43426620664E+03  0.21324514698E+03 -0.29032133760E+03  0.56422257134E+03  0.25500000920E-02 0. -1.
       -2    1    3    3    0  502 -0.43426620664E+03 -0.21324514698E+03 -0.69363782335E+03  0.84569146911E+03  0.25500000920E-02 0.  1.
</event>
<event>
 5   0  0.5349685E-03  0.1002185E+04  0.7818609E-02  0.9306152E-01
       -1   -1    0    0    0  501  0.00000000000E+00  0.00000000000E+00  0.19980558512E+03  0.19980558518E+03  0.50400001928E-02 0. -1.
        1   -1    0    0  501    0  0.00000000000E+00  0.00000000000E+00 -0.12566900944E+04  0.12566900944E+04  0.50400001928E-02 0.  1.
    10030    2    1    2    0    0  0.00000000000E+00  0.00000000000E+00 -0.10568845093E+04  0.14564956796E+04  0.10021850122E+04 0.  0.
        4    1    3    3  502    0 -0.22966056180E+03 -0.60672024246E+02  0.11277837461E+03  0.26295559102E+03  0.12699999809E+01 0. -1.
       -4    1    3    3    0  502  0.22966056180E+03  0.60672024246E+02 -0.11696628839E+04  0.11935400885E+04  0.12699999809E+01 0.  1.
</event>
<event>
 5   0  0.3513625E-03  0.9621061E+03  0.7818609E-02  0.9351111E-01
       -3   -1    0    0    0  501  0.00000000000E+00  0.00000000000E+00  0.10248673993E+03  0.10248678970E+03  0.10100000352E+00 0.  1.
        3   -1    0    0  501    0  0.00000000000E+00  0.00000000000E+00 -0.22579697252E+04  0.22579697274E+04  0.10100000352E+00 0. -1.
    10030    2    1    2    0    0  0.00000000000E+00  0.00000000000E+00 -0.21554829853E+04  0.23604565171E+04  0.96210605943E+03 0.  0.
        4    1    3    3  502    0  0.34191826770E+03  0.30013707969E+03 -0.69434670383E+03  0.83012609067E+03  0.12699999809E+01 0.  1.
       -4    1    3    3    0  502 -0.34191826770E+03 -0.30013707969E+03 -0.14611362814E+04  0.15303304265E+04  0.12699999809E+01 0. -1.
</event>
<event>
 5   0  0.8907355E-03  0.8849313E+03  0.7818609E-02  0.9444617E-01
        2   -1    0    0  501    0  0.00000000000E+00  0.00000000000E+00  0.98632587309E+03  0.98632587309E+03  0.25500000920E-02 0. -1.
       -2   -1    0    0    0  501  0.00000000000E+00  0.00000000000E+00 -0.19849002367E+03  0.19849002368E+03  0.25500000920E-02 0.  1.
    10030    2    1    2    0    0  0.00000000000E+00  0.00000000000E+00  0.78783584942E+03  0.11848158968E+04  0.88493128751E+03 0.  0.
        5    1    3    3  502    0 -0.14340448413E+02 -0.88506523555E+02 -0.18616551492E+03  0.20668512795E+03  0.46999998093E+01 0.  1.
       -5    1    3    3    0  502  0.14340448413E+02  0.88506523555E+02  0.97400136434E+03  0.97813076882E+03  0.46999998093E+01 0. -1.
</event>
<event>
 5   0  0.5349685E-03  0.9925023E+03  0.7818609E-02  0.9316807E-01
       -1   -1    0    0    0  501  0.00000000000E+00  0.00000000000E+00  0.10651757517E+04  0.10651757517E+04  0.50400001928E-02 0. -1.
        1   -1    0    0  501    0  0.00000000000E+00  0.00000000000E+00 -0.23119678683E+03  0.23119678688E+03  0.50400001928E-02 0.  1.
    10030    2    1    2    0    0  0.00000000000E+00  0.00000000000E+00  0.83397896490E+03  0.12963725386E+04  0.99250231486E+03 0.  0.
        4    1    3    3  502    0  0.17312722234E+03 -0.38340570412E+03  0.73165990274E+02  0.42699864649E+03  0.12699999809E+01 0.  1.
       -4    1    3    3    0  502 -0.17312722234E+03  0.38340570412E+03  0.76081297462E+03  0.86937389213E+03  0.12699999809E+01 0. -1.
</event>
<event>
 5   0  0.8875655E-03  0.1115074E+04  0.7818609E-02  0.9190623E-01
        2   -1    0    0  501    0  0.00000000000E+00  0.00000000000E+00  0.99672160271E+03  0.99672160271E+03  0.25500000920E-02 0.  1.
       -2   -1    0    0    0  501  0.00000000000E+00  0.00000000000E+00 -0.31186985644E+03  0.31186985645E+03  0.25500000920E-02 0. -1.
    10030    2    1    2    0    0  0.00000000000E+00  0.00000000000E+00  0.68485174627E+03  0.13085914592E+04  0.11150738507E+04 0.  0.
        4    1    3    3  502    0  0.30043186411E+03  0.35973935689E+03 -0.11927191748E+02  0.46884494310E+03  0.12699999809E+01 0. -1.
       -4    1    3    3    0  502 -0.30043186411E+03 -0.35973935689E+03  0.69677893802E+03  0.83974651606E+03  0.12699999809E+01 0.  1.
</event>
<event>
 5   0  0.5201968E-03  0.7946287E+03  0.7818609E-02  0.9567825E-01
       -1   -1    0    0    0  501  0.00000000000E+00  0.00000000000E+00  0.11897722304E+03  0.11897722315E+03  0.50400001928E-02 0. -1.
        1   -1    0    0  501    0  0.00000000000E+00  0.00000000000E+00 -0.13267976632E+04  0.13267976632E+04  0.50400001928E-02 0.  1.
    10030    2    1    2    0    0  0.00000000000E+00  0.00000000000E+00 -0.12078204401E+04  0.14457748863E+04  0.79462872233E+03 0.  0.
        2    1    3    3  502    0  0.11995209188E+03 -0.22415565469E+03 -0.11594322789E+04  0.11869782943E+04  0.25500000920E-02 0.  1.
       -2    1    3    3    0  502 -0.11995209188E+03  0.22415565469E+03 -0.48388161240E+02  0.25879659200E+03  0.25500000920E-02 0. -1.
</event>
<event>
 5   0  0.5201968E-03  0.1028178E+04  0.7818609E-02  0.9278169E-01
       -1   -1    0    0    0  501  0.00000000000E+00  0.00000000000E+00  0.17916662916E+03  0.17916662923E+03  0.50400001928E-02 0.  1.
        1   -1    0    0  501    0  0.00000000000E+00  0.00000000000E+00 -0.14750922025E+04  0.14750922025E+04  0.50400001928E-02 0. -1.
    10030    2    1    2    0    0  0.00000000000E+00  0.00000000000E+00 -0.12959255733E+04  0.16542588317E+04  0.10281776066E+04 0.  0.
        2    1    3    3  502    0 -0.42289167284E+03 -0.16126678357E+03 -0.25569240563E+03  0.51982973053E+03  0.25500000920E-02 0.  1.
       -2    1    3    3    0  502  0.42289167284E+03  0.16126678357E+03 -0.10402331677E+04  0.11344291012E+04  0.25500000920E-02 0. -1.
</event>
<event>
 5   0  0.8968798E-03  0.9991737E+03  0.7818609E-02  0.9309451E-01
        2   -1    0    0  501    0  0.00000000000E+00  0.00000000000E+00  0.16209871713E+04  0.16209871713E+04  0.25500000920E-02 0.  1.
       -2   -1    0    0    0  501  0.00000000000E+00  0.00000000000E+00 -0.15397224740E+03  0.15397224743E+03  0.25500000920E-02 0. -1.
    10030    2    1    2    0    0  0.00000000000E+00  0.00000000000E+00  0.14670149239E+04  0.17749594187E+04  0.99917373424E+03 0.  0.
        2    1    3    3  502    0  0.16494102832E+03 -0.34444766108E+03  0.13056640423E+04  0.13603706574E+04  0.25500000920E-02 0.  1.
       -2    1    3    3    0  502 -0.16494102832E+03  0.34444766108E+03  0.16135088158E+03  0.41458876135E+03  0.25500000920E-02 0. -1.
</event>
<event>
 5   0  0.5072205E-03  0.9952741E+03  0.7818609E-02  0.9313743E-01
       -1   -1    0    0    0  501  0.00000000000E+00  0.00000000000E+00  0.23249405700E+03  0.23249405705E+03  0.50400001928E-02 0.  1.
        1   -1    0    0  501    0  0.00000000000E+00  0.00000000000E+00 -0.10651567611E+04  0.10651567611E+04  0.50400001928E-02 0. -1.
    10030    2    1    2    0    0  0.00000000000E+00  0.00000000000E+00 -0.83266270412E+03  0.12976508182E+04  0.99527406632E+03 0.  0.
        5    1    3    3  502    0  0.78281162682E+02 -0.46923491479E+03 -0.60666646614E+03  0.77095761026E+03  0.46999998093E+01 0. -1.
       -5    1    3    3    0  502 -0.78281162682E+02  0.46923491479E+03 -0.22599623798E+03  0.52669320791E+03  0.46999998093E+01 0.  1.
</event>
<event>
 5   0  0.5349685E-03  0.1141671E+04  0.7818609E-02  0.9165502E-01
        1   -1    0    0  501    0  0.00000000000E+00  0.00000000000E+00  0.39399835021E+03  0.39399835024E+03  0.50400001928E-02 0. -1.
       -1   -1    0    0    0  501  0.00000000000E+00  0.00000000000E+00 -0.82704232027E+03  0.82704232029E+03  0.50400001928E-02 0.  1.
    10030    2    1    2    0    0  0.00000000000E+00  0.00000000000E+00 -0.43304397006E+03  0.12210406705E+04  0.11416712483E+04 0.  0.
        4    1    3    3  502    0 -0.71423147909E+02  0.53180435909E+00 -0.82224280065E+03  0.82534016320E+03  0.12699999809E+01 0.  1.
       -4    1    3    3    0  502  0.71423147909E+02 -0.53180435909E+00  0.38919883059E+03  0.39570050733E+03  0.12699999809E+01 0. -1.
</event>
<event>
 5   0  0.5072205E-03  0.1006978E+04  0.7818609E-02  0.9300925E-01
       -1   -1    0    0    0  501  0.00000000000E+00  0.00000000000E+00  0.39035782934E+03  0.39035782937E+03  0.50400001928E-02 0.  1.
        1   -1    0    0  501    0  0.00000000000E+00  0.00000000000E+00 -0.64940671669E+03  0.64940671671E+03  0.50400001928E-02 0. -1.
    10030    2    1    2    0    0  0.00000000000E+00  0.00000000000E+00 -0.25904888735E+03  0.10397645461E+04  0.10069776488E+04 0.  0.
        5    1    3    3  502    0 -0.25874873012E+03  0.42660698983E+03 -0.19905549329E+03  0.53720536903E+03  0.46999998093E+01 0. -1.
       -5    1    3    3    0  502  0.25874873012E+03 -0.42660698983E+03 -0.59993394060E+02  0.50255917705E+03  0.46999998093E+01 0.  1.
</event>
<event>
 5   0  0.8968798E-03  0.9357650E+03  0.7818609E-02  0.9381946E-01
       -2   -1    0    0    0  501  0.00000000000E+00  0.00000000000E+00  0.19501661697E+03  0.19501661699E+03  0.25500000920E-02 0.  1.
        2   -1    0    0  501    0  0.00000000000E+00  0.00000000000E+00 -0.11225403427E+04  0.11225403427E+04  0.25500000920E-02 0. -1.
    10030    2    1    2    0    0  0.00000000000E+00  0.00000000000E+00 -0.92752372571E+03  0.13175569597E+04  0.93576497062E+03 0.  0.
        2    1    3    3  502    0 -0.29976406390E+03 -0.24784318062E+03 -0.97602612807E+02  0.40101247639E+03  0.25500000920E-02 0.  1.
       -2    1    3    3    0  502  0.29976406390E+03  0.24784318062E+03 -0.82992111291E+03  0.91654448329E+03  0.25500000920E-02 0. -1.
</event>
<event>
 5   0  0.8968798E-03  0.1008015E+04  0.7818609E-02  0.9299797E-01
        2   -1    0    0  501    0  0.00000000000E+00  0.00000000000E+00  0.19407492836E+03  0.19407492838E+03  0.25500000920E-02 0.  1.
       -2   -1    0    0    0  501  0.00000000000E+00  0.00000000000E+00 -0.13088953345E+04  0.13088953345E+04  0.25500000920E-02 0. -1.
    10030    2    1    2    0    0  0.00000000000E+00  0.00000000000E+00 -0.11148204061E+04  0.15029702629E+04  0.10080154132E+04 0.  0.
        2    1    3    3  502    0 -0.33210265815E+03  0.69452272194E+02 -0.11131184023E+04  0.11636788093E+04  0.25500000920E-02 0. -1.
       -2    1    3    3    0  502  0.33210265815E+03 -0.69452272194E+02 -0.17020038529E+01  0.33929145360E+03  0.25500000920E-02 0.  1.
</event>
<event>
 5   0  0.5310275E-03  0.9939307E+03  0.7818609E-02  0.9315227E-01
        1   -1    0    0  501    0  0.00000000000E+00  0.00000000000E+00  0.40099153758E+03  0.40099153761E+03  0.50400001928E-02 0.  1.
       -1   -1    0    0    0  501  0.00000000000E+00  0.00000000000E+00 -0.61590967169E+03  0.61590967171E+03  0.50400001928E-02 0. -1.
    10030    2    1    2    0    0  0.00000000000E+00  0.00000000000E+00 -0.21491813411E+03  0.10169012093E+04  0.99393071446E+03 0.  0.
        1    1    3    3  502    0  0.40161138049E+03 -0.29002113290E+03 -0.14800586167E+03  0.51702001274E+03  0.50400001928E-02 0. -1.
       -1    1    3    3    0  502 -0.40161138049E+03  0.29002113290E+03 -0.66912272445E+02  0.49988119658E+03  0.50400001928E-02 0.  1.
</event>
<event>
 5   0  0.9243773E-03  0.9873737E+03  0.7818609E-02  0.9322502E-01
       -2   -1    0    0    0  501  0.00000000000E+00  0.00000000000E+00  0.57819296753E+03  0.57819296754E+03  0.25500000920E-02 0.  1.
        2   -1    0    0  501    0  0.00000000000E+00  0.00000000000E+00 -0.42153179929E+03  0.42153179930E+03  0.25500000920E-02 0. -1.
    10030    2    1    2    0    0  0.00000000000E+00  0.00000000000E+00  0.15666116824E+03  0.99972476683E+03  0.98737373258E+03 0.  0.
        3    1    3    3  502    0  0.77759279810E+02 -0.21374188038E+03 -0.36532239852E+03  0.43034005401E+03  0.10100000352E+00 0. -1.
       -3    1    3    3    0  502 -0.77759279810E+02  0.21374188038E+03  0.52198356676E+03  0.56938471282E+03  0.10100000352E+00 0.  1.
</event>
<event>
 5   0  0.9243773E-03  0.9879331E+03  0.7818609E-02  0.9321879E-01
       -2   -1    0    0    0  501  0.00000000000E+00  0.00000000000E+00  0.14856224632E+03  0.14856224634E+03  0.25500000920E-02 0. -1.
        2   -1    0    0  501    0  0.00000000000E+00  0.00000000000E+00 -0.16424289502E+04  0.16424289502E+04  0.25500000920E-02 0.  1.
    10030    2    1    2    0    0  0.00000000000E+00  0.00000000000E+00 -0.14938667039E+04  0.17909911966E+04  0.98793306308E+03 0.  0.
        3    1    3    3  502    0 -0.79979085530E+02 -0.17574198419E+03 -0.15711820233E+04  0.15830018508E+04  0.10100000352E+00 0.  1.
       -3    1    3    3    0  502  0.79979085530E+02  0.17574198419E+03  0.77315319402E+02  0.20798934575E+03  0.10100000352E+00 0. -1.
</event>
<event>
 5   0  0.8875655E-03  0.1004363E+04  0.7818609E-02  0.9303773E-01
       -2   -1    0    0    0  501  0.00000000000E+00  0.00000000000E+00  0.47755667870E+03  0.47755667871E+03  0.25500000920E-02 0. -1.
        2   -1    0    0  501    0  0.00000000000E+00  0.00000000000E+00 -0.52807581329E+03  0.52807581330E+03  0.25500000920E-02 0.  1.
    10030    2    1    2    0    0  0.00000000000E+00  0.00000000000E+00 -0.50519134591E+02  0.10056324920E+04  0.10043627462E+04 0.  0.
        4    1    3    3  502    0  0.16162176033E+03 -0.44188638079E+03 -0.20097887711E+03  0.51164371283E+03  0.12699999809E+01 0.  1.
       -4    1    3    3    0  502 -0.16162176033E+03  0.44188638079E+03  0.15045974251E+03  0.49398877918E+03  0.12699999809E+01 0. -1.
</event>
<event>
 5   0  0.5349685E-03  0.1019097E+04  0.7818609E-02  0.9287844E-01
       -1   -1    0    0    0  501  0.00000000000E+00  0.00000000000E+00  0.20134079852E+03  0.20134079858E+03  0.50400001928E-02 0. -1.
        1   -1    0    0  501    0  0.00000000000E+00  0.00000000000E+00 -0.12895535021E+04  0.12895535021E+04  0.50400001928E-02 0.  1.
    10030    2    1    2    0    0  0.00000000000E+00  0.00000000000E+00 -0.10882127036E+04  0.14908943007E+04  0.10190971139E+04 0.  0.
        4    1    3    3  502    0 -0.22746310395E+03 -0.43571487551E+03 -0.74066146829E+03  0.88891391029E+03  0.12699999809E+01 0.  1.
       -4    1    3    3    0  502  0.22746310395E+03  0.43571487551E+03 -0.34755123531E+03  0.60198039043E+03  0.12699999809E+01 0. -1.
</event>
<event>
 5   0  0.5349685E-03  0.1012527E+04  0.7818609E-02  0.9294911E-01
       -1   -1    0    0    0  501  0.00000000000E+00  0.00000000000E+00  0.19077137111E+03  0.19077137118E+03  0.50400001928E-02 0. -1.
        1   -1    0    0  501    0  0.00000000000E+00  0.00000000000E+00 -0.13435084383E+04  0.13435084383E+04  0.50400001928E-02 0.  1.
    10030    2    1    2    0    0  0.00000000000E+00  0.00000000000E+00 -0.11527370672E+04  0.15342798095E+04  0.10125274257E+04 0.  0.
        4    1    3    3  502    0  0.40582643124E+03 -0.30033938516E+03 -0.51962080188E+03  0.72450412643E+03  0.12699999809E+01 0.  1.
       -4    1    3    3    0  502 -0.40582643124E+03  0.30033938516E+03 -0.63311626535E+03  0.80977568309E+03  0.12699999809E+01 0. -1.
</event>
<event>
 5   0  0.8907355E-03  0.9888955E+03  0.7818609E-02  0.9320809E-01
        2   -1    0    0  501    0  0.00000000000E+00  0.00000000000E+00  0.11917563261E+04  0.11917563261E+04  0.25500000920E-02 0. -1.
       -2   -1    0    0    0  501  0.00000000000E+00  0.00000000000E+00 -0.20514142202E+03  0.20514142204E+03  0.25500000920E-02 0.  1.
    10030    2    1    2    0    0  0.00000000000E+00  0.00000000000E+00  0.98661490407E+03  0.13968977481E+04  0.98889552017E+03 0.  0.
        5    1    3    3  502    0 -0.35593211893E+03 -0.33724476862E+03  0.40358013403E+03  0.63507536705E+03  0.46999998093E+01 0.  1.
       -5    1    3    3    0  502  0.35593211893E+03  0.33724476862E+03  0.58303477004E+03  0.76182238109E+03  0.46999998093E+01 0. -1.
</event>
<event>
 5   0  0.5349685E-03  0.9736073E+03  0.7818609E-02  0.9337975E-01
       -1   -1    0    0    0  501  0.00000000000E+00  0.00000000000E+00  0.16126826851E+03  0.16126826859E+03  0.50400001928E-02 0. -1.
        1   -1    0    0  501    0  0.00000000000E+00  0.00000000000E+00 -0.14694631511E+04  0.14694631511E+04  0.50400001928E-02 0.  1.
    10030    2    1    2    0    0  0.00000000000E+00  0.00000000000E+00 -0.13081948826E+04  0.16307314197E+04  0.97360726801E+03 0.  0.
        4    1    3    3  502    0 -0.24514814895E+02  0.12490544255E+02 -0.14681570488E+04  0.14684153781E+04  0.12699999809E+01 0.  1.
       -4    1    3    3    0  502  0.24514814895E+02 -0.12490544255E+02  0.15996216619E+03  0.16231604159E+03  0.12699999809E+01 0. -1.
</event>
<event>
 5   0  0.9243773E-03  0.8855657E+03  0.7818609E-02  0.9443807E-01
        2   -1    0    0  501    0  0.00000000000E+00  0.00000000000E+00  0.70478181082E+03  0.70478181082E+03  0.25500000920E-02 0. -1.
       -2   -1    0    0    0  501  0.00000000000E+00  0.00000000000E+00 -0.27818060499E+03  0.27818060500E+03  0.25500000920E-02 0.  1.
    10030    2    1    2    0    0  0.00000000000E+00  0.00000000000E+00  0.42660120583E+03  0.98296241583E+03  0.88556565093E+03 0.  0.
        3    1    3    3  502    0 -0.25113330350E+03  0.35036082235E+03  0.32560088038E+03  0.54021901620E+03  0.10100000352E+00 0.  1.
       -3    1    3    3    0  502  0.25113330350E+03 -0.35036082235E+03  0.10100032545E+03  0.44274339962E+03  0.10100000352E+00 0. -1.
</event>
<event>
 5   0  0.9243773E-03  0.1007424E+04  0.7818609E-02  0.9300440E-01
        2   -1    0    0  501    0  0.00000000000E+00  0.00000000000E+00  0.81756726496E+03  0.81756726496E+03  0.25500000920E-02 0.  1.
       -2   -1    0    0    0  501  0.00000000000E+00  0.00000000000E+00 -0.31034228154E+03  0.31034228155E+03  0.25500000920E-02 0. -1.
    10030    2    1    2    0    0  0.00000000000E+00  0.00000000000E+00  0.50722498342E+03  0.11279095465E+04  0.10074238241E+04 0.  0.
        3    1    3    3  502    0  0.24752500294E+03 -0.17071916141E+02  0.74440721140E+03  0.78466692551E+03  0.10100000352E+00 0.  1.
       -3    1    3    3    0  502 -0.24752500294E+03  0.17071916141E+02 -0.23718222798E+03  0.34324262100E+03  0.10100000352E+00 0. -1.
</event>
<event>
 5   0  0.5349685E-03  0.1037179E+04  0.7818609E-02  0.9268682E-01
        1   -1    0    0  501    0  0.00000000000E+00  0.00000000000E+00  0.22695149907E+04  0.22695149907E+04  0.50400001928E-02 0. -1.
       -1   -1    0    0    0  501  0.00000000000E+00  0.00000000000E+00 -0.11849886988E+03  0.11849886999E+03  0.50400001928E-02 0.  1.
    10030    2    1    2    0    0  0.00000000000E+00  0.00000000000E+00  0.21510161209E+04  0.23880138607E+04  0.10371787921E+04 0.  0.
        4    1    3    3  502    0 -0.33177487930E+03  0.19089231367E+03  0.18810857998E+04  0.19196353417E+04  0.12699999809E+01 0.  1.
       -4    1    3    3    0  502  0.33177487930E+03 -0.19089231367E+03  0.26993032102E+03  0.46837851900E+03  0.12699999809E+01 0. -1.
</event>
<event>
 5   0  0.5189877E-03  0.1001240E+04  0.7818609E-02  0.9307186E-01
       -1   -1    0    0    0  501  0.00000000000E+00  0.00000000000E+00  0.29592062560E+03  0.29592062564E+03  0.50400001928E-02 0. -1.
        1   -1    0    0  501    0  0.00000000000E+00  0.00000000000E+00 -0.84691740741E+03  0.84691740742E+03  0.50400001928E-02 0.  1.
    10030    2    1    2    0    0  0.00000000000E+00  0.00000000000E+00 -0.55099678181E+03  0.11428380331E+04  0.10012398895E+04 0.  0.
        3    1    3    3  502    0  0.39010250510E+03  0.25074395468E+03 -0.49076426501E+03  0.67520520533E+03  0.10100000352E+00 0.  1.
       -3    1    3    3    0  502 -0.39010250510E+03 -0.25074395468E+03 -0.60232516804E+02  0.46763282773E+03  0.10100000352E+00 0. -1.
</event>
<event>
 5   0  0.5349685E-03  0.1035948E+04  0.7818609E-02  0.9269973E-01
        1   -1    0    0  501    0  0.00000000000E+00  0.00000000000E+00  0.12484535799E+04  0.12484535799E+04  0.50400001928E-02 0.  1.
       -1   -1    0    0    0  501  0.00000000000E+00  0.00000000000E+00 -0.21490369225E+03  0.21490369231E+03  0.50400001928E-02 0. -1.
    10030    2    1    2    0    0  0.00000000000E+00  0.00000000000E+00  0.10335498876E+04  0.14633572722E+04  0.10359484234E+04 0.  0.
        4    1    3    3  502    0  0.11277946928E+03  0.38687056095E+02  0.12288032903E+04  0.12345748403E+04  0.12699999809E+01 0.  1.
       -4    1    3    3    0  502 -0.11277946928E+03 -0.38687056095E+02 -0.19525340269E+03  0.22878243194E+03  0.12699999809E+01 0. -1.
</event>
<event>
 5   0  0.8907355E-03  0.9744533E+03  0.7818609E-02  0.9337016E-01
       -2   -1    0    0    0  501  0.00000000000E+00  0.00000000000E+00  0.22435491508E+03  0.22435491509E+03  0.25500000920E-02 0.  1.
        2   -1    0    0  501    0  0.00000000000E+00  0.00000000000E+00 -0.10580993529E+04  0.10580993529E+04  0.25500000920E-02 0. -1.
    10030    2    1    2    0    0  0.00000000000E+00  0.00000000000E+00 -0.83374443784E+03  0.12824542680E+04  0.97445326307E+03 0.  0.
        5    1    3    3  502    0  0.26991246258E+03  0.93879037105E+02 -0.93618323510E+03  0.97883969615E+03  0.46999998093E+01 0. -1.
       -5    1    3    3    0  502 -0.26991246258E+03 -0.93879037105E+02  0.10243879727E+03  0.30361457186E+03  0.46999998093E+01 0.  1.
</event>
<event>
 5   0  0.5349685E-03  0.1014836E+04  0.7818609E-02  0.9292421E-01
       -1   -1    0    0    0  501  0.00000000000E+00  0.00000000000E+00  0.29906810784E+03  0.29906810788E+03  0.50400001928E-02 0. -1.
        1   -1    0    0  501    0  0.00000000000E+00  0.00000000000E+00 -0.86091804597E+03  0.86091804598E+03  0.50400001928E-02 0.  1.
    10030    2    1    2    0    0  0.00000000000E+00  0.00000000000E+00 -0.56184993812E+03  0.11599861539E+04  0.10148362056E+04 0.  0.
        4    1    3    3  502    0 -0.27716953971E+02 -0.47475448963E+03 -0.78665653246E+02  0.48202692130E+03  0.12699999809E+01 0. -1.
       -4    1    3    3    0  502  0.27716953971E+02  0.47475448963E+03 -0.48318428488E+03  0.67795923256E+03  0.12699999809E+01 0.  1.
</event>
<event>
 5   0  0.3513625E-03  0.1001093E+04  0.7818609E-02  0.9307347E-01
        3   -1    0    0  501    0  0.00000000000E+00  0.00000000000E+00  0.73585356009E+03  0.73585356702E+03  0.10100000352E+00 0. -1.
       -3   -1    0    0    0  501  0.00000000000E+00  0.00000000000E+00 -0.34048476531E+03  0.34048478029E+03  0.10100000352E+00 0.  1.
    10030    2    1    2    0    0  0.00000000000E+00  0.00000000000E+00  0.39536879478E+03  0.10763383473E+04  0.10010932794E+04 0.  0.
        2    1    3    3  502    0 -0.49662684430E+03 -0.48639177532E+02  0.23991717941E+03  0.55368244062E+03  0.25500000920E-02 0.  1.
       -2    1    3    3    0  502  0.49662684430E+03  0.48639177532E+02  0.15545161537E+03  0.52265590669E+03  0.25500000920E-02 0. -1.
</event>
<event>
 5   0  0.5201968E-03  0.9852915E+03  0.7818609E-02  0.9324826E-01
       -1   -1    0    0    0  501  0.00000000000E+00  0.00000000000E+00  0.56621707144E+03  0.56621707146E+03  0.50400001928E-02 0.  1.
        1   -1    0    0  501    0  0.00000000000E+00  0.00000000000E+00 -0.42863392870E+03  0.42863392873E+03  0.50400001928E-02 0. -1.
    10030    2    1    2    0    0  0.00000000000E+00  0.00000000000E+00  0.13758314274E+03  0.99485100019E+03  0.98529152610E+03 0.  0.
        2    1    3    3  502    0 -0.23285461844E+03 -0.18864031267E+03 -0.32601799963E+03  0.44282522171E+03  0.25500000920E-02 0. -1.
       -2    1    3    3    0  502  0.23285461844E+03  0.18864031267E+03  0.46360114237E+03  0.55202577848E+03  0.25500000920E-02 0.  1.
</event>
<event>
 5   0  0.5072205E-03  0.9571223E+03  0.7818609E-02  0.9356864E-01
        1   -1    0    0  501    0  0.00000000000E+00  0.00000000000E+00  0.76636005852E+03  0.76636005853E+03  0.50400001928E-02 0.  1.
       -1   -1    0    0    0  501  0.00000000000E+00  0.00000000000E+00 -0.29884223776E+03  0.29884223781E+03  0.50400001928E-02 0. -1.
    10030    2    1    2    0    0  0.00000000000E+00  0.00000000000E+00  0.46751782075E+03  0.10652022963E+04  0.95712225938E+03 0.  0.
        5    1    3    3  502    0 -0.21851965052E+03 -0.12873367086E+03  0.68538511419E+03  0.73082011496E+03  0.46999998093E+01 0.  1.
       -5    1    3    3    0  502  0.21851965052E+03  0.12873367086E+03 -0.21786729344E+03  0.33438218138E+03  0.46999998093E+01 0. -1.
</event>
<event>
 5   0  0.8968798E-03  0.9888473E+03  0.7818609E-02  0.9320862E-01
        2   -1    0    0  501    0  0.00000000000E+00  0.00000000000E+00  0.53995531060E+03  0.53995531061E+03  0.25500000920E-02 0. -1.
       -2   -1    0    0    0  501  0.00000000000E+00  0.00000000000E+00 -0.45273148464E+03  0.45273148464E+03  0.25500000920E-02 0.  1.
    10030    2    1    2    0    0  0.00000000000E+00  0.00000000000E+00  0.87223825964E+02  0.99268679525E+03  0.98884734800E+03 0.  0.
        2    1    3    3  502    0 -0.24615319842E+03 -0.30880957354E+03  0.34225651907E+03  0.52258422733E+03  0.25500000920E-02 0. -1.
       -2    1    3    3    0  502  0.24615319842E+03  0.30880957354E+03 -0.25503269310E+03  0.47010256792E+03  0.25500000920E-02 0.  1.
</event>
<event>
 5   0  0.8875655E-03  0.9990794E+03  0.7818609E-02  0.9309555E-01
       -2   -1    0    0    0  501  0.00000000000E+00  0.00000000000E+00  0.51391851886E+03  0.51391851887E+03  0.25500000920E-02 0.  1.
        2   -1    0    0  501    0  0.00000000000E+00  0.00000000000E+00 -0.48556317760E+03  0.48556317761E+03  0.25500000920E-02 0. -1.
    10030    2    1    2    0    0  0.00000000000E+00  0.00000000000E+00  0.28355341258E+02  0.99948169648E+03  0.99907939435E+03 0.  0.
        4    1    3    3  502    0  0.56589291906E+02 -0.39920792085E+03  0.30920146344E+03  0.50811068668E+03  0.12699999809E+01 0.  1.
       -4    1    3    3    0  502 -0.56589291906E+02  0.39920792085E+03 -0.28084612218E+03  0.49137100980E+03  0.12699999809E+01 0. -1.
</event>
<event>
 5   0  0.9243773E-03  0.9965426E+03  0.7818609E-02  0.9312345E-01
        2   -1    0    0  501    0  0.00000000000E+00  0.00000000000E+00  0.13943921886E+04  0.13943921886E+04  0.25500000920E-02 0. -1.
       -2   -1    0    0    0  501  0.00000000000E+00  0.00000000000E+00 -0.17805198558E+03  0.17805198560E+03  0.25500000920E-02 0.  1.
    10030    2    1    2    0    0  0.00000000000E+00  0.00000000000E+00  0.12163402030E+04  0.15724441742E+04  0.99654261900E+03 0.  0.
        3    1    3    3  502    0  0.12710709698E+03  0.21509813570E+03 -0.72069094930E+02  0.26003343387E+03  0.10100000352E+00 0.  1.
       -3    1    3    3    0  502 -0.12710709698E+03 -0.21509813570E+03  0.12884092980E+04  0.13124107403E+04  0.10100000352E+00 0. -1.
</event>
<event>
 5   0  0.5349685E-03  0.9951357E+03  0.7818609E-02  0.9313896E-01
        1   -1    0    0  501    0  0.00000000000E+00  0.00000000000E+00  0.35864941326E+03  0.35864941330E+03  0.50400001928E-02 0. -1.
       -1   -1    0    0    0  501  0.00000000000E+00  0.00000000000E+00 -0.69029468922E+03  0.69029468924E+03  0.50400001928E-02 0.  1.
    10030    2    1    2    0    0  0.00000000000E+00  0.00000000000E+00 -0.33164527596E+03  0.10489441025E+04  0.99513574008E+03 0.  0.
        4    1    3    3  502    0 -0.35633163725E+03  0.13873033590E+03  0.16975275315E+03  0.41837298181E+03  0.12699999809E+01 0. -1.
       -4    1    3    3    0  502  0.35633163725E+03 -0.13873033590E+03 -0.50139802911E+03  0.63057112073E+03  0.12699999809E+01 0.  1.
</event>
<event>
 5   0  0.5189877E-03  0.1061805E+04  0.7818609E-02  0.9243241E-01
       -1   -1    0    0    0  501  0.00000000000E+00  0.00000000000E+00  0.53813195010E+03  0.53813195012E+03  0.50400001928E-02 0. -1.
        1   -1    0    0  501    0  0.00000000000E+00  0.00000000000E+00 -0.52376979208E+03  0.52376979210E+03  0.50400001928E-02 0.  1.
    10030    2    1    2    0    0  0.00000000000E+00  0.00000000000E+00  0.14362158018E+02  0.10619017422E+04  0.10618046141E+04 0.  0.
        3    1    3    3  502    0  0.34939620738E+03 -0.13028822823E+03 -0.37074833827E+03  0.52583939818E+03  0.10100000352E+00 0.  1.
       -3    1    3    3    0  502 -0.34939620738E+03  0.13028822823E+03  0.38511049629E+03  0.53606234404E+03  0.10100000352E+00 0. -1.
</event>
<event>
 5   0  0.5072205E-03  0.9915936E+03  0.7818609E-02  0.9317813E-01
        1   -1    0    0  501    0  0.00000000000E+00  0.00000000000E+00  0.32330140207E+03  0.32330140211E+03  0.50400001928E-02 0. -1.
       -1   -1    0    0    0  501  0.00000000000E+00  0.00000000000E+00 -0.76032599237E+03  0.76032599239E+03  0.50400001928E-02 0.  1.
    10030    2    1    2    0    0  0.00000000000E+00  0.00000000000E+00 -0.43702459030E+03  0.10836273945E+04  0.99159358489E+03 0.  0.
        5    1    3    3  502    0  0.11321579282E+03  0.45371050927E+03 -0.39848296708E+03  0.61439548096E+03  0.46999998093E+01 0.  1.
       -5    1    3    3    0  502 -0.11321579282E+03 -0.45371050927E+03 -0.38541623221E+02  0.46923191355E+03  0.46999998093E+01 0. -1.
</event>
<event>
 5   0  0.5072205E-03  0.1023966E+04  0.7818609E-02  0.9282644E-01
       -1   -1    0    0    0  501  0.00000000000E+00  0.00000000000E+00  0.15331596397E+03  0.15331596405E+03  0.50400001928E-02 0. -1.
        1   -1    0    0  501    0  0.00000000000E+00  0.00000000000E+00 -0.17097132840E+04  0.17097132840E+04  0.50400001928E-02 0.  1.
    10030    2    1    2    0    0  0.00000000000E+00  0.00000000000E+00 -0.15563973200E+04  0.18630292480E+04  0.10239655079E+04 0.  0.
        5    1    3    3  502    0 -0.27759815791E+03 -0.35130561908E+03 -0.12298704243E+04  0.13088467159E+04  0.46999998093E+01 0. -1.
       -5    1    3    3    0  502  0.27759815791E+03  0.35130561908E+03 -0.32652689575E+03  0.55418253212E+03  0.46999998093E+01 0.  1.
</event>
<event>
 5   0  0.8968798E-03  0.1001242E+04  0.7818609E-02  0.9307183E-01
        2   -1    0    0  501    0  0.00000000000E+00  0.00000000000E+00  0.18859749445E+04  0.18859749445E+04  0.25500000920E-02 0. -1.
       -2   -1    0    0    0  501  0.00000000000E+00  0.00000000000E+00 -0.13288698614E+03  0.13288698616E+03  0.25500000920E-02 0.  1.
    10030    2    1    2    0    0  0.00000000000E+00  0.00000000000E+00  0.17530879584E+04  0.20188619307E+04  0.10012422811E+04 0.  0.
        2    1    3    3  502    0 -0.34023567218E+03 -0.32954220924E+03  0.54977500702E+03  0.72567963913E+03  0.25500000920E-02 0.  1.
       -2    1    3    3    0  502  0.34023567218E+03  0.32954220924E+03  0.12033129514E+04  0.12931822916E+04  0.25500000920E-02 0. -1.
</event>
<event>
 5   0  0.8968798E-03  0.1010131E+04  0.7818609E-02  0.9297502E-01
       -2   -1    0    0    0  501  0.00000000000E+00  0.00000000000E+00  0.43347987214E+03  0.43347987215E+03  0.25500000920E-02 0. -1.
        2   -1    0    0  501    0  0.00000000000E+00  0.00000000000E+00 -0.58847336932E+03  0.58847336933E+03  0.25500000920E-02 0.  1.
    10030    2    1    2    0    0  0.00000000000E+00  0.00000000000E+00 -0.15499349718E+03  0.10219532415E+04  0.10101313992E+04 0.  0.
        2    1    3    3  502    0 -0.42608133791E+02  0.50267340171E+03 -0.10218228852E+03  0.51472052800E+03  0.25500000920E-02 0.  1.
       -2    1    3    3    0  502  0.42608133791E+02 -0.50267340171E+03 -0.52811208658E+02  0.50723271348E+03  0.25500000920E-02 0. -1.
</event>
<event>
 5   0  0.5189877E-03  0.1006408E+04  0.7818609E-02  0.9301545E-01
        1   -1    0    0  501    0  0.00000000000E+00  0.00000000000E+00  0.56216292991E+03  0.56216292993E+03  0.50400001928E-02 0.  1.
       -1   -1    0    0    0  501  0.00000000000E+00  0.00000000000E+00 -0.45042842964E+03  0.45042842967E+03  0.50400001928E-02 0. -1.
    10030    2    1    2    0    0  0.00000000000E+00  0.00000000000E+00  0.11173450027E+03  0.10125913596E+04  0.10064078015E+04 0.  0.
        3    1    3    3  502    0  0.24573629260E+03 -0.16961805790E+03  0.46339606924E+03  0.55126449029E+03  0.10100000352E+00 0.  1.
       -3    1    3    3    0  502 -0.24573629260E+03  0.16961805790E+03 -0.35166156896E+03  0.46132686931E+03  0.10100000352E+00 0. -1.
</event>
<event>
 5   0  0.5310275E-03  0.9960470E+03  0.7818609E-02  0.9312891E-01
        1   -1    0    0  501    0  0.00000000000E+00  0.00000000000E+00  0.35857451726E+03  0.35857451729E+03  0.50400001928E-02 0.  1.
       -1   -1    0    0    0  501  0.00000000000E+00  0.00000000000E+00 -0.69170387639E+03  0.69170387641E+03  0.50400001928E-02 0. -1.
    10030    2    1    2    0    0  0.00000000000E+00  0.00000000000E+00 -0.33312935913E+03  0.10502783937E+04  0.99604695389E+03 0.  0.
        1    1    3    3  502    0 -0.29840960522E+03 -0.38982749076E+03 -0.78257565893E+02  0.49712977348E+03  0.50400001928E-02 0.  1.
       -1    1    3    3    0  502  0.29840960522E+03  0.38982749076E+03 -0.25487179324E+03  0.55314862022E+03  0.50400001928E-02 0. -1.
</event>
<event>
 5   0  0.9040674E-03  0.1007756E+04  0.7818609E-02  0.9300079E-01
        2   -1    0    0  501    0  0.00000000000E+00  0.00000000000E+00  0.13106164047E+04  0.13106164047E+04  0.25500000920E-02 0. -1.
       -2   -1    0    0    0  501  0.00000000000E+00  0.00000000000E+00 -0.19372016698E+03  0.19372016700E+03  0.25500000920E-02 0.  1.
    10030    2    1    2    0    0  0.00000000000E+00  0.00000000000E+00  0.11168962377E+04  0.15043365717E+04  0.10077555830E+04 0.  0.
        1    1    3    3  502    0 -0.39426364482E+03 -0.26514593621E+03  0.30800847512E+03  0.56622911431E+03  0.50400001928E-02 0. -1.
       -1    1    3    3    0  502  0.39426364482E+03  0.26514593621E+03  0.80888776256E+03  0.93810745737E+03  0.50400001928E-02 0.  1.
</event>
<event>
 5   0  0.8907355E-03  0.1025926E+04  0.7818609E-02  0.9280558E-01
       -2   -1    0    0    0  501  0.00000000000E+00  0.00000000000E+00  0.27750018888E+03  0.27750018889E+03  0.25500000920E-02 0. -1.
        2   -1    0    0  501    0  0.00000000000E+00  0.00000000000E+00 -0.94821948697E+03  0.94821948697E+03  0.25500000920E-02 0.  1.
    10030    2    1    2    0    0  0.00000000000E+00  0.00000000000E+00 -0.67071929809E+03  0.12257196759E+04  0.10259260923E+04 0.  0.
        5    1    3    3  502    0 -0.30948483323E+03  0.63467255835E+01  0.15330090950E+03  0.34546259100E+03  0.46999998093E+01 0. -1.
       -5    1    3    3    0  502  0.30948483323E+03 -0.63467255835E+01 -0.82402020759E+03  0.88025708486E+03  0.46999998093E+01 0.  1.
</event>
<event>
 5   0  0.5201968E-03  0.9896143E+03  0.7818609E-02  0.9320010E-01
       -1   -1    0    0    0  501  0.00000000000E+00  0.00000000000E+00  0.40188924907E+03  0.40188924910E+03  0.50400001928E-02 0. -1.
        1   -1    0    0  501    0  0.00000000000E+00  0.00000000000E+00 -0.60920792953E+03  0.60920792955E+03  0.50400001928E-02 0.  1.
    10030    2    1    2    0    0  0.00000000000E+00  0.00000000000E+00 -0.20731868047E+03  0.10110971786E+04  0.98961430335E+03 0.  0.
        2    1    3    3  502    0 -0.33321708864E+02  0.19046536602E+03 -0.56900988505E+03  0.60096559072E+03  0.25500000920E-02 0.  1.
       -2    1    3    3    0  502  0.33321708864E+02 -0.19046536602E+03  0.36169120459E+03  0.41013158793E+03  0.25500000920E-02 0. -1.
</event>
<event>
 5   0  0.5201968E-03  0.9917037E+03  0.7818609E-02  0.9317691E-01
       -1   -1    0    0    0  501  0.00000000000E+00  0.00000000000E+00  0.33165128049E+03  0.33165128053E+03  0.50400001928E-02 0.  1.
        1   -1    0    0  501    0  0.00000000000E+00  0.00000000000E+00 -0.74134813075E+03  0.74134813077E+03  0.50400001928E-02 0. -1.
    10030    2    1    2    0    0  0.00000000000E+00  0.00000000000E+00 -0.40969685026E+03  0.10729994113E+04  0.99170369946E+03 0.  0.
        2    1    3    3  502    0 -0.43361427913E+03 -0.19018941869E+03 -0.45552706176E+02  0.47567678848E+03  0.25500000920E-02 0.  1.
       -2    1    3    3    0  502  0.43361427913E+03  0.19018941869E+03 -0.36414414408E+03  0.59732262282E+03  0.25500000920E-02 0. -1.
</event>
<event>
 5   0  0.5189877E-03  0.9561555E+03  0.7818609E-02  0.9357984E-01
        1   -1    0    0  501    0  0.00000000000E+00  0.00000000000E+00  0.13322263061E+04  0.13322263061E+04  0.50400001928E-02 0.  1.
       -1   -1    0    0    0  501  0.00000000000E+00  0.00000000000E+00 -0.17156120914E+03  0.17156120921E+03  0.50400001928E-02 0. -1.
    10030    2    1    2    0    0  0.00000000000E+00  0.00000000000E+00  0.11606650970E+04  0.15037875153E+04  0.95615554379E+03 0.  0.
        3    1    3    3  502    0  0.36462815936E+03 -0.13600238169E+03  0.14360794789E+03  0.41481754461E+03  0.10100000352E+00 0. -1.
       -3    1    3    3    0  502 -0.36462815936E+03  0.13600238169E+03  0.10170571491E+04  0.10889699707E+04  0.10100000352E+00 0.  1.
</event>
<event>
 5   0  0.9243773E-03  0.9909577E+03  0.7818609E-02  0.9318518E-01
        2   -1    0    0  501    0  0.00000000000E+00  0.00000000000E+00  0.37153545344E+03  0.37153545344E+03  0.25500000920E-02 0. -1.
       -2   -1    0    0    0  501  0.00000000000E+00  0.00000000000E+00 -0.66076948584E+03  0.66076948584E+03  0.25500000920E-02 0.  1.
    10030    2    1    2    0    0  0.00000000000E+00  0.00000000000E+00 -0.28923403240E+03  0.10323049393E+04  0.99095769949E+03 0.  0.
        3    1    3    3  502    0 -0.71800512360E+02  0.16179303690E+03  0.33747411857E+03  0.38107885177E+03  0.10100000352E+00 0. -1.
       -3    1    3    3    0  502  0.71800512360E+02 -0.16179303690E+03 -0.62670815097E+03  0.65122608751E+03  0.10100000352E+00 0.  1.
</event>
<event>
 5   0  0.5072205E-03  0.1001023E+04  0.7818609E-02  0.9307423E-01
       -1   -1    0    0    0  501  0.00000000000E+00  0.00000000000E+00  0.28446855209E+03  0.28446855213E+03  0.50400001928E-02 0. -1.
        1   -1    0    0  501    0  0.00000000000E+00  0.00000000000E+00 -0.88063092730E+03  0.88063092731E+03  0.50400001928E-02 0.  1.
    10030    2    1    2    0    0  0.00000000000E+00  0.00000000000E+00 -0.59616237521E+03  0.11650994794E+04  0.10010230863E+04 0.  0.
        5    1    3    3  502    0 -0.45610894948E+03 -0.20507131000E+03 -0.27480013688E+03  0.57063720630E+03  0.46999998093E+01 0.  1.
       -5    1    3    3    0  502  0.45610894948E+03  0.20507131000E+03 -0.32136223832E+03  0.59446227315E+03  0.46999998093E+01 0. -1.
</event>
<event>
 5   0  0.5201968E-03  0.9996750E+03  0.7818609E-02  0.9308901E-01
       -1   -1    0    0    0  501  0.00000000000E+00  0.00000000000E+00  0.47945567167E+03  0.47945567169E+03  0.50400001928E-02 0. -1.
        1   -1    0    0  501    0  0.00000000000E+00  0.00000000000E+00 -0.52108577190E+03  0.52108577192E+03  0.50400001928E-02 0.  1.
    10030    2    1    2    0    0  0.00000000000E+00  0.00000000000E+00 -0.41630100235E+02  0.10005414436E+04  0.99967500476E+03 0.  0.
        2    1    3    3  502    0  0.64225740242E+01 -0.45932637769E+03  0.17637235242E+03  0.49206623274E+03  0.25500000920E-02 0. -1.
       -2    1    3    3    0  502 -0.64225740242E+01  0.45932637769E+03 -0.21800245266E+03  0.50847521087E+03  0.25500000920E-02 0.  1.
</event>
<event>
 5   0  0.9243773E-03  0.1005434E+04  0.7818609E-02  0.9302605E-01
        2   -1    0    0  501    0  0.00000000000E+00  0.00000000000E+00  0.15777682104E+04  0.15777682104E+04  0.25500000920E-02 0.  1.
       -2   -1    0    0    0  501  0.00000000000E+00  0.00000000000E+00 -0.16017849489E+03  0.16017849491E+03  0.25500000920E-02 0. -1.
    10030    2    1    2    0    0  0.00000000000E+00  0.00000000000E+00  0.14175897155E+04  0.17379467053E+04  0.10054343086E+04 0.  0.
        3    1    3    3  502    0  0.10559132229E+03  0.25737187055E+03 -0.15002037549E+02  0.27859446948E+03  0.10100000352E+00 0. -1.
       -3    1    3    3    0  502 -0.10559132229E+03 -0.25737187055E+03  0.14325917530E+04  0.14593522358E+04  0.10100000352E+00 0.  1.
</event>
<event>
 5   0  0.8907355E-03  0.1023394E+04  0.7818609E-02  0.9283252E-01
       -2   -1    0    0    0  501  0.00000000000E+00  0.00000000000E+00  0.24646465575E+03  0.24646465576E+03  0.25500000920E-02 0.  1.
        2   -1    0    0  501    0  0.00000000000E+00  0.00000000000E+00 -0.10623591063E+04  0.10623591063E+04  0.25500000920E-02 0. -1.
    10030    2    1    2    0    0  0.00000000000E+00  0.00000000000E+00 -0.81589445059E+03  0.13088237621E+04  0.10233942963E+04 0.  0.
        5    1    3    3  502    0  0.42182348423E+03  0.30073183429E+02 -0.39559550013E+02  0.42476640193E+03  0.46999998093E+01 0.  1.
       -5    1    3    3    0  502 -0.42182348423E+03 -0.30073183429E+02 -0.77633490058E+03  0.88405736017E+03  0.46999998093E+01 0. -1.
</event>
<event>
 5   0  0.8907355E-03  0.1002586E+04  0.7818609E-02  0.9305714E-01
       -2   -1    0    0    0  501  0.00000000000E+00  0.00000000000E+00  0.47574461638E+03  0.47574461638E+03  0.25500000920E-02 0. -1.
        2   -1    0    0  501    0  0.00000000000E+00  0.00000000000E+00 -0.52821294129E+03  0.52821294130E+03  0.25500000920E-02 0.  1.
    10030    2    1    2    0    0  0.00000000000E+00  0.00000000000E+00 -0.52468324917E+02  0.10039575577E+04  0.10025855836E+04 0.  0.
        5    1    3    3  502    0 -0.32054313807E+03 -0.29720466260E+03 -0.27191426724E+03  0.51481838891E+03  0.46999998093E+01 0.  1.
       -5    1    3    3    0  502  0.32054313807E+03  0.29720466260E+03  0.21944594232E+03  0.48913916878E+03  0.46999998093E+01 0. -1.
</event>
<event>
 5   0  0.8907355E-03  0.9575868E+03  0.7818609E-02  0.9356327E-01
       -2   -1    0    0    0  501  0.00000000000E+00  0.00000000000E+00  0.87396734484E+03  0.87396734485E+03  0.25500000920E-02 0. -1.
        2   -1    0    0  501    0  0.00000000000E+00  0.00000000000E+00 -0.26230167635E+03  0.26230167637E+03  0.25500000920E-02 0.  1.
    10030    2    1    2    0    0  0.00000000000E+00  0.00000000000E+00  0.61166566849E+03  0.11362690212E+04  0.95758675772E+03 0.  0.
        5    1    3    3  502    0 -0.17065694879E+03 -0.44037222340E+03  0.39903558591E+03  0.61830654059E+03  0.46999998093E+01 0. -1.
       -5    1    3    3    0  502  0.17065694879E+03  0.44037222340E+03  0.21263008258E+03  0.51796248062E+03  0.46999998093E+01 0.  1.
</event>
<event>
 5   0  0.8968798E-03  0.9913743E+03  0.7818609E-02  0.9318056E-01
       -2   -1    0    0    0  501  0.00000000000E+00  0.00000000000E+00  0.22187919375E+03  0.22187919376E+03  0.25500000920E-02 0.  1.
        2   -1    0    0  501    0  0.00000000000E+00  0.00000000000E+00 -0.11073853067E+04  0.11073853067E+04  0.25500000920E-02 0. -1.
    10030    2    1    2    0    0  0.00000000000E+00  0.00000000000E+00 -0.88550611293E+03  0.13292645005E+04  0.99137431685E+03 0.  0.
        2    1    3    3  502    0  0.34117272588E+02 -0.62681263570E+02  0.21495495724E+03  0.22649186021E+03  0.25500000920E-02 0.  1.
       -2    1    3    3    0  502 -0.34117272588E+02  0.62681263570E+02 -0.11004610702E+04  0.11027726402E+04  0.25500000920E-02 0. -1.
</event>
<event>
 5   0  0.8875655E-03  0.1011812E+04  0.7818609E-02  0.9295684E-01
       -2   -1    0    0    0  501  0.00000000000E+00  0.00000000000E+00  0.16376108209E+03  0.16376108211E+03  0.25500000920E-02 0. -1.
        2   -1    0    0  501    0  0.00000000000E+00  0.00000000000E+00 -0.15628912941E+04  0.15628912941E+04  0.25500000920E-02 0.  1.
    10030    2    1    2    0    0  0.00000000000E+00  0.00000000000E+00 -0.13991302120E+04  0.17266523763E+04  0.10118117800E+04 0.  0.
        4    1    3    3  502    0 -0.38909892135E+03  0.32322880059E+03 -0.68587814749E+03  0.85223545703E+03  0.12699999809E+01 0. -1.
       -4    1    3    3    0  502  0.38909892135E+03 -0.32322880059E+03 -0.71325206456E+03  0.87441691922E+03  0.12699999809E+01 0.  1.
</event>
<event>
 5   0  0.9243773E-03  0.9960851E+03  0.7818609E-02  0.9312849E-01
       -2   -1    0    0    0  501  0.00000000000E+00  0.00000000000E+00  0.54382590443E+03  0.54382590444E+03  0.25500000920E-02 0. -1.
        2   -1    0    0  501    0  0.00000000000E+00  0.00000000000E+00 -0.45611358878E+03  0.45611358879E+03  0.25500000920E-02 0.  1.
    10030    2    1    2    0    0  0.00000000000E+00  0.00000000000E+00  0.87712315654E+02  0.99993949322E+03  0.99608510670E+03 0.  0.
        3    1    3    3  502    0  0.32647201439E+03 -0.36612923260E+01 -0.33369621632E+03  0.46685174973E+03  0.10100000352E+00 0.  1.
       -3    1    3    3    0  502 -0.32647201439E+03  0.36612923260E+01  0.42140853197E+03  0.53308774349E+03  0.10100000352E+00 0. -1.
</event>
<event>
 5   0  0.8907355E-03  0.1035106E+04  0.7818609E-02  0.9270858E-01
       -2   -1    0    0    0  501  0.00000000000E+00  0.00000000000E+00  0.48374277646E+03  0.48374277647E+03  0.25500000920E-02 0. -1.
        2   -1    0    0  501    0  0.00000000000E+00  0.00000000000E+00 -0.55372589446E+03  0.55372589447E+03  0.25500000920E-02 0.  1.
    10030    2    1    2    0    0  0.00000000000E+00  0.00000000000E+00 -0.69983118004E+02  0.10374686709E+04  0.10351056016E+04 0.  0.
        5    1    3    3  502    0 -0.35144885357E+03 -0.36597421995E+03  0.67149801377E+02  0.51184432416E+03  0.46999998093E+01 0. -1.
       -5    1    3    3    0  502  0.35144885357E+03  0.36597421995E+03 -0.13713291938E+03  0.52562434678E+03  0.46999998093E+01 0.  1.
</event>
<event>
 5   0  0.8875655E-03  0.1008973E+04  0.7818609E-02  0.9298758E-01
        2   -1    0    0  501    0  0.00000000000E+00  0.00000000000E+00  0.49830297922E+03  0.49830297923E+03  0.25500000920E-02 0. -1.
       -2   -1    0    0    0  501  0.00000000000E+00  0.00000000000E+00 -0.51074625593E+03  0.51074625593E+03  0.25500000920E-02 0.  1.
    10030    2    1    2    0    0  0.00000000000E+00  0.00000000000E+00 -0.12443276708E+02  0.10090492352E+04  0.10089725090E+04 0.  0.
        4    1    3    3  502    0 -0.24449404321E+03 -0.26224553910E+03 -0.36114960995E+03  0.50890147731E+03  0.12699999809E+01 0.  1.
       -4    1    3    3    0  502  0.24449404321E+03  0.26224553910E+03  0.34870633324E+03  0.50014775785E+03  0.12699999809E+01 0. -1.
</event>
<event>
 5   0  0.5072205E-03  0.9498704E+03  0.7818609E-02  0.9365302E-01
       -1   -1    0    0    0  501  0.00000000000E+00  0.00000000000E+00  0.51019172434E+03  0.51019172437E+03  0.50400001928E-02 0. -1.
        1   -1    0    0  501    0  0.00000000000E+00  0.00000000000E+00 -0.44211503167E+03  0.44211503170E+03  0.50400001928E-02 0.  1.
    10030    2    1    2    0    0  0.00000000000E+00  0.00000000000E+00  0.68076692674E+02  0.95230675607E+03  0.94987037093E+03 0.  0.
        5    1    3    3  502    0 -0.45548454788E+03  0.30446502176E+02  0.16532528148E+03  0.48553856855E+03  0.46999998093E+01 0. -1.
       -5    1    3    3    0  502  0.45548454788E+03 -0.30446502176E+02 -0.97248588805E+02  0.46676818752E+03  0.46999998093E+01 0.  1.
</event>
<event>
 5   0  0.9040674E-03  0.9965625E+03  0.7818609E-02  0.9312323E-01
        2   -1    0    0  501    0  0.00000000000E+00  0.00000000000E+00  0.18361241487E+04  0.18361241487E+04  0.25500000920E-02 0. -1.
       -2   -1    0    0    0  501  0.00000000000E+00  0.00000000000E+00 -0.13522190723E+03  0.13522190725E+03  0.25500000920E-02 0.  1.
    10030    2    1    2    0    0  0.00000000000E+00  0.00000000000E+00  0.17009022415E+04  0.19713460559E+04  0.99656251046E+03 0.  0.
        1    1    3    3  502    0  0.57662390030E+02  0.82184023942E+02 -0.11500780016E+03  0.15266289378E+03  0.50400001928E-02 0.  1.
       -1    1    3    3    0  502 -0.57662390030E+02 -0.82184023942E+02  0.18159100416E+04  0.18186831622E+04  0.50400001928E-02 0. -1.
</event>
<event>
 5   0  0.5201968E-03  0.9940618E+03  0.7818609E-02  0.9315082E-01
       -1   -1    0    0    0  501  0.00000000000E+00  0.00000000000E+00  0.70654897304E+03  0.70654897305E+03  0.50400001928E-02 0. -1.
        1   -1    0    0  501    0  0.00000000000E+00  0.00000000000E+00 -0.34964274095E+03  0.34964274098E+03  0.50400001928E-02 0.  1.
    10030    2    1    2    0    0  0.00000000000E+00  0.00000000000E+00  0.35690623209E+03  0.10561917140E+04  0.99406180809E+03 0.  0.
        2    1    3    3  502    0 -0.43694900364E+02 -0.46954892032E+03  0.11622563438E+02  0.47172080395E+03  0.25500000920E-02 0.  1.
       -2    1    3    3    0  502  0.43694900364E+02  0.46954892032E+03  0.34528366865E+03  0.58447091009E+03  0.25500000920E-02 0. -1.
</event>
<event>
 5   0  0.9243773E-03  0.9658477E+03  0.7818609E-02  0.9346816E-01
       -2   -1    0    0    0  501  0.00000000000E+00  0.00000000000E+00  0.51003390375E+03  0.51003390376E+03  0.25500000920E-02 0. -1.
        2   -1    0    0  501    0  0.00000000000E+00  0.00000000000E+00 -0.45725478548E+03  0.45725478549E+03  0.25500000920E-02 0.  1.
    10030    2    1    2    0    0  0.00000000000E+00  0.00000000000E+00  0.52779118272E+02  0.96728868925E+03  0.96584769660E+03 0.  0.
        3    1    3    3  502    0  0.20466256888E+03 -0.51285186420E+02 -0.40865293486E+03  0.45990669577E+03  0.10100000352E+00 0.  1.
       -3    1    3    3    0  502 -0.20466256888E+03  0.51285186420E+02  0.46143205313E+03  0.50738199348E+03  0.10100000352E+00 0. -1.
</event>
<event>
 5   0  0.5349685E-03  0.1000640E+04  0.7818609E-02  0.9307843E-01
       -1   -1    0    0    0  501  0.00000000000E+00  0.00000000000E+00  0.41242102130E+03  0.41242102134E+03  0.50400001928E-02 0.  1.
        1   -1    0    0  501    0  0.00000000000E+00  0.00000000000E+00 -0.60695318749E+03  0.60695318751E+03  0.50400001928E-02 0. -1.
    10030    2    1    2    0    0  0.00000000000E+00  0.00000000000E+00 -0.19453216619E+03  0.10193742088E+04  0.10006403020E+04 0.  0.
        4    1    3    3  502    0 -0.28155014985E+03  0.34053381494E+03  0.14182965411E+03  0.46405929544E+03  0.12699999809E+01 0.  1.
       -4    1    3    3    0  502  0.28155014985E+03 -0.34053381494E+03 -0.33636182029E+03  0.55531491341E+03  0.12699999809E+01 0. -1.
</event>
<event>
 5   0  0.5310275E-03  0.9998262E+03  0.7818609E-02  0.9308735E-01
       -1   -1    0    0    0  501  0.00000000000E+00  0.00000000000E+00  0.18100057069E+03  0.18100057076E+03  0.50400001928E-02 0. -1.
        1   -1    0    0  501    0  0.00000000000E+00  0.00000000000E+00 -0.13807310847E+04  0.13807310847E+04  0.50400001928E-02 0.  1.
    10030    2    1    2    0    0  0.00000000000E+00  0.00000000000E+00 -0.11997305140E+04  0.15617316555E+04  0.99982621361E+03 0.  0.
        1    1    3    3  502    0  0.20552776536E+03 -0.27154059501E+03 -0.28212328260E+02  0.34171902576E+03  0.50400001928E-02 0. -1.
       -1    1    3    3    0  502 -0.20552776536E+03  0.27154059501E+03 -0.11715181857E+04  0.12200126297E+04  0.50400001928E-02 0.  1.
</event>
<event>
 5   0  0.5072205E-03  0.9227936E+03  0.7818609E-02  0.9397528E-01
        1   -1    0    0  501    0  0.00000000000E+00  0.00000000000E+00  0.47001035552E+03  0.47001035555E+03  0.50400001928E-02 0. -1.
       -1   -1    0    0    0  501  0.00000000000E+00  0.00000000000E+00 -0.45294105976E+03  0.45294105978E+03  0.50400001928E-02 0.  1.
    10030    2    1    2    0    0  0.00000000000E+00  0.00000000000E+00  0.17069295766E+02  0.92295141533E+03  0.92279355991E+03 0.  0.
        5    1    3    3  502    0 -0.31860185685E+03 -0.15862180844E+03  0.30217791767E+03  0.46690642020E+03  0.46999998093E+01 0. -1.
       -5    1    3    3    0  502  0.31860185685E+03  0.15862180844E+03 -0.28510862191E+03  0.45604499513E+03  0.46999998093E+01 0.  1.
</event>
<event>
 5   0  0.8875655E-03  0.9682465E+03  0.7818609E-02  0.9344074E-01
        2   -1    0    0  501    0  0.00000000000E+00  0.00000000000E+00  0.57215690819E+03  0.57215690819E+03  0.25500000920E-02 0. -1.
       -2   -1    0    0    0  501  0.00000000000E+00  0.00000000000E+00 -0.40963465701E+03  0.40963465701E+03  0.25500000920E-02 0.  1.
    10030    2    1    2    0    0  0.00000000000E+00  0.00000000000E+00  0.16252225118E+03  0.98179156521E+03  0.96824645384E+03 0.  0.
        4    1    3    3  502    0 -0.46778617908E+03 -0.64248458809E+02 -0.27107306367E+02  0.47295686141E+03  0.12699999809E+01 0. -1.
       -4    1    3    3    0  502  0.46778617908E+03  0.64248458809E+02  0.18962955755E+03  0.50883470380E+03  0.12699999809E+01 0.  1.
</event>
<event>
 5   0  0.5201968E-03  0.9933216E+03  0.7818609E-02  0.9315900E-01
       -1   -1    0    0    0  501  0.00000000000E+00  0.00000000000E+00  0.27515283393E+03  0.27515283398E+03  0.50400001928E-02 0. -1.
        1   -1    0    0  501    0  0.00000000000E+00  0.00000000000E+00 -0.89649069974E+03  0.89649069975E+03  0.50400001928E-02 0.  1.
    10030    2    1    2    0    0  0.00000000000E+00  0.00000000000E+00 -0.62133786580E+03  0.11716435337E+04  0.99332161290E+03 0.  0.
        2    1    3    3  502    0  0.85668213930E+02 -0.48902614400E+03 -0.29456753335E+03  0.57728298442E+03  0.25500000920E-02 0. -1.
       -2    1    3    3    0  502 -0.85668213930E+02  0.48902614400E+03 -0.32677033246E+03  0.59436054931E+03  0.25500000920E-02 0.  1.
</event>
<event>
 5   0  0.8968798E-03  0.1000377E+04  0.7818609E-02  0.9308132E-01
       -2   -1    0    0    0  501  0.00000000000E+00  0.00000000000E+00  0.47604411866E+03  0.47604411867E+03  0.25500000920E-02 0.  1.
        2   -1    0    0  501    0  0.00000000000E+00  0.00000000000E+00 -0.52555721914E+03  0.52555721915E+03  0.25500000920E-02 0. -1.
    10030    2    1    2    0    0  0.00000000000E+00  0.00000000000E+00 -0.49513100484E+02  0.10016013378E+04  0.10003767754E+04 0.  0.
        2    1    3    3  502    0  0.28049371460E+03 -0.92036055953E+02  0.37952115813E+03  0.48081562891E+03  0.25500000920E-02 0.  1.
       -2    1    3    3    0  502 -0.28049371460E+03  0.92036055953E+02 -0.42903425862E+03  0.52078570890E+03  0.25500000920E-02 0. -1.
</event>
<event>
 5   0  0.3513625E-03  0.9914052E+03  0.7818609E-02  0.9318022E-01
        3   -1    0    0  501    0  0.00000000000E+00  0.00000000000E+00  0.89906099648E+03  0.89906100216E+03  0.10100000352E+00 0.  1.
       -3   -1    0    0    0  501  0.00000000000E+00  0.00000000000E+00 -0.27330853818E+03  0.27330855684E+03  0.10100000352E+00 0. -1.
    10030    2    1    2    0    0  0.00000000000E+00  0.00000000000E+00  0.62575245830E+03  0.11723695590E+04  0.99140518648E+03 0.  0.
        5    1    3    3  502    0 -0.31584977188E+03  0.23206216959E+03 -0.45969591053E+02  0.39465075985E+03  0.46999998093E+01 0. -1.
       -5    1    3    3    0  502  0.31584977188E+03 -0.23206216959E+03  0.67172204936E+03  0.77771879914E+03  0.46999998093E+01 0.  1.
</event>
<event>
 5   0  0.9040674E-03  0.9998150E+03  0.7818609E-02  0.9308748E-01
       -2   -1    0    0    0  501  0.00000000000E+00  0.00000000000E+00  0.27782968865E+03  0.27782968866E+03  0.25500000920E-02 0. -1.
        2   -1    0    0  501    0  0.00000000000E+00  0.00000000000E+00 -0.89949896296E+03  0.89949896296E+03  0.25500000920E-02 0.  1.
    10030    2    1    2    0    0  0.00000000000E+00  0.00000000000E+00 -0.62166927431E+03  0.11773286516E+04  0.99981501654E+03 0.  0.
        1    1    3    3  502    0 -0.32399347314E+03 -0.19553550334E+03  0.73813426440E+02  0.38555716263E+03  0.50400001928E-02 0. -1.
       -1    1    3    3    0  502  0.32399347314E+03  0.19553550334E+03 -0.69548270075E+03  0.79177148899E+03  0.50400001928E-02 0.  1.
</event>
<event>
 5   0  0.8907355E-03  0.1007843E+04  0.7818609E-02  0.9299984E-01
        2   -1    0    0  501    0  0.00000000000E+00  0.00000000000E+00  0.74280289544E+03  0.74280289544E+03  0.25500000920E-02 0.  1.
       -2   -1    0    0    0  501  0.00000000000E+00  0.00000000000E+00 -0.34186321132E+03  0.34186321133E+03  0.25500000920E-02 0. -1.
    10030    2    1    2    0    0  0.00000000000E+00  0.00000000000E+00  0.40093968411E+03  0.10846661068E+04  0.10078432085E+04 0.  0.
        5    1    3    3  502    0  0.15847349492E+02 -0.66118427310E+02 -0.33688029177E+03  0.34370511473E+03  0.46999998093E+01 0. -1.
       -5    1    3    3    0  502 -0.15847349492E+02  0.66118427310E+02  0.73781997588E+03  0.74096099204E+03  0.46999998093E+01 0.  1.
</event>
<event>
 5   0  0.5201968E-03  0.9988845E+03  0.7818609E-02  0.9309769E-01
        1   -1    0    0  501    0  0.00000000000E+00  0.00000000000E+00  0.24228546250E+04  0.24228546250E+04  0.50400001928E-02 0.  1.
       -1   -1    0    0    0  501  0.00000000000E+00  0.00000000000E+00 -0.10295400381E+03  0.10295400393E+03  0.50400001928E-02 0. -1.
    10030    2    1    2    0    0  0.00000000000E+00  0.00000000000E+00  0.23199006212E+04  0.25258086289E+04  0.99888454679E+03 0.  0.
        2    1    3    3  502    0  0.34541407843E+03  0.13559177521E+03  0.31466709065E+03  0.48652995080E+03  0.25500000920E-02 0. -1.
       -2    1    3    3    0  502 -0.34541407843E+03 -0.13559177521E+03  0.20052335305E+04  0.20392786781E+04  0.25500000920E-02 0.  1.
</event>
<event>
 5   0  0.5349685E-03  0.1001779E+04  0.7818609E-02  0.9306596E-01
       -1   -1    0    0    0  501  0.00000000000E+00  0.00000000000E+00  0.51330138836E+03  0.51330138838E+03  0.50400001928E-02 0.  1.
        1   -1    0    0  501    0  0.00000000000E+00  0.00000000000E+00 -0.48877737819E+03  0.48877737822E+03  0.50400001928E-02 0. -1.
    10030    2    1    2    0    0  0.00000000000E+00  0.00000000000E+00  0.24524010166E+02  0.10020787666E+04  0.10017786319E+04 0.  0.
        4    1    3    3  502    0 -0.43496494008E+03  0.22919875007E+03  0.10800864208E+03  0.50338260379E+03  0.12699999809E+01 0.  1.
       -4    1    3    3    0  502  0.43496494008E+03 -0.22919875007E+03 -0.83484631909E+02  0.49869616281E+03  0.12699999809E+01 0. -1.
</event>
<event>
 5   0  0.8875655E-03  0.1013017E+04  0.7818609E-02  0.9294382E-01
        2   -1    0    0  501    0  0.00000000000E+00  0.00000000000E+00  0.19765908632E+04  0.19765908632E+04  0.25500000920E-02 0. -1.
       -2   -1    0    0    0  501  0.00000000000E+00  0.00000000000E+00 -0.12979458644E+03  0.12979458647E+03  0.25500000920E-02 0.  1.
    10030    2    1    2    0    0  0.00000000000E+00  0.00000000000E+00  0.18467962767E+04  0.21063854496E+04  0.10130168679E+04 0.  0.
        4    1    3    3  502    0 -0.12337460725E+03  0.24684347592E+03  0.40247384119E+02  0.27888072745E+03  0.12699999809E+01 0.  1.
       -4    1    3    3    0  502  0.12337460725E+03 -0.24684347592E+03  0.18065488926E+04  0.18275047222E+04  0.12699999809E+01 0. -1.
</event>
<event>
 5   0  0.9243773E-03  0.1001834E+04  0.7818609E-02  0.9306535E-01
       -2   -1    0    0    0  501  0.00000000000E+00  0.00000000000E+00  0.18268149502E+03  0.18268149504E+03  0.25500000920E-02 0. -1.
        2   -1    0    0  501    0  0.00000000000E+00  0.00000000000E+00 -0.13735276308E+04  0.13735276308E+04  0.25500000920E-02 0.  1.
    10030    2    1    2    0    0  0.00000000000E+00  0.00000000000E+00 -0.11908461358E+04  0.15562091259E+04  0.10018344795E+04 0.  0.
        3    1    3    3  502    0 -0.31738765073E+03 -0.67015178268E+01 -0.11973137820E+04  0.12386848405E+04  0.10100000352E+00 0.  1.
       -3    1    3    3    0  502  0.31738765073E+03  0.67015178268E+01  0.64676462179E+01  0.31752428541E+03  0.10100000352E+00 0. -1.
</event>
<event>
 5   0  0.5310275E-03  0.1003551E+04  0.7818609E-02  0.9304659E-01
       -1   -1    0    0    0  501  0.00000000000E+00  0.00000000000E+00  0.50707928949E+03  0.50707928952E+03  0.50400001928E-02 0. -1.
        1   -1    0    0  501    0  0.00000000000E+00  0.00000000000E+00 -0.49652678038E+03  0.49652678041E+03  0.50400001928E-02 0.  1.
    10030    2    1    2    0    0  0.00000000000E+00  0.00000000000E+00  0.10552509108E+02  0.10036060699E+04  0.10035505907E+04 0.  0.
        1    1    3    3  502    0  0.30971308431E+03  0.37694066926E+03  0.12263684006E+03  0.50303703373E+03  0.50400001928E-02 0.  1.
       -1    1    3    3    0  502 -0.30971308431E+03 -0.37694066926E+03 -0.11208433095E+03  0.50056903620E+03  0.50400001928E-02 0. -1.
</event>
<event>
 5   0  0.5310275E-03  0.9653462E+03  0.7818609E-02  0.9347391E-01
       -1   -1    0    0    0  501  0.00000000000E+00  0.00000000000E+00  0.41843426423E+03  0.41843426426E+03  0.50400001928E-02 0.  1.
        1   -1    0    0  501    0  0.00000000000E+00  0.00000000000E+00 -0.55677399794E+03  0.55677399797E+03  0.50400001928E-02 0. -1.
    10030    2    1    2    0    0  0.00000000000E+00  0.00000000000E+00 -0.13833973371E+03  0.97520826223E+03  0.96534619323E+03 0.  0.
        1    1    3    3  502    0  0.89365117211E+02  0.11175914936E+03 -0.53485328470E+03  0.55366440000E+03  0.50400001928E-02 0. -1.
       -1    1    3    3    0  502 -0.89365117211E+02 -0.11175914936E+03  0.39651355099E+03  0.42154386223E+03  0.50400001928E-02 0.  1.
</event>
<event>
 5   0  0.5201968E-03  0.1006384E+04  0.7818609E-02  0.9301571E-01
       -1   -1    0    0    0  501  0.00000000000E+00  0.00000000000E+00  0.26386423502E+03  0.26386423507E+03  0.50400001928E-02 0.  1.
        1   -1    0    0  501    0  0.00000000000E+00  0.00000000000E+00 -0.95959254984E+03  0.95959254985E+03  0.50400001928E-02 0. -1.
    10030    2    1    2    0    0  0.00000000000E+00  0.00000000000E+00 -0.69572831482E+03  0.12234567849E+04  0.10063839310E+04 0.  0.
        2    1    3    3  502    0 -0.25198650632E+03  0.20904767185E+03  0.11665898493E+03  0.34757365729E+03  0.25500000920E-02 0.  1.
       -2    1    3    3    0  502  0.25198650632E+03 -0.20904767185E+03 -0.81238729975E+03  0.87588312763E+03  0.25500000920E-02 0. -1.
</event>
<event>
 5   0  0.5201968E-03  0.1014930E+04  0.7818609E-02  0.9292319E-01
        1   -1    0    0  501    0  0.00000000000E+00  0.00000000000E+00  0.40847915746E+03  0.40847915749E+03  0.50400001928E-02 0.  1.
       -1   -1    0    0    0  501  0.00000000000E+00  0.00000000000E+00 -0.63043844618E+03  0.63043844620E+03  0.50400001928E-02 0. -1.
    10030    2    1    2    0    0  0.00000000000E+00  0.00000000000E+00 -0.22195928872E+03  0.10389176037E+04  0.10149304712E+04 0.  0.
        2    1    3    3  502    0 -0.14734621761E+03  0.42504862411E+03 -0.35135661742E+03  0.57081407947E+03  0.25500000920E-02 0. -1.
       -2    1    3    3    0  502  0.14734621761E+03 -0.42504862411E+03  0.12939732871E+03  0.46810352422E+03  0.25500000920E-02 0.  1.
</event>
<event>
 5   0  0.8907355E-03  0.1037578E+04  0.7818609E-02  0.9268264E-01
       -2   -1    0    0    0  501  0.00000000000E+00  0.00000000000E+00  0.26682260157E+03  0.26682260158E+03  0.25500000920E-02 0.  1.
        2   -1    0    0  501    0  0.00000000000E+00  0.00000000000E+00 -0.10086921639E+04  0.10086921639E+04  0.25500000920E-02 0. -1.
    10030    2    1    2    0    0  0.00000000000E+00  0.00000000000E+00 -0.74186956232E+03  0.12755147655E+04  0.10375776932E+04 0.  0.
        5    1    3    3  502    0  0.29456820915E+03  0.37415916332E+03 -0.11793889792E+03  0.49060899195E+03  0.46999998093E+01 0.  1.
       -5    1    3    3    0  502 -0.29456820915E+03 -0.37415916332E+03 -0.62393066440E+03  0.78490577352E+03  0.46999998093E+01 0. -1.
</event>
<event>
 5   0  0.5072205E-03  0.1009168E+04  0.7818609E-02  0.9298547E-01
        1   -1    0    0  501    0  0.00000000000E+00  0.00000000000E+00  0.14657214114E+04  0.14657214114E+04  0.50400001928E-02 0.  1.
       -1   -1    0    0    0  501  0.00000000000E+00  0.00000000000E+00 -0.17370618880E+03  0.17370618887E+03  0.50400001928E-02 0. -1.
    10030    2    1    2    0    0  0.00000000000E+00  0.00000000000E+00  0.12920152226E+04  0.16394276003E+04  0.10091677369E+04 0.  0.
        5    1    3    3  502    0  0.65321783206E+02 -0.55410746761E+01 -0.16672264359E+03  0.17920984558E+03  0.46999998093E+01 0. -1.
       -5    1    3    3    0  502 -0.65321783206E+02  0.55410746761E+01  0.14587378662E+04  0.14602177547E+04  0.46999998093E+01 0.  1.
</event>
<event>
 5   0  0.5189877E-03  0.1007526E+04  0.7818609E-02  0.9300329E-01
       -1   -1    0    0    0  501  0.00000000000E+00  0.00000000000E+00  0.18827466850E+03  0.18827466857E+03  0.50400001928E-02 0. -1.
        1   -1    0    0  501    0  0.00000000000E+00  0.00000000000E+00 -0.13479089181E+04  0.13479089181E+04  0.50400001928E-02 0.  1.
    10030    2    1    2    0    0  0.00000000000E+00  0.00000000000E+00 -0.11596342496E+04  0.15361835867E+04  0.10075258900E+04 0.  0.
        3    1    3    3  502    0 -0.29535165725E+02  0.13912301815E+03  0.15702836100E+03  0.21186188084E+03  0.10100000352E+00 0. -1.
       -3    1    3    3    0  502  0.29535165725E+02 -0.13912301815E+03 -0.13166626106E+04  0.13243217058E+04  0.10100000352E+00 0.  1.
</event>
<event>
 5   0  0.5189877E-03  0.1005105E+04  0.7818609E-02  0.9302963E-01
        1   -1    0    0  501    0  0.00000000000E+00  0.00000000000E+00  0.18886311016E+03  0.18886311023E+03  0.50400001928E-02 0.  1.
       -1   -1    0    0    0  501  0.00000000000E+00  0.00000000000E+00 -0.13372597242E+04  0.13372597242E+04  0.50400001928E-02 0. -1.
    10030    2    1    2    0    0  0.00000000000E+00  0.00000000000E+00 -0.11483966140E+04  0.15261228344E+04  0.10051050307E+04 0.  0.
        3    1    3    3  502    0 -0.29857750913E+03 -0.31767782961E+03 -0.19463188847E+03  0.47744037806E+03  0.10100000352E+00 0.  1.
       -3    1    3    3    0  502  0.29857750913E+03  0.31767782961E+03 -0.95376472556E+03  0.10486824564E+04  0.10100000352E+00 0. -1.
</event>
<event>
 5   0  0.5349685E-03  0.9937458E+03  0.7818609E-02  0.9315431E-01
        1   -1    0    0  501    0  0.00000000000E+00  0.00000000000E+00  0.49930658094E+03  0.49930658096E+03  0.50400001928E-02 0. -1.
       -1   -1    0    0    0  501  0.00000000000E+00  0.00000000000E+00 -0.49445111478E+03  0.49445111480E+03  0.50400001928E-02 0.  1.
    10030    2    1    2    0    0  0.00000000000E+00  0.00000000000E+00  0.48554661620E+01  0.99375769576E+03  0.99374583387E+03 0.  0.
        4    1    3    3  502    0 -0.29783613565E+03  0.79484940195E+02  0.39212054618E+03  0.49878287366E+03  0.12699999809E+01 0. -1.
       -4    1    3    3    0  502  0.29783613565E+03 -0.79484940195E+02 -0.38726508002E+03  0.49497482211E+03  0.12699999809E+01 0.  1.
</event>
<event>
 5   0  0.8968798E-03  0.9771684E+03  0.7818609E-02  0.9333947E-01
        2   -1    0    0  501    0  0.00000000000E+00  0.00000000000E+00  0.69666145643E+03  0.69666145644E+03  0.25500000920E-02 0. -1.
       -2   -1    0    0    0  501  0.00000000000E+00  0.00000000000E+00 -0.34265499839E+03  0.34265499840E+03  0.25500000920E-02 0.  1.
    10030    2    1    2    0    0  0.00000000000E+00  0.00000000000E+00  0.35400645804E+03  0.10393164548E+04  0.97716841996E+03 0.  0.
        2    1    3    3  502    0 -0.68902899959E+02  0.35767801481E+03  0.52334082543E+03  0.63762590244E+03  0.25500000920E-02 0. -1.
       -2    1    3    3    0  502  0.68902899959E+02 -0.35767801481E+03 -0.16933436739E+03  0.40169055240E+03  0.25500000920E-02 0.  1.
</event>
<event>
 5   0  0.9040674E-03  0.9885824E+03  0.7818609E-02  0.9321157E-01
       -2   -1    0    0    0  501  0.00000000000E+00  0.00000000000E+00  0.15501692923E+03  0.15501692925E+03  0.25500000920E-02 0.  1.
        2   -1    0    0  501    0  0.00000000000E+00  0.00000000000E+00 -0.15761104487E+04  0.15761104487E+04  0.25500000920E-02 0. -1.
    10030    2    1    2    0    0  0.00000000000E+00  0.00000000000E+00 -0.14210935195E+04  0.17311273780E+04  0.98858242328E+03 0.  0.
        1    1    3    3  502    0  0.34487983224E+03 -0.33987878036E+03 -0.88446505365E+03  0.10083343271E+04  0.50400001928E-02 0.  1.
       -1    1    3    3    0  502 -0.34487983224E+03  0.33987878036E+03 -0.53662846583E+03  0.72279305087E+03  0.50400001928E-02 0. -1.
</event>
<event>
 5   0  0.5072205E-03  0.1008591E+04  0.7818609E-02  0.9299172E-01
        1   -1    0    0  501    0  0.00000000000E+00  0.00000000000E+00  0.12199796718E+04  0.12199796718E+04  0.50400001928E-02 0.  1.
       -1   -1    0    0    0  501  0.00000000000E+00  0.00000000000E+00 -0.20845750542E+03  0.20845750548E+03  0.50400001928E-02 0. -1.
    10030    2    1    2    0    0  0.00000000000E+00  0.00000000000E+00  0.10115221664E+04  0.14284371773E+04  0.10085909361E+04 0.  0.
        5    1    3    3  502    0 -0.16626779955E+03  0.14736873074E+03  0.11468940632E+04  0.11682254089E+04  0.46999998093E+01 0.  1.
       -5    1    3    3    0  502  0.16626779955E+03 -0.14736873074E+03 -0.13537189676E+03  0.26021176837E+03  0.46999998093E+01 0. -1.
</event>
<event>
 5   0  0.5201968E-03  0.1157624E+04  0.7818609E-02  0.9150779E-01
       -1   -1    0    0    0  501  0.00000000000E+00  0.00000000000E+00  0.35750504419E+03  0.35750504422E+03  0.50400001928E-02 0. -1.
        1   -1    0    0  501    0  0.00000000000E+00  0.00000000000E+00 -0.93711493257E+03  0.93711493259E+03  0.50400001928E-02 0.  1.
    10030    2    1    2    0    0  0.00000000000E+00  0.00000000000E+00 -0.57960988839E+03  0.12946199768E+04  0.11576239725E+04 0.  0.
        2    1    3    3  502    0  0.15074501147E+03  0.18170310883E+03  0.30120831917E+03  0.38270945871E+03  0.25500000920E-02 0. -1.
       -2    1    3    3    0  502 -0.15074501147E+03 -0.18170310883E+03 -0.88081820756E+03  0.91191051810E+03  0.25500000920E-02 0.  1.
</event>
<event>
 5   0  0.5189877E-03  0.9937484E+03  0.7818609E-02  0.9315428E-01
        1   -1    0    0  501    0  0.00000000000E+00  0.00000000000E+00  0.11981304374E+04  0.11981304374E+04  0.50400001928E-02 0. -1.
       -1   -1    0    0    0  501  0.00000000000E+00  0.00000000000E+00 -0.20605767931E+03  0.20605767937E+03  0.50400001928E-02 0.  1.
    10030    2    1    2    0    0  0.00000000000E+00  0.00000000000E+00  0.99207275810E+03  0.14041881168E+04  0.99374841382E+03 0.  0.
        3    1    3    3  502    0 -0.22379032806E+03 -0.36407348155E+03  0.13786294174E+03  0.44904099123E+03  0.10100000352E+00 0.  1.
       -3    1    3    3    0  502  0.22379032806E+03  0.36407348155E+03  0.85420981636E+03  0.95514712556E+03  0.10100000352E+00 0. -1.
</event>
<event>
 5   0  0.8968798E-03  0.9983509E+03  0.7818609E-02  0.9310355E-01
        2   -1    0    0  501    0  0.00000000000E+00  0.00000000000E+00  0.39892786476E+03  0.39892786477E+03  0.25500000920E-02 0.  1.
       -2   -1    0    0    0  501  0.00000000000E+00  0.00000000000E+00 -0.62461450653E+03  0.62461450653E+03  0.25500000920E-02 0. -1.
    10030    2    1    2    0    0  0.00000000000E+00  0.00000000000E+00 -0.22568664177E+03  0.10235423713E+04  0.99835090303E+03 0.  0.
        2    1    3    3  502    0  0.82991233917E+02 -0.38525909553E+03 -0.42694638717E+03  0.58102954582E+03  0.25500000920E-02 0. -1.
       -2    1    3    3    0  502 -0.82991233917E+02  0.38525909553E+03  0.20125974540E+03  0.44251282548E+03  0.25500000920E-02 0.  1.
</event>
<event>
 5   0  0.9040674E-03  0.9812568E+03  0.7818609E-02  0.9329344E-01
       -2   -1    0    0    0  501  0.00000000000E+00  0.00000000000E+00  0.66202289212E+03  0.66202289213E+03  0.25500000920E-02 0. -1.
        2   -1    0    0  501    0  0.00000000000E+00  0.00000000000E+00 -0.36360711762E+03  0.36360711763E+03  0.25500000920E-02 0.  1.
    10030    2    1    2    0    0  0.00000000000E+00  0.00000000000E+00  0.29841577450E+03  0.10256300098E+04  0.98125681778E+03 0.  0.
        1    1    3    3  502    0 -0.42532923943E+03 -0.21534583311E+03  0.28045897780E+02  0.47756189354E+03  0.50400001928E-02 0. -1.
       -1    1    3    3    0  502  0.42532923943E+03  0.21534583311E+03  0.27036987672E+03  0.54806811622E+03  0.50400001928E-02 0.  1.
</event>
<event>
 5   0  0.5310275E-03  0.9538057E+03  0.7818609E-02  0.9360713E-01
        1   -1    0    0  501    0  0.00000000000E+00  0.00000000000E+00  0.11647205264E+04  0.11647205264E+04  0.50400001928E-02 0.  1.
       -1   -1    0    0    0  501  0.00000000000E+00  0.00000000000E+00 -0.19527117128E+03  0.19527117134E+03  0.50400001928E-02 0. -1.
    10030    2    1    2    0    0  0.00000000000E+00  0.00000000000E+00  0.96944935511E+03  0.13599916977E+04  0.95380572750E+03 0.  0.
        1    1    3    3  502    0  0.25877244862E+03 -0.28038998827E+03  0.76783149603E+02  0.38920094781E+03  0.50400001928E-02 0. -1.
       -1    1    3    3    0  502 -0.25877244862E+03  0.28038998827E+03  0.89266620550E+03  0.97079074994E+03  0.50400001928E-02 0.  1.
</event>
<event>
 5   0  0.8968798E-03  0.1010569E+04  0.7818609E-02  0.9297028E-01
       -2   -1    0    0    0  501  0.00000000000E+00  0.00000000000E+00  0.13886172925E+03  0.13886172927E+03  0.25500000920E-02 0.  1.
        2   -1    0    0  501    0  0.00000000000E+00  0.00000000000E+00 -0.18386107138E+04  0.18386107138E+04  0.25500000920E-02 0. -1.
    10030    2    1    2    0    0  0.00000000000E+00  0.00000000000E+00 -0.16997489845E+04  0.19774724430E+04  0.10105694695E+04 0.  0.
        2    1    3    3  502    0  0.12414858338E+03 -0.26817492442E+03 -0.16518768470E+04  0.16781024339E+04  0.25500000920E-02 0. -1.
       -2    1    3    3    0  502 -0.12414858338E+03  0.26817492442E+03 -0.47872137518E+02  0.29937000918E+03  0.25500000920E-02 0.  1.
</event>
<event>
 5   0  0.5349685E-03  0.9964878E+03  0.7818609E-02  0.9312405E-01
       -1   -1    0    0    0  501  0.00000000000E+00  0.00000000000E+00  0.69879312854E+03  0.69879312855E+03  0.50400001928E-02 0.  1.
        1   -1    0    0  501    0  0.00000000000E+00  0.00000000000E+00 -0.35525103299E+03  0.35525103303E+03  0.50400001928E-02 0. -1.
    10030    2    1    2    0    0  0.00000000000E+00  0.00000000000E+00  0.34354209554E+03  0.10540441616E+04  0.99648779378E+03 0.  0.
        4    1    3    3  502    0  0.99495903834E+02  0.31573909272E+03  0.56564223565E+03  0.65539557612E+03  0.12699999809E+01 0.  1.
       -4    1    3    3    0  502 -0.99495903834E+02 -0.31573909272E+03 -0.22210014011E+03  0.39864858546E+03  0.12699999809E+01 0. -1.
</event>
<event>
 5   0  0.3513625E-03  0.1008969E+04  0.7818609E-02  0.9298762E-01
        3   -1    0    0  501    0  0.00000000000E+00  0.00000000000E+00  0.53507012287E+03  0.53507013240E+03  0.10100000352E+00 0. -1.
       -3   -1    0    0    0  501  0.00000000000E+00  0.00000000000E+00 -0.47564694956E+03  0.47564696028E+03  0.10100000352E+00 0.  1.
    10030    2    1    2    0    0  0.00000000000E+00  0.00000000000E+00  0.59423173313E+02  0.10107170927E+04  0.10089687448E+04 0.  0.
        4    1    3    3  502    0  0.10663690398E+03 -0.31570687691E+03  0.40912984855E+03  0.52766571548E+03  0.12699999809E+01 0. -1.
       -4    1    3    3    0  502 -0.10663690398E+03  0.31570687691E+03 -0.34970667523E+03  0.48305137721E+03  0.12699999809E+01 0.  1.
</event>
<event>
 5   0  0.5189877E-03  0.9919114E+03  0.7818609E-02  0.9317461E-01
        1   -1    0    0  501    0  0.00000000000E+00  0.00000000000E+00  0.61706897725E+03  0.61706897727E+03  0.50400001928E-02 0.  1.
       -1   -1    0    0    0  501  0.00000000000E+00  0.00000000000E+00 -0.39861355435E+03  0.39861355438E+03  0.50400001928E-02 0. -1.
    10030    2    1    2    0    0  0.00000000000E+00  0.00000000000E+00  0.21845542290E+03  0.10156825316E+04  0.99191140396E+03 0.  0.
        3    1    3    3  502    0 -0.47212637885E+03  0.13660475316E+03  0.41244827570E+02  0.49321934491E+03  0.10100000352E+00 0.  1.
       -3    1    3    3    0  502  0.47212637885E+03 -0.13660475316E+03  0.17721059533E+03  0.52246318674E+03  0.10100000352E+00 0. -1.
</event>
<event>
 5   0  0.8907355E-03  0.1001518E+04  0.7818609E-02  0.9306881E-01
        2   -1    0    0  501    0  0.00000000000E+00  0.00000000000E+00  0.52592510584E+03  0.52592510584E+03  0.25500000920E-02 0.  1.
       -2   -1    0    0    0  501  0.00000000000E+00  0.00000000000E+00 -0.47679723175E+03  0.47679723176E+03  0.25500000920E-02 0. -1.
    10030    2    1    2    0    0  0.00000000000E+00  0.00000000000E+00  0.49127874089E+02  0.10027223376E+04  0.10015181168E+04 0.  0.
        5    1    3    3  502    0  0.36882544432E+03 -0.12106306534E+03  0.34124960477E+03  0.51687702302E+03  0.46999998093E+01 0.  1.
       -5    1    3    3    0  502 -0.36882544432E+03  0.12106306534E+03 -0.29212173068E+03  0.48584531458E+03  0.46999998093E+01 0. -1.
</event>
<event>
 5   0  0.8968798E-03  0.1001935E+04  0.7818609E-02  0.9306425E-01
        2   -1    0    0  501    0  0.00000000000E+00  0.00000000000E+00  0.10703400121E+04  0.10703400121E+04  0.25500000920E-02 0. -1.
       -2   -1    0    0    0  501  0.00000000000E+00  0.00000000000E+00 -0.23447552087E+03  0.23447552089E+03  0.25500000920E-02 0.  1.
    10030    2    1    2    0    0  0.00000000000E+00  0.00000000000E+00  0.83586449121E+03  0.13048155330E+04  0.10019351912E+04 0.  0.
        2    1    3    3  502    0  0.19040191672E+03  0.37230077271E+03  0.58659721883E+02  0.42225788119E+03  0.25500000920E-02 0.  1.
       -2    1    3    3    0  502 -0.19040191672E+03 -0.37230077271E+03  0.77720476932E+03  0.88255765178E+03  0.25500000920E-02 0. -1.
</event>
<event>
 5   0  0.5072205E-03  0.9982969E+03  0.7818609E-02  0.9310415E-01
        1   -1    0    0  501    0  0.00000000000E+00  0.00000000000E+00  0.21110749513E+04  0.21110749513E+04  0.50400001928E-02 0.  1.
       -1   -1    0    0    0  501  0.00000000000E+00  0.00000000000E+00 -0.11802005483E+03  0.11802005494E+03  0.50400001928E-02 0. -1.
    10030    2    1    2    0    0  0.00000000000E+00  0.00000000000E+00  0.19930548965E+04  0.22290950063E+04  0.99829691302E+03 0.  0.
        5    1    3    3  502    0  0.45173785746E+03  0.16479096501E+03  0.12953016735E+04  0.13816843595E+04  0.46999998093E+01 0.  1.
       -5    1    3    3    0  502 -0.45173785746E+03 -0.16479096501E+03  0.69775322301E+03  0.84741064676E+03  0.46999998093E+01 0. -1.
</event>
<event>
 5   0  0.5072205E-03  0.9968444E+03  0.7818609E-02  0.9312013E-01
        1   -1    0    0  501    0  0.00000000000E+00  0.00000000000E+00  0.77398356598E+03  0.77398356600E+03  0.50400001928E-02 0. -1.
       -1   -1    0    0    0  501  0.00000000000E+00  0.00000000000E+00 -0.32096896739E+03  0.32096896743E+03  0.50400001928E-02 0.  1.
    10030    2    1    2    0    0  0.00000000000E+00  0.00000000000E+00  0.45301459859E+03  0.10949525334E+04  0.99684443316E+03 0.  0.
        5    1    3    3  502    0  0.50934306779E+02  0.48341454480E+03  0.34742663359E+03  0.59750421041E+03  0.46999998093E+01 0. -1.
       -5    1    3    3    0  502 -0.50934306779E+02 -0.48341454480E+03  0.10558796500E+03  0.49744832302E+03  0.46999998093E+01 0.  1.
</event>
<event>
 5   0  0.5201968E-03  0.9894732E+03  0.7818609E-02  0.9320166E-01
       -1   -1    0    0    0  501  0.00000000000E+00  0.00000000000E+00  0.14966594243E+03  0.14966594251E+03  0.50400001928E-02 0. -1.
        1   -1    0    0  501    0  0.00000000000E+00  0.00000000000E+00 -0.16354040814E+04  0.16354040814E+04  0.50400001928E-02 0.  1.
    10030    2    1    2    0    0  0.00000000000E+00  0.00000000000E+00 -0.14857381390E+04  0.17850700239E+04  0.98947317936E+03 0.  0.
        2    1    3    3  502    0  0.16384362551E+03 -0.33119386272E+03 -0.13363755022E+04  0.13865185146E+04  0.25500000920E-02 0.  1.
       -2    1    3    3    0  502 -0.16384362551E+03  0.33119386272E+03 -0.14936263672E+03  0.39855150931E+03  0.25500000920E-02 0. -1.
</event>
<event>
 5   0  0.5310275E-03  0.1000612E+04  0.7818609E-02  0.9307874E-01
       -1   -1    0    0    0  501  0.00000000000E+00  0.00000000000E+00  0.46896916157E+03  0.46896916160E+03  0.50400001928E-02 0. -1.
        1   -1    0    0  501    0  0.00000000000E+00  0.00000000000E+00 -0.53373693667E+03  0.53373693669E+03  0.50400001928E-02 0.  1.
    10030    2    1    2    0    0  0.00000000000E+00  0.00000000000E+00 -0.64767775100E+02  0.10027060983E+04  0.10006121401E+04 0.  0.
        1    1    3    3  502    0  0.29110807527E+03  0.27681679097E+03  0.26645943129E+03  0.48204986858E+03  0.50400001928E-02 0. -1.
       -1    1    3    3    0  502 -0.29110807527E+03 -0.27681679097E+03 -0.33122720639E+03  0.52065622970E+03  0.50400001928E-02 0.  1.
</event>
<event>
 5   0  0.8968798E-03  0.1001727E+04  0.7818609E-02  0.9306652E-01
        2   -1    0    0  501    0  0.00000000000E+00  0.00000000000E+00  0.18059031542E+03  0.18059031544E+03  0.25500000920E-02 0. -1.
       -2   -1    0    0    0  501  0.00000000000E+00  0.00000000000E+00 -0.13891356155E+04  0.13891356155E+04  0.25500000920E-02 0.  1.
    10030    2    1    2    0    0  0.00000000000E+00  0.00000000000E+00 -0.12085453001E+04  0.15697259310E+04  0.10017273860E+04 0.  0.
        2    1    3    3  502    0 -0.39881518744E+03  0.23564522378E+03 -0.30578856871E+03  0.55505754115E+03  0.25500000920E-02 0. -1.
       -2    1    3    3    0  502  0.39881518744E+03 -0.23564522378E+03 -0.90275673138E+03  0.10146683898E+04  0.25500000920E-02 0.  1.
</event>
<event>
 5   0  0.5310275E-03  0.9972543E+03  0.7818609E-02  0.9311561E-01
        1   -1    0    0  501    0  0.00000000000E+00  0.00000000000E+00  0.60294879251E+03  0.60294879253E+03  0.50400001928E-02 0.  1.
       -1   -1    0    0    0  501  0.00000000000E+00  0.00000000000E+00 -0.41235513111E+03  0.41235513114E+03  0.50400001928E-02 0. -1.
    10030    2    1    2    0    0  0.00000000000E+00  0.00000000000E+00  0.19059366141E+03  0.10153039237E+04  0.99725428736E+03 0.  0.
        1    1    3    3  502    0 -0.14971153112E+03 -0.10817382259E+03  0.56683611703E+03  0.59616969232E+03  0.50400001928E-02 0.  1.
       -1    1    3    3    0  502  0.14971153112E+03  0.10817382259E+03 -0.37624245563E+03  0.41913423135E+03  0.50400001928E-02 0. -1.
</event>
<event>
 5   0  0.3513625E-03  0.8116326E+03  0.7818609E-02  0.9543330E-01
        3   -1    0    0  501    0  0.00000000000E+00  0.00000000000E+00  0.40336509314E+03  0.40336510578E+03  0.10100000352E+00 0.  1.
       -3   -1    0    0    0  501  0.00000000000E+00  0.00000000000E+00 -0.40828233516E+03  0.40828234765E+03  0.10100000352E+00 0. -1.
    10030    2    1    2    0    0  0.00000000000E+00  0.00000000000E+00 -0.49172420214E+01  0.81164745343E+03  0.81163255812E+03 0.  0.
        3    1    3    3  502    0  0.36899521284E+03  0.16416506002E+03  0.37281359848E+02  0.40558296812E+03  0.10100000352E+00 0.  1.
       -3    1    3    3    0  502 -0.36899521284E+03 -0.16416506002E+03 -0.42198601870E+02  0.40606448532E+03  0.10100000352E+00 0. -1.
</event>
<event>
 5   0  0.8907355E-03  0.9956092E+03  0.7818609E-02  0.9313374E-01
       -2   -1    0    0    0  501  0.00000000000E+00  0.00000000000E+00  0.27592669169E+03  0.27592669170E+03  0.25500000920E-02 0.  1.
        2   -1    0    0  501    0  0.00000000000E+00  0.00000000000E+00 -0.89809878253E+03  0.89809878254E+03  0.25500000920E-02 0. -1.
    10030    2    1    2    0    0  0.00000000000E+00  0.00000000000E+00 -0.62217209085E+03  0.11740254742E+04  0.99560921225E+03 0.  0.
        5    1    3    3  502    0  0.30412282176E+02 -0.15852305598E+03  0.24418324206E+03  0.29274905958E+03  0.46999998093E+01 0.  1.
       -5    1    3    3    0  502 -0.30412282176E+02  0.15852305598E+03 -0.86635533290E+03  0.88127641466E+03  0.46999998093E+01 0. -1.
</event>
<event>
 5   0  0.5189877E-03  0.1019462E+04  0.7818609E-02  0.9287453E-01
       -1   -1    0    0    0  501  0.00000000000E+00  0.00000000000E+00  0.66175854261E+03  0.66175854263E+03  0.50400001928E-02 0.  1.
        1   -1    0    0  501    0  0.00000000000E+00  0.00000000000E+00 -0.39262886458E+03  0.39262886461E+03  0.50400001928E-02 0. -1.
    10030    2    1    2    0    0  0.00000000000E+00  0.00000000000E+00  0.26912967803E+03  0.10543874072E+04  0.10194616329E+04 0.  0.
        3    1    3    3  502    0  0.44480822507E+03  0.91871091164E+02 -0.10472891117E+03  0.46611458839E+03  0.10100000352E+00 0. -1.
       -3    1    3    3    0  502 -0.44480822507E+03 -0.91871091164E+02  0.37385858920E+03  0.58827281885E+03  0.10100000352E+00 0.  1.
</event>
<event>
 5   0  0.5072205E-03  0.9964413E+03  0.7818609E-02  0.9312457E-01
       -1   -1    0    0    0  501  0.00000000000E+00  0.00000000000E+00  0.27496034649E+03  0.27496034654E+03  0.50400001928E-02 0. -1.
        1   -1    0    0  501    0  0.00000000000E+00  0.00000000000E+00 -0.90276216781E+03  0.90276216782E+03  0.50400001928E-02 0.  1.
    10030    2    1    2    0    0  0.00000000000E+00  0.00000000000E+00 -0.62780182132E+03  0.11777225144E+04  0.99644126470E+03 0.  0.
        5    1    3    3  502    0 -0.47638215517E+03  0.13003492122E+03 -0.39187838141E+03  0.63042826262E+03  0.46999998093E+01 0.  1.
       -5    1    3    3    0  502  0.47638215517E+03 -0.13003492122E+03 -0.23592343991E+03  0.54729425174E+03  0.46999998093E+01 0. -1.
</event>
<event>
 5   0  0.5072205E-03  0.9979927E+03  0.7818609E-02  0.9310749E-01
       -1   -1    0    0    0  501  0.00000000000E+00  0.00000000000E+00  0.24866732000E+03  0.24866732005E+03  0.50400001928E-02 0.  1.
        1   -1    0    0  501    0  0.00000000000E+00  0.00000000000E+00 -0.10013271455E+04  0.10013271456E+04  0.50400001928E-02 0. -1.
    10030    2    1    2    0    0  0.00000000000E+00  0.00000000000E+00 -0.75265982555E+03  0.12499944656E+04  0.99799266083E+03 0.  0.
        5    1    3    3  502    0  0.86561149050E+02 -0.23979807116E+03  0.16090623217E+03  0.30151095006E+03  0.46999998093E+01 0.  1.
       -5    1    3    3    0  502 -0.86561149050E+02  0.23979807116E+03 -0.91356605772E+03  0.94848351555E+03  0.46999998093E+01 0. -1.
</event>
<event>
 5   0  0.8968798E-03  0.1015300E+04  0.7818609E-02  0.9291921E-01
       -2   -1    0    0    0  501  0.00000000000E+00  0.00000000000E+00  0.18226951561E+03  0.18226951563E+03  0.25500000920E-02 0. -1.
        2   -1    0    0  501    0  0.00000000000E+00  0.00000000000E+00 -0.14138878338E+04  0.14138878338E+04  0.25500000920E-02 0.  1.
    10030    2    1    2    0    0  0.00000000000E+00  0.00000000000E+00 -0.12316183182E+04  0.15961573494E+04  0.10153002524E+04 0.  0.
        2    1    3    3  502    0  0.49269512550E+03  0.10915030044E+03 -0.52903848965E+03  0.73112515913E+03  0.25500000920E-02 0.  1.
       -2    1    3    3    0  502 -0.49269512550E+03 -0.10915030044E+03 -0.70257982852E+03  0.86503219029E+03  0.25500000920E-02 0. -1.
</event>
<event>
 5   0  0.5072205E-03  0.1005652E+04  0.7818609E-02  0.9302367E-01
       -1   -1    0    0    0  501  0.00000000000E+00  0.00000000000E+00  0.23308123747E+03  0.23308123753E+03  0.50400001928E-02 0.  1.
        1   -1    0    0  501    0  0.00000000000E+00  0.00000000000E+00 -0.10847463078E+04  0.10847463078E+04  0.50400001928E-02 0. -1.
    10030    2    1    2    0    0  0.00000000000E+00  0.00000000000E+00 -0.85166507032E+03  0.13178275453E+04  0.10056520508E+04 0.  0.
        5    1    3    3  502    0 -0.48994813528E+03 -0.10488576593E+03 -0.48083467756E+03  0.69445970100E+03  0.46999998093E+01 0.  1.
       -5    1    3    3    0  502  0.48994813528E+03  0.10488576593E+03 -0.37083039276E+03  0.62336784434E+03  0.46999998093E+01 0. -1.
</event>
<event>
 5   0  0.5310275E-03  0.9844981E+03  0.7818609E-02  0.9325712E-01
       -1   -1    0    0    0  501  0.00000000000E+00  0.00000000000E+00  0.22521386309E+03  0.22521386315E+03  0.50400001928E-02 0. -1.
        1   -1    0    0  501    0  0.00000000000E+00  0.00000000000E+00 -0.10759066999E+04  0.10759066999E+04  0.50400001928E-02 0.  1.
    10030    2    1    2    0    0  0.00000000000E+00  0.00000000000E+00 -0.85069283684E+03  0.13011205631E+04  0.98449805335E+03 0.  0.
        1    1    3    3  502    0 -0.13379951235E+03 -0.30291983566E+03 -0.90668465235E+03  0.96526669640E+03  0.50400001928E-02 0.  1.
       -1    1    3    3    0  502  0.13379951235E+03  0.30291983566E+03  0.55991815516E+02  0.33585386669E+03  0.50400001928E-02 0. -1.
</event>
<event>
 5   0  0.8968798E-03  0.1000726E+04  0.7818609E-02  0.9307749E-01
        2   -1    0    0  501    0  0.00000000000E+00  0.00000000000E+00  0.86917004161E+03  0.86917004162E+03  0.25500000920E-02 0.  1.
       -2   -1    0    0    0  501  0.00000000000E+00  0.00000000000E+00 -0.28804825766E+03  0.28804825767E+03  0.25500000920E-02 0. -1.
    10030    2    1    2    0    0  0.00000000000E+00  0.00000000000E+00  0.58112178395E+03  0.11572182993E+04  0.10007255690E+04 0.  0.
        2    1    3    3  502    0 -0.22919560221E+03 -0.26482272619E+03 -0.12267478745E+03  0.37109406336E+03  0.25500000920E-02 0. -1.
       -2    1    3    3    0  502  0.22919560221E+03  0.26482272619E+03  0.70379657141E+03  0.78612423593E+03  0.25500000920E-02 0.  1.
</event>
<event>
 5   0  0.3513625E-03  0.1010537E+04  0.7818609E-02  0.9297063E-01
       -4   -1    0    0    0  501  0.00000000000E+00  0.00000000000E+00  0.55809553013E+03  0.55809697514E+03  0.12699999809E+01 0. -1.
        4   -1    0    0  501    0  0.00000000000E+00  0.00000000000E+00 -0.45743917387E+03  0.45744093683E+03  0.12699999809E+01 0.  1.
    10030    2    1    2    0    0  0.00000000000E+00  0.00000000000E+00  0.10065635627E+03  0.10155379120E+04  0.10105372574E+04 0.  0.
        5    1    3    3  502    0  0.26958723407E+03  0.43021288794E+02 -0.37691819588E+03  0.46542187792E+03  0.46999998093E+01 0.  1.
       -5    1    3    3    0  502 -0.26958723407E+03 -0.43021288794E+02  0.47757455215E+03  0.55011603405E+03  0.46999998093E+01 0. -1.
</event>
<event>
 5   0  0.5201968E-03  0.1001844E+04  0.7818609E-02  0.9306525E-01
       -1   -1    0    0    0  501  0.00000000000E+00  0.00000000000E+00  0.16410260322E+03  0.16410260329E+03  0.50400001928E-02 0.  1.
        1   -1    0    0  501    0  0.00000000000E+00  0.00000000000E+00 -0.15290603558E+04  0.15290603558E+04  0.50400001928E-02 0. -1.
    10030    2    1    2    0    0  0.00000000000E+00  0.00000000000E+00 -0.13649577526E+04  0.16931629591E+04  0.10018438699E+04 0.  0.
        2    1    3    3  502    0  0.22705576841E+03  0.28809893453E+03 -0.10595870888E+03  0.38181483214E+03  0.25500000920E-02 0.  1.
       -2    1    3    3    0  502 -0.22705576841E+03 -0.28809893453E+03 -0.12589990437E+04  0.13113481270E+04  0.25500000920E-02 0. -1.
</event>
<event>
 5   0  0.5349685E-03  0.9801918E+03  0.7818609E-02  0.9330541E-01
        1   -1    0    0  501    0  0.00000000000E+00  0.00000000000E+00  0.77634920604E+03  0.77634920605E+03  0.50400001928E-02 0. -1.
       -1   -1    0    0    0  501  0.00000000000E+00  0.00000000000E+00 -0.30938914191E+03  0.30938914195E+03  0.50400001928E-02 0.  1.
    10030    2    1    2    0    0  0.00000000000E+00  0.00000000000E+00  0.46696006412E+03  0.10857383480E+04  0.98019184798E+03 0.  0.
        4    1    3    3  502    0  0.22392155982E+03  0.40572341178E+03  0.41015420674E+03  0.61885413308E+03  0.12699999809E+01 0. -1.
       -4    1    3    3    0  502 -0.22392155982E+03 -0.40572341178E+03  0.56805857385E+02  0.46688421493E+03  0.12699999809E+01 0.  1.
</event>
<event>
 5   0  0.5349685E-03  0.1018541E+04  0.7818609E-02  0.9288440E-01
        1   -1    0    0  501    0  0.00000000000E+00  0.00000000000E+00  0.14532890218E+04  0.14532890218E+04  0.50400001928E-02 0. -1.
       -1   -1    0    0    0  501  0.00000000000E+00  0.00000000000E+00 -0.17846163969E+03  0.17846163976E+03  0.50400001928E-02 0.  1.
    10030    2    1    2    0    0  0.00000000000E+00  0.00000000000E+00  0.12748273821E+04  0.16317506616E+04  0.10185408030E+04 0.  0.
        4    1    3    3  502    0 -0.36275440077E+03 -0.25121126802E+03  0.23004962901E+03  0.49761662067E+03  0.12699999809E+01 0.  1.
       -4    1    3    3    0  502  0.36275440077E+03  0.25121126802E+03  0.10447777531E+04  0.11341340409E+04  0.12699999809E+01 0. -1.
</event>
<event>
 5   0  0.5072205E-03  0.9868286E+03  0.7818609E-02  0.9323110E-01
       -1   -1    0    0    0  501  0.00000000000E+00  0.00000000000E+00  0.49862783622E+03  0.49862783625E+03  0.50400001928E-02 0. -1.
        1   -1    0    0  501    0  0.00000000000E+00  0.00000000000E+00 -0.48825524895E+03  0.48825524898E+03  0.50400001928E-02 0.  1.
    10030    2    1    2    0    0  0.00000000000E+00  0.00000000000E+00  0.10372587266E+02  0.98688308523E+03  0.98682857343E+03 0.  0.
        5    1    3    3  502    0 -0.41847643416E+03  0.23453728694E+03  0.12054128234E+03  0.49465397568E+03  0.46999998093E+01 0. -1.
       -5    1    3    3    0  502  0.41847643416E+03 -0.23453728694E+03 -0.11016869508E+03  0.49222910954E+03  0.46999998093E+01 0.  1.
</event>
<event>
 5   0  0.5189877E-03  0.9966717E+03  0.7818609E-02  0.9312203E-01
       -1   -1    0    0    0  501  0.00000000000E+00  0.00000000000E+00  0.57907758730E+03  0.57907758733E+03  0.50400001928E-02 0. -1.
        1   -1    0    0  501    0  0.00000000000E+00  0.00000000000E+00 -0.42885203982E+03  0.42885203985E+03  0.50400001928E-02 0.  1.
    10030    2    1    2    0    0  0.00000000000E+00  0.00000000000E+00  0.15022554748E+03  0.10079296272E+04  0.99667167022E+03 0.  0.
        3    1    3    3  502    0  0.42001479800E+03 -0.17546755220E+03  0.28022710215E+03  0.53453580927E+03  0.10100000352E+00 0. -1.
       -3    1    3    3    0  502 -0.42001479800E+03  0.17546755220E+03 -0.13000155467E+03  0.47339381790E+03  0.10100000352E+00 0.  1.
</event>
<event>
 5   0  0.8907355E-03  0.8685840E+03  0.7818609E-02  0.9465728E-01
        2   -1    0    0  501    0  0.00000000000E+00  0.00000000000E+00  0.99782199142E+03  0.99782199143E+03  0.25500000920E-02 0. -1.
       -2   -1    0    0    0  501  0.00000000000E+00  0.00000000000E+00 -0.18902123903E+03  0.18902123905E+03  0.25500000920E-02 0.  1.
    10030    2    1    2    0    0  0.00000000000E+00  0.00000000000E+00  0.80880075240E+03  0.11868432305E+04  0.86858401818E+03 0.  0.
        5    1    3    3  502    0 -0.65641158004E+02 -0.31920116104E+03  0.12191902511E+02  0.32614241570E+03  0.46999998093E+01 0.  1.
       -5    1    3    3    0  502  0.65641158004E+02  0.31920116104E+03  0.79660884988E+03  0.86070081477E+03  0.46999998093E+01 0. -1.
</event>
<event>
 5   0  0.5072205E-03  0.1005665E+04  0.7818609E-02  0.9302353E-01
       -1   -1    0    0    0  501  0.00000000000E+00  0.00000000000E+00  0.65738991168E+03  0.65738991170E+03  0.50400001928E-02 0.  1.
        1   -1    0    0  501    0  0.00000000000E+00  0.00000000000E+00 -0.38461289099E+03  0.38461289102E+03  0.50400001928E-02 0. -1.
    10030    2    1    2    0    0  0.00000000000E+00  0.00000000000E+00  0.27277702069E+03  0.10420028027E+04  0.10056652216E+04 0.  0.
        5    1    3    3  502    0  0.14419190009E+03  0.11870179108E+03  0.62009405384E+03  0.64762654738E+03  0.46999998093E+01 0.  1.
       -5    1    3    3    0  502 -0.14419190009E+03 -0.11870179108E+03 -0.34731703316E+03  0.39437625534E+03  0.46999998093E+01 0. -1.
</event>
<event>
 5   0  0.9040674E-03  0.1017968E+04  0.7818609E-02  0.9289055E-01
        2   -1    0    0  501    0  0.00000000000E+00  0.00000000000E+00  0.10160803133E+04  0.10160803133E+04  0.25500000920E-02 0.  1.
       -2   -1    0    0    0  501  0.00000000000E+00  0.00000000000E+00 -0.25496460002E+03  0.25496460003E+03  0.25500000920E-02 0. -1.
    10030    2    1    2    0    0  0.00000000000E+00  0.00000000000E+00  0.76111571327E+03  0.12710449133E+04  0.10179676039E+04 0.  0.
        1    1    3    3  502    0  0.31103704816E+03 -0.25239200269E+03  0.77266672926E+03  0.87032157441E+03  0.50400001928E-02 0.  1.
       -1    1    3    3    0  502 -0.31103704816E+03  0.25239200269E+03 -0.11551015997E+02  0.40072333891E+03  0.50400001928E-02 0. -1.
</event>
<event>
 5   0  0.5189877E-03  0.1000111E+04  0.7818609E-02  0.9308423E-01
       -1   -1    0    0    0  501  0.00000000000E+00  0.00000000000E+00  0.50492753398E+03  0.50492753400E+03  0.50400001928E-02 0.  1.
        1   -1    0    0  501    0  0.00000000000E+00  0.00000000000E+00 -0.49523081322E+03  0.49523081325E+03  0.50400001928E-02 0. -1.
    10030    2    1    2    0    0  0.00000000000E+00  0.00000000000E+00  0.96967207550E+01  0.10001583472E+04  0.10001113404E+04 0.  0.
        3    1    3    3  502    0  0.19485589581E+03 -0.45597565723E+03  0.69450490851E+02  0.50070550327E+03  0.10100000352E+00 0.  1.
       -3    1    3    3    0  502 -0.19485589581E+03  0.45597565723E+03 -0.59753770096E+02  0.49945284398E+03  0.10100000352E+00 0. -1.
</event>
<event>
 5   0  0.5201968E-03  0.9971887E+03  0.7818609E-02  0.9311634E-01
        1   -1    0    0  501    0  0.00000000000E+00  0.00000000000E+00  0.11966003495E+04  0.11966003495E+04  0.50400001928E-02 0.  1.
       -1   -1    0    0    0  501  0.00000000000E+00  0.00000000000E+00 -0.20775216686E+03  0.20775216692E+03  0.50400001928E-02 0. -1.
    10030    2    1    2    0    0  0.00000000000E+00  0.00000000000E+00  0.98884818266E+03  0.14043525164E+04  0.99718867928E+03 0.  0.
        2    1    3    3  502    0 -0.13688472037E+03  0.72844159770E+02  0.11617805347E+04  0.11720826375E+04  0.25500000920E-02 0.  1.
       -2    1    3    3    0  502  0.13688472037E+03 -0.72844159770E+02 -0.17293235204E+03  0.23226987896E+03  0.25500000920E-02 0. -1.
</event>
<event>
 5   0  0.3513625E-03  0.9579037E+03  0.7818609E-02  0.9355960E-01
       -3   -1    0    0    0  501  0.00000000000E+00  0.00000000000E+00  0.58442148080E+03  0.58442148953E+03  0.10100000352E+00 0. -1.
        3   -1    0    0  501    0  0.00000000000E+00  0.00000000000E+00 -0.39251616269E+03  0.39251617569E+03  0.10100000352E+00 0.  1.
    10030    2    1    2    0    0  0.00000000000E+00  0.00000000000E+00  0.19190531811E+03  0.97693766521E+03  0.95790372721E+03 0.  0.
        4    1    3    3  502    0 -0.17289095969E+03 -0.34135618115E+03 -0.19783012165E+03  0.43075944132E+03  0.12699999809E+01 0.  1.
       -4    1    3    3    0  502  0.17289095969E+03  0.34135618115E+03  0.38973543976E+03  0.54617822389E+03  0.12699999809E+01 0. -1.
</event>
<event>
 5   0  0.9040674E-03  0.9982862E+03  0.7818609E-02  0.9310426E-01
       -2   -1    0    0    0  501  0.00000000000E+00  0.00000000000E+00  0.14565765625E+03  0.14565765627E+03  0.25500000920E-02 0.  1.
        2   -1    0    0  501    0  0.00000000000E+00  0.00000000000E+00 -0.17104755088E+04  0.17104755088E+04  0.25500000920E-02 0. -1.
    10030    2    1    2    0    0  0.00000000000E+00  0.00000000000E+00 -0.15648178526E+04  0.18561331651E+04  0.99828623894E+03 0.  0.
        1    1    3    3  502    0  0.37713088938E+03  0.30968947027E+03 -0.97749203049E+03  0.10925318967E+04  0.50400001928E-02 0. -1.
       -1    1    3    3    0  502 -0.37713088938E+03 -0.30968947027E+03 -0.58732582210E+03  0.76360126836E+03  0.50400001928E-02 0.  1.
</event>
<event>
 5   0  0.9243773E-03  0.9700932E+03  0.7818609E-02  0.9341968E-01
       -2   -1    0    0    0  501  0.00000000000E+00  0.00000000000E+00  0.39336951578E+03  0.39336951579E+03  0.25500000920E-02 0.  1.
        2   -1    0    0  501    0  0.00000000000E+00  0.00000000000E+00 -0.59808955767E+03  0.59808955768E+03  0.25500000920E-02 0. -1.
    10030    2    1    2    0    0  0.00000000000E+00  0.00000000000E+00 -0.20472004189E+03  0.99145907347E+03  0.97009319079E+03 0.  0.
        3    1    3    3  502    0 -0.34975405008E+03  0.33564801025E+03 -0.85175804004E+02  0.49218127770E+03  0.10100000352E+00 0. -1.
       -3    1    3    3    0  502  0.34975405008E+03 -0.33564801025E+03 -0.11954423788E+03  0.49927779577E+03  0.10100000352E+00 0.  1.
</event>
<event>
 5   0  0.9040674E-03  0.1029069E+04  0.7818609E-02  0.9277225E-01
        2   -1    0    0  501    0  0.00000000000E+00  0.00000000000E+00  0.48071408904E+03  0.48071408904E+03  0.25500000920E-02 0.  1.
       -2   -1    0    0    0  501  0.00000000000E+00  0.00000000000E+00 -0.55073430319E+03  0.55073430320E+03  0.25500000920E-02 0. -1.
    10030    2    1    2    0    0  0.00000000000E+00  0.00000000000E+00 -0.70020214159E+02  0.10314483922E+04  0.10290689751E+04 0.  0.
        1    1    3    3  502    0  0.40103809133E+03 -0.39444067426E+02 -0.35568478283E+03  0.53749330221E+03  0.50400001928E-02 0. -1.
       -1    1    3    3    0  502 -0.40103809133E+03  0.39444067426E+02  0.28566456867E+03  0.49395509004E+03  0.50400001928E-02 0.  1.
</event>
<event>
 5   0  0.9243773E-03  0.9978588E+03  0.7818609E-02  0.9310896E-01
        2   -1    0    0  501    0  0.00000000000E+00  0.00000000000E+00  0.58262384899E+03  0.58262384900E+03  0.25500000920E-02 0.  1.
       -2   -1    0    0    0  501  0.00000000000E+00  0.00000000000E+00 -0.42725770387E+03  0.42725770388E+03  0.25500000920E-02 0. -1.
    10030    2    1    2    0    0  0.00000000000E+00  0.00000000000E+00  0.15536614513E+03  0.10098815529E+04  0.99785876345E+03 0.  0.
        3    1    3    3  502    0 -0.57870620448E+02 -0.45994227693E+03 -0.10902442517E+03  0.47621659180E+03  0.10100000352E+00 0. -1.
       -3    1    3    3    0  502  0.57870620448E+02  0.45994227693E+03  0.26439057030E+03  0.53366496108E+03  0.10100000352E+00 0.  1.
</event>
<event>
 5   0  0.8968798E-03  0.1139547E+04  0.7818609E-02  0.9167481E-01
       -2   -1    0    0    0  501  0.00000000000E+00  0.00000000000E+00  0.38843575241E+03  0.38843575242E+03  0.25500000920E-02 0. -1.
        2   -1    0    0  501    0  0.00000000000E+00  0.00000000000E+00 -0.83576710870E+03  0.83576710871E+03  0.25500000920E-02 0.  1.
    10030    2    1    2    0    0  0.00000000000E+00  0.00000000000E+00 -0.44733135629E+03  0.12242028611E+04  0.11395469726E+04 0.  0.
        2    1    3    3  502    0 -0.60155266005E+02  0.18553636729E+03 -0.79878613643E+03  0.82225403092E+03  0.25500000920E-02 0.  1.
       -2    1    3    3    0  502  0.60155266005E+02 -0.18553636729E+03  0.35145478014E+03  0.40194883020E+03  0.25500000920E-02 0. -1.
</event>
<event>
 5   0  0.9040674E-03  0.1002167E+04  0.7818609E-02  0.9306171E-01
       -2   -1    0    0    0  501  0.00000000000E+00  0.00000000000E+00  0.43172002525E+03  0.43172002526E+03  0.25500000920E-02 0.  1.
        2   -1    0    0  501    0  0.00000000000E+00  0.00000000000E+00 -0.58159172922E+03  0.58159172922E+03  0.25500000920E-02 0. -1.
    10030    2    1    2    0    0  0.00000000000E+00  0.00000000000E+00 -0.14987170396E+03  0.10133117545E+04  0.10021672436E+04 0.  0.
        1    1    3    3  502    0 -0.39114626750E+03  0.66239384650E+02 -0.38444728692E+03  0.55243350288E+03  0.50400001928E-02 0. -1.
       -1    1    3    3    0  502  0.39114626750E+03 -0.66239384650E+02  0.23457558295E+03  0.46087825160E+03  0.50400001928E-02 0.  1.
</event>
<event>
 5   0  0.5072205E-03  0.9051208E+03  0.7818609E-02  0.9419203E-01
       -1   -1    0    0    0  501  0.00000000000E+00  0.00000000000E+00  0.17748882879E+03  0.17748882886E+03  0.50400001928E-02 0.  1.
        1   -1    0    0  501    0  0.00000000000E+00  0.00000000000E+00 -0.11539369141E+04  0.11539369141E+04  0.50400001928E-02 0. -1.
    10030    2    1    2    0    0  0.00000000000E+00  0.00000000000E+00 -0.97644808532E+03  0.13314257430E+04  0.90512079069E+03 0.  0.
        5    1    3    3  502    0 -0.19206762064E+03 -0.11263913668E+03  0.91300780067E+02  0.24069787795E+03  0.46999998093E+01 0.  1.
       -5    1    3    3    0  502  0.19206762064E+03  0.11263913668E+03 -0.10677488654E+04  0.10907278650E+04  0.46999998093E+01 0. -1.
</event>
<event>
 5   0  0.5072205E-03  0.9947346E+03  0.7818609E-02  0.9314339E-01
        1   -1    0    0  501    0  0.00000000000E+00  0.00000000000E+00  0.11413127357E+04  0.11413127357E+04  0.50400001928E-02 0.  1.
       -1   -1    0    0    0  501  0.00000000000E+00  0.00000000000E+00 -0.21674533175E+03  0.21674533181E+03  0.50400001928E-02 0. -1.
    10030    2    1    2    0    0  0.00000000000E+00  0.00000000000E+00  0.92456740398E+03  0.13580580676E+04  0.99473455271E+03 0.  0.
        5    1    3    3  502    0 -0.62710983177E+02 -0.18158192167E+03  0.10885845159E+04  0.11054153065E+04  0.46999998093E+01 0.  1.
       -5    1    3    3    0  502  0.62710983177E+02  0.18158192167E+03 -0.16401711192E+03  0.25264276101E+03  0.46999998093E+01 0. -1.
</event>
<event>
 5   0  0.8968798E-03  0.1004143E+04  0.7818609E-02  0.9304013E-01
        2   -1    0    0  501    0  0.00000000000E+00  0.00000000000E+00  0.48093698446E+03  0.48093698446E+03  0.25500000920E-02 0.  1.
       -2   -1    0    0    0  501  0.00000000000E+00  0.00000000000E+00 -0.52413440109E+03  0.52413440110E+03  0.25500000920E-02 0. -1.
    10030    2    1    2    0    0  0.00000000000E+00  0.00000000000E+00 -0.43197416638E+02  0.10050713856E+04  0.10041426558E+04 0.  0.
        2    1    3    3  502    0  0.12691381326E+03  0.13404438747E+03 -0.48893589678E+03  0.52262158870E+03  0.25500000920E-02 0. -1.
       -2    1    3    3    0  502 -0.12691381326E+03 -0.13404438747E+03  0.44573848014E+03  0.48244979686E+03  0.25500000920E-02 0.  1.
</event>
<event>
 5   0  0.5189877E-03  0.9925767E+03  0.7818609E-02  0.9316724E-01
        1   -1    0    0  501    0  0.00000000000E+00  0.00000000000E+00  0.17584724865E+04  0.17584724865E+04  0.50400001928E-02 0.  1.
       -1   -1    0    0    0  501  0.00000000000E+00  0.00000000000E+00 -0.14006596495E+03  0.14006596504E+03  0.50400001928E-02 0. -1.
    10030    2    1    2    0    0  0.00000000000E+00  0.00000000000E+00  0.16184065215E+04  0.18985384515E+04  0.99257673910E+03 0.  0.
        3    1    3    3  502    0  0.24734922978E+01 -0.23345081789E+03  0.16468789405E+04  0.16633447199E+04  0.10100000352E+00 0.  1.
       -3    1    3    3    0  502 -0.24734922978E+01  0.23345081789E+03 -0.28472418954E+02  0.23519373159E+03  0.10100000352E+00 0. -1.
</event>
<event>
 5   0  0.5072205E-03  0.1025891E+04  0.7818609E-02  0.9280595E-01
        1   -1    0    0  501    0  0.00000000000E+00  0.00000000000E+00  0.95045501054E+03  0.95045501056E+03  0.50400001928E-02 0. -1.
       -1   -1    0    0    0  501  0.00000000000E+00  0.00000000000E+00 -0.27682850644E+03  0.27682850649E+03  0.50400001928E-02 0.  1.
    10030    2    1    2    0    0  0.00000000000E+00  0.00000000000E+00  0.67362650410E+03  0.12272835170E+04  0.10258909124E+04 0.  0.
        5    1    3    3  502    0 -0.21441059716E+03 -0.36354564431E+03  0.68549935722E+03  0.80502720352E+03  0.46999998093E+01 0. -1.
       -5    1    3    3    0  502  0.21441059716E+03  0.36354564431E+03 -0.11872853118E+02  0.42225631352E+03  0.46999998093E+01 0.  1.
</event>
<event>
 5   0  0.8907355E-03  0.1001048E+04  0.7818609E-02  0.9307396E-01
       -2   -1    0    0    0  501  0.00000000000E+00  0.00000000000E+00  0.17576873938E+03  0.17576873940E+03  0.25500000920E-02 0. -1.
        2   -1    0    0  501    0  0.00000000000E+00  0.00000000000E+00 -0.14253056787E+04  0.14253056787E+04  0.25500000920E-02 0.  1.
    10030    2    1    2    0    0  0.00000000000E+00  0.00000000000E+00 -0.12495369393E+04  0.16010744181E+04  0.10010478158E+04 0.  0.
        5    1    3    3  502    0 -0.21151657760E+03 -0.87223290505E+02  0.87197333210E+02  0.24489309897E+03  0.46999998093E+01 0. -1.
       -5    1    3    3    0  502  0.21151657760E+03  0.87223290505E+02 -0.13367342725E+04  0.13561813191E+04  0.46999998093E+01 0.  1.
</event>
<event>
 5   0  0.9243773E-03  0.9912088E+03  0.7818609E-02  0.9318240E-01
        2   -1    0    0  501    0  0.00000000000E+00  0.00000000000E+00  0.14127371563E+04  0.14127371563E+04  0.25500000920E-02 0. -1.
       -2   -1    0    0    0  501  0.00000000000E+00  0.00000000000E+00 -0.17386371650E+03  0.17386371652E+03  0.25500000920E-02 0.  1.
    10030    2    1    2    0    0  0.00000000000E+00  0.00000000000E+00  0.12388734398E+04  0.15866008728E+04  0.99120882247E+03 0.  0.
        3    1    3    3  502    0  0.48378360073E+03  0.69622967051E+02  0.75074840130E+03  0.89583318878E+03  0.10100000352E+00 0. -1.
       -3    1    3    3    0  502 -0.48378360073E+03 -0.69622967051E+02  0.48812503846E+03  0.69076768399E+03  0.10100000352E+00 0.  1.
</event>
<event>
 5   0  0.5072205E-03  0.9917576E+03  0.7818609E-02  0.9317631E-01
       -1   -1    0    0    0  501  0.00000000000E+00  0.00000000000E+00  0.25024921113E+03  0.25024921119E+03  0.50400001928E-02 0.  1.
        1   -1    0    0  501    0  0.00000000000E+00  0.00000000000E+00 -0.98260368711E+03  0.98260368712E+03  0.50400001928E-02 0. -1.
    10030    2    1    2    0    0  0.00000000000E+00  0.00000000000E+00 -0.73235447597E+03  0.12328528983E+04  0.99175762683E+03 0.  0.
        5    1    3    3  502    0 -0.31656828447E+03  0.27973726978E+03 -0.68891716635E+03  0.80814439980E+03  0.46999998093E+01 0. -1.
       -5    1    3    3    0  502  0.31656828447E+03 -0.27973726978E+03 -0.43437309625E+02  0.42470849851E+03  0.46999998093E+01 0.  1.
</event>
<event>
 5   0  0.8968798E-03  0.9937441E+03  0.7818609E-02  0.9315433E-01
        2   -1    0    0  501    0  0.00000000000E+00  0.00000000000E+00  0.12254432665E+04  0.12254432665E+04  0.25500000920E-02 0.  1.
       -2   -1    0    0    0  501  0.00000000000E+00  0.00000000000E+00 -0.20146330241E+03  0.20146330243E+03  0.25500000920E-02 0. -1.
    10030    2    1    2    0    0  0.00000000000E+00  0.00000000000E+00  0.10239799641E+04  0.14269065690E+04  0.99374412684E+03 0.  0.
        2    1    3    3  502    0 -0.35827806992E+03  0.34145242406E+03  0.44892657821E+03  0.66819758000E+03  0.25500000920E-02 0.  1.
       -2    1    3    3    0  502  0.35827806992E+03 -0.34145242406E+03  0.57505338590E+03  0.75870898896E+03  0.25500000920E-02 0. -1.
</event>
<event>
 5   0  0.5310275E-03  0.9560502E+03  0.7818609E-02  0.9358107E-01
       -1   -1    0    0    0  501  0.00000000000E+00  0.00000000000E+00  0.26701481169E+03  0.26701481174E+03  0.50400001928E-02 0. -1.
        1   -1    0    0  501    0  0.00000000000E+00  0.00000000000E+00 -0.85578771924E+03  0.85578771926E+03  0.50400001928E-02 0.  1.
    10030    2    1    2    0    0  0.00000000000E+00  0.00000000000E+00 -0.58877290755E+03  0.11228025310E+04  0.95605020106E+03 0.  0.
        1    1    3    3  502    0  0.25946628424E+03 -0.32644527656E+03 -0.19917348503E+02  0.41747571432E+03  0.50400001928E-02 0.  1.
       -1    1    3    3    0  502 -0.25946628424E+03  0.32644527656E+03 -0.56885555905E+03  0.70532681668E+03  0.50400001928E-02 0. -1.
</event>
<event>
 5   0  0.3513625E-03  0.1000859E+04  0.7818609E-02  0.9307603E-01
       -3   -1    0    0    0  501  0.00000000000E+00  0.00000000000E+00  0.71146357604E+03  0.71146358321E+03  0.10100000352E+00 0.  1.
        3   -1    0    0  501    0  0.00000000000E+00  0.00000000000E+00 -0.35199242559E+03  0.35199244008E+03  0.10100000352E+00 0. -1.
    10030    2    1    2    0    0  0.00000000000E+00  0.00000000000E+00  0.35947115045E+03  0.10634560233E+04  0.10008592336E+04 0.  0.
        2    1    3    3  502    0 -0.30122916893E+03  0.10680005125E+03 -0.22942564932E+03  0.39342266296E+03  0.25500000920E-02 0. -1.
       -2    1    3    3    0  502  0.30122916893E+03 -0.10680005125E+03  0.58889679977E+03  0.67003336032E+03  0.25500000920E-02 0.  1.
</event>
<event>
 5   0  0.9040674E-03  0.1012775E+04  0.7818609E-02  0.9294644E-01
       -2   -1    0    0    0  501  0.00000000000E+00  0.00000000000E+00  0.14097482730E+03  0.14097482732E+03  0.25500000920E-02 0. -1.
        2   -1    0    0  501    0  0.00000000000E+00  0.00000000000E+00 -0.18189634108E+04  0.18189634108E+04  0.25500000920E-02 0.  1.
    10030    2    1    2    0    0  0.00000000000E+00  0.00000000000E+00 -0.16779885835E+04  0.19599382381E+04  0.10127745114E+04 0.  0.
        1    1    3    3  502    0 -0.37868264361E+03 -0.20460463272E+03 -0.32274296702E+03  0.53798385021E+03  0.50400001928E-02 0. -1.
       -1    1    3    3    0  502  0.37868264361E+03  0.20460463272E+03 -0.13552456165E+04  0.14219543879E+04  0.50400001928E-02 0.  1.
</event>
<event>
 5   0  0.5201968E-03  0.1074228E+04  0.7818609E-02  0.9230681E-01
       -1   -1    0    0    0  501  0.00000000000E+00  0.00000000000E+00  0.40878113681E+03  0.40878113684E+03  0.50400001928E-02 0.  1.
        1   -1    0    0  501    0  0.00000000000E+00  0.00000000000E+00 -0.70573631543E+03  0.70573631544E+03  0.50400001928E-02 0. -1.
    10030    2    1    2    0    0  0.00000000000E+00  0.00000000000E+00 -0.29695517862E+03  0.11145174523E+04  0.10742284549E+04 0.  0.
        2    1    3    3  502    0  0.97691927130E+02  0.35497166891E+03  0.25726926230E+03  0.44915038872E+03  0.25500000920E-02 0.  1.
       -2    1    3    3    0  502 -0.97691927130E+02 -0.35497166891E+03 -0.55422444092E+03  0.66536706356E+03  0.25500000920E-02 0. -1.
</event>
<event>
 5   0  0.5189877E-03  0.9983258E+03  0.7818609E-02  0.9310383E-01
        1   -1    0    0  501    0  0.00000000000E+00  0.00000000000E+00  0.89048899825E+03  0.89048899827E+03  0.50400001928E-02 0.  1.
       -1   -1    0    0    0  501  0.00000000000E+00  0.00000000000E+00 -0.27980534973E+03  0.27980534977E+03  0.50400001928E-02 0. -1.
    10030    2    1    2    0    0  0.00000000000E+00  0.00000000000E+00  0.61068364853E+03  0.11702943480E+04  0.99832576971E+03 0.  0.
        3    1    3    3  502    0 -0.67813256716E+02 -0.45226238189E+03  0.70821054694E+02  0.46276941542E+03  0.10100000352E+00 0. -1.
       -3    1    3    3    0  502  0.67813256716E+02  0.45226238189E+03  0.53986259384E+03  0.70752493262E+03  0.10100000352E+00 0.  1.
</event>
<event>
 5   0  0.5072205E-03  0.8612447E+03  0.7818609E-02  0.9475368E-01
        1   -1    0    0  501    0  0.00000000000E+00  0.00000000000E+00  0.12811338096E+03  0.12811338106E+03  0.50400001928E-02 0.  1.
       -1   -1    0    0    0  501  0.00000000000E+00  0.00000000000E+00 -0.14474336143E+04  0.14474336143E+04  0.50400001928E-02 0. -1.
    10030    2    1    2    0    0  0.00000000000E+00  0.00000000000E+00 -0.13193202333E+04  0.15755469954E+04  0.86124471349E+03 0.  0.
        5    1    3    3  502    0  0.27557875944E+03  0.33056733315E+03 -0.68521325562E+03  0.80917100175E+03  0.46999998093E+01 0.  1.
       -5    1    3    3    0  502 -0.27557875944E+03 -0.33056733315E+03 -0.63410697773E+03  0.76637599362E+03  0.46999998093E+01 0. -1.
</event>
<event>
 5   0  0.5201968E-03  0.9942050E+03  0.7818609E-02  0.9314924E-01
        1   -1    0    0  501    0  0.00000000000E+00  0.00000000000E+00  0.38576033622E+03  0.38576033626E+03  0.50400001928E-02 0. -1.
       -1   -1    0    0    0  501  0.00000000000E+00  0.00000000000E+00 -0.64058134466E+03  0.64058134468E+03  0.50400001928E-02 0.  1.
    10030    2    1    2    0    0  0.00000000000E+00  0.00000000000E+00 -0.25482100844E+03  0.10263416809E+04  0.99420495859E+03 0.  0.
        2    1    3    3  502    0 -0.42398911175E+02  0.26502306634E+03  0.30453536643E+03  0.40592694266E+03  0.25500000920E-02 0. -1.
       -2    1    3    3    0  502  0.42398911175E+02 -0.26502306634E+03 -0.55935637487E+03  0.62041473828E+03  0.25500000920E-02 0.  1.
</event>
<event>
 5   0  0.8875655E-03  0.1004111E+04  0.7818609E-02  0.9304047E-01
       -2   -1    0    0    0  501  0.00000000000E+00  0.00000000000E+00  0.13507486059E+03  0.13507486062E+03  0.25500000920E-02 0. -1.
        2   -1    0    0  501    0  0.00000000000E+00  0.00000000000E+00 -0.18660753192E+04  0.18660753192E+04  0.25500000920E-02 0.  1.
    10030    2    1    2    0    0  0.00000000000E+00  0.00000000000E+00 -0.17310004586E+04  0.20011501799E+04  0.10041112760E+04 0.  0.
        4    1    3    3  502    0  0.23336019077E+03  0.17390523268E+03 -0.50192816650E+02  0.29533191554E+03  0.12699999809E+01 0. -1.
       -4    1    3    3    0  502 -0.23336019077E+03 -0.17390523268E+03 -0.16808076420E+04  0.17058182643E+04  0.12699999809E+01 0.  1.
</event>
<event>
 5   0  0.5349685E-03  0.1000698E+04  0.7818609E-02  0.9307780E-01
        1   -1    0    0  501    0  0.00000000000E+00  0.00000000000E+00  0.60490956920E+03  0.60490956922E+03  0.50400001928E-02 0. -1.
       -1   -1    0    0    0  501  0.00000000000E+00  0.00000000000E+00 -0.41386167733E+03  0.41386167736E+03  0.50400001928E-02 0.  1.
    10030    2    1    2    0    0  0.00000000000E+00  0.00000000000E+00  0.19104789187E+03  0.10187712466E+04  0.10006975347E+04 0.  0.
        4    1    3    3  502    0 -0.47289847844E+03  0.15069877277E+03  0.15994545868E+03  0.52146644540E+03  0.12699999809E+01 0. -1.
       -4    1    3    3    0  502  0.47289847844E+03 -0.15069877277E+03  0.31102433192E+02  0.49730480118E+03  0.12699999809E+01 0.  1.
</event>
<event>
 5   0  0.5189877E-03  0.9922368E+03  0.7818609E-02  0.9317101E-01
        1   -1    0    0  501    0  0.00000000000E+00  0.00000000000E+00  0.62213376244E+03  0.62213376246E+03  0.50400001928E-02 0. -1.
       -1   -1    0    0    0  501  0.00000000000E+00  0.00000000000E+00 -0.39562787761E+03  0.39562787764E+03  0.50400001928E-02 0.  1.
    10030    2    1    2    0    0  0.00000000000E+00  0.00000000000E+00  0.22650588484E+03  0.10177616401E+04  0.99223678636E+03 0.  0.
        3    1    3    3  502    0  0.17634035940E+03 -0.42088141390E+03  0.31293062120E+03  0.55331968229E+03  0.10100000352E+00 0. -1.
       -3    1    3    3    0  502 -0.17634035940E+03  0.42088141390E+03 -0.86424736364E+02  0.46444195782E+03  0.10100000352E+00 0.  1.
</event>
<event>
 5   0  0.3513625E-03  0.9941749E+03  0.7818609E-02  0.9314957E-01
       -4   -1    0    0    0  501  0.00000000000E+00  0.00000000000E+00  0.18960637012E+03  0.18961062336E+03  0.12699999809E+01 0.  1.
        4   -1    0    0  501    0  0.00000000000E+00  0.00000000000E+00 -0.13031856579E+04  0.13031862767E+04  0.12699999809E+01 0. -1.
    10030    2    1    2    0    0  0.00000000000E+00  0.00000000000E+00 -0.11135792877E+04  0.14927969001E+04  0.99417491154E+03 0.  0.
        4    1    3    3  502    0  0.20854427077E+03 -0.28423593647E+03 -0.30577266094E+02  0.35386065415E+03  0.12699999809E+01 0.  1.
       -4    1    3    3    0  502 -0.20854427077E+03  0.28423593647E+03 -0.10830020217E+04  0.11389362459E+04  0.12699999809E+01 0. -1.
</event>
<event>
 5   0  0.9040674E-03  0.9406181E+03  0.7818609E-02  0.9376184E-01
        2   -1    0    0  501    0  0.00000000000E+00  0.00000000000E+00  0.10641541269E+04  0.10641541269E+04  0.25500000920E-02 0.  1.
       -2   -1    0    0    0  501  0.00000000000E+00  0.00000000000E+00 -0.20785577442E+03  0.20785577444E+03  0.25500000920E-02 0. -1.
    10030    2    1    2    0    0  0.00000000000E+00  0.00000000000E+00  0.85629835250E+03  0.12720099014E+04  0.94061805249E+03 0.  0.
        1    1    3    3  502    0  0.35003913759E+03 -0.30754454390E+03  0.51452308174E+03  0.69415059317E+03  0.50400001928E-02 0. -1.
       -1    1    3    3    0  502 -0.35003913759E+03  0.30754454390E+03  0.34177527076E+03  0.57785930819E+03  0.50400001928E-02 0.  1.
</event>
<event>
 5   0  0.9243773E-03  0.1031900E+04  0.7818609E-02  0.9274234E-01
       -2   -1    0    0    0  501  0.00000000000E+00  0.00000000000E+00  0.18142350762E+03  0.18142350764E+03  0.25500000920E-02 0. -1.
        2   -1    0    0  501    0  0.00000000000E+00  0.00000000000E+00 -0.14673080771E+04  0.14673080771E+04  0.25500000920E-02 0.  1.
    10030    2    1    2    0    0  0.00000000000E+00  0.00000000000E+00 -0.12858845695E+04  0.16487315847E+04  0.10318995651E+04 0.  0.
        3    1    3    3  502    0  0.30059788342E+03  0.41915843111E+03 -0.66259477906E+03  0.83969323525E+03  0.10100000352E+00 0.  1.
       -3    1    3    3    0  502 -0.30059788342E+03 -0.41915843111E+03 -0.62328979040E+03  0.80903834947E+03  0.10100000352E+00 0. -1.
</event>
<event>
 5   0  0.9243773E-03  0.9890584E+03  0.7818609E-02  0.9320627E-01
       -2   -1    0    0    0  501  0.00000000000E+00  0.00000000000E+00  0.38502286218E+03  0.38502286219E+03  0.25500000920E-02 0. -1.
        2   -1    0    0  501    0  0.00000000000E+00  0.00000000000E+00 -0.63518076721E+03  0.63518076721E+03  0.25500000920E-02 0.  1.
    10030    2    1    2    0    0  0.00000000000E+00  0.00000000000E+00 -0.25015790503E+03  0.10202036294E+04  0.98905837441E+03 0.  0.
        3    1    3    3  502    0 -0.96694845786E+02 -0.42057665793E+02  0.37329222512E+03  0.38789926010E+03  0.10100000352E+00 0. -1.
       -3    1    3    3    0  502  0.96694845786E+02  0.42057665793E+02 -0.62345013015E+03  0.63230436930E+03  0.10100000352E+00 0.  1.
</event>
<event>
 5   0  0.5349685E-03  0.9926488E+03  0.7818609E-02  0.9316644E-01
       -1   -1    0    0    0  501  0.00000000000E+00  0.00000000000E+00  0.13825942630E+03  0.13825942639E+03  0.50400001928E-02 0.  1.
        1   -1    0    0  501    0  0.00000000000E+00  0.00000000000E+00 -0.17817077950E+04  0.17817077950E+04  0.50400001928E-02 0. -1.
    10030    2    1    2    0    0  0.00000000000E+00  0.00000000000E+00 -0.16434483687E+04  0.19199672214E+04  0.99264877510E+03 0.  0.
        4    1    3    3  502    0 -0.21782786797E+03 -0.15594654629E+03 -0.13595549170E+02  0.26824383912E+03  0.12699999809E+01 0.  1.
       -4    1    3    3    0  502  0.21782786797E+03  0.15594654629E+03 -0.16298528196E+04  0.16517233823E+04  0.12699999809E+01 0. -1.
</event>
<event>
 5   0  0.9040674E-03  0.9698513E+03  0.7818609E-02  0.9342244E-01
        2   -1    0    0  501    0  0.00000000000E+00  0.00000000000E+00  0.84174943737E+03  0.84174943738E+03  0.25500000920E-02 0.  1.
       -2   -1    0    0    0  501  0.00000000000E+00  0.00000000000E+00 -0.27936211183E+03  0.27936211184E+03  0.25500000920E-02 0. -1.
    10030    2    1    2    0    0  0.00000000000E+00  0.00000000000E+00  0.56238732554E+03  0.11211115492E+04  0.96985132978E+03 0.  0.
        1    1    3    3  502    0  0.17604677733E+03  0.26952789086E+03 -0.13801625723E+03  0.35026595473E+03  0.50400001928E-02 0. -1.
       -1    1    3    3    0  502 -0.17604677733E+03 -0.26952789086E+03  0.70040358277E+03  0.77084559449E+03  0.50400001928E-02 0.  1.
</event>
<event>
 5   0  0.5201968E-03  0.7879884E+03  0.7818609E-02  0.9577568E-01
       -1   -1    0    0    0  501  0.00000000000E+00  0.00000000000E+00  0.16706305052E+03  0.16706305059E+03  0.50400001928E-02 0.  1.
        1   -1    0    0  501    0  0.00000000000E+00  0.00000000000E+00 -0.92917878056E+03  0.92917878057E+03  0.50400001928E-02 0. -1.
    10030    2    1    2    0    0  0.00000000000E+00  0.00000000000E+00 -0.76211573004E+03  0.10962418312E+04  0.78798843039E+03 0.  0.
        2    1    3    3  502    0  0.14716281199E+03  0.21490414829E+01 -0.88949923274E+03  0.90159325455E+03  0.25500000920E-02 0. -1.
       -2    1    3    3    0  502 -0.14716281199E+03 -0.21490414829E+01  0.12738350269E+03  0.19464857661E+03  0.25500000920E-02 0.  1.
</event>
<event>
 5   0  0.5310275E-03  0.9958420E+03  0.7818609E-02  0.9313117E-01
        1   -1    0    0  501    0  0.00000000000E+00  0.00000000000E+00  0.21819017908E+04  0.21819017908E+04  0.50400001928E-02 0.  1.
       -1   -1    0    0    0  501  0.00000000000E+00  0.00000000000E+00 -0.11362808572E+03  0.11362808583E+03  0.50400001928E-02 0. -1.
    10030    2    1    2    0    0  0.00000000000E+00  0.00000000000E+00  0.20682737051E+04  0.22955298766E+04  0.99584200323E+03 0.  0.
        1    1    3    3  502    0  0.47891490101E+03  0.75041331562E+02  0.77197488866E+03  0.91155686197E+03  0.50400001928E-02 0. -1.
       -1    1    3    3    0  502 -0.47891490101E+03 -0.75041331562E+02  0.12962988164E+04  0.13839730147E+04  0.50400001928E-02 0.  1.
</event>
<event>
 5   0  0.5072205E-03  0.9967017E+03  0.7818609E-02  0.9312170E-01
       -1   -1    0    0    0  501  0.00000000000E+00  0.00000000000E+00  0.10408642202E+04  0.10408642202E+04  0.50400001928E-02 0. -1.
        1   -1    0    0  501    0  0.00000000000E+00  0.00000000000E+00 -0.23860324518E+03  0.23860324523E+03  0.50400001928E-02 0.  1.
    10030    2    1    2    0    0  0.00000000000E+00  0.00000000000E+00  0.80226097498E+03  0.12794674654E+04  0.99670172220E+03 0.  0.
        5    1    3    3  502    0  0.38936526746E+03  0.11242719340E+03  0.28887372447E+02  0.40632715341E+03  0.46999998093E+01 0.  1.
       -5    1    3    3    0  502 -0.38936526746E+03 -0.11242719340E+03  0.77337360254E+03  0.87314031199E+03  0.46999998093E+01 0. -1.
</event>
<event>
 5   0  0.8968798E-03  0.1003986E+04  0.7818609E-02  0.9304184E-01
        2   -1    0    0  501    0  0.00000000000E+00  0.00000000000E+00  0.27770904812E+03  0.27770904813E+03  0.25500000920E-02 0.  1.
       -2   -1    0    0    0  501  0.00000000000E+00  0.00000000000E+00 -0.90741353594E+03  0.90741353595E+03  0.25500000920E-02 0. -1.
    10030    2    1    2    0    0  0.00000000000E+00  0.00000000000E+00 -0.62970448783E+03  0.11851225841E+04  0.10039859547E+04 0.  0.
        2    1    3    3  502    0  0.11087782688E+03 -0.76683348854E+02 -0.88564570842E+03  0.89584739176E+03  0.25500000920E-02 0. -1.
       -2    1    3    3    0  502 -0.11087782688E+03  0.76683348854E+02  0.25594122059E+03  0.28927519231E+03  0.25500000920E-02 0.  1.
</event>
<event>
 5   0  0.9040674E-03  0.1004698E+04  0.7818609E-02  0.9303407E-01
       -2   -1    0    0    0  501  0.00000000000E+00  0.00000000000E+00  0.16908218504E+03  0.16908218506E+03  0.25500000920E-02 0. -1.
        2   -1    0    0  501    0  0.00000000000E+00  0.00000000000E+00 -0.14924967306E+04  0.14924967306E+04  0.25500000920E-02 0.  1.
    10030    2    1    2    0    0  0.00000000000E+00  0.00000000000E+00 -0.13234145456E+04  0.16615789156E+04  0.10046981803E+04 0.  0.
        1    1    3    3  502    0  0.23002356760E+03  0.32319830164E+03 -0.15200498333E+03  0.42482172592E+03  0.50400001928E-02 0. -1.
       -1    1    3    3    0  502 -0.23002356760E+03 -0.32319830164E+03 -0.11714095622E+04  0.12367571897E+04  0.50400001928E-02 0.  1.
</event>
<event>
 5   0  0.8907355E-03  0.1015444E+04  0.7818609E-02  0.9291766E-01
        2   -1    0    0  501    0  0.00000000000E+00  0.00000000000E+00  0.20069843404E+04  0.20069843404E+04  0.25500000920E-02 0. -1.
       -2   -1    0    0    0  501  0.00000000000E+00  0.00000000000E+00 -0.12844230504E+03  0.12844230507E+03  0.25500000920E-02 0.  1.
    10030    2    1    2    0    0  0.00000000000E+00  0.00000000000E+00  0.18785420354E+04  0.21354266455E+04  0.10154441292E+04 0.  0.
        5    1    3    3  502    0  0.26668963847E+03  0.16392079808E+03  0.17798356173E+04  0.18071608412E+04  0.46999998093E+01 0. -1.
       -5    1    3    3    0  502 -0.26668963847E+03 -0.16392079808E+03  0.98706418099E+02  0.32826580432E+03  0.46999998093E+01 0.  1.
</event>
<event>
 5   0  0.5072205E-03  0.9914434E+03  0.7818609E-02  0.9317980E-01
       -1   -1    0    0    0  501  0.00000000000E+00  0.00000000000E+00  0.37101051248E+03  0.37101051251E+03  0.50400001928E-02 0. -1.
        1   -1    0    0  501    0  0.00000000000E+00  0.00000000000E+00 -0.66235325654E+03  0.66235325656E+03  0.50400001928E-02 0.  1.
    10030    2    1    2    0    0  0.00000000000E+00  0.00000000000E+00 -0.29134274406E+03  0.10333637691E+04  0.99144343495E+03 0.  0.
        5    1    3    3  502    0  0.32900515591E+03 -0.62945189336E+02  0.23517036039E+03  0.40930878060E+03  0.46999998093E+01 0. -1.
       -5    1    3    3    0  502 -0.32900515591E+03  0.62945189336E+02 -0.52651310445E+03  0.62405498846E+03  0.46999998093E+01 0.  1.
</event>
<event>
 5   0  0.3513625E-03  0.1033592E+04  0.7818609E-02  0.9272450E-01
        4   -1    0    0  501    0  0.00000000000E+00  0.00000000000E+00  0.46327469361E+03  0.46327643436E+03  0.12699999809E+01 0.  1.
       -4   -1    0    0    0  501  0.00000000000E+00  0.00000000000E+00 -0.57649729034E+03  0.57649868922E+03  0.12699999809E+01 0. -1.
    10030    2    1    2    0    0  0.00000000000E+00  0.00000000000E+00 -0.11322259674E+03  0.10397751236E+04  0.10335922558E+04 0.  0.
        4    1    3    3  502    0  0.80524193771E+02 -0.63987923024E+02 -0.56609722097E+03  0.57536621083E+03  0.12699999809E+01 0. -1.
       -4    1    3    3    0  502 -0.80524193771E+02  0.63987923024E+02  0.45287462423E+03  0.46440891276E+03  0.12699999809E+01 0.  1.
</event>
<event>
 5   0  0.8875655E-03  0.1000240E+04  0.7818609E-02  0.9308282E-01
       -2   -1    0    0    0  501  0.00000000000E+00  0.00000000000E+00  0.21523657940E+03  0.21523657941E+03  0.25500000920E-02 0.  1.
        2   -1    0    0  501    0  0.00000000000E+00  0.00000000000E+00 -0.11620697308E+04  0.11620697308E+04  0.25500000920E-02 0. -1.
    10030    2    1    2    0    0  0.00000000000E+00  0.00000000000E+00 -0.94683315144E+03  0.13773063103E+04  0.10002397990E+04 0.  0.
        4    1    3    3  502    0 -0.37879634462E+03  0.26761557762E+03 -0.21575813557E+03  0.51152512553E+03  0.12699999809E+01 0.  1.
       -4    1    3    3    0  502  0.37879634462E+03 -0.26761557762E+03 -0.73107501587E+03  0.86578118472E+03  0.12699999809E+01 0. -1.
</event>
<event>
 5   0  0.9040674E-03  0.9768411E+03  0.7818609E-02  0.9334316E-01
       -2   -1    0    0    0  501  0.00000000000E+00  0.00000000000E+00  0.36326712277E+03  0.36326712278E+03  0.25500000920E-02 0.  1.
        2   -1    0    0  501    0  0.00000000000E+00  0.00000000000E+00 -0.65669202280E+03  0.65669202281E+03  0.25500000920E-02 0. -1.
    10030    2    1    2    0    0  0.00000000000E+00  0.00000000000E+00 -0.29342490003E+03  0.10199591456E+04  0.97684107546E+03 0.  0.
        1    1    3    3  502    0 -0.34235242071E+03 -0.20288454678E+03 -0.44238544812E+03  0.59503966592E+03  0.50400001928E-02 0. -1.
       -1    1    3    3    0  502  0.34235242071E+03  0.20288454678E+03  0.14896054809E+03  0.42491947967E+03  0.50400001928E-02 0.  1.
</event>
<event>
 5   0  0.5349685E-03  0.1024098E+04  0.7818609E-02  0.9282502E-01
        1   -1    0    0  501    0  0.00000000000E+00  0.00000000000E+00  0.13287908470E+04  0.13287908470E+04  0.50400001928E-02 0. -1.
       -1   -1    0    0    0  501  0.00000000000E+00  0.00000000000E+00 -0.19731784509E+03  0.19731784515E+03  0.50400001928E-02 0.  1.
    10030    2    1    2    0    0  0.00000000000E+00  0.00000000000E+00  0.11314730019E+04  0.15261086922E+04  0.10240979378E+04 0.  0.
        4    1    3    3  502    0 -0.18412248301E+02 -0.23157952305E+03 -0.11426494047E+03  0.25889414034E+03  0.12699999809E+01 0.  1.
       -4    1    3    3    0  502  0.18412248301E+02  0.23157952305E+03  0.12457379424E+04  0.12672145518E+04  0.12699999809E+01 0. -1.
</event>
<event>
 5   0  0.5072205E-03  0.1018980E+04  0.7818609E-02  0.9287970E-01
        1   -1    0    0  501    0  0.00000000000E+00  0.00000000000E+00  0.59433812295E+03  0.59433812297E+03  0.50400001928E-02 0. -1.
       -1   -1    0    0    0  501  0.00000000000E+00  0.00000000000E+00 -0.43675456026E+03  0.43675456029E+03  0.50400001928E-02 0.  1.
    10030    2    1    2    0    0  0.00000000000E+00  0.00000000000E+00  0.15758356269E+03  0.10310926833E+04  0.10189796574E+04 0.  0.
        5    1    3    3  502    0 -0.17626398051E+03 -0.24448248115E+03  0.49442645361E+03  0.57906846093E+03  0.46999998093E+01 0. -1.
       -5    1    3    3    0  502  0.17626398051E+03  0.24448248115E+03 -0.33684289092E+03  0.45202422233E+03  0.46999998093E+01 0.  1.
</event>
<event>
 5   0  0.8907355E-03  0.9950463E+03  0.7818609E-02  0.9313995E-01
        2   -1    0    0  501    0  0.00000000000E+00  0.00000000000E+00  0.39657922456E+03  0.39657922457E+03  0.25500000920E-02 0.  1.
       -2   -1    0    0    0  501  0.00000000000E+00  0.00000000000E+00 -0.62416099713E+03  0.62416099713E+03  0.25500000920E-02 0. -1.
    10030    2    1    2    0    0  0.00000000000E+00  0.00000000000E+00 -0.22758177257E+03  0.10207402217E+04  0.99504629892E+03 0.  0.
        5    1    3    3  502    0  0.22609546740E+03  0.43955879507E+02  0.33856736665E+03  0.40951340818E+03  0.46999998093E+01 0.  1.
       -5    1    3    3    0  502 -0.22609546740E+03 -0.43955879507E+02 -0.56614913922E+03  0.61122681352E+03  0.46999998093E+01 0. -1.
</event>
<event>
 5   0  0.8907355E-03  0.1025334E+04  0.7818609E-02  0.9281187E-01
        2   -1    0    0  501    0  0.00000000000E+00  0.00000000000E+00  0.12273371015E+04  0.12273371015E+04  0.25500000920E-02 0. -1.
       -2   -1    0    0    0  501  0.00000000000E+00  0.00000000000E+00 -0.21414458468E+03  0.21414458469E+03  0.25500000920E-02 0.  1.
    10030    2    1    2    0    0  0.00000000000E+00  0.00000000000E+00  0.10131925168E+04  0.14414816862E+04  0.10253342750E+04 0.  0.
        5    1    3    3  502    0 -0.90547393868E+02  0.49927562280E+03  0.40395341381E+03  0.64859496497E+03  0.46999998093E+01 0. -1.
       -5    1    3    3    0  502  0.90547393868E+02 -0.49927562280E+03  0.60923910302E+03  0.79288672123E+03  0.46999998093E+01 0.  1.
</event>
<event>
 5   0  0.8907355E-03  0.1028523E+04  0.7818609E-02  0.9277803E-01
       -2   -1    0    0    0  501  0.00000000000E+00  0.00000000000E+00  0.50373376568E+03  0.50373376569E+03  0.25500000920E-02 0.  1.
        2   -1    0    0  501    0  0.00000000000E+00  0.00000000000E+00 -0.52500886856E+03  0.52500886857E+03  0.25500000920E-02 0. -1.
    10030    2    1    2    0    0  0.00000000000E+00  0.00000000000E+00 -0.21275102883E+02  0.10287426343E+04  0.10285226189E+04 0.  0.
        5    1    3    3  502    0  0.55770349146E+02 -0.30781616737E+03  0.39759370103E+03  0.50592881498E+03  0.46999998093E+01 0.  1.
       -5    1    3    3    0  502 -0.55770349146E+02  0.30781616737E+03 -0.41886880391E+03  0.52281381927E+03  0.46999998093E+01 0. -1.
</event>
<event>
 5   0  0.8875655E-03  0.1021795E+04  0.7818609E-02  0.9284958E-01
       -2   -1    0    0    0  501  0.00000000000E+00  0.00000000000E+00  0.16931151975E+03  0.16931151977E+03  0.25500000920E-02 0. -1.
        2   -1    0    0  501    0  0.00000000000E+00  0.00000000000E+00 -0.15416339292E+04  0.15416339292E+04  0.25500000920E-02 0.  1.
    10030    2    1    2    0    0  0.00000000000E+00  0.00000000000E+00 -0.13723224094E+04  0.17109454489E+04  0.10217952504E+04 0.  0.
        4    1    3    3  502    0  0.42506352175E+03  0.23411743055E+03 -0.95367949001E+03  0.10700449296E+04  0.12699999809E+01 0.  1.
       -4    1    3    3    0  502 -0.42506352175E+03 -0.23411743055E+03 -0.41864291941E+03  0.64090051933E+03  0.12699999809E+01 0. -1.
</event>
<event>
 5   0  0.8875655E-03  0.9834309E+03  0.7818609E-02  0.9326907E-01
       -2   -1    0    0    0  501  0.00000000000E+00  0.00000000000E+00  0.13234374658E+03  0.13234374661E+03  0.25500000920E-02 0.  1.
        2   -1    0    0  501    0  0.00000000000E+00  0.00000000000E+00 -0.18269399882E+04  0.18269399882E+04  0.25500000920E-02 0. -1.
    10030    2    1    2    0    0  0.00000000000E+00  0.00000000000E+00 -0.16945962416E+04  0.19592837348E+04  0.98343089812E+03 0.  0.
        4    1    3    3  502    0  0.42495139042E+03 -0.51205447936E+02 -0.13294859679E+04  0.13966890254E+04  0.12699999809E+01 0. -1.
       -4    1    3    3    0  502 -0.42495139042E+03  0.51205447936E+02 -0.36511027378E+03  0.56259470940E+03  0.12699999809E+01 0.  1.
</event>
<event>
 5   0  0.5072205E-03  0.1009173E+04  0.7818609E-02  0.9298541E-01
       -1   -1    0    0    0  501  0.00000000000E+00  0.00000000000E+00  0.19932125575E+03  0.19932125582E+03  0.50400001928E-02 0. -1.
        1   -1    0    0  501    0  0.00000000000E+00  0.00000000000E+00 -0.12773719176E+04  0.12773719176E+04  0.50400001928E-02 0.  1.
    10030    2    1    2    0    0  0.00000000000E+00  0.00000000000E+00 -0.10780506618E+04  0.14766931734E+04  0.10091726804E+04 0.  0.
        5    1    3    3  502    0  0.32345542788E+03 -0.20775366557E+03 -0.10172268910E+04  0.10874546598E+04  0.46999998093E+01 0.  1.
       -5    1    3    3    0  502 -0.32345542788E+03  0.20775366557E+03 -0.60823770850E+02  0.38923851361E+03  0.46999998093E+01 0. -1.
</event>
<event>
 5   0  0.9243773E-03  0.9846567E+03  0.7818609E-02  0.9325535E-01
       -2   -1    0    0    0  501  0.00000000000E+00  0.00000000000E+00  0.31359611266E+03  0.31359611267E+03  0.25500000920E-02 0.  1.
        2   -1    0    0  501    0  0.00000000000E+00  0.00000000000E+00 -0.77292788570E+03  0.77292788570E+03  0.25500000920E-02 0. -1.
    10030    2    1    2    0    0  0.00000000000E+00  0.00000000000E+00 -0.45933177304E+03  0.10865239984E+04  0.98465665149E+03 0.  0.
        3    1    3    3  502    0 -0.27195067840E+03 -0.90816934503E+02 -0.67129911660E+03  0.72996397255E+03  0.10100000352E+00 0. -1.
       -3    1    3    3    0  502  0.27195067840E+03  0.90816934503E+02  0.21196734357E+03  0.35656002582E+03  0.10100000352E+00 0.  1.
</event>
<event>
 5   0  0.8968798E-03  0.1007665E+04  0.7818609E-02  0.9300178E-01
        2   -1    0    0  501    0  0.00000000000E+00  0.00000000000E+00  0.16397871474E+04  0.16397871474E+04  0.25500000920E-02 0.  1.
       -2   -1    0    0    0  501  0.00000000000E+00  0.00000000000E+00 -0.15480484271E+03  0.15480484273E+03  0.25500000920E-02 0. -1.
    10030    2    1    2    0    0  0.00000000000E+00  0.00000000000E+00  0.14849823046E+04  0.17945919901E+04  0.10076646098E+04 0.  0.
        2    1    3    3  502    0 -0.35845743332E+03 -0.29488241310E+03  0.10914813235E+04  0.11860770838E+04  0.25500000920E-02 0.  1.
       -2    1    3    3    0  502  0.35845743332E+03  0.29488241310E+03  0.39350098112E+03  0.60851490632E+03  0.25500000920E-02 0. -1.
</event>
<event>
 5   0  0.5310275E-03  0.1041009E+04  0.7818609E-02  0.9264676E-01
       -1   -1    0    0    0  501  0.00000000000E+00  0.00000000000E+00  0.92468009766E+03  0.92468009767E+03  0.50400001928E-02 0.  1.
        1   -1    0    0  501    0  0.00000000000E+00  0.00000000000E+00 -0.29299325358E+03  0.29299325362E+03  0.50400001928E-02 0. -1.
    10030    2    1    2    0    0  0.00000000000E+00  0.00000000000E+00  0.63168684408E+03  0.12176733513E+04  0.10410091841E+04 0.  0.
        1    1    3    3  502    0  0.88532129245E+02 -0.86148442740E+02 -0.27559881632E+03  0.30201688641E+03  0.50400001928E-02 0. -1.
       -1    1    3    3    0  502 -0.88532129245E+02  0.86148442740E+02  0.90728566040E+03  0.91565646488E+03  0.50400001928E-02 0.  1.
</event>
<event>
 5   0  0.8907355E-03  0.1025603E+04  0.7818609E-02  0.9280901E-01
       -2   -1    0    0    0  501  0.00000000000E+00  0.00000000000E+00  0.23627074012E+03  0.23627074013E+03  0.25500000920E-02 0. -1.
        2   -1    0    0  501    0  0.00000000000E+00  0.00000000000E+00 -0.11129829889E+04  0.11129829889E+04  0.25500000920E-02 0.  1.
    10030    2    1    2    0    0  0.00000000000E+00  0.00000000000E+00 -0.87671224876E+03  0.13492537290E+04  0.10256028755E+04 0.  0.
        5    1    3    3  502    0  0.11789078830E+03 -0.42200020961E+03 -0.78880419901E+03  0.90233949778E+03  0.46999998093E+01 0.  1.
       -5    1    3    3    0  502 -0.11789078830E+03  0.42200020961E+03 -0.87908049749E+02  0.44691423124E+03  0.46999998093E+01 0. -1.
</event>
<event>
 5   0  0.8968798E-03  0.9647632E+03  0.7818609E-02  0.9348059E-01
       -2   -1    0    0    0  501  0.00000000000E+00  0.00000000000E+00  0.11121523516E+03  0.11121523519E+03  0.25500000920E-02 0. -1.
        2   -1    0    0  501    0  0.00000000000E+00  0.00000000000E+00 -0.20922673247E+04  0.20922673247E+04  0.25500000920E-02 0.  1.
    10030    2    1    2    0    0  0.00000000000E+00  0.00000000000E+00 -0.19810520895E+04  0.22034825598E+04  0.96476318869E+03 0.  0.
        2    1    3    3  502    0  0.22230598171E+03 -0.28370630789E+03 -0.17227586804E+04  0.17600587177E+04  0.25500000920E-02 0.  1.
       -2    1    3    3    0  502 -0.22230598171E+03  0.28370630789E+03 -0.25829340907E+03  0.44342384218E+03  0.25500000920E-02 0. -1.
</event>
<event>
 5   0  0.5310275E-03  0.1000173E+04  0.7818609E-02  0.9308355E-01
       -1   -1    0    0    0  501  0.00000000000E+00  0.00000000000E+00  0.92466880663E+03  0.92466880664E+03  0.50400001928E-02 0.  1.
        1   -1    0    0  501    0  0.00000000000E+00  0.00000000000E+00 -0.27046044223E+03  0.27046044228E+03  0.50400001928E-02 0. -1.
    10030    2    1    2    0    0  0.00000000000E+00  0.00000000000E+00  0.65420836440E+03  0.11951292489E+04  0.10001726539E+04 0.  0.
        1    1    3    3  502    0  0.40491122405E+03  0.20999994512E+03  0.82120912866E+02  0.46346188697E+03  0.50400001928E-02 0. -1.
       -1    1    3    3    0  502 -0.40491122405E+03 -0.20999994512E+03  0.57208745153E+03  0.73166736195E+03  0.50400001928E-02 0.  1.
</event>
<event>
 5   0  0.8907355E-03  0.9954078E+03  0.7818609E-02  0.9313596E-01
       -2   -1    0    0    0  501  0.00000000000E+00  0.00000000000E+00  0.67706313454E+03  0.67706313454E+03  0.25500000920E-02 0.  1.
        2   -1    0    0  501    0  0.00000000000E+00  0.00000000000E+00 -0.36585833940E+03  0.36585833941E+03  0.25500000920E-02 0. -1.
    10030    2    1    2    0    0  0.00000000000E+00  0.00000000000E+00  0.31120479513E+03  0.10429214740E+04  0.99540784421E+03 0.  0.
        5    1    3    3  502    0  0.22023093544E+03 -0.38412942651E+03 -0.82465978515E+02  0.45042181213E+03  0.46999998093E+01 0. -1.
       -5    1    3    3    0  502 -0.22023093544E+03  0.38412942651E+03  0.39367077365E+03  0.59249966182E+03  0.46999998093E+01 0.  1.
</event>
<event>
 5   0  0.8907355E-03  0.9952451E+03  0.7818609E-02  0.9313775E-01
       -2   -1    0    0    0  501  0.00000000000E+00  0.00000000000E+00  0.10267872876E+04  0.10267872876E+04  0.25500000920E-02 0. -1.
        2   -1    0    0  501    0  0.00000000000E+00  0.00000000000E+00 -0.24116795398E+03  0.24116795400E+03  0.25500000920E-02 0.  1.
    10030    2    1    2    0    0  0.00000000000E+00  0.00000000000E+00  0.78561933364E+03  0.12679552416E+04  0.99524507403E+03 0.  0.
        5    1    3    3  502    0 -0.32271071479E+02  0.21547608135E+03  0.96275752063E+03  0.98711473356E+03  0.46999998093E+01 0. -1.
       -5    1    3    3    0  502  0.32271071479E+02 -0.21547608135E+03 -0.17713818698E+03  0.28084050807E+03  0.46999998093E+01 0.  1.
</event>
<event>
 5   0  0.9243773E-03  0.9806567E+03  0.7818609E-02  0.9330018E-01
        2   -1    0    0  501    0  0.00000000000E+00  0.00000000000E+00  0.13221450380E+04  0.13221450380E+04  0.25500000920E-02 0.  1.
       -2   -1    0    0    0  501  0.00000000000E+00  0.00000000000E+00 -0.18184227866E+03  0.18184227868E+03  0.25500000920E-02 0. -1.
    10030    2    1    2    0    0  0.00000000000E+00  0.00000000000E+00  0.11403027594E+04  0.15039873167E+04  0.98065665031E+03 0.  0.
        3    1    3    3  502    0  0.57935028254E+02 -0.61960789767E+02 -0.17050353675E+03  0.19043915882E+03  0.10100000352E+00 0. -1.
       -3    1    3    3    0  502 -0.57935028254E+02  0.61960789767E+02  0.13108062961E+04  0.13135481579E+04  0.10100000352E+00 0.  1.
</event>
<event>
 5   0  0.3513625E-03  0.1006245E+04  0.7818609E-02  0.9301721E-01
       -4   -1    0    0    0  501  0.00000000000E+00  0.00000000000E+00  0.94733425626E+03  0.94733510754E+03  0.12699999809E+01 0.  1.
        4   -1    0    0  501    0  0.00000000000E+00  0.00000000000E+00 -0.26720254670E+03  0.26720556480E+03  0.12699999809E+01 0. -1.
    10030    2    1    2    0    0  0.00000000000E+00  0.00000000000E+00  0.68013170956E+03  0.12145406723E+04  0.10062454484E+04 0.  0.
        5    1    3    3  502    0 -0.26842026216E+02 -0.82167523952E+02  0.93827941659E+03  0.94226447984E+03  0.46999998093E+01 0.  1.
       -5    1    3    3    0  502  0.26842026216E+02  0.82167523952E+02 -0.25814770703E+03  0.27227619251E+03  0.46999998093E+01 0. -1.
</event>
<event>
 5   0  0.5072205E-03  0.9876992E+03  0.7818609E-02  0.9322140E-01
       -1   -1    0    0    0  501  0.00000000000E+00  0.00000000000E+00  0.22176055765E+03  0.22176055771E+03  0.50400001928E-02 0.  1.
        1   -1    0    0  501    0  0.00000000000E+00  0.00000000000E+00 -0.10997781586E+04  0.10997781586E+04  0.50400001928E-02 0. -1.
    10030    2    1    2    0    0  0.00000000000E+00  0.00000000000E+00 -0.87801760090E+03  0.13215387163E+04  0.98769918049E+03 0.  0.
        5    1    3    3  502    0 -0.11805018099E+03 -0.21134911327E+03 -0.10149090150E+04  0.10433919166E+04  0.46999998093E+01 0. -1.
       -5    1    3    3    0  502  0.11805018099E+03  0.21134911327E+03  0.13689141410E+03  0.27814679967E+03  0.46999998093E+01 0.  1.
</event>
<event>
 5   0  0.8968798E-03  0.9999674E+03  0.7818609E-02  0.9308581E-01
        2   -1    0    0  501    0  0.00000000000E+00  0.00000000000E+00  0.83538111792E+03  0.83538111792E+03  0.25500000920E-02 0.  1.
       -2   -1    0    0    0  501  0.00000000000E+00  0.00000000000E+00 -0.29924508880E+03  0.29924508881E+03  0.25500000920E-02 0. -1.
    10030    2    1    2    0    0  0.00000000000E+00  0.00000000000E+00  0.53613602912E+03  0.11346262067E+04  0.99996739311E+03 0.  0.
        2    1    3    3  502    0  0.13801818896E+03  0.44143452848E+02 -0.27489652501E+03  0.31075032483E+03  0.25500000920E-02 0. -1.
       -2    1    3    3    0  502 -0.13801818896E+03 -0.44143452848E+02  0.81103255413E+03  0.82387588190E+03  0.25500000920E-02 0.  1.
</event>
<event>
 5   0  0.9040674E-03  0.9358553E+03  0.7818609E-02  0.9381838E-01
        2   -1    0    0  501    0  0.00000000000E+00  0.00000000000E+00  0.10184904216E+04  0.10184904216E+04  0.25500000920E-02 0. -1.
       -2   -1    0    0    0  501  0.00000000000E+00  0.00000000000E+00 -0.21498118130E+03  0.21498118131E+03  0.25500000920E-02 0.  1.
    10030    2    1    2    0    0  0.00000000000E+00  0.00000000000E+00  0.80350924032E+03  0.12334716029E+04  0.93585527511E+03 0.  0.
        1    1    3    3  502    0  0.21994979425E+03 -0.25513004393E+03  0.82982973340E+03  0.89559289734E+03  0.50400001928E-02 0. -1.
       -1    1    3    3    0  502 -0.21994979425E+03  0.25513004393E+03 -0.26320493079E+02  0.33787870559E+03  0.50400001928E-02 0.  1.
</event>
<event>
 5   0  0.5201968E-03  0.1018152E+04  0.7818609E-02  0.9288857E-01
       -1   -1    0    0    0  501  0.00000000000E+00  0.00000000000E+00  0.34594713557E+03  0.34594713561E+03  0.50400001928E-02 0.  1.
        1   -1    0    0  501    0  0.00000000000E+00  0.00000000000E+00 -0.74912704082E+03  0.74912704084E+03  0.50400001928E-02 0. -1.
    10030    2    1    2    0    0  0.00000000000E+00  0.00000000000E+00 -0.40317990525E+03  0.10950741764E+04  0.10181519611E+04 0.  0.
        2    1    3    3  502    0  0.44854051411E+03 -0.28492168924E+02 -0.45872974339E+03  0.64220975854E+03  0.25500000920E-02 0. -1.
       -2    1    3    3    0  502 -0.44854051411E+03  0.28492168924E+02  0.55549838144E+02  0.45286441791E+03  0.25500000920E-02 0.  1.
</event>
<event>
 5   0  0.5189877E-03  0.1011927E+04  0.7818609E-02  0.9295559E-01
       -1   -1    0    0    0  501  0.00000000000E+00  0.00000000000E+00  0.64499134916E+03  0.64499134918E+03  0.50400001928E-02 0. -1.
        1   -1    0    0  501    0  0.00000000000E+00  0.00000000000E+00 -0.39690332011E+03  0.39690332014E+03  0.50400001928E-02 0.  1.
    10030    2    1    2    0    0  0.00000000000E+00  0.00000000000E+00  0.24808802905E+03  0.10418946693E+04  0.10119272858E+04 0.  0.
        3    1    3    3  502    0 -0.29053505378E+03 -0.28962544274E+03  0.42896574620E+03  0.59355297672E+03  0.10100000352E+00 0. -1.
       -3    1    3    3    0  502  0.29053505378E+03  0.28962544274E+03 -0.18087771715E+03  0.44834169260E+03  0.10100000352E+00 0.  1.
</event>
<event>
 5   0  0.8968798E-03  0.1003939E+04  0.7818609E-02  0.9304235E-01
       -2   -1    0    0    0  501  0.00000000000E+00  0.00000000000E+00  0.40827943488E+03  0.40827943489E+03  0.25500000920E-02 0. -1.
        2   -1    0    0  501    0  0.00000000000E+00  0.00000000000E+00 -0.61715869277E+03  0.61715869277E+03  0.25500000920E-02 0.  1.
    10030    2    1    2    0    0  0.00000000000E+00  0.00000000000E+00 -0.20887925789E+03  0.10254381277E+04  0.10039386482E+04 0.  0.
        2    1    3    3  502    0 -0.12133660038E+03  0.22423732376E+03 -0.54609775406E+03  0.60268375202E+03  0.25500000920E-02 0.  1.
       -2    1    3    3    0  502  0.12133660038E+03 -0.22423732376E+03  0.33721849617E+03  0.42275437564E+03  0.25500000920E-02 0. -1.
</event>
<event>
 5   0  0.5310275E-03  0.9815518E+03  0.7818609E-02  0.9329013E-01
        1   -1    0    0  501    0  0.00000000000E+00  0.00000000000E+00  0.13423973002E+04  0.13423973002E+04  0.50400001928E-02 0. -1.
       -1   -1    0    0    0  501  0.00000000000E+00  0.00000000000E+00 -0.17942601105E+03  0.17942601112E+03  0.50400001928E-02 0.  1.
    10030    2    1    2    0    0  0.00000000000E+00  0.00000000000E+00  0.11629712891E+04  0.15218233113E+04  0.98155181805E+03 0.  0.
        1    1    3    3  502    0 -0.67373074738E+01 -0.10070749293E+03 -0.16316050734E+03  0.19185604402E+03  0.50400001928E-02 0.  1.
       -1    1    3    3    0  502  0.67373074738E+01  0.10070749293E+03  0.13261317965E+04  0.13299672673E+04  0.50400001928E-02 0. -1.
</event>
<event>
 5   0  0.5310275E-03  0.9619405E+03  0.7818609E-02  0.9351302E-01
        1   -1    0    0  501    0  0.00000000000E+00  0.00000000000E+00  0.47610544425E+03  0.47610544428E+03  0.50400001928E-02 0.  1.
       -1   -1    0    0    0  501  0.00000000000E+00  0.00000000000E+00 -0.48588480394E+03  0.48588480397E+03  0.50400001928E-02 0. -1.
    10030    2    1    2    0    0  0.00000000000E+00  0.00000000000E+00 -0.97793596876E+01  0.96199024825E+03  0.96194053967E+03 0.  0.
        1    1    3    3  502    0 -0.21182020924E+03 -0.14154023518E+03 -0.41287027057E+03  0.48514255592E+03  0.50400001928E-02 0. -1.
       -1    1    3    3    0  502  0.21182020924E+03  0.14154023518E+03  0.40309091089E+03  0.47684769233E+03  0.50400001928E-02 0.  1.
</event>
<event>
 5   0  0.5201968E-03  0.9989179E+03  0.7818609E-02  0.9309732E-01
       -1   -1    0    0    0  501  0.00000000000E+00  0.00000000000E+00  0.50574340371E+03  0.50574340373E+03  0.50400001928E-02 0. -1.
        1   -1    0    0  501    0  0.00000000000E+00  0.00000000000E+00 -0.49325262665E+03  0.49325262667E+03  0.50400001928E-02 0.  1.
    10030    2    1    2    0    0  0.00000000000E+00  0.00000000000E+00  0.12490777057E+02  0.99899603040E+03  0.99891793920E+03 0.  0.
        2    1    3    3  502    0  0.17486100357E+03  0.43119036554E+03  0.18780230412E+03  0.50176808124E+03  0.25500000920E-02 0. -1.
       -2    1    3    3    0  502 -0.17486100357E+03 -0.43119036554E+03 -0.17531152707E+03  0.49722794917E+03  0.25500000920E-02 0.  1.
</event>
<event>
 5   0  0.8875655E-03  0.1007654E+04  0.7818609E-02  0.9300190E-01
       -2   -1    0    0    0  501  0.00000000000E+00  0.00000000000E+00  0.52654326655E+03  0.52654326655E+03  0.25500000920E-02 0.  1.
        2   -1    0    0  501    0  0.00000000000E+00  0.00000000000E+00 -0.48209081482E+03  0.48209081482E+03  0.25500000920E-02 0. -1.
    10030    2    1    2    0    0  0.00000000000E+00  0.00000000000E+00  0.44452451730E+02  0.10086340814E+04  0.10076540526E+04 0.  0.
        4    1    3    3  502    0  0.90656619275E+02 -0.15753248832E+03 -0.44812966479E+03  0.48358754829E+03  0.12699999809E+01 0. -1.
       -4    1    3    3    0  502 -0.90656619275E+02  0.15753248832E+03  0.49258211652E+03  0.52504653309E+03  0.12699999809E+01 0.  1.
</event>
<event>
 5   0  0.3513625E-03  0.9943915E+03  0.7818609E-02  0.9314718E-01
       -4   -1    0    0    0  501  0.00000000000E+00  0.00000000000E+00  0.53194893036E+03  0.53195044638E+03  0.12699999809E+01 0.  1.
        4   -1    0    0  501    0  0.00000000000E+00  0.00000000000E+00 -0.46471001135E+03  0.46471174673E+03  0.12699999809E+01 0. -1.
    10030    2    1    2    0    0  0.00000000000E+00  0.00000000000E+00  0.67238919007E+02  0.99666219311E+03  0.99439149984E+03 0.  0.
        2    1    3    3  502    0  0.37466653288E+03  0.76875163634E+02 -0.28478317018E+03  0.47685034934E+03  0.25500000920E-02 0. -1.
       -2    1    3    3    0  502 -0.37466653288E+03 -0.76875163634E+02  0.35202208919E+03  0.51981184377E+03  0.25500000920E-02 0.  1.
</event>
<event>
 5   0  0.8875655E-03  0.9694980E+03  0.7818609E-02  0.9342646E-01
        2   -1    0    0  501    0  0.00000000000E+00  0.00000000000E+00  0.83892851242E+03  0.83892851243E+03  0.25500000920E-02 0.  1.
       -2   -1    0    0    0  501  0.00000000000E+00  0.00000000000E+00 -0.28009728840E+03  0.28009728842E+03  0.25500000920E-02 0. -1.
    10030    2    1    2    0    0  0.00000000000E+00  0.00000000000E+00  0.55883122402E+03  0.11190258008E+04  0.96949801754E+03 0.  0.
        4    1    3    3  502    0  0.43441389315E+03 -0.55727255736E+02  0.39626744057E+02  0.43976453851E+03  0.12699999809E+01 0. -1.
       -4    1    3    3    0  502 -0.43441389315E+03  0.55727255736E+02  0.51920447996E+03  0.67926126233E+03  0.12699999809E+01 0.  1.
</event>
<event>
 5   0  0.9040674E-03  0.9942355E+03  0.7818609E-02  0.9314890E-01
       -2   -1    0    0    0  501  0.00000000000E+00  0.00000000000E+00  0.22330408206E+03  0.22330408207E+03  0.25500000920E-02 0.  1.
        2   -1    0    0  501    0  0.00000000000E+00  0.00000000000E+00 -0.11066796381E+04  0.11066796381E+04  0.25500000920E-02 0. -1.
    10030    2    1    2    0    0  0.00000000000E+00  0.00000000000E+00 -0.88337555600E+03  0.13299837201E+04  0.99423554698E+03 0.  0.
        1    1    3    3  502    0 -0.32259629359E+02 -0.36843876806E+03  0.26570464480E+01  0.36985790435E+03  0.50400001928E-02 0.  1.
       -1    1    3    3    0  502  0.32259629359E+02  0.36843876806E+03 -0.88603260245E+03  0.96012581578E+03  0.50400001928E-02 0. -1.
</event>
<event>
 5   0  0.8907355E-03  0.1004416E+04  0.7818609E-02  0.9303714E-01
        2   -1    0    0  501    0  0.00000000000E+00  0.00000000000E+00  0.21853821618E+03  0.21853821620E+03  0.25500000920E-02 0.  1.
       -2   -1    0    0    0  501  0.00000000000E+00  0.00000000000E+00 -0.11540912684E+04  0.11540912684E+04  0.25500000920E-02 0. -1.
    10030    2    1    2    0    0  0.00000000000E+00  0.00000000000E+00 -0.93555305220E+03  0.13726294846E+04  0.10044163422E+04 0.  0.
        5    1    3    3  502    0 -0.34332482830E+03 -0.30676743595E+03 -0.19373177251E+03  0.49953206820E+03  0.46999998093E+01 0.  1.
       -5    1    3    3    0  502  0.34332482830E+03  0.30676743595E+03 -0.74182127969E+03  0.87309741638E+03  0.46999998093E+01 0. -1.
</event>
<event>
 5   0  0.9243773E-03  0.1002745E+04  0.7818609E-02  0.9305539E-01
        2   -1    0    0  501    0  0.00000000000E+00  0.00000000000E+00  0.17400591024E+04  0.17400591024E+04  0.25500000920E-02 0. -1.
       -2   -1    0    0    0  501  0.00000000000E+00  0.00000000000E+00 -0.14446323708E+03  0.14446323711E+03  0.25500000920E-02 0.  1.
    10030    2    1    2    0    0  0.00000000000E+00  0.00000000000E+00  0.15955958653E+04  0.18845223395E+04  0.10027453728E+04 0.  0.
        3    1    3    3  502    0  0.13137326590E+03  0.20800835972E+03  0.16188195613E+04  0.16374074615E+04  0.10100000352E+00 0. -1.
       -3    1    3    3    0  502 -0.13137326590E+03 -0.20800835972E+03 -0.23223695933E+02  0.24711487807E+03  0.10100000352E+00 0.  1.
</event>
<event>
 5   0  0.8875655E-03  0.1003480E+04  0.7818609E-02  0.9304736E-01
       -2   -1    0    0    0  501  0.00000000000E+00  0.00000000000E+00  0.24669011114E+03  0.24669011115E+03  0.25500000920E-02 0. -1.
        2   -1    0    0  501    0  0.00000000000E+00  0.00000000000E+00 -0.10204823791E+04  0.10204823791E+04  0.25500000920E-02 0.  1.
    10030    2    1    2    0    0  0.00000000000E+00  0.00000000000E+00 -0.77379226795E+03  0.12671724902E+04  0.10034797686E+04 0.  0.
        4    1    3    3  502    0  0.65472472219E+02  0.49518973701E+03 -0.44668543162E+03  0.67009626769E+03  0.12699999809E+01 0. -1.
       -4    1    3    3    0  502 -0.65472472219E+02 -0.49518973701E+03 -0.32710683634E+03  0.59707622255E+03  0.12699999809E+01 0.  1.
</event>
<event>
 5   0  0.5189877E-03  0.1010332E+04  0.7818609E-02  0.9297285E-01
        1   -1    0    0  501    0  0.00000000000E+00  0.00000000000E+00  0.13407239317E+04  0.13407239317E+04  0.50400001928E-02 0. -1.
       -1   -1    0    0    0  501  0.00000000000E+00  0.00000000000E+00 -0.19033942016E+03  0.19033942023E+03  0.50400001928E-02 0.  1.
    10030    2    1    2    0    0  0.00000000000E+00  0.00000000000E+00  0.11503845115E+04  0.15310633519E+04  0.10103318580E+04 0.  0.
        3    1    3    3  502    0  0.46101939053E+03 -0.17500972013E+03  0.40901272611E+03  0.64067050885E+03  0.10100000352E+00 0.  1.
       -3    1    3    3    0  502 -0.46101939053E+03  0.17500972013E+03  0.74137178538E+03  0.89039284305E+03  0.10100000352E+00 0. -1.
</event>
<event>
 5   0  0.5201968E-03  0.1016585E+04  0.7818609E-02  0.9290540E-01
       -1   -1    0    0    0  501  0.00000000000E+00  0.00000000000E+00  0.40431228209E+03  0.40431228212E+03  0.50400001928E-02 0. -1.
        1   -1    0    0  501    0  0.00000000000E+00  0.00000000000E+00 -0.63901403060E+03  0.63901403062E+03  0.50400001928E-02 0.  1.
    10030    2    1    2    0    0  0.00000000000E+00  0.00000000000E+00 -0.23470174851E+03  0.10433263127E+04  0.10165849124E+04 0.  0.
        2    1    3    3  502    0 -0.26471100699E+03  0.41682582426E+03 -0.24112827710E+03  0.54950753499E+03  0.25500000920E-02 0.  1.
       -2    1    3    3    0  502  0.26471100699E+03 -0.41682582426E+03  0.64265285886E+01  0.49381877775E+03  0.25500000920E-02 0. -1.
</event>
<event>
 5   0  0.5189877E-03  0.9716586E+03  0.7818609E-02  0.9340187E-01
       -1   -1    0    0    0  501  0.00000000000E+00  0.00000000000E+00  0.14852723215E+04  0.14852723215E+04  0.50400001928E-02 0. -1.
        1   -1    0    0  501    0  0.00000000000E+00  0.00000000000E+00 -0.15891367849E+03  0.15891367857E+03  0.50400001928E-02 0.  1.
    10030    2    1    2    0    0  0.00000000000E+00  0.00000000000E+00  0.13263586430E+04  0.16441860001E+04  0.97165855780E+03 0.  0.
        3    1    3    3  502    0 -0.11949553839E+03  0.46896973398E+03  0.59102406085E+03  0.76388562350E+03  0.10100000352E+00 0.  1.
       -3    1    3    3    0  502  0.11949553839E+03 -0.46896973398E+03  0.73533458218E+03  0.88030037659E+03  0.10100000352E+00 0. -1.
</event>
<event>
 5   0  0.8875655E-03  0.1006219E+04  0.7818609E-02  0.9301750E-01
       -2   -1    0    0    0  501  0.00000000000E+00  0.00000000000E+00  0.17266416657E+03  0.17266416658E+03  0.25500000920E-02 0. -1.
        2   -1    0    0  501    0  0.00000000000E+00  0.00000000000E+00 -0.14659637498E+04  0.14659637498E+04  0.25500000920E-02 0.  1.
    10030    2    1    2    0    0  0.00000000000E+00  0.00000000000E+00 -0.12932995833E+04  0.16386279164E+04  0.10062194772E+04 0.  0.
        4    1    3    3  502    0 -0.70121921563E+02 -0.27433236242E+03 -0.13238833263E+04  0.13538256917E+04  0.12699999809E+01 0.  1.
       -4    1    3    3    0  502  0.70121921563E+02  0.27433236242E+03  0.30583743055E+02  0.28480222470E+03  0.12699999809E+01 0. -1.
</event>
<event>
 5   0  0.5310275E-03  0.1003244E+04  0.7818609E-02  0.9304994E-01
        1   -1    0    0  501    0  0.00000000000E+00  0.00000000000E+00  0.40162059797E+03  0.40162059800E+03  0.50400001928E-02 0.  1.
       -1   -1    0    0    0  501  0.00000000000E+00  0.00000000000E+00 -0.62652280532E+03  0.62652280534E+03  0.50400001928E-02 0. -1.
    10030    2    1    2    0    0  0.00000000000E+00  0.00000000000E+00 -0.22490220735E+03  0.10281434033E+04  0.10032436668E+04 0.  0.
        1    1    3    3  502    0  0.50109352467E+02  0.47125955853E+03  0.56031001313E+02  0.47721692325E+03  0.50400001928E-02 0. -1.
       -1    1    3    3    0  502 -0.50109352467E+02 -0.47125955853E+03 -0.28093320866E+03  0.55092648009E+03  0.50400001928E-02 0.  1.
</event>
<event>
 5   0  0.5072205E-03  0.8601024E+03  0.7818609E-02  0.9476877E-01
        1   -1    0    0  501    0  0.00000000000E+00  0.00000000000E+00  0.72967578865E+03  0.72967578867E+03  0.50400001928E-02 0.  1.
       -1   -1    0    0    0  501  0.00000000000E+00  0.00000000000E+00 -0.25346055962E+03  0.25346055967E+03  0.50400001928E-02 0. -1.
    10030    2    1    2    0    0  0.00000000000E+00  0.00000000000E+00  0.47621522903E+03  0.98313634834E+03  0.86010239802E+03 0.  0.
        5    1    3    3  502    0 -0.28877292150E+03 -0.31851071837E+03  0.22768984171E+03  0.48652197476E+03  0.46999998093E+01 0. -1.
       -5    1    3    3    0  502  0.28877292150E+03  0.31851071837E+03  0.24852538732E+03  0.49661437358E+03  0.46999998093E+01 0.  1.
</event>
<event>
 5   0  0.5310275E-03  0.1086701E+04  0.7818609E-02  0.9218252E-01
       -1   -1    0    0    0  501  0.00000000000E+00  0.00000000000E+00  0.33827765863E+03  0.33827765867E+03  0.50400001928E-02 0. -1.
        1   -1    0    0  501    0  0.00000000000E+00  0.00000000000E+00 -0.87274325535E+03  0.87274325536E+03  0.50400001928E-02 0.  1.
    10030    2    1    2    0    0  0.00000000000E+00  0.00000000000E+00 -0.53446559672E+03  0.12110209140E+04  0.10867005936E+04 0.  0.
        1    1    3    3  502    0 -0.40744622853E+02 -0.11416529332E+03  0.32301695201E+03  0.34501273861E+03  0.50400001928E-02 0. -1.
       -1    1    3    3    0  502  0.40744622853E+02  0.11416529332E+03 -0.85748254873E+03  0.86600817542E+03  0.50400001928E-02 0.  1.
</event>
<event>
 5   0  0.5201968E-03  0.9918184E+03  0.7818609E-02  0.9317564E-01
       -1   -1    0    0    0  501  0.00000000000E+00  0.00000000000E+00  0.37761829759E+03  0.37761829762E+03  0.50400001928E-02 0.  1.
        1   -1    0    0  501    0  0.00000000000E+00  0.00000000000E+00 -0.65125540253E+03  0.65125540255E+03  0.50400001928E-02 0. -1.
    10030    2    1    2    0    0  0.00000000000E+00  0.00000000000E+00 -0.27363710494E+03  0.10288737002E+04  0.99181844392E+03 0.  0.
        2    1    3    3  502    0  0.28470779043E+03 -0.40290943876E+03 -0.84625640190E+02  0.50055573192E+03  0.25500000920E-02 0.  1.
       -2    1    3    3    0  502 -0.28470779043E+03  0.40290943876E+03 -0.18901146475E+03  0.52831796826E+03  0.25500000920E-02 0. -1.
</event>
<event>
 5   0  0.8907355E-03  0.9832167E+03  0.7818609E-02  0.9327146E-01
       -2   -1    0    0    0  501  0.00000000000E+00  0.00000000000E+00  0.23959871223E+03  0.23959871225E+03  0.25500000920E-02 0.  1.
        2   -1    0    0  501    0  0.00000000000E+00  0.00000000000E+00 -0.10086814297E+04  0.10086814297E+04  0.25500000920E-02 0. -1.
    10030    2    1    2    0    0  0.00000000000E+00  0.00000000000E+00 -0.76908271743E+03  0.12482801419E+04  0.98321670371E+03 0.  0.
        5    1    3    3  502    0 -0.27930073138E+03 -0.36917955302E+03 -0.59452001179E+03  0.75351083293E+03  0.46999998093E+01 0. -1.
       -5    1    3    3    0  502  0.27930073138E+03  0.36917955302E+03 -0.17456270564E+03  0.49476930899E+03  0.46999998093E+01 0.  1.
</event>
<event>
 5   0  0.8875655E-03  0.9951497E+03  0.7818609E-02  0.9313881E-01
       -2   -1    0    0    0  501  0.00000000000E+00  0.00000000000E+00  0.18895712025E+03  0.18895712026E+03  0.25500000920E-02 0. -1.
        2   -1    0    0  501    0  0.00000000000E+00  0.00000000000E+00 -0.13102481778E+04  0.13102481778E+04  0.25500000920E-02 0.  1.
    10030    2    1    2    0    0  0.00000000000E+00  0.00000000000E+00 -0.11212910576E+04  0.14992052981E+04  0.99514968221E+03 0.  0.
        4    1    3    3  502    0 -0.32192660342E+03  0.27247518642E+03 -0.16291586705E+03  0.45213123962E+03  0.12699999809E+01 0. -1.
       -4    1    3    3    0  502  0.32192660342E+03 -0.27247518642E+03 -0.95837519052E+03  0.10470740585E+04  0.12699999809E+01 0.  1.
</event>
<event>
 5   0  0.5189877E-03  0.1085421E+04  0.7818609E-02  0.9219520E-01
        1   -1    0    0  501    0  0.00000000000E+00  0.00000000000E+00  0.91681635908E+03  0.91681635909E+03  0.50400001928E-02 0.  1.
       -1   -1    0    0    0  501  0.00000000000E+00  0.00000000000E+00 -0.32125786599E+03  0.32125786603E+03  0.50400001928E-02 0. -1.
    10030    2    1    2    0    0  0.00000000000E+00  0.00000000000E+00  0.59555849309E+03  0.12380742251E+04  0.10854205951E+04 0.  0.
        3    1    3    3  502    0 -0.13962196916E+03 -0.46576616424E+03  0.57272329655E+03  0.75129514748E+03  0.10100000352E+00 0. -1.
       -3    1    3    3    0  502  0.13962196916E+03  0.46576616424E+03  0.22835196543E+02  0.48677907764E+03  0.10100000352E+00 0.  1.
</event>
<event>
 5   0  0.5201968E-03  0.9966900E+03  0.7818609E-02  0.9312183E-01
        1   -1    0    0  501    0  0.00000000000E+00  0.00000000000E+00  0.70349629989E+03  0.70349629991E+03  0.50400001928E-02 0. -1.
       -1   -1    0    0    0  501  0.00000000000E+00  0.00000000000E+00 -0.35301922428E+03  0.35301922431E+03  0.50400001928E-02 0.  1.
    10030    2    1    2    0    0  0.00000000000E+00  0.00000000000E+00  0.35047707562E+03  0.10565155242E+04  0.99668995801E+03 0.  0.
        2    1    3    3  502    0  0.44567310035E+03 -0.22024254097E+03  0.21220936417E+03  0.54052206567E+03  0.25500000920E-02 0. -1.
       -2    1    3    3    0  502 -0.44567310035E+03  0.22024254097E+03  0.13826771144E+03  0.51599345855E+03  0.25500000920E-02 0.  1.
</event>
<event>
 5   0  0.8875655E-03  0.1005808E+04  0.7818609E-02  0.9302198E-01
       -2   -1    0    0    0  501  0.00000000000E+00  0.00000000000E+00  0.48680946480E+03  0.48680946481E+03  0.25500000920E-02 0. -1.
        2   -1    0    0  501    0  0.00000000000E+00  0.00000000000E+00 -0.51953046882E+03  0.51953046883E+03  0.25500000920E-02 0.  1.
    10030    2    1    2    0    0  0.00000000000E+00  0.00000000000E+00 -0.32721004020E+02  0.10063399336E+04  0.10058078335E+04 0.  0.
        4    1    3    3  502    0 -0.57074881486E+02 -0.48844599434E+03  0.88926841922E+02  0.49974656337E+03  0.12699999809E+01 0. -1.
       -4    1    3    3    0  502  0.57074881486E+02  0.48844599434E+03 -0.12164784594E+03  0.50659337027E+03  0.12699999809E+01 0.  1.
</event>
<event>
 5   0  0.5310275E-03  0.1006394E+04  0.7818609E-02  0.9301559E-01
       -1   -1    0    0    0  501  0.00000000000E+00  0.00000000000E+00  0.43306651590E+03  0.43306651593E+03  0.50400001928E-02 0.  1.
        1   -1    0    0  501    0  0.00000000000E+00  0.00000000000E+00 -0.58468482124E+03  0.58468482126E+03  0.50400001928E-02 0. -1.
    10030    2    1    2    0    0  0.00000000000E+00  0.00000000000E+00 -0.15161830534E+03  0.10177513372E+04  0.10063943928E+04 0.  0.
        1    1    3    3  502    0  0.32125863129E+03 -0.11843150600E+03 -0.44871729915E+03  0.56442921999E+03  0.50400001928E-02 0. -1.
       -1    1    3    3    0  502 -0.32125863129E+03  0.11843150600E+03  0.29709899381E+03  0.45332211720E+03  0.50400001928E-02 0.  1.
</event>
<event>
 5   0  0.9040674E-03  0.1004773E+04  0.7818609E-02  0.9303326E-01
       -2   -1    0    0    0  501  0.00000000000E+00  0.00000000000E+00  0.31861845292E+03  0.31861845294E+03  0.25500000920E-02 0. -1.
        2   -1    0    0  501    0  0.00000000000E+00  0.00000000000E+00 -0.79214494471E+03  0.79214494472E+03  0.25500000920E-02 0.  1.
    10030    2    1    2    0    0  0.00000000000E+00  0.00000000000E+00 -0.47352649179E+03  0.11107633977E+04  0.10047726047E+04 0.  0.
        1    1    3    3  502    0  0.20240613990E+03  0.35327251816E+03 -0.56212655631E+03  0.69408643762E+03  0.50400001928E-02 0. -1.
       -1    1    3    3    0  502 -0.20240613990E+03 -0.35327251816E+03  0.88600064521E+02  0.41667696003E+03  0.50400001928E-02 0.  1.
</event>
<event>
 5   0  0.5349685E-03  0.9938230E+03  0.7818609E-02  0.9315346E-01
       -1   -1    0    0    0  501  0.00000000000E+00  0.00000000000E+00  0.16431018790E+03  0.16431018798E+03  0.50400001928E-02 0.  1.
        1   -1    0    0  501    0  0.00000000000E+00  0.00000000000E+00 -0.15027737820E+04  0.15027737820E+04  0.50400001928E-02 0. -1.
    10030    2    1    2    0    0  0.00000000000E+00  0.00000000000E+00 -0.13384635941E+04  0.16670839700E+04  0.99382300752E+03 0.  0.
        4    1    3    3  502    0  0.56527497268E+02  0.30179533694E+03 -0.13246036643E+04  0.13597250692E+04  0.12699999809E+01 0. -1.
       -4    1    3    3    0  502 -0.56527497268E+02 -0.30179533694E+03 -0.13859929773E+02  0.30735890080E+03  0.12699999809E+01 0.  1.
</event>
<event>
 5   0  0.5310275E-03  0.9690351E+03  0.7818609E-02  0.9343174E-01
        1   -1    0    0  501    0  0.00000000000E+00  0.00000000000E+00  0.65752506818E+03  0.65752506820E+03  0.50400001928E-02 0. -1.
       -1   -1    0    0    0  501  0.00000000000E+00  0.00000000000E+00 -0.35703162450E+03  0.35703162454E+03  0.50400001928E-02 0.  1.
    10030    2    1    2    0    0  0.00000000000E+00  0.00000000000E+00  0.30049344367E+03  0.10145566927E+04  0.96903507320E+03 0.  0.
        1    1    3    3  502    0 -0.29494282091E+02 -0.58327490784E+02  0.65288826280E+03  0.65615172984E+03  0.50400001928E-02 0. -1.
       -1    1    3    3    0  502  0.29494282091E+02  0.58327490784E+02 -0.35239481912E+03  0.35840496289E+03  0.50400001928E-02 0.  1.
</event>
<event>
 5   0  0.9243773E-03  0.1008827E+04  0.7818609E-02  0.9298916E-01
       -2   -1    0    0    0  501  0.00000000000E+00  0.00000000000E+00  0.10431513259E+04  0.10431513260E+04  0.25500000920E-02 0. -1.
        2   -1    0    0  501    0  0.00000000000E+00  0.00000000000E+00 -0.24390800960E+03  0.24390800962E+03  0.25500000920E-02 0.  1.
    10030    2    1    2    0    0  0.00000000000E+00  0.00000000000E+00  0.79924331635E+03  0.12870593356E+04  0.10088269696E+04 0.  0.
        3    1    3    3  502    0 -0.12291039791E+03  0.37237983589E+03 -0.51487177591E+01  0.39217372119E+03  0.10100000352E+00 0.  1.
       -3    1    3    3    0  502  0.12291039791E+03 -0.37237983589E+03  0.80439203411E+03  0.89488561438E+03  0.10100000352E+00 0. -1.
</event>
<event>
 5   0  0.5072205E-03  0.8977030E+03  0.7818609E-02  0.9428457E-01
       -1   -1    0    0    0  501  0.00000000000E+00  0.00000000000E+00  0.65374707612E+03  0.65374707614E+03  0.50400001928E-02 0. -1.
        1   -1    0    0  501    0  0.00000000000E+00  0.00000000000E+00 -0.30817371391E+03  0.30817371395E+03  0.50400001928E-02 0.  1.
    10030    2    1    2    0    0  0.00000000000E+00  0.00000000000E+00  0.34557336221E+03  0.96192079009E+03  0.89770298971E+03 0.  0.
        5    1    3    3  502    0 -0.42293078496E+03  0.36774446679E+02  0.32888837972E+03  0.53704046878E+03  0.46999998093E+01 0. -1.
       -5    1    3    3    0  502  0.42293078496E+03 -0.36774446679E+02  0.16684982487E+02  0.42488032131E+03  0.46999998093E+01 0.  1.
</event>
<event>
 5   0  0.9243773E-03  0.9942885E+03  0.7818609E-02  0.9314831E-01
        2   -1    0    0  501    0  0.00000000000E+00  0.00000000000E+00  0.12307100313E+04  0.12307100313E+04  0.25500000920E-02 0. -1.
       -2   -1    0    0    0  501  0.00000000000E+00  0.00000000000E+00 -0.20082100560E+03  0.20082100561E+03  0.25500000920E-02 0.  1.
    10030    2    1    2    0    0  0.00000000000E+00  0.00000000000E+00  0.10298890257E+04  0.14315310369E+04  0.99428854181E+03 0.  0.
        3    1    3    3  502    0 -0.33987296160E+03 -0.36102072949E+03  0.46297719126E+03  0.67837857202E+03  0.10100000352E+00 0. -1.
       -3    1    3    3    0  502  0.33987296160E+03  0.36102072949E+03  0.56691183445E+03  0.75315246490E+03  0.10100000352E+00 0.  1.
</event>
<event>
 5   0  0.8875655E-03  0.9457135E+03  0.7818609E-02  0.9370175E-01
       -2   -1    0    0    0  501  0.00000000000E+00  0.00000000000E+00  0.24800621599E+03  0.24800621601E+03  0.25500000920E-02 0. -1.
        2   -1    0    0  501    0  0.00000000000E+00  0.00000000000E+00 -0.90156419041E+03  0.90156419042E+03  0.25500000920E-02 0.  1.
    10030    2    1    2    0    0  0.00000000000E+00  0.00000000000E+00 -0.65355797442E+03  0.11495704064E+04  0.94571353665E+03 0.  0.
        4    1    3    3  502    0  0.37085079826E+03 -0.22741886594E+03 -0.10151572152E+03  0.44671770703E+03  0.12699999809E+01 0.  1.
       -4    1    3    3    0  502 -0.37085079826E+03  0.22741886594E+03 -0.55204225290E+03  0.70285269940E+03  0.12699999809E+01 0. -1.
</event>
<event>
 5   0  0.9243773E-03  0.9689104E+03  0.7818609E-02  0.9343316E-01
       -2   -1    0    0    0  501  0.00000000000E+00  0.00000000000E+00  0.17499055448E+03  0.17499055450E+03  0.25500000920E-02 0.  1.
        2   -1    0    0  501    0  0.00000000000E+00  0.00000000000E+00 -0.13411971316E+04  0.13411971316E+04  0.25500000920E-02 0. -1.
    10030    2    1    2    0    0  0.00000000000E+00  0.00000000000E+00 -0.11662065771E+04  0.15161876861E+04  0.96891037716E+03 0.  0.
        3    1    3    3  502    0 -0.32756229108E+03  0.12880988304E+02 -0.11412786778E+04  0.11874257893E+04  0.10100000352E+00 0. -1.
       -3    1    3    3    0  502  0.32756229108E+03 -0.12880988304E+02 -0.24927899229E+02  0.32876189676E+03  0.10100000352E+00 0.  1.
</event>
<event>
 5   0  0.9040674E-03  0.1000567E+04  0.7818609E-02  0.9307923E-01
       -2   -1    0    0    0  501  0.00000000000E+00  0.00000000000E+00  0.15614085182E+03  0.15614085184E+03  0.25500000920E-02 0. -1.
        2   -1    0    0  501    0  0.00000000000E+00  0.00000000000E+00 -0.16029342511E+04  0.16029342511E+04  0.25500000920E-02 0.  1.
    10030    2    1    2    0    0  0.00000000000E+00  0.00000000000E+00 -0.14467933993E+04  0.17590751030E+04  0.10005668781E+04 0.  0.
        1    1    3    3  502    0  0.23898545414E+03  0.22624520260E+02  0.48272801838E+02  0.24485950998E+03  0.50400001928E-02 0. -1.
       -1    1    3    3    0  502 -0.23898545414E+03 -0.22624520260E+02 -0.14950662011E+04  0.15142155930E+04  0.50400001928E-02 0.  1.
</event>
<event>
 5   0  0.5201968E-03  0.9948710E+03  0.7818609E-02  0.9314188E-01
       -1   -1    0    0    0  501  0.00000000000E+00  0.00000000000E+00  0.20659395461E+03  0.20659395467E+03  0.50400001928E-02 0. -1.
        1   -1    0    0  501    0  0.00000000000E+00  0.00000000000E+00 -0.11977217724E+04  0.11977217724E+04  0.50400001928E-02 0.  1.
    10030    2    1    2    0    0  0.00000000000E+00  0.00000000000E+00 -0.99112781775E+03  0.14043157270E+04  0.99487100174E+03 0.  0.
        2    1    3    3  502    0 -0.32182449328E+03 -0.32737226153E+03 -0.22515437563E+03  0.51131017491E+03  0.25500000920E-02 0. -1.
       -2    1    3    3    0  502  0.32182449328E+03  0.32737226153E+03 -0.76597344212E+03  0.89300555213E+03  0.25500000920E-02 0.  1.
</event>
<event>
 5   0  0.5349685E-03  0.9948031E+03  0.7818609E-02  0.9314263E-01
        1   -1    0    0  501    0  0.00000000000E+00  0.00000000000E+00  0.39707405283E+03  0.39707405286E+03  0.50400001928E-02 0. -1.
       -1   -1    0    0    0  501  0.00000000000E+00  0.00000000000E+00 -0.62307847058E+03  0.62307847060E+03  0.50400001928E-02 0.  1.
    10030    2    1    2    0    0  0.00000000000E+00  0.00000000000E+00 -0.22600441775E+03  0.10201525235E+04  0.99480308317E+03 0.  0.
        4    1    3    3  502    0  0.27604555577E+03  0.27222680088E+03 -0.43254818496E+03  0.58086842330E+03  0.12699999809E+01 0.  1.
       -4    1    3    3    0  502 -0.27604555577E+03 -0.27222680088E+03  0.20654376721E+03  0.43928410016E+03  0.12699999809E+01 0. -1.
</event>
<event>
 5   0  0.8907355E-03  0.1018733E+04  0.7818609E-02  0.9288234E-01
       -2   -1    0    0    0  501  0.00000000000E+00  0.00000000000E+00  0.81914667559E+03  0.81914667560E+03  0.25500000920E-02 0. -1.
        2   -1    0    0  501    0  0.00000000000E+00  0.00000000000E+00 -0.31673713738E+03  0.31673713739E+03  0.25500000920E-02 0.  1.
    10030    2    1    2    0    0  0.00000000000E+00  0.00000000000E+00  0.50240953821E+03  0.11358838130E+04  0.10187328858E+04 0.  0.
        5    1    3    3  502    0  0.45168854529E+03  0.56234022024E+02 -0.36574210709E+01  0.45521453613E+03  0.46999998093E+01 0.  1.
       -5    1    3    3    0  502 -0.45168854529E+03 -0.56234022024E+02  0.50606695928E+03  0.68066927686E+03  0.46999998093E+01 0. -1.
</event>
<event>
 5   0  0.5310275E-03  0.1003971E+04  0.7818609E-02  0.9304200E-01
        1   -1    0    0  501    0  0.00000000000E+00  0.00000000000E+00  0.55526754960E+03  0.55526754963E+03  0.50400001928E-02 0. -1.
       -1   -1    0    0    0  501  0.00000000000E+00  0.00000000000E+00 -0.45381617583E+03  0.45381617586E+03  0.50400001928E-02 0.  1.
    10030    2    1    2    0    0  0.00000000000E+00  0.00000000000E+00  0.10145137377E+03  0.10090837255E+04  0.10039709078E+04 0.  0.
        1    1    3    3  502    0 -0.12084588638E+03 -0.36550171262E+03  0.37453739294E+03  0.53709728069E+03  0.50400001928E-02 0. -1.
       -1    1    3    3    0  502  0.12084588638E+03  0.36550171262E+03 -0.27308601917E+03  0.47198644480E+03  0.50400001928E-02 0.  1.
</event>
<event>
 5   0  0.5349685E-03  0.9896214E+03  0.7818609E-02  0.9320002E-01
       -1   -1    0    0    0  501  0.00000000000E+00  0.00000000000E+00  0.28699686195E+03  0.28699686199E+03  0.50400001928E-02 0.  1.
        1   -1    0    0  501    0  0.00000000000E+00  0.00000000000E+00 -0.85310204313E+03  0.85310204314E+03  0.50400001928E-02 0. -1.
    10030    2    1    2    0    0  0.00000000000E+00  0.00000000000E+00 -0.56610518118E+03  0.11400989051E+04  0.98962136059E+03 0.  0.
        4    1    3    3  502    0 -0.47494732873E+03  0.26974123595E+02 -0.43989060868E+03  0.64792586684E+03  0.12699999809E+01 0.  1.
       -4    1    3    3    0  502  0.47494732873E+03 -0.26974123595E+02 -0.12621457250E+03  0.49217303830E+03  0.12699999809E+01 0. -1.
</event>
<event>
 5   0  0.5072205E-03  0.1002552E+04  0.7818609E-02  0.9305750E-01
        1   -1    0    0  501    0  0.00000000000E+00  0.00000000000E+00  0.47714986936E+03  0.47714986939E+03  0.50400001928E-02 0. -1.
       -1   -1    0    0    0  501  0.00000000000E+00  0.00000000000E+00 -0.52662189298E+03  0.52662189301E+03  0.50400001928E-02 0.  1.
    10030    2    1    2    0    0  0.00000000000E+00  0.00000000000E+00 -0.49472023623E+02  0.10037717624E+04  0.10025518789E+04 0.  0.
        5    1    3    3  502    0  0.38525903496E+03 -0.17561609140E+03 -0.29337189938E+03  0.51512590395E+03  0.46999998093E+01 0.  1.
       -5    1    3    3    0  502 -0.38525903496E+03  0.17561609140E+03  0.24389987575E+03  0.48864585844E+03  0.46999998093E+01 0. -1.
</event>
<event>
 5   0  0.8875655E-03  0.1001311E+04  0.7818609E-02  0.9307108E-01
        2   -1    0    0  501    0  0.00000000000E+00  0.00000000000E+00  0.28409683511E+03  0.28409683512E+03  0.25500000920E-02 0. -1.
       -2   -1    0    0    0  501  0.00000000000E+00  0.00000000000E+00 -0.88228988873E+03  0.88228988873E+03  0.25500000920E-02 0.  1.
    10030    2    1    2    0    0  0.00000000000E+00  0.00000000000E+00 -0.59819305362E+03  0.11663867239E+04  0.10013106712E+04 0.  0.
        4    1    3    3  502    0 -0.18209683245E+03  0.92058693866E+02  0.23346248873E+03  0.31006516420E+03  0.12699999809E+01 0. -1.
       -4    1    3    3    0  502  0.18209683245E+03 -0.92058693866E+02 -0.83165554235E+03  0.85632155965E+03  0.12699999809E+01 0.  1.
</event>
<event>
 5   0  0.5310275E-03  0.1009428E+04  0.7818609E-02  0.9298265E-01
       -1   -1    0    0    0  501  0.00000000000E+00  0.00000000000E+00  0.80648372265E+03  0.80648372267E+03  0.50400001928E-02 0.  1.
        1   -1    0    0  501    0  0.00000000000E+00  0.00000000000E+00 -0.31586003450E+03  0.31586003454E+03  0.50400001928E-02 0. -1.
    10030    2    1    2    0    0  0.00000000000E+00  0.00000000000E+00  0.49062368815E+03  0.11223437572E+04  0.10094275140E+04 0.  0.
        1    1    3    3  502    0  0.52866681176E+02 -0.46382531104E+03  0.45862467456E+03  0.65441989371E+03  0.50400001928E-02 0.  1.
       -1    1    3    3    0  502 -0.52866681176E+02  0.46382531104E+03  0.31999013591E+02  0.46792386350E+03  0.50400001928E-02 0. -1.
</event>
<event>
 5   0  0.8968798E-03  0.9989913E+03  0.7818609E-02  0.9309652E-01
       -2   -1    0    0    0  501  0.00000000000E+00  0.00000000000E+00  0.20743642282E+03  0.20743642284E+03  0.25500000920E-02 0.  1.
        2   -1    0    0  501    0  0.00000000000E+00  0.00000000000E+00 -0.12027584320E+04  0.12027584320E+04  0.25500000920E-02 0. -1.
    10030    2    1    2    0    0  0.00000000000E+00  0.00000000000E+00 -0.99532200921E+03  0.14101948549E+04  0.99899130462E+03 0.  0.
        2    1    3    3  502    0 -0.13039578743E+03  0.23620788633E+03 -0.10910425974E+04  0.11239088825E+04  0.25500000920E-02 0. -1.
       -2    1    3    3    0  502  0.13039578743E+03 -0.23620788633E+03  0.95720588179E+02  0.28628597233E+03  0.25500000920E-02 0.  1.
</event>
<event>
 5   0  0.8907355E-03  0.8669225E+03  0.7818609E-02  0.9467901E-01
        2   -1    0    0  501    0  0.00000000000E+00  0.00000000000E+00  0.16545132496E+04  0.16545132496E+04  0.25500000920E-02 0. -1.
       -2   -1    0    0    0  501  0.00000000000E+00  0.00000000000E+00 -0.11356128398E+03  0.11356128401E+03  0.25500000920E-02 0.  1.
    10030    2    1    2    0    0  0.00000000000E+00  0.00000000000E+00  0.15409519656E+04  0.17680745336E+04  0.86692248563E+03 0.  0.
        5    1    3    3  502    0  0.39127413510E+03  0.16888030461E+03  0.60923348385E+03  0.74350758834E+03  0.46999998093E+01 0. -1.
       -5    1    3    3    0  502 -0.39127413510E+03 -0.16888030461E+03  0.93171848179E+03  0.10245669453E+04  0.46999998093E+01 0.  1.
</event>
<event>
 5   0  0.5189877E-03  0.9957725E+03  0.7818609E-02  0.9313194E-01
       -1   -1    0    0    0  501  0.00000000000E+00  0.00000000000E+00  0.36745971207E+03  0.36745971210E+03  0.50400001928E-02 0.  1.
        1   -1    0    0  501    0  0.00000000000E+00  0.00000000000E+00 -0.67460648436E+03  0.67460648438E+03  0.50400001928E-02 0. -1.
    10030    2    1    2    0    0  0.00000000000E+00  0.00000000000E+00 -0.30714677229E+03  0.10420661965E+04  0.99577247307E+03 0.  0.
        3    1    3    3  502    0  0.13432415397E+03  0.21221803652E+03  0.29630938296E+03  0.38843111873E+03  0.10100000352E+00 0.  1.
       -3    1    3    3    0  502 -0.13432415397E+03 -0.21221803652E+03 -0.60345615525E+03  0.65363507776E+03  0.10100000352E+00 0. -1.
</event>
<event>
 5   0  0.3513625E-03  0.9960210E+03  0.7818609E-02  0.9312920E-01
        3   -1    0    0  501    0  0.00000000000E+00  0.00000000000E+00  0.57921307549E+03  0.57921308430E+03  0.10100000352E+00 0. -1.
       -3   -1    0    0    0  501  0.00000000000E+00  0.00000000000E+00 -0.42819205316E+03  0.42819206507E+03  0.10100000352E+00 0.  1.
    10030    2    1    2    0    0  0.00000000000E+00  0.00000000000E+00  0.15102102233E+03  0.10074051494E+04  0.99602097658E+03 0.  0.
        4    1    3    3  502    0 -0.14896136103E+03 -0.68180924315E+02 -0.40015691608E+03  0.43239483797E+03  0.12699999809E+01 0.  1.
       -4    1    3    3    0  502  0.14896136103E+03  0.68180924315E+02  0.55117793841E+03  0.57501031140E+03  0.12699999809E+01 0. -1.
</event>
<event>
 5   0  0.5072205E-03  0.1003492E+04  0.7818609E-02  0.9304723E-01
        1   -1    0    0  501    0  0.00000000000E+00  0.00000000000E+00  0.10487903344E+04  0.10487903344E+04  0.50400001928E-02 0.  1.
       -1   -1    0    0    0  501  0.00000000000E+00  0.00000000000E+00 -0.24003763399E+03  0.24003763405E+03  0.50400001928E-02 0. -1.
    10030    2    1    2    0    0  0.00000000000E+00  0.00000000000E+00  0.80875270043E+03  0.12888279685E+04  0.10034922032E+04 0.  0.
        5    1    3    3  502    0 -0.34685672957E+03 -0.85586680778E+02  0.85680856797E+03  0.92831981715E+03  0.46999998093E+01 0.  1.
       -5    1    3    3    0  502  0.34685672957E+03  0.85586680778E+02 -0.48055867538E+02  0.36050815133E+03  0.46999998093E+01 0. -1.
</event>
<event>
 5   0  0.8968798E-03  0.9985248E+03  0.7818609E-02  0.9310164E-01
       -2   -1    0    0    0  501  0.00000000000E+00  0.00000000000E+00  0.96575787402E+03  0.96575787402E+03  0.25500000920E-02 0.  1.
        2   -1    0    0  501    0  0.00000000000E+00  0.00000000000E+00 -0.25810084732E+03  0.25810084733E+03  0.25500000920E-02 0. -1.
    10030    2    1    2    0    0  0.00000000000E+00  0.00000000000E+00  0.70765702670E+03  0.12238587213E+04  0.99852476303E+03 0.  0.
        2    1    3    3  502    0  0.16257464566E+03  0.25971245976E+03 -0.12931103514E+03  0.33256942280E+03  0.25500000920E-02 0. -1.
       -2    1    3    3    0  502 -0.16257464566E+03 -0.25971245976E+03  0.83696806184E+03  0.89128929855E+03  0.25500000920E-02 0.  1.
</event>
<event>
 5   0  0.5349685E-03  0.1007758E+04  0.7818609E-02  0.9300077E-01
        1   -1    0    0  501    0  0.00000000000E+00  0.00000000000E+00  0.56978803382E+03  0.56978803384E+03  0.50400001928E-02 0. -1.
       -1   -1    0    0    0  501  0.00000000000E+00  0.00000000000E+00 -0.44559398880E+03  0.44559398883E+03  0.50400001928E-02 0.  1.
    10030    2    1    2    0    0  0.00000000000E+00  0.00000000000E+00  0.12419404502E+03  0.10153820227E+04  0.10077581511E+04 0.  0.
        4    1    3    3  502    0 -0.32755369756E+03 -0.24038304445E+03  0.36237355259E+03  0.54441862327E+03  0.12699999809E+01 0. -1.
       -4    1    3    3    0  502  0.32755369756E+03  0.24038304445E+03 -0.23817950757E+03  0.47096339940E+03  0.12699999809E+01 0.  1.
</event>
<event>
 5   0  0.9243773E-03  0.9874486E+03  0.7818609E-02  0.9322419E-01
        2   -1    0    0  501    0  0.00000000000E+00  0.00000000000E+00  0.10605955218E+04  0.10605955219E+04  0.25500000920E-02 0. -1.
       -2   -1    0    0    0  501  0.00000000000E+00  0.00000000000E+00 -0.22983661047E+03  0.22983661049E+03  0.25500000920E-02 0.  1.
    10030    2    1    2    0    0  0.00000000000E+00  0.00000000000E+00  0.83075891138E+03  0.12904321323E+04  0.98744859073E+03 0.  0.
        3    1    3    3  502    0 -0.29630797235E+03  0.33299113434E+03  0.69285392561E+03  0.82384955087E+03  0.10100000352E+00 0. -1.
       -3    1    3    3    0  502  0.29630797235E+03 -0.33299113434E+03  0.13790498577E+03  0.46658258147E+03  0.10100000352E+00 0.  1.
</event>
<event>
 5   0  0.8907355E-03  0.1001030E+04  0.7818609E-02  0.9307416E-01
        2   -1    0    0  501    0  0.00000000000E+00  0.00000000000E+00  0.10320908122E+04  0.10320908122E+04  0.25500000920E-02 0.  1.
       -2   -1    0    0    0  501  0.00000000000E+00  0.00000000000E+00 -0.24272602989E+03  0.24272602990E+03  0.25500000920E-02 0. -1.
    10030    2    1    2    0    0  0.00000000000E+00  0.00000000000E+00  0.78936478227E+03  0.12748168421E+04  0.10010300801E+04 0.  0.
        5    1    3    3  502    0 -0.18287469222E+03 -0.66206752202E+02 -0.19260467908E+03  0.27376109930E+03  0.46999998093E+01 0. -1.
       -5    1    3    3    0  502  0.18287469222E+03  0.66206752202E+02  0.98196946134E+03  0.10010557428E+04  0.46999998093E+01 0.  1.
</event>
<event>
 5   0  0.8875655E-03  0.8914392E+03  0.7818609E-02  0.9436347E-01
        2   -1    0    0  501    0  0.00000000000E+00  0.00000000000E+00  0.33512517153E+03  0.33512517154E+03  0.25500000920E-02 0.  1.
       -2   -1    0    0    0  501  0.00000000000E+00  0.00000000000E+00 -0.59281116082E+03  0.59281116083E+03  0.25500000920E-02 0. -1.
    10030    2    1    2    0    0  0.00000000000E+00  0.00000000000E+00 -0.25768598930E+03  0.92793633237E+03  0.89143915544E+03 0.  0.
        4    1    3    3  502    0 -0.27935457213E+03 -0.89075713138E+00 -0.49037299534E+03  0.56436429536E+03  0.12699999809E+01 0. -1.
       -4    1    3    3    0  502  0.27935457213E+03  0.89075713138E+00  0.23268700604E+03  0.36357203701E+03  0.12699999809E+01 0.  1.
</event>
<event>
 5   0  0.5349685E-03  0.9874685E+03  0.7818609E-02  0.9322397E-01
        1   -1    0    0  501    0  0.00000000000E+00  0.00000000000E+00  0.69645723182E+03  0.69645723184E+03  0.50400001928E-02 0. -1.
       -1   -1    0    0    0  501  0.00000000000E+00  0.00000000000E+00 -0.35001938311E+03  0.35001938314E+03  0.50400001928E-02 0.  1.
    10030    2    1    2    0    0  0.00000000000E+00  0.00000000000E+00  0.34643784871E+03  0.10464766150E+04  0.98746854263E+03 0.  0.
        4    1    3    3  502    0 -0.79196096526E+02 -0.12266809151E+03 -0.32661397791E+03  0.35776778201E+03  0.12699999809E+01 0.  1.
       -4    1    3    3    0  502  0.79196096526E+02  0.12266809151E+03  0.67305182663E+03  0.68870883296E+03  0.12699999809E+01 0. -1.
</event>
<event>
 5   0  0.9040674E-03  0.9994476E+03  0.7818609E-02  0.9309151E-01
       -2   -1    0    0    0  501  0.00000000000E+00  0.00000000000E+00  0.10833317047E+03  0.10833317050E+03  0.25500000920E-02 0. -1.
        2   -1    0    0  501    0  0.00000000000E+00  0.00000000000E+00 -0.23051469976E+04  0.23051469976E+04  0.25500000920E-02 0.  1.
    10030    2    1    2    0    0  0.00000000000E+00  0.00000000000E+00 -0.21968138271E+04  0.24134801681E+04  0.99944761279E+03 0.  0.
        1    1    3    3  502    0 -0.37067819302E+03  0.10919987204E+03 -0.18635522833E+04  0.19031957460E+04  0.50400001928E-02 0.  1.
       -1    1    3    3    0  502  0.37067819302E+03 -0.10919987204E+03 -0.33326154377E+03  0.51028442207E+03  0.50400001928E-02 0. -1.
</event>
<event>
 5   0  0.5349685E-03  0.9946201E+03  0.7818609E-02  0.9314465E-01
        1   -1    0    0  501    0  0.00000000000E+00  0.00000000000E+00  0.40755726333E+03  0.40755726336E+03  0.50400001928E-02 0.  1.
       -1   -1    0    0    0  501  0.00000000000E+00  0.00000000000E+00 -0.60682829989E+03  0.60682829992E+03  0.50400001928E-02 0. -1.
    10030    2    1    2    0    0  0.00000000000E+00  0.00000000000E+00 -0.19927103657E+03  0.10143855633E+04  0.99462009077E+03 0.  0.
        4    1    3    3  502    0 -0.23390601690E+03  0.29599936998E+03 -0.43009308280E+03  0.57210953894E+03  0.12699999809E+01 0. -1.
       -4    1    3    3    0  502  0.23390601690E+03 -0.29599936998E+03  0.23082204624E+03  0.44227602433E+03  0.12699999809E+01 0.  1.
</event>
<event>
 5   0  0.8875655E-03  0.9891858E+03  0.7818609E-02  0.9320486E-01
       -2   -1    0    0    0  501  0.00000000000E+00  0.00000000000E+00  0.20351289823E+03  0.20351289825E+03  0.25500000920E-02 0.  1.
        2   -1    0    0  501    0  0.00000000000E+00  0.00000000000E+00 -0.12019982520E+04  0.12019982520E+04  0.25500000920E-02 0. -1.
    10030    2    1    2    0    0  0.00000000000E+00  0.00000000000E+00 -0.99848535380E+03  0.14055111503E+04  0.98918582269E+03 0.  0.
        4    1    3    3  502    0 -0.38576759938E+02  0.43530220758E+03 -0.82833551642E+03  0.93654552426E+03  0.12699999809E+01 0. -1.
       -4    1    3    3    0  502  0.38576759938E+02 -0.43530220758E+03 -0.17014983737E+03  0.46896562603E+03  0.12699999809E+01 0.  1.
</event>
<event>
 5   0  0.5310275E-03  0.9786852E+03  0.7818609E-02  0.9332236E-01
       -1   -1    0    0    0  501  0.00000000000E+00  0.00000000000E+00  0.43982158165E+03  0.43982158168E+03  0.50400001928E-02 0.  1.
        1   -1    0    0  501    0  0.00000000000E+00  0.00000000000E+00 -0.54443939451E+03  0.54443939454E+03  0.50400001928E-02 0. -1.
    10030    2    1    2    0    0  0.00000000000E+00  0.00000000000E+00 -0.10461781286E+03  0.98426097621E+03  0.97868523159E+03 0.  0.
        1    1    3    3  502    0 -0.36154184294E+03  0.22167380143E+03  0.19322216254E+03  0.46603281275E+03  0.50400001928E-02 0.  1.
       -1    1    3    3    0  502  0.36154184294E+03 -0.22167380143E+03 -0.29783997541E+03  0.51822816347E+03  0.50400001928E-02 0. -1.
</event>
<event>
 5   0  0.8907355E-03  0.7629657E+03  0.7818609E-02  0.9615226E-01
       -2   -1    0    0    0  501  0.00000000000E+00  0.00000000000E+00  0.15236369830E+03  0.15236369833E+03  0.25500000920E-02 0. -1.
        2   -1    0    0  501    0  0.00000000000E+00  0.00000000000E+00 -0.95514324713E+03  0.95514324714E+03  0.25500000920E-02 0.  1.
    10030    2    1    2    0    0  0.00000000000E+00  0.00000000000E+00 -0.80277954883E+03  0.11075069455E+04  0.76296568090E+03 0.  0.
        5    1    3    3  502    0  0.31856973939E+03 -0.13625494110E+03 -0.16979549224E+03  0.38588170080E+03  0.46999998093E+01 0. -1.
       -5    1    3    3    0  502 -0.31856973939E+03  0.13625494110E+03 -0.63298405660E+03  0.72162524466E+03  0.46999998093E+01 0.  1.
</event>
<event>
 5   0  0.8907355E-03  0.1003036E+04  0.7818609E-02  0.9305222E-01
        2   -1    0    0  501    0  0.00000000000E+00  0.00000000000E+00  0.17544474910E+04  0.17544474910E+04  0.25500000920E-02 0. -1.
       -2   -1    0    0    0  501  0.00000000000E+00  0.00000000000E+00 -0.14336143283E+03  0.14336143285E+03  0.25500000920E-02 0.  1.
    10030    2    1    2    0    0  0.00000000000E+00  0.00000000000E+00  0.16110860582E+04  0.18978089239E+04  0.10030356049E+04 0.  0.
        5    1    3    3  502    0 -0.10689196571E+03  0.10473783659E+03  0.17111727754E+04  0.17177107626E+04  0.46999998093E+01 0. -1.
       -5    1    3    3    0  502  0.10689196571E+03 -0.10473783659E+03 -0.10008671718E+03  0.18009816129E+03  0.46999998093E+01 0.  1.
</event>
<event>
 5   0  0.8968798E-03  0.9827605E+03  0.7818609E-02  0.9327658E-01
       -2   -1    0    0    0  501  0.00000000000E+00  0.00000000000E+00  0.64073421419E+03  0.64073421419E+03  0.25500000920E-02 0. -1.
        2   -1    0    0  501    0  0.00000000000E+00  0.00000000000E+00 -0.37684038634E+03  0.37684038635E+03  0.25500000920E-02 0.  1.
    10030    2    1    2    0    0  0.00000000000E+00  0.00000000000E+00  0.26389382784E+03  0.10175746005E+04  0.98276045672E+03 0.  0.
        2    1    3    3  502    0 -0.13435513807E+03 -0.11632824406E+03 -0.34239856401E+03  0.38577239421E+03  0.25500000920E-02 0.  1.
       -2    1    3    3    0  502  0.13435513807E+03  0.11632824406E+03  0.60629239186E+03  0.63180220633E+03  0.25500000920E-02 0. -1.
</event>
<event>
 5   0  0.8968798E-03  0.9940678E+03  0.7818609E-02  0.9315075E-01
       -2   -1    0    0    0  501  0.00000000000E+00  0.00000000000E+00  0.26456292835E+03  0.26456292837E+03  0.25500000920E-02 0. -1.
        2   -1    0    0  501    0  0.00000000000E+00  0.00000000000E+00 -0.93377673565E+03  0.93377673566E+03  0.25500000920E-02 0.  1.
    10030    2    1    2    0    0  0.00000000000E+00  0.00000000000E+00 -0.66921380730E+03  0.11983396640E+04  0.99406781986E+03 0.  0.
        2    1    3    3  502    0 -0.19412607999E+03  0.17974426543E+02 -0.88576108239E+03  0.90696235314E+03  0.25500000920E-02 0.  1.
       -2    1    3    3    0  502  0.19412607999E+03 -0.17974426543E+02  0.21654727509E+03  0.29137731088E+03  0.25500000920E-02 0. -1.
</event>
<event>
 5   0  0.9040674E-03  0.1002201E+04  0.7818609E-02  0.9306134E-01
       -2   -1    0    0    0  501  0.00000000000E+00  0.00000000000E+00  0.56922657925E+03  0.56922657926E+03  0.25500000920E-02 0. -1.
        2   -1    0    0  501    0  0.00000000000E+00  0.00000000000E+00 -0.44112828946E+03  0.44112828946E+03  0.25500000920E-02 0.  1.
    10030    2    1    2    0    0  0.00000000000E+00  0.00000000000E+00  0.12809828980E+03  0.10103548687E+04  0.10022014712E+04 0.  0.
        1    1    3    3  502    0  0.35027752665E+02 -0.20164826862E+03  0.52516835470E+03  0.56364063773E+03  0.50400001928E-02 0. -1.
       -1    1    3    3    0  502 -0.35027752665E+02  0.20164826862E+03 -0.39707006491E+03  0.44671423099E+03  0.50400001928E-02 0.  1.
</event>
<event>
 5   0  0.5189877E-03  0.9652829E+03  0.7818609E-02  0.9347463E-01
       -1   -1    0    0    0  501  0.00000000000E+00  0.00000000000E+00  0.20342984870E+03  0.20342984877E+03  0.50400001928E-02 0. -1.
        1   -1    0    0  501    0  0.00000000000E+00  0.00000000000E+00 -0.11450766734E+04  0.11450766734E+04  0.50400001928E-02 0.  1.
    10030    2    1    2    0    0  0.00000000000E+00  0.00000000000E+00 -0.94164682471E+03  0.13485065222E+04  0.96528291081E+03 0.  0.
        3    1    3    3  502    0  0.12411232590E+03  0.24808255886E+03  0.80939233767E+02  0.28896365725E+03  0.10100000352E+00 0. -1.
       -3    1    3    3    0  502 -0.12411232590E+03 -0.24808255886E+03 -0.10225860585E+04  0.10595428649E+04  0.10100000352E+00 0.  1.
</event>
<event>
 5   0  0.5189877E-03  0.9997321E+03  0.7818609E-02  0.9308839E-01
        1   -1    0    0  501    0  0.00000000000E+00  0.00000000000E+00  0.78362255102E+03  0.78362255104E+03  0.50400001928E-02 0.  1.
       -1   -1    0    0    0  501  0.00000000000E+00  0.00000000000E+00 -0.31886023485E+03  0.31886023489E+03  0.50400001928E-02 0. -1.
    10030    2    1    2    0    0  0.00000000000E+00  0.00000000000E+00  0.46476231617E+03  0.11024827859E+04  0.99973210548E+03 0.  0.
        3    1    3    3  502    0  0.32058641155E+02 -0.30483018262E+03 -0.20306526063E+03  0.36767472987E+03  0.10100000352E+00 0. -1.
       -3    1    3    3    0  502 -0.32058641155E+02  0.30483018262E+03  0.66782757680E+03  0.73480805606E+03  0.10100000352E+00 0.  1.
</event>
<event>
 5   0  0.3513625E-03  0.9744725E+03  0.7818609E-02  0.9336995E-01
        3   -1    0    0  501    0  0.00000000000E+00  0.00000000000E+00  0.61339820129E+03  0.61339820961E+03  0.10100000352E+00 0.  1.
       -3   -1    0    0    0  501  0.00000000000E+00  0.00000000000E+00 -0.38702293004E+03  0.38702294322E+03  0.10100000352E+00 0. -1.
    10030    2    1    2    0    0  0.00000000000E+00  0.00000000000E+00  0.22637527125E+03  0.10004211528E+04  0.97447253404E+03 0.  0.
        2    1    3    3  502    0 -0.22700341535E+03 -0.35015413441E+00 -0.32941721370E+03  0.40005796315E+03  0.25500000920E-02 0. -1.
       -2    1    3    3    0  502  0.22700341535E+03  0.35015413441E+00  0.55579248495E+03  0.60036318968E+03  0.25500000920E-02 0.  1.
</event>
<event>
 5   0  0.9243773E-03  0.1016898E+04  0.7818609E-02  0.9290203E-01
        2   -1    0    0  501    0  0.00000000000E+00  0.00000000000E+00  0.56272949106E+03  0.56272949106E+03  0.25500000920E-02 0. -1.
       -2   -1    0    0    0  501  0.00000000000E+00  0.00000000000E+00 -0.45940415625E+03  0.45940415625E+03  0.25500000920E-02 0.  1.
    10030    2    1    2    0    0  0.00000000000E+00  0.00000000000E+00  0.10332533481E+03  0.10221336473E+04  0.10168977668E+04 0.  0.
        3    1    3    3  502    0 -0.25032474952E+03 -0.42229399368E+03  0.18472843312E+03  0.52451816129E+03  0.10100000352E+00 0.  1.
       -3    1    3    3    0  502  0.25032474952E+03  0.42229399368E+03 -0.81403098308E+02  0.49761548603E+03  0.10100000352E+00 0. -1.
</event>
<event>
 5   0  0.5310275E-03  0.1008875E+04  0.7818609E-02  0.9298864E-01
       -1   -1    0    0    0  501  0.00000000000E+00  0.00000000000E+00  0.36531615963E+03  0.36531615967E+03  0.50400001928E-02 0. -1.
        1   -1    0    0  501    0  0.00000000000E+00  0.00000000000E+00 -0.69654012606E+03  0.69654012608E+03  0.50400001928E-02 0.  1.
    10030    2    1    2    0    0  0.00000000000E+00  0.00000000000E+00 -0.33122396643E+03  0.10618562858E+04  0.10088753420E+04 0.  0.
        1    1    3    3  502    0  0.26254455608E+03  0.18114638514E+03 -0.57692006646E+03  0.65922713831E+03  0.50400001928E-02 0.  1.
       -1    1    3    3    0  502 -0.26254455608E+03 -0.18114638514E+03  0.24569610003E+03  0.40262914744E+03  0.50400001928E-02 0. -1.
</event>
<event>
 5   0  0.8968798E-03  0.1006397E+04  0.7818609E-02  0.9301557E-01
       -2   -1    0    0    0  501  0.00000000000E+00  0.00000000000E+00  0.18233436996E+03  0.18233436998E+03  0.25500000920E-02 0.  1.
        2   -1    0    0  501    0  0.00000000000E+00  0.00000000000E+00 -0.13887044091E+04  0.13887044091E+04  0.25500000920E-02 0. -1.
    10030    2    1    2    0    0  0.00000000000E+00  0.00000000000E+00 -0.12063700391E+04  0.15710387791E+04  0.10063966286E+04 0.  0.
        2    1    3    3  502    0 -0.10357768054E+03  0.37649443699E+02  0.16326310261E+03  0.19697882424E+03  0.25500000920E-02 0.  1.
       -2    1    3    3    0  502  0.10357768054E+03 -0.37649443699E+02 -0.13696331417E+04  0.13740599548E+04  0.25500000920E-02 0. -1.
</event>
<event>
 5   0  0.5349685E-03  0.9991975E+03  0.7818609E-02  0.9309425E-01
        1   -1    0    0  501    0  0.00000000000E+00  0.00000000000E+00  0.12437802881E+04  0.12437802882E+04  0.50400001928E-02 0.  1.
       -1   -1    0    0    0  501  0.00000000000E+00  0.00000000000E+00 -0.20067766699E+03  0.20067766706E+03  0.50400001928E-02 0. -1.
    10030    2    1    2    0    0  0.00000000000E+00  0.00000000000E+00  0.10431026211E+04  0.14444579552E+04  0.99919753108E+03 0.  0.
        4    1    3    3  502    0  0.14835062155E+03 -0.40469685516E+01 -0.16807519892E+03  0.22422125292E+03  0.12699999809E+01 0. -1.
       -4    1    3    3    0  502 -0.14835062155E+03  0.40469685516E+01  0.12111778201E+04  0.12202367023E+04  0.12699999809E+01 0.  1.
</event>
<event>
 5   0  0.5310275E-03  0.9891704E+03  0.7818609E-02  0.9320503E-01
       -1   -1    0    0    0  501  0.00000000000E+00  0.00000000000E+00  0.26796737747E+03  0.26796737751E+03  0.50400001928E-02 0.  1.
        1   -1    0    0  501    0  0.00000000000E+00  0.00000000000E+00 -0.91285192738E+03  0.91285192740E+03  0.50400001928E-02 0. -1.
    10030    2    1    2    0    0  0.00000000000E+00  0.00000000000E+00 -0.64488454992E+03  0.11808193049E+04  0.98917043432E+03 0.  0.
        1    1    3    3  502    0  0.16244610363E+03  0.34946483956E+03  0.47619559111E+02  0.38830662254E+03  0.50400001928E-02 0.  1.
       -1    1    3    3    0  502 -0.16244610363E+03 -0.34946483956E+03 -0.69250410903E+03  0.79251268237E+03  0.50400001928E-02 0. -1.
</event>
<event>
 5   0  0.5201968E-03  0.1001469E+04  0.7818609E-02  0.9306936E-01
       -1   -1    0    0    0  501  0.00000000000E+00  0.00000000000E+00  0.84119255577E+03  0.84119255579E+03  0.50400001928E-02 0.  1.
        1   -1    0    0  501    0  0.00000000000E+00  0.00000000000E+00 -0.29807068127E+03  0.29807068131E+03  0.50400001928E-02 0. -1.
    10030    2    1    2    0    0  0.00000000000E+00  0.00000000000E+00  0.54312187450E+03  0.11392632371E+04  0.10014685980E+04 0.  0.
        2    1    3    3  502    0 -0.92312805659E+02  0.14309846167E+03 -0.26411836429E+03  0.31425679655E+03  0.25500000920E-02 0. -1.
       -2    1    3    3    0  502  0.92312805659E+02 -0.14309846167E+03  0.80724023879E+03  0.82500644055E+03  0.25500000920E-02 0.  1.
</event>
<event>
 5   0  0.5189877E-03  0.1005878E+04  0.7818609E-02  0.9302121E-01
       -1   -1    0    0    0  501  0.00000000000E+00  0.00000000000E+00  0.44362411814E+03  0.44362411816E+03  0.50400001928E-02 0. -1.
        1   -1    0    0  501    0  0.00000000000E+00  0.00000000000E+00 -0.57018512201E+03  0.57018512204E+03  0.50400001928E-02 0.  1.
    10030    2    1    2    0    0  0.00000000000E+00  0.00000000000E+00 -0.12656100388E+03  0.10138092402E+04  0.10058784657E+04 0.  0.
        3    1    3    3  502    0 -0.42068484413E+03  0.25755176875E+03  0.35673065854E+02  0.49455154382E+03  0.10100000352E+00 0.  1.
       -3    1    3    3    0  502  0.42068484413E+03 -0.25755176875E+03 -0.16223406973E+03  0.51925769638E+03  0.10100000352E+00 0. -1.
</event>
<event>
 5   0  0.8875655E-03  0.1006297E+04  0.7818609E-02  0.9301665E-01
        2   -1    0    0  501    0  0.00000000000E+00  0.00000000000E+00  0.16889622219E+04  0.16889622219E+04  0.25500000920E-02 0.  1.
       -2   -1    0    0    0  501  0.00000000000E+00  0.00000000000E+00 -0.14988989667E+03  0.14988989669E+03  0.25500000920E-02 0. -1.
    10030    2    1    2    0    0  0.00000000000E+00  0.00000000000E+00  0.15390723253E+04  0.18388521186E+04  0.10062969203E+04 0.  0.
        4    1    3    3  502    0 -0.43541549297E+03  0.25135429190E+03  0.73339680960E+03  0.88917834252E+03  0.12699999809E+01 0. -1.
       -4    1    3    3    0  502  0.43541549297E+03 -0.25135429190E+03  0.80567551567E+03  0.94967377611E+03  0.12699999809E+01 0.  1.
</event>
<event>
 5   0  0.8875655E-03  0.9798505E+03  0.7818609E-02  0.9330925E-01
        2   -1    0    0  501    0  0.00000000000E+00  0.00000000000E+00  0.11516861565E+04  0.11516861565E+04  0.25500000920E-02 0.  1.
       -2   -1    0    0    0  501  0.00000000000E+00  0.00000000000E+00 -0.20841333101E+03  0.20841333103E+03  0.25500000920E-02 0. -1.
    10030    2    1    2    0    0  0.00000000000E+00  0.00000000000E+00  0.94327282545E+03  0.13600994875E+04  0.97985049505E+03 0.  0.
        4    1    3    3  502    0 -0.39080622395E+03  0.88323117035E+02  0.80273351795E+02  0.40862684884E+03  0.12699999809E+01 0. -1.
       -4    1    3    3    0  502  0.39080622395E+03 -0.88323117035E+02  0.86299947365E+03  0.95147263866E+03  0.12699999809E+01 0.  1.
</event>
<event>
 5   0  0.5201968E-03  0.9927421E+03  0.7818609E-02  0.9316541E-01
        1   -1    0    0  501    0  0.00000000000E+00  0.00000000000E+00  0.44095546436E+03  0.44095546439E+03  0.50400001928E-02 0. -1.
       -1   -1    0    0    0  501  0.00000000000E+00  0.00000000000E+00 -0.55875083504E+03  0.55875083507E+03  0.50400001928E-02 0.  1.
    10030    2    1    2    0    0  0.00000000000E+00  0.00000000000E+00 -0.11779537069E+03  0.99970629946E+03  0.99274212957E+03 0.  0.
        2    1    3    3  502    0 -0.26266818769E+03  0.37175525795E+03  0.14044980934E+03  0.47636403893E+03  0.25500000920E-02 0. -1.
       -2    1    3    3    0  502  0.26266818769E+03 -0.37175525795E+03 -0.25824518003E+03  0.52334226052E+03  0.25500000920E-02 0.  1.
</event>
<event>
 5   0  0.8875655E-03  0.1082991E+04  0.7818609E-02  0.9221931E-01
       -2   -1    0    0    0  501  0.00000000000E+00  0.00000000000E+00  0.11930579737E+03  0.11930579739E+03  0.25500000920E-02 0. -1.
        2   -1    0    0  501    0  0.00000000000E+00  0.00000000000E+00 -0.24576952903E+04  0.24576952903E+04  0.25500000920E-02 0.  1.
    10030    2    1    2    0    0  0.00000000000E+00  0.00000000000E+00 -0.23383894929E+04  0.25770010877E+04  0.10829908519E+04 0.  0.
        4    1    3    3  502    0 -0.17301658160E+03  0.35927345802E+03 -0.29748524319E+03  0.49750501300E+03  0.12699999809E+01 0. -1.
       -4    1    3    3    0  502  0.17301658160E+03 -0.35927345802E+03 -0.20409042497E+04  0.20794960747E+04  0.12699999809E+01 0.  1.
</event>
<event>
 5   0  0.9040674E-03  0.9969887E+03  0.7818609E-02  0.9311854E-01
        2   -1    0    0  501    0  0.00000000000E+00  0.00000000000E+00  0.61813489692E+03  0.61813489692E+03  0.25500000920E-02 0. -1.
       -2   -1    0    0    0  501  0.00000000000E+00  0.00000000000E+00 -0.40201029640E+03  0.40201029641E+03  0.25500000920E-02 0.  1.
    10030    2    1    2    0    0  0.00000000000E+00  0.00000000000E+00  0.21612460052E+03  0.10201451933E+04  0.99698865215E+03 0.  0.
        1    1    3    3  502    0 -0.11160417612E+03 -0.22746184248E+02  0.60464214833E+03  0.61527636765E+03  0.50400001928E-02 0. -1.
       -1    1    3    3    0  502  0.11160417612E+03  0.22746184248E+02 -0.38851754781E+03  0.40486882568E+03  0.50400001928E-02 0.  1.
</event>
<event>
 5   0  0.3513625E-03  0.9959053E+03  0.7818609E-02  0.9313047E-01
       -3   -1    0    0    0  501  0.00000000000E+00  0.00000000000E+00  0.67735035535E+03  0.67735036288E+03  0.10100000352E+00 0. -1.
        3   -1    0    0  501    0  0.00000000000E+00  0.00000000000E+00 -0.36606879764E+03  0.36606881157E+03  0.10100000352E+00 0.  1.
    10030    2    1    2    0    0  0.00000000000E+00  0.00000000000E+00  0.31128155770E+03  0.10434191745E+04  0.99590529944E+03 0.  0.
        5    1    3    3  502    0  0.23985711002E+03  0.35404077066E+03 -0.11159378511E+03  0.44198593121E+03  0.46999998093E+01 0.  1.
       -5    1    3    3    0  502 -0.23985711002E+03 -0.35404077066E+03  0.42287534281E+03  0.60143324324E+03  0.46999998093E+01 0. -1.
</event>
<event>
 5   0  0.8875655E-03  0.1032836E+04  0.7818609E-02  0.9273246E-01
        2   -1    0    0  501    0  0.00000000000E+00  0.00000000000E+00  0.24490851133E+04  0.24490851133E+04  0.25500000920E-02 0.  1.
       -2   -1    0    0    0  501  0.00000000000E+00  0.00000000000E+00 -0.10889276220E+03  0.10889276223E+03  0.25500000920E-02 0. -1.
    10030    2    1    2    0    0  0.00000000000E+00  0.00000000000E+00  0.23401923511E+04  0.25579778756E+04  0.10328361785E+04 0.  0.
        4    1    3    3  502    0 -0.19844188378E+03  0.45093789828E+03  0.78671956736E+03  0.92825290730E+03  0.12699999809E+01 0. -1.
       -4    1    3    3    0  502  0.19844188378E+03 -0.45093789828E+03  0.15534727838E+04  0.16297249683E+04  0.12699999809E+01 0.  1.
</event>
<event>
 5   0  0.5189877E-03  0.1006913E+04  0.7818609E-02  0.9300995E-01
       -1   -1    0    0    0  501  0.00000000000E+00  0.00000000000E+00  0.31317024865E+03  0.31317024869E+03  0.50400001928E-02 0.  1.
        1   -1    0    0  501    0  0.00000000000E+00  0.00000000000E+00 -0.80936313186E+03  0.80936313187E+03  0.50400001928E-02 0. -1.
    10030    2    1    2    0    0  0.00000000000E+00  0.00000000000E+00 -0.49619288321E+03  0.11225333806E+04  0.10069130117E+04 0.  0.
        3    1    3    3  502    0 -0.14670895722E+03  0.88812180070E+02  0.27960329992E+03  0.32800783068E+03  0.10100000352E+00 0.  1.
       -3    1    3    3    0  502  0.14670895722E+03 -0.88812180070E+02 -0.77579618313E+03  0.79452554988E+03  0.10100000352E+00 0. -1.
</event>
<event>
 5   0  0.8907355E-03  0.8685856E+03  0.7818609E-02  0.9465726E-01
       -2   -1    0    0    0  501  0.00000000000E+00  0.00000000000E+00  0.17842153683E+03  0.17842153685E+03  0.25500000920E-02 0.  1.
        2   -1    0    0  501    0  0.00000000000E+00  0.00000000000E+00 -0.10571045397E+04  0.10571045397E+04  0.25500000920E-02 0. -1.
    10030    2    1    2    0    0  0.00000000000E+00  0.00000000000E+00 -0.87868300285E+03  0.12355260765E+04  0.86858555496E+03 0.  0.
        5    1    3    3  502    0 -0.79594608029E+02 -0.12030079389E+03  0.14331166687E+03  0.20339101872E+03  0.46999998093E+01 0.  1.
       -5    1    3    3    0  502  0.79594608029E+02  0.12030079389E+03 -0.10219946697E+04  0.10321350578E+04  0.46999998093E+01 0. -1.
</event>
<event>
 5   0  0.5189877E-03  0.9940106E+03  0.7818609E-02  0.9315138E-01
       -1   -1    0    0    0  501  0.00000000000E+00  0.00000000000E+00  0.16290561941E+03  0.16290561949E+03  0.50400001928E-02 0.  1.
        1   -1    0    0  501    0  0.00000000000E+00  0.00000000000E+00 -0.15163028797E+04  0.15163028797E+04  0.50400001928E-02 0. -1.
    10030    2    1    2    0    0  0.00000000000E+00  0.00000000000E+00 -0.13533972603E+04  0.16792084992E+04  0.99401058325E+03 0.  0.
        3    1    3    3  502    0  0.16569606548E+03  0.42498709319E+03 -0.10100787207E+04  0.11082997102E+04  0.10100000352E+00 0.  1.
       -3    1    3    3    0  502 -0.16569606548E+03 -0.42498709319E+03 -0.34331853963E+03  0.57090878899E+03  0.10100000352E+00 0. -1.
</event>
<event>
 5   0  0.5189877E-03  0.9987147E+03  0.7818609E-02  0.9309956E-01
        1   -1    0    0  501    0  0.00000000000E+00  0.00000000000E+00  0.12931701994E+04  0.12931701994E+04  0.50400001928E-02 0.  1.
       -1   -1    0    0    0  501  0.00000000000E+00  0.00000000000E+00 -0.19282670690E+03  0.19282670697E+03  0.50400001928E-02 0. -1.
    10030    2    1    2    0    0  0.00000000000E+00  0.00000000000E+00  0.11003434925E+04  0.14859969063E+04  0.99871467609E+03 0.  0.
        3    1    3    3  502    0  0.44862100945E+02 -0.28447800634E+03 -0.56810285990E+02  0.29354346013E+03  0.10100000352E+00 0. -1.
       -3    1    3    3    0  502 -0.44862100945E+02  0.28447800634E+03  0.11571537784E+04  0.11924534462E+04  0.10100000352E+00 0.  1.
</event>
<event>
 5   0  0.9243773E-03  0.9855688E+03  0.7818609E-02  0.9324516E-01
        2   -1    0    0  501    0  0.00000000000E+00  0.00000000000E+00  0.13458989261E+04  0.13458989261E+04  0.25500000920E-02 0.  1.
       -2   -1    0    0    0  501  0.00000000000E+00  0.00000000000E+00 -0.18042697277E+03  0.18042697278E+03  0.25500000920E-02 0. -1.
    10030    2    1    2    0    0  0.00000000000E+00  0.00000000000E+00  0.11654719533E+04  0.15263258988E+04  0.98556880814E+03 0.  0.
        3    1    3    3  502    0  0.26565530358E+03  0.30685591922E+03  0.14992861922E+03  0.43267990079E+03  0.10100000352E+00 0. -1.
       -3    1    3    3    0  502 -0.26565530358E+03 -0.30685591922E+03  0.10155433341E+04  0.10936459981E+04  0.10100000352E+00 0.  1.
</event>
<event>
 5   0  0.5310275E-03  0.9540203E+03  0.7818609E-02  0.9360464E-01
        1   -1    0    0  501    0  0.00000000000E+00  0.00000000000E+00  0.54182963151E+03  0.54182963154E+03  0.50400001928E-02 0.  1.
       -1   -1    0    0    0  501  0.00000000000E+00  0.00000000000E+00 -0.41994510793E+03  0.41994510796E+03  0.50400001928E-02 0. -1.
    10030    2    1    2    0    0  0.00000000000E+00  0.00000000000E+00  0.12188452359E+03  0.96177473949E+03  0.95402034173E+03 0.  0.
        1    1    3    3  502    0  0.58669428159E+01  0.19635410641E+03  0.49915846238E+03  0.53642196703E+03  0.50400001928E-02 0.  1.
       -1    1    3    3    0  502 -0.58669428159E+01 -0.19635410641E+03 -0.37727393879E+03  0.42535277246E+03  0.50400001928E-02 0. -1.
</event>
<event>
 5   0  0.5349685E-03  0.1007924E+04  0.7818609E-02  0.9299896E-01
       -1   -1    0    0    0  501  0.00000000000E+00  0.00000000000E+00  0.77819644125E+03  0.77819644127E+03  0.50400001928E-02 0.  1.
        1   -1    0    0  501    0  0.00000000000E+00  0.00000000000E+00 -0.32636714945E+03  0.32636714949E+03  0.50400001928E-02 0. -1.
    10030    2    1    2    0    0  0.00000000000E+00  0.00000000000E+00  0.45182929180E+03  0.11045635908E+04  0.10079241128E+04 0.  0.
        4    1    3    3  502    0 -0.35585166574E+03 -0.35640270346E+03  0.20622396129E+03  0.54422718616E+03  0.12699999809E+01 0.  1.
       -4    1    3    3    0  502  0.35585166574E+03  0.35640270346E+03  0.24560533052E+03  0.56033640460E+03  0.12699999809E+01 0. -1.
</event>
<event>
 5   0  0.5072205E-03  0.1007742E+04  0.7818609E-02  0.9300094E-01
        1   -1    0    0  501    0  0.00000000000E+00  0.00000000000E+00  0.89449478235E+03  0.89449478237E+03  0.50400001928E-02 0. -1.
       -1   -1    0    0    0  501  0.00000000000E+00  0.00000000000E+00 -0.28383175544E+03  0.28383175548E+03  0.50400001928E-02 0.  1.
    10030    2    1    2    0    0  0.00000000000E+00  0.00000000000E+00  0.61066302691E+03  0.11783265379E+04  0.10077420788E+04 0.  0.
        5    1    3    3  502    0 -0.50003430744E+03 -0.16030853176E+02  0.37522082144E+03  0.62538312394E+03  0.46999998093E+01 0.  1.
       -5    1    3    3    0  502  0.50003430744E+03  0.16030853176E+02  0.23544220548E+03  0.55294341391E+03  0.46999998093E+01 0. -1.
</event>
<event>
 5   0  0.5349685E-03  0.9879437E+03  0.7818609E-02  0.9321868E-01
        1   -1    0    0  501    0  0.00000000000E+00  0.00000000000E+00  0.58012692205E+03  0.58012692208E+03  0.50400001928E-02 0. -1.
       -1   -1    0    0    0  501  0.00000000000E+00  0.00000000000E+00 -0.42061169373E+03  0.42061169376E+03  0.50400001928E-02 0.  1.
    10030    2    1    2    0    0  0.00000000000E+00  0.00000000000E+00  0.15951522832E+03  0.10007386158E+04  0.98794365688E+03 0.  0.
        4    1    3    3  502    0 -0.28715579656E+03 -0.38488582897E+03 -0.37548078310E+02  0.48167107441E+03  0.12699999809E+01 0.  1.
       -4    1    3    3    0  502  0.28715579656E+03  0.38488582897E+03  0.19706330663E+03  0.51906754143E+03  0.12699999809E+01 0. -1.
</event>
<event>
 5   0  0.5310275E-03  0.9890439E+03  0.7818609E-02  0.9320644E-01
        1   -1    0    0  501    0  0.00000000000E+00  0.00000000000E+00  0.62569911252E+03  0.62569911254E+03  0.50400001928E-02 0. -1.
       -1   -1    0    0    0  501  0.00000000000E+00  0.00000000000E+00 -0.39084594652E+03  0.39084594656E+03  0.50400001928E-02 0.  1.
    10030    2    1    2    0    0  0.00000000000E+00  0.00000000000E+00  0.23485316600E+03  0.10165450591E+04  0.98904390580E+03 0.  0.
        1    1    3    3  502    0 -0.62467405539E+01  0.45439492337E+03 -0.83030314978E+02  0.46196082235E+03  0.50400001928E-02 0. -1.
       -1    1    3    3    0  502  0.62467405539E+01 -0.45439492337E+03  0.31788348098E+03  0.55458423675E+03  0.50400001928E-02 0.  1.
</event>
<event>
 5   0  0.8875655E-03  0.1018857E+04  0.7818609E-02  0.9288101E-01
        2   -1    0    0  501    0  0.00000000000E+00  0.00000000000E+00  0.21828428013E+04  0.21828428013E+04  0.25500000920E-02 0. -1.
       -2   -1    0    0    0  501  0.00000000000E+00  0.00000000000E+00 -0.11888970703E+03  0.11888970705E+03  0.25500000920E-02 0.  1.
    10030    2    1    2    0    0  0.00000000000E+00  0.00000000000E+00  0.20639530942E+04  0.23017325083E+04  0.10188572838E+04 0.  0.
        4    1    3    3  502    0  0.14339856380E+03  0.62980314546E+02 -0.63146027851E+02  0.16887481119E+03  0.12699999809E+01 0.  1.
       -4    1    3    3    0  502 -0.14339856380E+03 -0.62980314546E+02  0.21270991221E+04  0.21328576971E+04  0.12699999809E+01 0. -1.
</event>
<event>
 5   0  0.5349685E-03  0.9921051E+03  0.7818609E-02  0.9317246E-01
       -1   -1    0    0    0  501  0.00000000000E+00  0.00000000000E+00  0.54284489196E+03  0.54284489198E+03  0.50400001928E-02 0.  1.
        1   -1    0    0  501    0  0.00000000000E+00  0.00000000000E+00 -0.45329365262E+03  0.45329365265E+03  0.50400001928E-02 0. -1.
    10030    2    1    2    0    0  0.00000000000E+00  0.00000000000E+00  0.89551239339E+02  0.99613854462E+03  0.99210512327E+03 0.  0.
        4    1    3    3  502    0  0.29789025348E+03 -0.38963144911E+03 -0.29791113552E+02  0.49136584395E+03  0.12699999809E+01 0.  1.
       -4    1    3    3    0  502 -0.29789025348E+03  0.38963144911E+03  0.11934235289E+03  0.50477270068E+03  0.12699999809E+01 0. -1.
</event>
<event>
 5   0  0.5349685E-03  0.1018252E+04  0.7818609E-02  0.9288750E-01
       -1   -1    0    0    0  501  0.00000000000E+00  0.00000000000E+00  0.83150577473E+03  0.83150577475E+03  0.50400001928E-02 0.  1.
        1   -1    0    0  501    0  0.00000000000E+00  0.00000000000E+00 -0.31173482666E+03  0.31173482670E+03  0.50400001928E-02 0. -1.
    10030    2    1    2    0    0  0.00000000000E+00  0.00000000000E+00  0.51977094807E+03  0.11432406014E+04  0.10182520485E+04 0.  0.
        4    1    3    3  502    0 -0.20980470571E+03 -0.47467907935E+02 -0.25820711662E+03  0.33607104129E+03  0.12699999809E+01 0. -1.
       -4    1    3    3    0  502  0.20980470571E+03  0.47467907935E+02  0.77797806469E+03  0.80716956016E+03  0.12699999809E+01 0.  1.
</event>
<event>
 5   0  0.5189877E-03  0.9856207E+03  0.7818609E-02  0.9324458E-01
       -1   -1    0    0    0  501  0.00000000000E+00  0.00000000000E+00  0.20255235117E+03  0.20255235123E+03  0.50400001928E-02 0.  1.
        1   -1    0    0  501    0  0.00000000000E+00  0.00000000000E+00 -0.11990086780E+04  0.11990086780E+04  0.50400001928E-02 0. -1.
    10030    2    1    2    0    0  0.00000000000E+00  0.00000000000E+00 -0.99645632682E+03  0.14015610292E+04  0.98562067114E+03 0.  0.
        3    1    3    3  502    0 -0.75363397434E+02 -0.20839778261E+03 -0.11241586943E+04  0.11457932003E+04  0.10100000352E+00 0. -1.
       -3    1    3    3    0  502  0.75363397434E+02  0.20839778261E+03  0.12770236752E+03  0.25576782898E+03  0.10100000352E+00 0.  1.
</event>
<event>
 5   0  0.5189877E-03  0.1002958E+04  0.7818609E-02  0.9305306E-01
       -1   -1    0    0    0  501  0.00000000000E+00  0.00000000000E+00  0.14172938624E+04  0.14172938624E+04  0.50400001928E-02 0.  1.
        1   -1    0    0  501    0  0.00000000000E+00  0.00000000000E+00 -0.17743759352E+03  0.17743759359E+03  0.50400001928E-02 0. -1.
    10030    2    1    2    0    0  0.00000000000E+00  0.00000000000E+00  0.12398562688E+04  0.15947314560E+04  0.10029580496E+04 0.  0.
        3    1    3    3  502    0 -0.63309774960E+02 -0.27267450067E+03  0.12815053432E+04  0.13117223280E+04  0.10100000352E+00 0.  1.
       -3    1    3    3    0  502  0.63309774960E+02  0.27267450067E+03 -0.41649074351E+02  0.28300912797E+03  0.10100000352E+00 0. -1.
</event>
<event>
 5   0  0.3513625E-03  0.1002241E+04  0.7818609E-02  0.9306090E-01
        3   -1    0    0  501    0  0.00000000000E+00  0.00000000000E+00  0.12495856106E+04  0.12495856146E+04  0.10100000352E+00 0.  1.
       -3   -1    0    0    0  501  0.00000000000E+00  0.00000000000E+00 -0.20096397624E+03  0.20096400162E+03  0.10100000352E+00 0. -1.
    10030    2    1    2    0    0  0.00000000000E+00  0.00000000000E+00  0.10486216343E+04  0.14505496163E+04  0.10022409178E+04 0.  0.
        5    1    3    3  502    0 -0.57771527784E+02  0.28005914428E+03 -0.71249931996E+02  0.29473601159E+03  0.46999998093E+01 0. -1.
       -5    1    3    3    0  502  0.57771527784E+02 -0.28005914428E+03  0.11198715663E+04  0.11558136047E+04  0.46999998093E+01 0.  1.
</event>
<event>
 5   0  0.8875655E-03  0.1040816E+04  0.7818609E-02  0.9264878E-01
        2   -1    0    0  501    0  0.00000000000E+00  0.00000000000E+00  0.12692761073E+04  0.12692761073E+04  0.25500000920E-02 0. -1.
       -2   -1    0    0    0  501  0.00000000000E+00  0.00000000000E+00 -0.21336917921E+03  0.21336917923E+03  0.25500000920E-02 0.  1.
    10030    2    1    2    0    0  0.00000000000E+00  0.00000000000E+00  0.10559069281E+04  0.14826452865E+04  0.10408158362E+04 0.  0.
        4    1    3    3  502    0 -0.15622822246E+02  0.67044324159E+02  0.12627592476E+04  0.12646349451E+04  0.12699999809E+01 0. -1.
       -4    1    3    3    0  502  0.15622822246E+02 -0.67044324159E+02 -0.20685231954E+03  0.21801034144E+03  0.12699999809E+01 0.  1.
</event>
<event>
 5   0  0.5201968E-03  0.1020440E+04  0.7818609E-02  0.9286406E-01
       -1   -1    0    0    0  501  0.00000000000E+00  0.00000000000E+00  0.16116908619E+03  0.16116908626E+03  0.50400001928E-02 0.  1.
        1   -1    0    0  501    0  0.00000000000E+00  0.00000000000E+00 -0.16152259041E+04  0.16152259041E+04  0.50400001928E-02 0. -1.
    10030    2    1    2    0    0  0.00000000000E+00  0.00000000000E+00 -0.14540568179E+04  0.17763949903E+04  0.10204400679E+04 0.  0.
        2    1    3    3  502    0  0.46708629451E+03 -0.82328720494E+02 -0.39960353602E+03  0.62018594852E+03  0.25500000920E-02 0.  1.
       -2    1    3    3    0  502 -0.46708629451E+03  0.82328720494E+02 -0.10544532819E+04  0.11562090418E+04  0.25500000920E-02 0. -1.
</event>
<event>
 5   0  0.5349685E-03  0.1001787E+04  0.7818609E-02  0.9306587E-01
        1   -1    0    0  501    0  0.00000000000E+00  0.00000000000E+00  0.11872325601E+04  0.11872325601E+04  0.50400001928E-02 0. -1.
       -1   -1    0    0    0  501  0.00000000000E+00  0.00000000000E+00 -0.21132716196E+03  0.21132716202E+03  0.50400001928E-02 0.  1.
    10030    2    1    2    0    0  0.00000000000E+00  0.00000000000E+00  0.97590539813E+03  0.13985597221E+04  0.10017873778E+04 0.  0.
        4    1    3    3  502    0 -0.30419324369E+03  0.39631316110E+03  0.43770943807E+03  0.66422045756E+03  0.12699999809E+01 0.  1.
       -4    1    3    3    0  502  0.30419324369E+03 -0.39631316110E+03  0.53819596006E+03  0.73433926457E+03  0.12699999809E+01 0. -1.
</event>
<event>
 5   0  0.8875655E-03  0.9878420E+03  0.7818609E-02  0.9321981E-01
       -2   -1    0    0    0  501  0.00000000000E+00  0.00000000000E+00  0.35538260576E+03  0.35538260576E+03  0.25500000920E-02 0. -1.
        2   -1    0    0  501    0  0.00000000000E+00  0.00000000000E+00 -0.68646567912E+03  0.68646567913E+03  0.25500000920E-02 0.  1.
    10030    2    1    2    0    0  0.00000000000E+00  0.00000000000E+00 -0.33108307337E+03  0.10418482849E+04  0.98784201534E+03 0.  0.
        4    1    3    3  502    0  0.41392548765E+02  0.45587895118E+03  0.30120215900E+02  0.45874590083E+03  0.12699999809E+01 0. -1.
       -4    1    3    3    0  502 -0.41392548765E+02 -0.45587895118E+03 -0.36120328927E+03  0.58310238406E+03  0.12699999809E+01 0.  1.
</event>
<event>
 5   0  0.8907355E-03  0.1004086E+04  0.7818609E-02  0.9304075E-01
       -2   -1    0    0    0  501  0.00000000000E+00  0.00000000000E+00  0.12791266512E+03  0.12791266514E+03  0.25500000920E-02 0. -1.
        2   -1    0    0  501    0  0.00000000000E+00  0.00000000000E+00 -0.19704631345E+04  0.19704631345E+04  0.25500000920E-02 0.  1.
    10030    2    1    2    0    0  0.00000000000E+00  0.00000000000E+00 -0.18425504694E+04  0.20983757996E+04  0.10040860343E+04 0.  0.
        5    1    3    3  502    0  0.35947452243E+03 -0.31412775940E+03 -0.59666419874E+03  0.76415210367E+03  0.46999998093E+01 0. -1.
       -5    1    3    3    0  502 -0.35947452243E+03  0.31412775940E+03 -0.12458862706E+04  0.13342236959E+04  0.46999998093E+01 0.  1.
</event>
<event>
 5   0  0.5349685E-03  0.1011743E+04  0.7818609E-02  0.9295759E-01
       -1   -1    0    0    0  501  0.00000000000E+00  0.00000000000E+00  0.19679615508E+03  0.19679615515E+03  0.50400001928E-02 0.  1.
        1   -1    0    0  501    0  0.00000000000E+00  0.00000000000E+00 -0.13003599863E+04  0.13003599863E+04  0.50400001928E-02 0. -1.
    10030    2    1    2    0    0  0.00000000000E+00  0.00000000000E+00 -0.11035638312E+04  0.14971561415E+04  0.10117427451E+04 0.  0.
        4    1    3    3  502    0  0.11495922006E+03 -0.37179215135E+03 -0.73514978651E+02  0.39604430443E+03  0.12699999809E+01 0.  1.
       -4    1    3    3    0  502 -0.11495922006E+03  0.37179215135E+03 -0.10300488526E+04  0.11011118371E+04  0.12699999809E+01 0. -1.
</event>
<event>
 5   0  0.8875655E-03  0.1012092E+04  0.7818609E-02  0.9295381E-01
        2   -1    0    0  501    0  0.00000000000E+00  0.00000000000E+00  0.15423309190E+04  0.15423309190E+04  0.25500000920E-02 0.  1.
       -2   -1    0    0    0  501  0.00000000000E+00  0.00000000000E+00 -0.16603607736E+03  0.16603607738E+03  0.25500000920E-02 0. -1.
    10030    2    1    2    0    0  0.00000000000E+00  0.00000000000E+00  0.13762948416E+04  0.17083669964E+04  0.10120920428E+04 0.  0.
        4    1    3    3  502    0  0.15745587784E+03 -0.33481129579E+03  0.10539903054E+03  0.38470966428E+03  0.12699999809E+01 0. -1.
       -4    1    3    3    0  502 -0.15745587784E+03  0.33481129579E+03  0.12708958111E+04  0.13236573321E+04  0.12699999809E+01 0.  1.
</event>
<event>
 5   0  0.9243773E-03  0.1137910E+04  0.7818609E-02  0.9169010E-01
       -2   -1    0    0    0  501  0.00000000000E+00  0.00000000000E+00  0.34637882298E+03  0.34637882299E+03  0.25500000920E-02 0. -1.
        2   -1    0    0  501    0  0.00000000000E+00  0.00000000000E+00 -0.93455496587E+03  0.93455496587E+03  0.25500000920E-02 0.  1.
    10030    2    1    2    0    0  0.00000000000E+00  0.00000000000E+00 -0.58817614289E+03  0.12809337889E+04  0.11379104518E+04 0.  0.
        3    1    3    3  502    0 -0.43238183157E+03  0.21293259877E+03  0.46264461856E+02  0.48418462442E+03  0.10100000352E+00 0. -1.
       -3    1    3    3    0  502  0.43238183157E+03 -0.21293259877E+03 -0.63444060474E+03  0.79674916445E+03  0.10100000352E+00 0.  1.
</event>
<event>
 5   0  0.5072205E-03  0.9921828E+03  0.7818609E-02  0.9317160E-01
       -1   -1    0    0    0  501  0.00000000000E+00  0.00000000000E+00  0.24137382070E+03  0.24137382075E+03  0.50400001928E-02 0.  1.
        1   -1    0    0  501    0  0.00000000000E+00  0.00000000000E+00 -0.10196079819E+04  0.10196079819E+04  0.50400001928E-02 0. -1.
    10030    2    1    2    0    0  0.00000000000E+00  0.00000000000E+00 -0.77823416123E+03  0.12609818027E+04  0.99218279415E+03 0.  0.
        5    1    3    3  502    0  0.24691949571E+03  0.18885827777E+03 -0.88043435402E+03  0.93371485378E+03  0.46999998093E+01 0. -1.
       -5    1    3    3    0  502 -0.24691949571E+03 -0.18885827777E+03  0.10220019278E+03  0.32726694891E+03  0.46999998093E+01 0.  1.
</event>
<event>
 5   0  0.8968798E-03  0.1008093E+04  0.7818609E-02  0.9299713E-01
       -2   -1    0    0    0  501  0.00000000000E+00  0.00000000000E+00  0.40497940192E+03  0.40497940193E+03  0.25500000920E-02 0. -1.
        2   -1    0    0  501    0  0.00000000000E+00  0.00000000000E+00 -0.62734721010E+03  0.62734721010E+03  0.25500000920E-02 0.  1.
    10030    2    1    2    0    0  0.00000000000E+00  0.00000000000E+00 -0.22236780818E+03  0.10323266120E+04  0.10080926504E+04 0.  0.
        2    1    3    3  502    0 -0.36137772566E+03 -0.27026303321E+03 -0.34114113946E+03  0.56569713166E+03  0.25500000920E-02 0.  1.
       -2    1    3    3    0  502  0.36137772566E+03  0.27026303321E+03  0.11877333128E+03  0.46662948038E+03  0.25500000920E-02 0. -1.
</event>
<event>
 5   0  0.5072205E-03  0.9832712E+03  0.7818609E-02  0.9327085E-01
       -1   -1    0    0    0  501  0.00000000000E+00  0.00000000000E+00  0.63331145420E+03  0.63331145422E+03  0.50400001928E-02 0.  1.
        1   -1    0    0  501    0  0.00000000000E+00  0.00000000000E+00 -0.38165351716E+03  0.38165351719E+03  0.50400001928E-02 0. -1.
    10030    2    1    2    0    0  0.00000000000E+00  0.00000000000E+00  0.25165793704E+03  0.10149649714E+04  0.98327116093E+03 0.  0.
        5    1    3    3  502    0  0.14752057334E+03  0.16456318078E+03  0.57911926229E+03  0.61987464053E+03  0.46999998093E+01 0.  1.
       -5    1    3    3    0  502 -0.14752057334E+03 -0.16456318078E+03 -0.32746132524E+03  0.39509033088E+03  0.46999998093E+01 0. -1.
</event>
<event>
 5   0  0.8968798E-03  0.1000555E+04  0.7818609E-02  0.9307937E-01
        2   -1    0    0  501    0  0.00000000000E+00  0.00000000000E+00  0.91211444833E+03  0.91211444833E+03  0.25500000920E-02 0.  1.
       -2   -1    0    0    0  501  0.00000000000E+00  0.00000000000E+00 -0.27439255704E+03  0.27439255705E+03  0.25500000920E-02 0. -1.
    10030    2    1    2    0    0  0.00000000000E+00  0.00000000000E+00  0.63772189129E+03  0.11865070054E+04  0.10005546778E+04 0.  0.
        2    1    3    3  502    0  0.17783411789E+03 -0.25062343590E+03  0.78699411886E+03  0.84486497337E+03  0.25500000920E-02 0.  1.
       -2    1    3    3    0  502 -0.17783411789E+03  0.25062343590E+03 -0.14927222756E+03  0.34164203201E+03  0.25500000920E-02 0. -1.
</event>
<event>
 5   0  0.5189877E-03  0.9771688E+03  0.7818609E-02  0.9333946E-01
       -1   -1    0    0    0  501  0.00000000000E+00  0.00000000000E+00  0.22820164074E+03  0.22820164080E+03  0.50400001928E-02 0.  1.
        1   -1    0    0  501    0  0.00000000000E+00  0.00000000000E+00 -0.10460692873E+04  0.10460692874E+04  0.50400001928E-02 0. -1.
    10030    2    1    2    0    0  0.00000000000E+00  0.00000000000E+00 -0.81786764661E+03  0.12742709282E+04  0.97716882420E+03 0.  0.
        3    1    3    3  502    0  0.26920833369E+03  0.12399404117E+03  0.97577779065E+02  0.31204019348E+03  0.10100000352E+00 0.  1.
       -3    1    3    3    0  502 -0.26920833369E+03 -0.12399404117E+03 -0.91544542567E+03  0.96223073468E+03  0.10100000352E+00 0. -1.
</event>
<event>
 5   0  0.9243773E-03  0.1015124E+04  0.7818609E-02  0.9292111E-01
        2   -1    0    0  501    0  0.00000000000E+00  0.00000000000E+00  0.15081500159E+04  0.15081500159E+04  0.25500000920E-02 0. -1.
       -2   -1    0    0    0  501  0.00000000000E+00  0.00000000000E+00 -0.17081785789E+03  0.17081785791E+03  0.25500000920E-02 0.  1.
    10030    2    1    2    0    0  0.00000000000E+00  0.00000000000E+00  0.13373321580E+04  0.16789678738E+04  0.10151235493E+04 0.  0.
        3    1    3    3  502    0 -0.36766311126E+03  0.31900582779E+03  0.43082962883E+03  0.65004235310E+03  0.10100000352E+00 0.  1.
       -3    1    3    3    0  502  0.36766311126E+03 -0.31900582779E+03  0.90650252920E+03  0.10289255207E+04  0.10100000352E+00 0. -1.
</event>
<event>
 5   0  0.5201968E-03  0.9859073E+03  0.7818609E-02  0.9324138E-01
       -1   -1    0    0    0  501  0.00000000000E+00  0.00000000000E+00  0.30605480646E+03  0.30605480650E+03  0.50400001928E-02 0.  1.
        1   -1    0    0  501    0  0.00000000000E+00  0.00000000000E+00 -0.79398617286E+03  0.79398617287E+03  0.50400001928E-02 0. -1.
    10030    2    1    2    0    0  0.00000000000E+00  0.00000000000E+00 -0.48793136639E+03  0.11000409794E+04  0.98590726643E+03 0.  0.
        2    1    3    3  502    0  0.22360812744E+03  0.83062727748E+02  0.23737193235E+03  0.33651960667E+03  0.25500000920E-02 0.  1.
       -2    1    3    3    0  502 -0.22360812744E+03 -0.83062727748E+02 -0.72530329875E+03  0.76352137271E+03  0.25500000920E-02 0. -1.
</event>
<event>
 5   0  0.5310275E-03  0.1014816E+04  0.7818609E-02  0.9292442E-01
        1   -1    0    0  501    0  0.00000000000E+00  0.00000000000E+00  0.14817177661E+04  0.14817177661E+04  0.50400001928E-02 0.  1.
       -1   -1    0    0    0  501  0.00000000000E+00  0.00000000000E+00 -0.17375974848E+03  0.17375974855E+03  0.50400001928E-02 0. -1.
    10030    2    1    2    0    0  0.00000000000E+00  0.00000000000E+00  0.13079580176E+04  0.16554775146E+04  0.10148160551E+04 0.  0.
        1    1    3    3  502    0  0.45926227182E+03  0.21537112508E+03  0.63358109846E+03  0.81162279674E+03  0.50400001928E-02 0.  1.
       -1    1    3    3    0  502 -0.45926227182E+03 -0.21537112508E+03  0.67437691912E+03  0.84385471789E+03  0.50400001928E-02 0. -1.
</event>
<event>
 5   0  0.8968798E-03  0.9712988E+03  0.7818609E-02  0.9340596E-01
        2   -1    0    0  501    0  0.00000000000E+00  0.00000000000E+00  0.22809065573E+03  0.22809065574E+03  0.25500000920E-02 0.  1.
       -2   -1    0    0    0  501  0.00000000000E+00  0.00000000000E+00 -0.10340420854E+04  0.10340420854E+04  0.25500000920E-02 0. -1.
    10030    2    1    2    0    0  0.00000000000E+00  0.00000000000E+00 -0.80595142968E+03  0.12621327412E+04  0.97129879506E+03 0.  0.
        2    1    3    3  502    0 -0.47328062867E+03  0.26809182663E+02 -0.26581341293E+03  0.54347958218E+03  0.25500000920E-02 0.  1.
       -2    1    3    3    0  502  0.47328062867E+03 -0.26809182663E+02 -0.54013801675E+03  0.71865315897E+03  0.25500000920E-02 0. -1.
</event>
<event>
 5   0  0.5189877E-03  0.9962834E+03  0.7818609E-02  0.9312631E-01
        1   -1    0    0  501    0  0.00000000000E+00  0.00000000000E+00  0.84033900250E+03  0.84033900251E+03  0.50400001928E-02 0. -1.
       -1   -1    0    0    0  501  0.00000000000E+00  0.00000000000E+00 -0.29529170996E+03  0.29529171000E+03  0.50400001928E-02 0.  1.
    10030    2    1    2    0    0  0.00000000000E+00  0.00000000000E+00  0.54504729254E+03  0.11356307125E+04  0.99628337540E+03 0.  0.
        3    1    3    3  502    0  0.29695008248E+02 -0.15014569118E+03  0.81287311749E+03  0.82715671879E+03  0.10100000352E+00 0. -1.
       -3    1    3    3    0  502 -0.29695008248E+02  0.15014569118E+03 -0.26782582495E+03  0.30847399372E+03  0.10100000352E+00 0.  1.
</event>
<event>
 5   0  0.8875655E-03  0.9976345E+03  0.7818609E-02  0.9311143E-01
        2   -1    0    0  501    0  0.00000000000E+00  0.00000000000E+00  0.89679106060E+03  0.89679106060E+03  0.25500000920E-02 0. -1.
       -2   -1    0    0    0  501  0.00000000000E+00  0.00000000000E+00 -0.27745440697E+03  0.27745440699E+03  0.25500000920E-02 0.  1.
    10030    2    1    2    0    0  0.00000000000E+00  0.00000000000E+00  0.61933665362E+03  0.11742454676E+04  0.99763446594E+03 0.  0.
        4    1    3    3  502    0 -0.22903758932E+03 -0.28018538925E+03 -0.94406095492E+02  0.37400025861E+03  0.12699999809E+01 0.  1.
       -4    1    3    3    0  502  0.22903758932E+03  0.28018538925E+03  0.71374274911E+03  0.80024520897E+03  0.12699999809E+01 0. -1.
</event>
<event>
 5   0  0.9243773E-03  0.1008646E+04  0.7818609E-02  0.9299112E-01
       -2   -1    0    0    0  501  0.00000000000E+00  0.00000000000E+00  0.14484723889E+03  0.14484723891E+03  0.25500000920E-02 0. -1.
        2   -1    0    0  501    0  0.00000000000E+00  0.00000000000E+00 -0.17559316880E+04  0.17559316880E+04  0.25500000920E-02 0.  1.
    10030    2    1    2    0    0  0.00000000000E+00  0.00000000000E+00 -0.16110844491E+04  0.19007789269E+04  0.10086463339E+04 0.  0.
        3    1    3    3  502    0 -0.71491845241E+01  0.34626604824E+03 -0.14963815877E+04  0.15359391763E+04  0.10100000352E+00 0.  1.
       -3    1    3    3    0  502  0.71491845241E+01 -0.34626604824E+03 -0.11470286135E+03  0.36483975058E+03  0.10100000352E+00 0. -1.
</event>
<event>
 5   0  0.8907355E-03  0.1021256E+04  0.7818609E-02  0.9285534E-01
       -2   -1    0    0    0  501  0.00000000000E+00  0.00000000000E+00  0.55701357525E+03  0.55701357525E+03  0.25500000920E-02 0. -1.
        2   -1    0    0  501    0  0.00000000000E+00  0.00000000000E+00 -0.46810510394E+03  0.46810510395E+03  0.25500000920E-02 0.  1.
    10030    2    1    2    0    0  0.00000000000E+00  0.00000000000E+00  0.88908471309E+02  0.10251186792E+04  0.10212558887E+04 0.  0.
        5    1    3    3  502    0  0.16186228793E+03 -0.41438126200E+03 -0.20710808536E+03  0.49074135710E+03  0.46999998093E+01 0.  1.
       -5    1    3    3    0  502 -0.16186228793E+03  0.41438126200E+03  0.29601655667E+03  0.53437732210E+03  0.46999998093E+01 0. -1.
</event>
<event>
 5   0  0.5349685E-03  0.1014436E+04  0.7818609E-02  0.9292852E-01
        1   -1    0    0  501    0  0.00000000000E+00  0.00000000000E+00  0.15020057348E+04  0.15020057348E+04  0.50400001928E-02 0.  1.
       -1   -1    0    0    0  501  0.00000000000E+00  0.00000000000E+00 -0.17128432408E+03  0.17128432416E+03  0.50400001928E-02 0. -1.
    10030    2    1    2    0    0  0.00000000000E+00  0.00000000000E+00  0.13307214107E+04  0.16732900589E+04  0.10144358770E+04 0.  0.
        4    1    3    3  502    0  0.27074532366E+03  0.35750092000E+03  0.27447091552E+03  0.52578116593E+03  0.12699999809E+01 0.  1.
       -4    1    3    3    0  502 -0.27074532366E+03 -0.35750092000E+03  0.10562504952E+04  0.11475088930E+04  0.12699999809E+01 0. -1.
</event>
<event>
 5   0  0.5310275E-03  0.9947931E+03  0.7818609E-02  0.9314274E-01
        1   -1    0    0  501    0  0.00000000000E+00  0.00000000000E+00  0.14553943195E+04  0.14553943195E+04  0.50400001928E-02 0.  1.
       -1   -1    0    0    0  501  0.00000000000E+00  0.00000000000E+00 -0.16999059897E+03  0.16999059904E+03  0.50400001928E-02 0. -1.
    10030    2    1    2    0    0  0.00000000000E+00  0.00000000000E+00  0.12854037206E+04  0.16253849186E+04  0.99479314872E+03 0.  0.
        1    1    3    3  502    0 -0.43366421392E+03  0.14299861592E+03  0.96491478468E+03  0.10675082184E+04  0.50400001928E-02 0. -1.
       -1    1    3    3    0  502  0.43366421392E+03 -0.14299861592E+03  0.32048893589E+03  0.55787670021E+03  0.50400001928E-02 0.  1.
</event>
<event>
 5   0  0.5072205E-03  0.1004053E+04  0.7818609E-02  0.9304111E-01
       -1   -1    0    0    0  501  0.00000000000E+00  0.00000000000E+00  0.55697250089E+03  0.55697250092E+03  0.50400001928E-02 0.  1.
        1   -1    0    0  501    0  0.00000000000E+00  0.00000000000E+00 -0.45250082146E+03  0.45250082149E+03  0.50400001928E-02 0. -1.
    10030    2    1    2    0    0  0.00000000000E+00  0.00000000000E+00  0.10447167943E+03  0.10094733224E+04  0.10040528158E+04 0.  0.
        5    1    3    3  502    0  0.56122514318E+02  0.47683566959E+03  0.19960969254E+03  0.51998856887E+03  0.46999998093E+01 0.  1.
       -5    1    3    3    0  502 -0.56122514318E+02 -0.47683566959E+03 -0.95138013107E+02  0.48948475353E+03  0.46999998093E+01 0. -1.
</event>
<event>
 5   0  0.8875655E-03  0.8309835E+03  0.7818609E-02  0.9516222E-01
       -2   -1    0    0    0  501  0.00000000000E+00  0.00000000000E+00  0.17101898994E+03  0.17101898996E+03  0.25500000920E-02 0.  1.
        2   -1    0    0  501    0  0.00000000000E+00  0.00000000000E+00 -0.10094398133E+04  0.10094398133E+04  0.25500000920E-02 0. -1.
    10030    2    1    2    0    0  0.00000000000E+00  0.00000000000E+00 -0.83842082332E+03  0.11804588032E+04  0.83098345901E+03 0.  0.
        4    1    3    3  502    0  0.47767914214E+01  0.10341348778E+03 -0.99082257035E+03  0.99621691715E+03  0.12699999809E+01 0. -1.
       -4    1    3    3    0  502 -0.47767914214E+01 -0.10341348778E+03  0.15240174703E+03  0.18424188609E+03  0.12699999809E+01 0.  1.
</event>
<event>
 5   0  0.9040674E-03  0.1001761E+04  0.7818609E-02  0.9306615E-01
        2   -1    0    0  501    0  0.00000000000E+00  0.00000000000E+00  0.44835976863E+03  0.44835976863E+03  0.25500000920E-02 0. -1.
       -2   -1    0    0    0  501  0.00000000000E+00  0.00000000000E+00 -0.55955393430E+03  0.55955393430E+03  0.25500000920E-02 0.  1.
    10030    2    1    2    0    0  0.00000000000E+00  0.00000000000E+00 -0.11119416567E+03  0.10079137029E+04  0.10017613938E+04 0.  0.
        1    1    3    3  502    0 -0.55567570786E+02 -0.24390582180E+03  0.38100765931E+03  0.45579012857E+03  0.50400001928E-02 0. -1.
       -1    1    3    3    0  502  0.55567570786E+02  0.24390582180E+03 -0.49220182498E+03  0.55212357436E+03  0.50400001928E-02 0.  1.
</event>
<event>
 5   0  0.8907355E-03  0.1079030E+04  0.7818609E-02  0.9225875E-01
        2   -1    0    0  501    0  0.00000000000E+00  0.00000000000E+00  0.74484369413E+03  0.74484369414E+03  0.25500000920E-02 0. -1.
       -2   -1    0    0    0  501  0.00000000000E+00  0.00000000000E+00 -0.39078890863E+03  0.39078890864E+03  0.25500000920E-02 0.  1.
    10030    2    1    2    0    0  0.00000000000E+00  0.00000000000E+00  0.35405478550E+03  0.11356326028E+04  0.10790304061E+04 0.  0.
        5    1    3    3  502    0 -0.31974606067E+03 -0.39298252063E+03  0.37217724120E+03  0.62865793060E+03  0.46999998093E+01 0. -1.
       -5    1    3    3    0  502  0.31974606067E+03  0.39298252063E+03 -0.18122455699E+02  0.50697467218E+03  0.46999998093E+01 0.  1.
</event>
<event>
 5   0  0.8875655E-03  0.1019193E+04  0.7818609E-02  0.9287742E-01
       -2   -1    0    0    0  501  0.00000000000E+00  0.00000000000E+00  0.11709706555E+03  0.11709706558E+03  0.25500000920E-02 0.  1.
        2   -1    0    0  501    0  0.00000000000E+00  0.00000000000E+00 -0.22177186431E+04  0.22177186431E+04  0.25500000920E-02 0. -1.
    10030    2    1    2    0    0  0.00000000000E+00  0.00000000000E+00 -0.21006215776E+04  0.23348157087E+04  0.10191925144E+04 0.  0.
        4    1    3    3  502    0 -0.39047745112E+02  0.10311273802E+01 -0.22142804231E+04  0.22146252944E+04  0.12699999809E+01 0. -1.
       -4    1    3    3    0  502  0.39047745112E+02 -0.10311273802E+01  0.11365884553E+03  0.12019041429E+03  0.12699999809E+01 0.  1.
</event>
<event>
 5   0  0.8968798E-03  0.9926047E+03  0.7818609E-02  0.9316693E-01
       -2   -1    0    0    0  501  0.00000000000E+00  0.00000000000E+00  0.15598148119E+03  0.15598148121E+03  0.25500000920E-02 0.  1.
        2   -1    0    0  501    0  0.00000000000E+00  0.00000000000E+00 -0.15791364385E+04  0.15791364385E+04  0.25500000920E-02 0. -1.
    10030    2    1    2    0    0  0.00000000000E+00  0.00000000000E+00 -0.14231549573E+04  0.17351179197E+04  0.99260473642E+03 0.  0.
        2    1    3    3  502    0 -0.35915320592E+03 -0.34251979653E+03 -0.71556529989E+03  0.87082979666E+03  0.25500000920E-02 0.  1.
       -2    1    3    3    0  502  0.35915320592E+03  0.34251979653E+03 -0.70758965739E+03  0.86428812302E+03  0.25500000920E-02 0. -1.
</event>
<event>
 5   0  0.8907355E-03  0.9854094E+03  0.7818609E-02  0.9324694E-01
       -2   -1    0    0    0  501  0.00000000000E+00  0.00000000000E+00  0.24594121872E+03  0.24594121873E+03  0.25500000920E-02 0. -1.
        2   -1    0    0  501    0  0.00000000000E+00  0.00000000000E+00 -0.98705666669E+03  0.98705666670E+03  0.25500000920E-02 0.  1.
    10030    2    1    2    0    0  0.00000000000E+00  0.00000000000E+00 -0.74111544798E+03  0.12329978854E+04  0.98540939626E+03 0.  0.
        5    1    3    3  502    0  0.32996404029E+03 -0.96450464421E+02 -0.81215814125E+03  0.88193077754E+03  0.46999998093E+01 0.  1.
       -5    1    3    3    0  502 -0.32996404029E+03  0.96450464421E+02  0.71042693274E+02  0.35106710789E+03  0.46999998093E+01 0. -1.
</event>
<event>
 5   0  0.8907355E-03  0.1001695E+04  0.7818609E-02  0.9306688E-01
       -2   -1    0    0    0  501  0.00000000000E+00  0.00000000000E+00  0.27212977477E+03  0.27212977479E+03  0.25500000920E-02 0.  1.
        2   -1    0    0  501    0  0.00000000000E+00  0.00000000000E+00 -0.92179639423E+03  0.92179639423E+03  0.25500000920E-02 0. -1.
    10030    2    1    2    0    0  0.00000000000E+00  0.00000000000E+00 -0.64966661946E+03  0.11939261690E+04  0.10016950537E+04 0.  0.
        5    1    3    3  502    0  0.26034522156E+03  0.32102063033E+03 -0.66193891055E+03  0.78039675216E+03  0.46999998093E+01 0. -1.
       -5    1    3    3    0  502 -0.26034522156E+03 -0.32102063033E+03  0.12272291091E+02  0.41352941686E+03  0.46999998093E+01 0.  1.
</event>
<event>
 5   0  0.5201968E-03  0.1057701E+04  0.7818609E-02  0.9247429E-01
       -1   -1    0    0    0  501  0.00000000000E+00  0.00000000000E+00  0.35620460951E+03  0.35620460955E+03  0.50400001928E-02 0. -1.
        1   -1    0    0  501    0  0.00000000000E+00  0.00000000000E+00 -0.78517493740E+03  0.78517493742E+03  0.50400001928E-02 0.  1.
    10030    2    1    2    0    0  0.00000000000E+00  0.00000000000E+00 -0.42897032789E+03  0.11413795470E+04  0.10577011525E+04 0.  0.
        2    1    3    3  502    0  0.45081537032E+03  0.14589600950E+03 -0.46793394883E+03  0.66594468553E+03  0.25500000920E-02 0.  1.
       -2    1    3    3    0  502 -0.45081537032E+03 -0.14589600950E+03  0.38963620947E+02  0.47543486144E+03  0.25500000920E-02 0. -1.
</event>
<event>
 5   0  0.5201968E-03  0.9769354E+03  0.7818609E-02  0.9334210E-01
        1   -1    0    0  501    0  0.00000000000E+00  0.00000000000E+00  0.15318864424E+04  0.15318864424E+04  0.50400001928E-02 0.  1.
       -1   -1    0    0    0  501  0.00000000000E+00  0.00000000000E+00 -0.15575613744E+03  0.15575613752E+03  0.50400001928E-02 0. -1.
    10030    2    1    2    0    0  0.00000000000E+00  0.00000000000E+00  0.13761303050E+04  0.16876425800E+04  0.97693544382E+03 0.  0.
        2    1    3    3  502    0 -0.41927633662E+03  0.18577557324E+03  0.39748005713E+03  0.60687363255E+03  0.25500000920E-02 0. -1.
       -2    1    3    3    0  502  0.41927633662E+03 -0.18577557324E+03  0.97865024787E+03  0.10807689474E+04  0.25500000920E-02 0.  1.
</event>
<event>
 5   0  0.3513625E-03  0.9937031E+03  0.7818609E-02  0.9315478E-01
       -4   -1    0    0    0  501  0.00000000000E+00  0.00000000000E+00  0.29310991709E+03  0.29311266844E+03  0.12699999809E+01 0.  1.
        4   -1    0    0  501    0  0.00000000000E+00  0.00000000000E+00 -0.84220750384E+03  0.84220846138E+03  0.12699999809E+01 0. -1.
    10030    2    1    2    0    0  0.00000000000E+00  0.00000000000E+00 -0.54909758675E+03  0.11353211298E+04  0.99370312873E+03 0.  0.
        4    1    3    3  502    0  0.20353675951E+01  0.19938393162E+03  0.24539209032E+03  0.31619137528E+03  0.12699999809E+01 0.  1.
       -4    1    3    3    0  502 -0.20353675951E+01 -0.19938393162E+03 -0.79448967707E+03  0.81912975454E+03  0.12699999809E+01 0. -1.
</event>
<event>
 5   0  0.5189877E-03  0.9903508E+03  0.7818609E-02  0.9319192E-01
       -1   -1    0    0    0  501  0.00000000000E+00  0.00000000000E+00  0.21300079735E+03  0.21300079741E+03  0.50400001928E-02 0. -1.
        1   -1    0    0  501    0  0.00000000000E+00  0.00000000000E+00 -0.11511631888E+04  0.11511631888E+04  0.50400001928E-02 0.  1.
    10030    2    1    2    0    0  0.00000000000E+00  0.00000000000E+00 -0.93816239144E+03  0.13641639862E+04  0.99035080075E+03 0.  0.
        3    1    3    3  502    0 -0.81069524930E+02  0.42987824540E+03 -0.14949050328E+03  0.46229319107E+03  0.10100000352E+00 0. -1.
       -3    1    3    3    0  502  0.81069524930E+02 -0.42987824540E+03 -0.78867188816E+03  0.90187079513E+03  0.10100000352E+00 0.  1.
</event>
<event>
 5   0  0.9243773E-03  0.9954910E+03  0.7818609E-02  0.9313504E-01
       -2   -1    0    0    0  501  0.00000000000E+00  0.00000000000E+00  0.72398239442E+03  0.72398239442E+03  0.25500000920E-02 0. -1.
        2   -1    0    0  501    0  0.00000000000E+00  0.00000000000E+00 -0.34220523610E+03  0.34220523611E+03  0.25500000920E-02 0.  1.
    10030    2    1    2    0    0  0.00000000000E+00  0.00000000000E+00  0.38177715832E+03  0.10661876305E+04  0.99549096675E+03 0.  0.
        3    1    3    3  502    0  0.79196919752E+02 -0.31724542781E+03  0.59281788802E+03  0.67701541498E+03  0.10100000352E+00 0. -1.
       -3    1    3    3    0  502 -0.79196919752E+02  0.31724542781E+03 -0.21104072970E+03  0.38917221555E+03  0.10100000352E+00 0.  1.
</event>
<event>
 5   0  0.5310275E-03  0.1036185E+04  0.7818609E-02  0.9269725E-01
       -1   -1    0    0    0  501  0.00000000000E+00  0.00000000000E+00  0.26561038082E+03  0.26561038087E+03  0.50400001928E-02 0. -1.
        1   -1    0    0  501    0  0.00000000000E+00  0.00000000000E+00 -0.10105769381E+04  0.10105769381E+04  0.50400001928E-02 0.  1.
    10030    2    1    2    0    0  0.00000000000E+00  0.00000000000E+00 -0.74496655729E+03  0.12761873190E+04  0.10361847816E+04 0.  0.
        1    1    3    3  502    0 -0.31027363373E+03  0.35703441653E+03 -0.11215795768E+03  0.48613034247E+03  0.50400001928E-02 0. -1.
       -1    1    3    3    0  502  0.31027363373E+03 -0.35703441653E+03 -0.63280859960E+03  0.79005697651E+03  0.50400001928E-02 0.  1.
</event>
<event>
 5   0  0.5201968E-03  0.9879085E+03  0.7818609E-02  0.9321907E-01
        1   -1    0    0  501    0  0.00000000000E+00  0.00000000000E+00  0.86284377882E+03  0.86284377883E+03  0.50400001928E-02 0. -1.
       -1   -1    0    0    0  501  0.00000000000E+00  0.00000000000E+00 -0.28277516540E+03  0.28277516544E+03  0.50400001928E-02 0.  1.
    10030    2    1    2    0    0  0.00000000000E+00  0.00000000000E+00  0.58006861342E+03  0.11456189443E+04  0.98790848220E+03 0.  0.
        2    1    3    3  502    0  0.45492578999E+03  0.15778588353E+03  0.41778931868E+03  0.63749648960E+03  0.25500000920E-02 0. -1.
       -2    1    3    3    0  502 -0.45492578999E+03 -0.15778588353E+03  0.16227929474E+03  0.50812245468E+03  0.25500000920E-02 0.  1.
</event>
<event>
 5   0  0.5072205E-03  0.1014163E+04  0.7818609E-02  0.9293146E-01
       -1   -1    0    0    0  501  0.00000000000E+00  0.00000000000E+00  0.25952393371E+03  0.25952393375E+03  0.50400001928E-02 0. -1.
        1   -1    0    0  501    0  0.00000000000E+00  0.00000000000E+00 -0.99078186218E+03  0.99078186220E+03  0.50400001928E-02 0.  1.
    10030    2    1    2    0    0  0.00000000000E+00  0.00000000000E+00 -0.73125792848E+03  0.12503057959E+04  0.10141629186E+04 0.  0.
        5    1    3    3  502    0 -0.14565386157E+03 -0.48111920973E+03 -0.28367698227E+03  0.57722219433E+03  0.46999998093E+01 0. -1.
       -5    1    3    3    0  502  0.14565386157E+03  0.48111920973E+03 -0.44758094621E+03  0.67308360162E+03  0.46999998093E+01 0.  1.
</event>
<event>
 5   0  0.8968798E-03  0.1033087E+04  0.7818609E-02  0.9272982E-01
       -2   -1    0    0    0  501  0.00000000000E+00  0.00000000000E+00  0.16948848108E+03  0.16948848110E+03  0.25500000920E-02 0. -1.
        2   -1    0    0  501    0  0.00000000000E+00  0.00000000000E+00 -0.15742486777E+04  0.15742486777E+04  0.25500000920E-02 0.  1.
    10030    2    1    2    0    0  0.00000000000E+00  0.00000000000E+00 -0.14047601966E+04  0.17437371588E+04  0.10330866706E+04 0.  0.
        2    1    3    3  502    0  0.32836593625E+03  0.52763228549E+02 -0.35270620431E+02  0.33444306399E+03  0.25500000920E-02 0. -1.
       -2    1    3    3    0  502 -0.32836593625E+03 -0.52763228549E+02 -0.13694895762E+04  0.14092940948E+04  0.25500000920E-02 0.  1.
</event>
<event>
 5   0  0.8875655E-03  0.1034320E+04  0.7818609E-02  0.9271684E-01
       -2   -1    0    0    0  501  0.00000000000E+00  0.00000000000E+00  0.24613780500E+03  0.24613780501E+03  0.25500000920E-02 0. -1.
        2   -1    0    0  501    0  0.00000000000E+00  0.00000000000E+00 -0.10866038750E+04  0.10866038750E+04  0.25500000920E-02 0.  1.
    10030    2    1    2    0    0  0.00000000000E+00  0.00000000000E+00 -0.84046606999E+03  0.13327416800E+04  0.10343196657E+04 0.  0.
        4    1    3    3  502    0  0.28344940394E+03 -0.40389651897E+03 -0.22071320866E+03  0.54054777403E+03  0.12699999809E+01 0.  1.
       -4    1    3    3    0  502 -0.28344940394E+03  0.40389651897E+03 -0.61975286133E+03  0.79219390598E+03  0.12699999809E+01 0. -1.
</event>
<event>
 5   0  0.5189877E-03  0.1022165E+04  0.7818609E-02  0.9284563E-01
       -1   -1    0    0    0  501  0.00000000000E+00  0.00000000000E+00  0.14843278348E+03  0.14843278357E+03  0.50400001928E-02 0. -1.
        1   -1    0    0  501    0  0.00000000000E+00  0.00000000000E+00 -0.17597548424E+04  0.17597548424E+04  0.50400001928E-02 0.  1.
    10030    2    1    2    0    0  0.00000000000E+00  0.00000000000E+00 -0.16113220589E+04  0.19081876260E+04  0.10221649761E+04 0.  0.
        3    1    3    3  502    0 -0.16865479737E+03  0.14478362181E+03  0.53474307633E+02  0.22861813051E+03  0.10100000352E+00 0. -1.
       -3    1    3    3    0  502  0.16865479737E+03 -0.14478362181E+03 -0.16647963666E+04  0.16795694955E+04  0.10100000352E+00 0.  1.
</event>
<event>
 5   0  0.8968798E-03  0.1009126E+04  0.7818609E-02  0.9298592E-01
        2   -1    0    0  501    0  0.00000000000E+00  0.00000000000E+00  0.35520150611E+03  0.35520150612E+03  0.25500000920E-02 0. -1.
       -2   -1    0    0    0  501  0.00000000000E+00  0.00000000000E+00 -0.71673103155E+03  0.71673103155E+03  0.25500000920E-02 0.  1.
    10030    2    1    2    0    0  0.00000000000E+00  0.00000000000E+00 -0.36152952544E+03  0.10719325377E+04  0.10091262397E+04 0.  0.
        2    1    3    3  502    0  0.32668603392E+03  0.32332277653E+03  0.40330281050E+02  0.46139778300E+03  0.25500000920E-02 0. -1.
       -2    1    3    3    0  502 -0.32668603392E+03 -0.32332277653E+03 -0.40185980648E+03  0.61053475467E+03  0.25500000920E-02 0.  1.
</event>
<event>
 5   0  0.5072205E-03  0.1018627E+04  0.7818609E-02  0.9288347E-01
       -1   -1    0    0    0  501  0.00000000000E+00  0.00000000000E+00  0.27578273445E+03  0.27578273450E+03  0.50400001928E-02 0. -1.
        1   -1    0    0  501    0  0.00000000000E+00  0.00000000000E+00 -0.94059730020E+03  0.94059730022E+03  0.50400001928E-02 0.  1.
    10030    2    1    2    0    0  0.00000000000E+00  0.00000000000E+00 -0.66481456575E+03  0.12163800347E+04  0.10186274991E+04 0.  0.
        5    1    3    3  502    0  0.23470874372E+03  0.29948817826E+02  0.20613795035E+03  0.31384720907E+03  0.46999998093E+01 0. -1.
       -5    1    3    3    0  502 -0.23470874372E+03 -0.29948817826E+02 -0.87095251610E+03  0.90253282564E+03  0.46999998093E+01 0.  1.
</event>
<event>
 5   0  0.3513625E-03  0.1017072E+04  0.7818609E-02  0.9290016E-01
       -3   -1    0    0    0  501  0.00000000000E+00  0.00000000000E+00  0.40830958796E+03  0.40830960045E+03  0.10100000352E+00 0.  1.
        3   -1    0    0  501    0  0.00000000000E+00  0.00000000000E+00 -0.63336513122E+03  0.63336513927E+03  0.10100000352E+00 0. -1.
    10030    2    1    2    0    0  0.00000000000E+00  0.00000000000E+00 -0.22505554326E+03  0.10416747397E+04  0.10170723995E+04 0.  0.
        2    1    3    3  502    0  0.29469707494E+03  0.10604636429E+03 -0.52286470072E+03  0.60949133926E+03  0.25500000920E-02 0. -1.
       -2    1    3    3    0  502 -0.29469707494E+03 -0.10604636429E+03  0.29780915746E+03  0.43218340046E+03  0.25500000920E-02 0.  1.
</event>
<event>
 5   0  0.5349685E-03  0.9928326E+03  0.7818609E-02  0.9316441E-01
       -1   -1    0    0    0  501  0.00000000000E+00  0.00000000000E+00  0.33807147929E+03  0.33807147933E+03  0.50400001928E-02 0. -1.
        1   -1    0    0  501    0  0.00000000000E+00  0.00000000000E+00 -0.72892620540E+03  0.72892620542E+03  0.50400001928E-02 0.  1.
    10030    2    1    2    0    0  0.00000000000E+00  0.00000000000E+00 -0.39085472611E+03  0.10669976848E+04  0.99283263562E+03 0.  0.
        4    1    3    3  502    0 -0.34944334546E+02  0.41740935870E+03  0.90886772561E+02  0.42861835889E+03  0.12699999809E+01 0. -1.
       -4    1    3    3    0  502  0.34944334546E+02 -0.41740935870E+03 -0.48174149867E+03  0.63837932586E+03  0.12699999809E+01 0.  1.
</event>
<event>
 5   0  0.5201968E-03  0.9951657E+03  0.7818609E-02  0.9313863E-01
       -1   -1    0    0    0  501  0.00000000000E+00  0.00000000000E+00  0.25948088667E+03  0.25948088672E+03  0.50400001928E-02 0. -1.
        1   -1    0    0  501    0  0.00000000000E+00  0.00000000000E+00 -0.95416920047E+03  0.95416920048E+03  0.50400001928E-02 0.  1.
    10030    2    1    2    0    0  0.00000000000E+00  0.00000000000E+00 -0.69468831380E+03  0.12136500872E+04  0.99516565496E+03 0.  0.
        2    1    3    3  502    0  0.27967206227E+03 -0.37340518589E+03 -0.13632123581E+03  0.48603639226E+03  0.25500000920E-02 0. -1.
       -2    1    3    3    0  502 -0.27967206227E+03  0.37340518589E+03 -0.55836707799E+03  0.72761369493E+03  0.25500000920E-02 0.  1.
</event>
<event>
 5   0  0.5072205E-03  0.9997584E+03  0.7818609E-02  0.9308810E-01
       -1   -1    0    0    0  501  0.00000000000E+00  0.00000000000E+00  0.25316919210E+03  0.25316919215E+03  0.50400001928E-02 0.  1.
        1   -1    0    0  501    0  0.00000000000E+00  0.00000000000E+00 -0.98700482923E+03  0.98700482924E+03  0.50400001928E-02 0. -1.
    10030    2    1    2    0    0  0.00000000000E+00  0.00000000000E+00 -0.73383563713E+03  0.12401740214E+04  0.99975840131E+03 0.  0.
        5    1    3    3  502    0  0.16178403909E+03 -0.87840549734E+02  0.20955834341E+03  0.27897459879E+03  0.46999998093E+01 0.  1.
       -5    1    3    3    0  502 -0.16178403909E+03  0.87840549734E+02 -0.94339398054E+03  0.96119942259E+03  0.46999998093E+01 0. -1.
</event>
<event>
 5   0  0.5310275E-03  0.9582193E+03  0.7818609E-02  0.9355595E-01
       -1   -1    0    0    0  501  0.00000000000E+00  0.00000000000E+00  0.15293656798E+03  0.15293656807E+03  0.50400001928E-02 0.  1.
        1   -1    0    0  501    0  0.00000000000E+00  0.00000000000E+00 -0.15009232208E+04  0.15009232208E+04  0.50400001928E-02 0. -1.
    10030    2    1    2    0    0  0.00000000000E+00  0.00000000000E+00 -0.13479866528E+04  0.16538597888E+04  0.95821927818E+03 0.  0.
        1    1    3    3  502    0 -0.20929228746E+02  0.46338867790E+03 -0.88095852414E+03  0.99561790899E+03  0.50400001928E-02 0. -1.
       -1    1    3    3    0  502  0.20929228746E+02 -0.46338867790E+03 -0.46702812864E+03  0.65824187985E+03  0.50400001928E-02 0.  1.
</event>
<event>
 5   0  0.9243773E-03  0.1019343E+04  0.7818609E-02  0.9287581E-01
        2   -1    0    0  501    0  0.00000000000E+00  0.00000000000E+00  0.21424111559E+03  0.21424111561E+03  0.25500000920E-02 0.  1.
       -2   -1    0    0    0  501  0.00000000000E+00  0.00000000000E+00 -0.12124881386E+04  0.12124881386E+04  0.25500000920E-02 0. -1.
    10030    2    1    2    0    0  0.00000000000E+00  0.00000000000E+00 -0.99824702303E+03  0.14267292542E+04  0.10193425557E+04 0.  0.
        3    1    3    3  502    0 -0.35154222894E+03  0.17540636034E+03 -0.95356041097E+03  0.10313228387E+04  0.10100000352E+00 0. -1.
       -3    1    3    3    0  502  0.35154222894E+03 -0.17540636034E+03 -0.44686612064E+02  0.39540641557E+03  0.10100000352E+00 0.  1.
</event>
<event>
 5   0  0.9243773E-03  0.9818583E+03  0.7818609E-02  0.9328669E-01
       -2   -1    0    0    0  501  0.00000000000E+00  0.00000000000E+00  0.11411531598E+04  0.11411531598E+04  0.25500000920E-02 0.  1.
        2   -1    0    0  501    0  0.00000000000E+00  0.00000000000E+00 -0.21119990370E+03  0.21119990371E+03  0.25500000920E-02 0. -1.
    10030    2    1    2    0    0  0.00000000000E+00  0.00000000000E+00  0.92995325607E+03  0.13523530635E+04  0.98185831454E+03 0.  0.
        3    1    3    3  502    0 -0.39389428014E+03  0.16493390368E+03  0.79855336142E+03  0.90556246485E+03  0.10100000352E+00 0.  1.
       -3    1    3    3    0  502  0.39389428014E+03 -0.16493390368E+03  0.13139989465E+03  0.44679059863E+03  0.10100000352E+00 0. -1.
</event>
<event>
 5   0  0.5072205E-03  0.9975844E+03  0.7818609E-02  0.9311198E-01
        1   -1    0    0  501    0  0.00000000000E+00  0.00000000000E+00  0.21769097329E+03  0.21769097335E+03  0.50400001928E-02 0. -1.
       -1   -1    0    0    0  501  0.00000000000E+00  0.00000000000E+00 -0.11428754194E+04  0.11428754195E+04  0.50400001928E-02 0.  1.
    10030    2    1    2    0    0  0.00000000000E+00  0.00000000000E+00 -0.92518444615E+03  0.13605663928E+04  0.99758440737E+03 0.  0.
        5    1    3    3  502    0  0.15705371370E+03  0.12796138002E+03  0.15902259441E+03  0.25758544077E+03  0.46999998093E+01 0. -1.
       -5    1    3    3    0  502 -0.15705371370E+03 -0.12796138002E+03 -0.10842070406E+04  0.11029809520E+04  0.46999998093E+01 0.  1.
</event>
<event>
 5   0  0.5189877E-03  0.1009197E+04  0.7818609E-02  0.9298514E-01
       -1   -1    0    0    0  501  0.00000000000E+00  0.00000000000E+00  0.43562667853E+03  0.43562667856E+03  0.50400001928E-02 0. -1.
        1   -1    0    0  501    0  0.00000000000E+00  0.00000000000E+00 -0.58449088767E+03  0.58449088769E+03  0.50400001928E-02 0.  1.
    10030    2    1    2    0    0  0.00000000000E+00  0.00000000000E+00 -0.14886420913E+03  0.10201175662E+04  0.10091973525E+04 0.  0.
        3    1    3    3  502    0  0.51127490545E+02  0.45080252141E+03 -0.29769052247E+03  0.54263854541E+03  0.10100000352E+00 0.  1.
       -3    1    3    3    0  502 -0.51127490545E+02 -0.45080252141E+03  0.14882631334E+03  0.47747902084E+03  0.10100000352E+00 0. -1.
</event>
<event>
 5   0  0.5189877E-03  0.1000340E+04  0.7818609E-02  0.9308173E-01
       -1   -1    0    0    0  501  0.00000000000E+00  0.00000000000E+00  0.75316565386E+03  0.75316565388E+03  0.50400001928E-02 0. -1.
        1   -1    0    0  501    0  0.00000000000E+00  0.00000000000E+00 -0.33215772056E+03  0.33215772059E+03  0.50400001928E-02 0.  1.
    10030    2    1    2    0    0  0.00000000000E+00  0.00000000000E+00  0.42100793330E+03  0.10853233745E+04  0.10003395160E+04 0.  0.
        3    1    3    3  502    0  0.48986060004E+03  0.69536964195E+02  0.29001703064E+03  0.57350561037E+03  0.10100000352E+00 0. -1.
       -3    1    3    3    0  502 -0.48986060004E+03 -0.69536964195E+02  0.13099090266E+03  0.51181776410E+03  0.10100000352E+00 0.  1.
</event>
<event>
 5   0  0.8968798E-03  0.1006970E+04  0.7818609E-02  0.9300933E-01
       -2   -1    0    0    0  501  0.00000000000E+00  0.00000000000E+00  0.20966709124E+03  0.20966709126E+03  0.25500000920E-02 0.  1.
        2   -1    0    0  501    0  0.00000000000E+00  0.00000000000E+00 -0.12090467469E+04  0.12090467469E+04  0.25500000920E-02 0. -1.
    10030    2    1    2    0    0  0.00000000000E+00  0.00000000000E+00 -0.99937965562E+03  0.14187138381E+04  0.10069703364E+04 0.  0.
        2    1    3    3  502    0 -0.33476882312E+03  0.32576363564E+03 -0.23496328602E+03  0.52287652177E+03  0.25500000920E-02 0.  1.
       -2    1    3    3    0  502  0.33476882312E+03 -0.32576363564E+03 -0.76441636960E+03  0.89583731635E+03  0.25500000920E-02 0. -1.
</event>
<event>
 5   0  0.8968798E-03  0.9913686E+03  0.7818609E-02  0.9318063E-01
        2   -1    0    0  501    0  0.00000000000E+00  0.00000000000E+00  0.18645358012E+04  0.18645358012E+04  0.25500000920E-02 0.  1.
       -2   -1    0    0    0  501  0.00000000000E+00  0.00000000000E+00 -0.13177698284E+03  0.13177698287E+03  0.25500000920E-02 0. -1.
    10030    2    1    2    0    0  0.00000000000E+00  0.00000000000E+00  0.17327588183E+04  0.19963127840E+04  0.99136855368E+03 0.  0.
        2    1    3    3  502    0  0.11987275469E+03 -0.27554278299E+03  0.72540521261E+02  0.30912041312E+03  0.25500000920E-02 0. -1.
       -2    1    3    3    0  502 -0.11987275469E+03  0.27554278299E+03  0.16602182971E+04  0.16871923709E+04  0.25500000920E-02 0.  1.
</event>
<event>
 5   0  0.5349685E-03  0.1006309E+04  0.7818609E-02  0.9301653E-01
       -1   -1    0    0    0  501  0.00000000000E+00  0.00000000000E+00  0.10030459027E+04  0.10030459027E+04  0.50400001928E-02 0.  1.
        1   -1    0    0  501    0  0.00000000000E+00  0.00000000000E+00 -0.25239545987E+03  0.25239545992E+03  0.50400001928E-02 0. -1.
    10030    2    1    2    0    0  0.00000000000E+00  0.00000000000E+00  0.75065044283E+03  0.12554413626E+04  0.10063085648E+04 0.  0.
        4    1    3    3  502    0 -0.33793058964E+03  0.18873976738E+03  0.77638162171E+03  0.86751934770E+03  0.12699999809E+01 0.  1.
       -4    1    3    3    0  502  0.33793058964E+03 -0.18873976738E+03 -0.25731178872E+02  0.38792201494E+03  0.12699999809E+01 0. -1.
</event>
<event>
 5   0  0.9040674E-03  0.1001418E+04  0.7818609E-02  0.9306991E-01
        2   -1    0    0  501    0  0.00000000000E+00  0.00000000000E+00  0.88952978042E+03  0.88952978042E+03  0.25500000920E-02 0. -1.
       -2   -1    0    0    0  501  0.00000000000E+00  0.00000000000E+00 -0.28184493501E+03  0.28184493502E+03  0.25500000920E-02 0.  1.
    10030    2    1    2    0    0  0.00000000000E+00  0.00000000000E+00  0.60768484541E+03  0.11713747154E+04  0.10014179211E+04 0.  0.
        1    1    3    3  502    0 -0.31063896199E+02 -0.27903013126E+03  0.78879760217E+03  0.83727202092E+03  0.50400001928E-02 0. -1.
       -1    1    3    3    0  502  0.31063896199E+02  0.27903013126E+03 -0.18111275676E+03  0.33410269452E+03  0.50400001928E-02 0.  1.
</event>
<event>
 5   0  0.3513625E-03  0.1016941E+04  0.7818609E-02  0.9290157E-01
       -3   -1    0    0    0  501  0.00000000000E+00  0.00000000000E+00  0.92521678420E+03  0.92521678972E+03  0.10100000352E+00 0. -1.
        3   -1    0    0  501    0  0.00000000000E+00  0.00000000000E+00 -0.27943959953E+03  0.27943961779E+03  0.10100000352E+00 0.  1.
    10030    2    1    2    0    0  0.00000000000E+00  0.00000000000E+00  0.64577718467E+03  0.12046564075E+04  0.10169409461E+04 0.  0.
        2    1    3    3  502    0  0.49133128329E+03 -0.10847729542E+03  0.40968318343E+03  0.64885596580E+03  0.25500000920E-02 0. -1.
       -2    1    3    3    0  502 -0.49133128329E+03  0.10847729542E+03  0.23609400124E+03  0.55580044170E+03  0.25500000920E-02 0.  1.
</event>
<event>
 5   0  0.8907355E-03  0.9963522E+03  0.7818609E-02  0.9312555E-01
       -2   -1    0    0    0  501  0.00000000000E+00  0.00000000000E+00  0.12846812719E+03  0.12846812721E+03  0.25500000920E-02 0. -1.
        2   -1    0    0  501    0  0.00000000000E+00  0.00000000000E+00 -0.19318365303E+04  0.19318365303E+04  0.25500000920E-02 0.  1.
    10030    2    1    2    0    0  0.00000000000E+00  0.00000000000E+00 -0.18033684031E+04  0.20603046575E+04  0.99635218896E+03 0.  0.
        5    1    3    3  502    0  0.42919650387E+03  0.15669723489E+03 -0.49126111756E+03  0.67091224312E+03  0.46999998093E+01 0. -1.
       -5    1    3    3    0  502 -0.42919650387E+03 -0.15669723489E+03 -0.13121072856E+04  0.13893924144E+04  0.46999998093E+01 0.  1.
</event>
<event>
 5   0  0.8907355E-03  0.1007600E+04  0.7818609E-02  0.9300249E-01
       -2   -1    0    0    0  501  0.00000000000E+00  0.00000000000E+00  0.12634620176E+03  0.12634620178E+03  0.25500000920E-02 0. -1.
        2   -1    0    0  501    0  0.00000000000E+00  0.00000000000E+00 -0.20088790056E+04  0.20088790056E+04  0.25500000920E-02 0.  1.
    10030    2    1    2    0    0  0.00000000000E+00  0.00000000000E+00 -0.18825328039E+04  0.21352252074E+04  0.10075995875E+04 0.  0.
        5    1    3    3  502    0  0.38993170772E+03  0.12468813060E+03 -0.15634305704E+04  0.16161469937E+04  0.46999998093E+01 0.  1.
       -5    1    3    3    0  502 -0.38993170772E+03 -0.12468813060E+03 -0.31910223344E+03  0.51907821374E+03  0.46999998093E+01 0. -1.
</event>
<event>
 5   0  0.3513625E-03  0.1005827E+04  0.7818609E-02  0.9302177E-01
       -3   -1    0    0    0  501  0.00000000000E+00  0.00000000000E+00  0.12328539014E+04  0.12328539056E+04  0.10100000352E+00 0.  1.
        3   -1    0    0  501    0  0.00000000000E+00  0.00000000000E+00 -0.20515151180E+03  0.20515153666E+03  0.10100000352E+00 0. -1.
    10030    2    1    2    0    0  0.00000000000E+00  0.00000000000E+00  0.10277023896E+04  0.14380054422E+04  0.10058267496E+04 0.  0.
        5    1    3    3  502    0  0.39164048772E+03  0.18062195487E+03  0.88361838058E+03  0.98326501753E+03  0.46999998093E+01 0.  1.
       -5    1    3    3    0  502 -0.39164048772E+03 -0.18062195487E+03  0.14408400906E+03  0.45474042471E+03  0.46999998093E+01 0. -1.
</event>
<event>
 5   0  0.8968798E-03  0.1004445E+04  0.7818609E-02  0.9303683E-01
       -2   -1    0    0    0  501  0.00000000000E+00  0.00000000000E+00  0.30810521457E+03  0.30810521458E+03  0.25500000920E-02 0. -1.
        2   -1    0    0  501    0  0.00000000000E+00  0.00000000000E+00 -0.81864041056E+03  0.81864041056E+03  0.25500000920E-02 0.  1.
    10030    2    1    2    0    0  0.00000000000E+00  0.00000000000E+00 -0.51053519599E+03  0.11267456251E+04  0.10044448802E+04 0.  0.
        2    1    3    3  502    0 -0.47766416265E+03 -0.47566580959E+02 -0.89635148985E+02  0.48832375719E+03  0.25500000920E-02 0. -1.
       -2    1    3    3    0  502  0.47766416265E+03  0.47566580959E+02 -0.42090004700E+03  0.63842186795E+03  0.25500000920E-02 0.  1.
</event>
<event>
 5   0  0.5072205E-03  0.1006102E+04  0.7818609E-02  0.9301877E-01
        1   -1    0    0  501    0  0.00000000000E+00  0.00000000000E+00  0.96722463863E+03  0.96722463865E+03  0.50400001928E-02 0. -1.
       -1   -1    0    0    0  501  0.00000000000E+00  0.00000000000E+00 -0.26163552732E+03  0.26163552737E+03  0.50400001928E-02 0.  1.
    10030    2    1    2    0    0  0.00000000000E+00  0.00000000000E+00  0.70558911131E+03  0.12288601660E+04  0.10061020394E+04 0.  0.
        5    1    3    3  502    0 -0.32324499389E+02 -0.50119748320E+03  0.31836803206E+03  0.59466300059E+03  0.46999998093E+01 0.  1.
       -5    1    3    3    0  502  0.32324499389E+02  0.50119748320E+03  0.38722107925E+03  0.63419716543E+03  0.46999998093E+01 0. -1.
</event>
<event>
 5   0  0.9243773E-03  0.9877753E+03  0.7818609E-02  0.9322055E-01
       -2   -1    0    0    0  501  0.00000000000E+00  0.00000000000E+00  0.50682808371E+03  0.50682808372E+03  0.25500000920E-02 0.  1.
        2   -1    0    0  501    0  0.00000000000E+00  0.00000000000E+00 -0.48127765874E+03  0.48127765875E+03  0.25500000920E-02 0. -1.
    10030    2    1    2    0    0  0.00000000000E+00  0.00000000000E+00  0.25550424968E+02  0.98810574247E+03  0.98777534596E+03 0.  0.
        3    1    3    3  502    0 -0.63049322051E+02 -0.42605356927E+03 -0.22902481998E+03  0.48780040925E+03  0.10100000352E+00 0. -1.
       -3    1    3    3    0  502  0.63049322051E+02  0.42605356927E+03  0.25457524495E+03  0.50030533321E+03  0.10100000352E+00 0.  1.
</event>
<event>
 5   0  0.5189877E-03  0.9800943E+03  0.7818609E-02  0.9330651E-01
        1   -1    0    0  501    0  0.00000000000E+00  0.00000000000E+00  0.14005843242E+04  0.14005843242E+04  0.50400001928E-02 0. -1.
       -1   -1    0    0    0  501  0.00000000000E+00  0.00000000000E+00 -0.17146142880E+03  0.17146142887E+03  0.50400001928E-02 0.  1.
    10030    2    1    2    0    0  0.00000000000E+00  0.00000000000E+00  0.12291228954E+04  0.15720457530E+04  0.98009425963E+03 0.  0.
        3    1    3    3  502    0 -0.33370712863E+03  0.95048627042E+02  0.11696187225E+04  0.12200010883E+04  0.10100000352E+00 0. -1.
       -3    1    3    3    0  502  0.33370712863E+03 -0.95048627042E+02  0.59504172867E+02  0.35204466476E+03  0.10100000352E+00 0.  1.
</event>
<event>
 5   0  0.8875655E-03  0.8534704E+03  0.7818609E-02  0.9485691E-01
        2   -1    0    0  501    0  0.00000000000E+00  0.00000000000E+00  0.95987922854E+03  0.95987922854E+03  0.25500000920E-02 0. -1.
       -2   -1    0    0    0  501  0.00000000000E+00  0.00000000000E+00 -0.18971441917E+03  0.18971441919E+03  0.25500000920E-02 0.  1.
    10030    2    1    2    0    0  0.00000000000E+00  0.00000000000E+00  0.77016480937E+03  0.11495936477E+04  0.85347039861E+03 0.  0.
        4    1    3    3  502    0 -0.19342401596E+03 -0.59066789613E+02 -0.12105985283E+03  0.23570922013E+03  0.12699999809E+01 0.  1.
       -4    1    3    3    0  502  0.19342401596E+03  0.59066789613E+02  0.89122466220E+03  0.91388442760E+03  0.12699999809E+01 0. -1.
</event>
<event>
 5   0  0.5201968E-03  0.1003663E+04  0.7818609E-02  0.9304536E-01
       -1   -1    0    0    0  501  0.00000000000E+00  0.00000000000E+00  0.12475999033E+04  0.12475999033E+04  0.50400001928E-02 0. -1.
        1   -1    0    0  501    0  0.00000000000E+00  0.00000000000E+00 -0.20185544336E+03  0.20185544343E+03  0.50400001928E-02 0.  1.
    10030    2    1    2    0    0  0.00000000000E+00  0.00000000000E+00  0.10457444599E+04  0.14494553467E+04  0.10036629547E+04 0.  0.
        2    1    3    3  502    0 -0.35379882097E+03 -0.32312855288E+03  0.30745829347E+03  0.56931210213E+03  0.25500000920E-02 0.  1.
       -2    1    3    3    0  502  0.35379882097E+03  0.32312855288E+03  0.73828616643E+03  0.88014324456E+03  0.25500000920E-02 0. -1.
</event>
<event>
 5   0  0.5310275E-03  0.9925561E+03  0.7818609E-02  0.9316747E-01
       -1   -1    0    0    0  501  0.00000000000E+00  0.00000000000E+00  0.15802108068E+03  0.15802108076E+03  0.50400001928E-02 0. -1.
        1   -1    0    0  501    0  0.00000000000E+00  0.00000000000E+00 -0.15586016820E+04  0.15586016820E+04  0.50400001928E-02 0.  1.
    10030    2    1    2    0    0  0.00000000000E+00  0.00000000000E+00 -0.14005806013E+04  0.17166227627E+04  0.99255613888E+03 0.  0.
        1    1    3    3  502    0 -0.13583113458E+03 -0.47659939573E+03 -0.65470104294E+03  0.82111542233E+03  0.50400001928E-02 0. -1.
       -1    1    3    3    0  502  0.13583113458E+03  0.47659939573E+03 -0.74587955836E+03  0.89550734042E+03  0.50400001928E-02 0.  1.
</event>
<event>
 5   0  0.8907355E-03  0.1004191E+04  0.7818609E-02  0.9303960E-01
       -2   -1    0    0    0  501  0.00000000000E+00  0.00000000000E+00  0.34482857146E+03  0.34482857147E+03  0.25500000920E-02 0. -1.
        2   -1    0    0  501    0  0.00000000000E+00  0.00000000000E+00 -0.73108828849E+03  0.73108828849E+03  0.25500000920E-02 0.  1.
    10030    2    1    2    0    0  0.00000000000E+00  0.00000000000E+00 -0.38625971702E+03  0.10759168600E+04  0.10041914760E+04 0.  0.
        5    1    3    3  502    0  0.48811806978E+03 -0.11204184196E+03 -0.23124335572E+03  0.55164137259E+03  0.46999998093E+01 0. -1.
       -5    1    3    3    0  502 -0.48811806978E+03  0.11204184196E+03 -0.15501636130E+03  0.52427548737E+03  0.46999998093E+01 0.  1.
</event>
<event>
 5   0  0.5072205E-03  0.9932797E+03  0.7818609E-02  0.9315946E-01
        1   -1    0    0  501    0  0.00000000000E+00  0.00000000000E+00  0.55086310419E+03  0.55086310422E+03  0.50400001928E-02 0.  1.
       -1   -1    0    0    0  501  0.00000000000E+00  0.00000000000E+00 -0.44775401075E+03  0.44775401078E+03  0.50400001928E-02 0. -1.
    10030    2    1    2    0    0  0.00000000000E+00  0.00000000000E+00  0.10310909345E+03  0.99861711499E+03  0.99327974771E+03 0.  0.
        5    1    3    3  502    0  0.18924651302E+03  0.84769444862E+02 -0.40212292048E+03  0.45246550658E+03  0.46999998093E+01 0. -1.
       -5    1    3    3    0  502 -0.18924651302E+03 -0.84769444862E+02  0.50523201393E+03  0.54615160841E+03  0.46999998093E+01 0.  1.
</event>
<event>
 5   0  0.9243773E-03  0.9964068E+03  0.7818609E-02  0.9312495E-01
        2   -1    0    0  501    0  0.00000000000E+00  0.00000000000E+00  0.45166140691E+03  0.45166140692E+03  0.25500000920E-02 0. -1.
       -2   -1    0    0    0  501  0.00000000000E+00  0.00000000000E+00 -0.54954132562E+03  0.54954132562E+03  0.25500000920E-02 0.  1.
    10030    2    1    2    0    0  0.00000000000E+00  0.00000000000E+00 -0.97879918703E+02  0.10012027325E+04  0.99640676090E+03 0.  0.
        3    1    3    3  502    0  0.29483805968E+03 -0.20533221658E+03 -0.39573273515E+03  0.53450463841E+03  0.10100000352E+00 0.  1.
       -3    1    3    3    0  502 -0.29483805968E+03  0.20533221658E+03  0.29785281645E+03  0.46669809414E+03  0.10100000352E+00 0. -1.
</event>
<event>
 5   0  0.9040674E-03  0.9939259E+03  0.7818609E-02  0.9315232E-01
       -2   -1    0    0    0  501  0.00000000000E+00  0.00000000000E+00  0.61129811815E+03  0.61129811815E+03  0.25500000920E-02 0. -1.
        2   -1    0    0  501    0  0.00000000000E+00  0.00000000000E+00 -0.40401268610E+03  0.40401268611E+03  0.25500000920E-02 0.  1.
    10030    2    1    2    0    0  0.00000000000E+00  0.00000000000E+00  0.20728543205E+03  0.10153108043E+04  0.99392594237E+03 0.  0.
        1    1    3    3  502    0  0.10614645591E+03 -0.11810719018E+03  0.58468415628E+03  0.60586462275E+03  0.50400001928E-02 0. -1.
       -1    1    3    3    0  502 -0.10614645591E+03  0.11810719018E+03 -0.37739872423E+03  0.40944618151E+03  0.50400001928E-02 0.  1.
</event>
<event>
 5   0  0.5201968E-03  0.1004022E+04  0.7818609E-02  0.9304144E-01
        1   -1    0    0  501    0  0.00000000000E+00  0.00000000000E+00  0.15756344499E+04  0.15756344499E+04  0.50400001928E-02 0. -1.
       -1   -1    0    0    0  501  0.00000000000E+00  0.00000000000E+00 -0.15994513035E+03  0.15994513043E+03  0.50400001928E-02 0.  1.
    10030    2    1    2    0    0  0.00000000000E+00  0.00000000000E+00  0.14156893196E+04  0.17355795803E+04  0.10040220267E+04 0.  0.
        2    1    3    3  502    0 -0.30780732842E+03 -0.38269939054E+03  0.88757933309E+03  0.10143969871E+04  0.25500000920E-02 0. -1.
       -2    1    3    3    0  502  0.30780732842E+03  0.38269939054E+03  0.52810998648E+03  0.72118259322E+03  0.25500000920E-02 0.  1.
</event>
<event>
 5   0  0.5201968E-03  0.1007001E+04  0.7818609E-02  0.9300899E-01
       -1   -1    0    0    0  501  0.00000000000E+00  0.00000000000E+00  0.21778320066E+03  0.21778320072E+03  0.50400001928E-02 0. -1.
        1   -1    0    0  501    0  0.00000000000E+00  0.00000000000E+00 -0.11640611574E+04  0.11640611574E+04  0.50400001928E-02 0.  1.
    10030    2    1    2    0    0  0.00000000000E+00  0.00000000000E+00 -0.94627795677E+03  0.13818443582E+04  0.10070014194E+04 0.  0.
        2    1    3    3  502    0 -0.34931622575E+03  0.30836921329E+03 -0.73494350912E+03  0.87020420528E+03  0.25500000920E-02 0. -1.
       -2    1    3    3    0  502  0.34931622575E+03 -0.30836921329E+03 -0.21133444765E+03  0.51164015289E+03  0.25500000920E-02 0.  1.
</event>
<event>
 5   0  0.9243773E-03  0.1002046E+04  0.7818609E-02  0.9306304E-01
        2   -1    0    0  501    0  0.00000000000E+00  0.00000000000E+00  0.17173782304E+04  0.17173782304E+04  0.25500000920E-02 0.  1.
       -2   -1    0    0    0  501  0.00000000000E+00  0.00000000000E+00 -0.14616697297E+03  0.14616697299E+03  0.25500000920E-02 0. -1.
    10030    2    1    2    0    0  0.00000000000E+00  0.00000000000E+00  0.15712112574E+04  0.18635452034E+04  0.10020458620E+04 0.  0.
        3    1    3    3  502    0 -0.32596128260E+03  0.22151289151E+02  0.14920194813E+04  0.15273714611E+04  0.10100000352E+00 0.  1.
       -3    1    3    3    0  502  0.32596128260E+03 -0.22151289151E+02  0.79191776055E+02  0.33617374223E+03  0.10100000352E+00 0. -1.
</event>
<event>
 5   0  0.9243773E-03  0.1021593E+04  0.7818609E-02  0.9285174E-01
       -2   -1    0    0    0  501  0.00000000000E+00  0.00000000000E+00  0.22761685467E+03  0.22761685469E+03  0.25500000920E-02 0. -1.
        2   -1    0    0  501    0  0.00000000000E+00  0.00000000000E+00 -0.11462810486E+04  0.11462810486E+04  0.25500000920E-02 0.  1.
    10030    2    1    2    0    0  0.00000000000E+00  0.00000000000E+00 -0.91866419391E+03  0.13738979033E+04  0.10215926524E+04 0.  0.
        3    1    3    3  502    0  0.30884258899E+03 -0.19843686821E+03 -0.93699737041E+03  0.10063423959E+04  0.10100000352E+00 0.  1.
       -3    1    3    3    0  502 -0.30884258899E+03  0.19843686821E+03  0.18333176498E+02  0.36755550737E+03  0.10100000352E+00 0. -1.
</event>
<event>
 5   0  0.5349685E-03  0.1003724E+04  0.7818609E-02  0.9304470E-01
        1   -1    0    0  501    0  0.00000000000E+00  0.00000000000E+00  0.10597954128E+04  0.10597954128E+04  0.50400001928E-02 0. -1.
       -1   -1    0    0    0  501  0.00000000000E+00  0.00000000000E+00 -0.23765479069E+03  0.23765479074E+03  0.50400001928E-02 0.  1.
    10030    2    1    2    0    0  0.00000000000E+00  0.00000000000E+00  0.82214062213E+03  0.12974502036E+04  0.10037239801E+04 0.  0.
        4    1    3    3  502    0  0.15606423503E+03 -0.14643645529E+03 -0.17571283790E+03  0.27690484863E+03  0.12699999809E+01 0.  1.
       -4    1    3    3    0  502 -0.15606423503E+03  0.14643645529E+03  0.99785346003E+03  0.10205453549E+04  0.12699999809E+01 0. -1.
</event>
<event>
 5   0  0.5349685E-03  0.9681350E+03  0.7818609E-02  0.9344201E-01
       -1   -1    0    0    0  501  0.00000000000E+00  0.00000000000E+00  0.11193729044E+04  0.11193729044E+04  0.50400001928E-02 0. -1.
        1   -1    0    0  501    0  0.00000000000E+00  0.00000000000E+00 -0.20933268454E+03  0.20933268460E+03  0.50400001928E-02 0.  1.
    10030    2    1    2    0    0  0.00000000000E+00  0.00000000000E+00  0.91004021983E+03  0.13287055890E+04  0.96813498052E+03 0.  0.
        4    1    3    3  502    0  0.33502711086E+03  0.10017523581E+03  0.91441088157E+03  0.97899290912E+03  0.12699999809E+01 0. -1.
       -4    1    3    3    0  502 -0.33502711086E+03 -0.10017523581E+03 -0.43706617356E+01  0.34971267987E+03  0.12699999809E+01 0.  1.
</event>
<event>
 5   0  0.5310275E-03  0.1016728E+04  0.7818609E-02  0.9290386E-01
       -1   -1    0    0    0  501  0.00000000000E+00  0.00000000000E+00  0.37834082041E+03  0.37834082044E+03  0.50400001928E-02 0.  1.
        1   -1    0    0  501    0  0.00000000000E+00  0.00000000000E+00 -0.68307178000E+03  0.68307178002E+03  0.50400001928E-02 0. -1.
    10030    2    1    2    0    0  0.00000000000E+00  0.00000000000E+00 -0.30473095959E+03  0.10614126005E+04  0.10167279630E+04 0.  0.
        1    1    3    3  502    0  0.49921525101E+03 -0.17204650739E+02 -0.25097351455E+03  0.55901661145E+03  0.50400001928E-02 0.  1.
       -1    1    3    3    0  502 -0.49921525101E+03  0.17204650739E+02 -0.53757445046E+02  0.50239598901E+03  0.50400001928E-02 0. -1.
</event>
<event>
 5   0  0.5310275E-03  0.9887188E+03  0.7818609E-02  0.9321005E-01
       -1   -1    0    0    0  501  0.00000000000E+00  0.00000000000E+00  0.59527945461E+03  0.59527945463E+03  0.50400001928E-02 0.  1.
        1   -1    0    0  501    0  0.00000000000E+00  0.00000000000E+00 -0.41054873357E+03  0.41054873360E+03  0.50400001928E-02 0. -1.
    10030    2    1    2    0    0  0.00000000000E+00  0.00000000000E+00  0.18473072103E+03  0.10058281882E+04  0.98871881996E+03 0.  0.
        1    1    3    3  502    0 -0.48174586143E+03  0.32106356246E+02  0.20041696318E+03  0.52275888541E+03  0.50400001928E-02 0.  1.
       -1    1    3    3    0  502  0.48174586143E+03 -0.32106356246E+02 -0.15686242148E+02  0.48306930283E+03  0.50400001928E-02 0. -1.
</event>
<event>
 5   0  0.5201968E-03  0.1003712E+04  0.7818609E-02  0.9304483E-01
       -1   -1    0    0    0  501  0.00000000000E+00  0.00000000000E+00  0.93955859953E+03  0.93955859954E+03  0.50400001928E-02 0. -1.
        1   -1    0    0  501    0  0.00000000000E+00  0.00000000000E+00 -0.26806154441E+03  0.26806154446E+03  0.50400001928E-02 0.  1.
    10030    2    1    2    0    0  0.00000000000E+00  0.00000000000E+00  0.67149705512E+03  0.12076201440E+04  0.10037121685E+04 0.  0.
        2    1    3    3  502    0 -0.32738745811E+03  0.34639533760E+03  0.14670686356E+03  0.49869347445E+03  0.25500000920E-02 0. -1.
       -2    1    3    3    0  502  0.32738745811E+03 -0.34639533760E+03  0.52479019156E+03  0.70892666955E+03  0.25500000920E-02 0.  1.
</event>
<event>
 5   0  0.5072205E-03  0.1046575E+04  0.7818609E-02  0.9258887E-01
        1   -1    0    0  501    0  0.00000000000E+00  0.00000000000E+00  0.52267511731E+03  0.52267511733E+03  0.50400001928E-02 0. -1.
       -1   -1    0    0    0  501  0.00000000000E+00  0.00000000000E+00 -0.52390079196E+03  0.52390079198E+03  0.50400001928E-02 0.  1.
    10030    2    1    2    0    0  0.00000000000E+00  0.00000000000E+00 -0.12256746517E+01  0.10465759093E+04  0.10465751916E+04 0.  0.
        5    1    3    3  502    0  0.25071253391E+03 -0.35711862018E+02 -0.45851675055E+03  0.52382421888E+03  0.46999998093E+01 0.  1.
       -5    1    3    3    0  502 -0.25071253391E+03  0.35711862018E+02  0.45729107590E+03  0.52275169043E+03  0.46999998093E+01 0. -1.
</event>
<event>
 5   0  0.3513625E-03  0.9631848E+03  0.7818609E-02  0.9349871E-01
        3   -1    0    0  501    0  0.00000000000E+00  0.00000000000E+00  0.39893374721E+03  0.39893376000E+03  0.10100000352E+00 0.  1.
       -3   -1    0    0    0  501  0.00000000000E+00  0.00000000000E+00 -0.58137779906E+03  0.58137780783E+03  0.10100000352E+00 0. -1.
    10030    2    1    2    0    0  0.00000000000E+00  0.00000000000E+00 -0.18244405184E+03  0.98031156783E+03  0.96318478911E+03 0.  0.
        3    1    3    3  502    0  0.12431758747E+02 -0.48060597854E+03 -0.11991135126E+03  0.49549510351E+03  0.10100000352E+00 0. -1.
       -3    1    3    3    0  502 -0.12431758747E+02  0.48060597854E+03 -0.62532700578E+02  0.48481646432E+03  0.10100000352E+00 0.  1.
</event>
<event>
 5   0  0.5201968E-03  0.8147103E+03  0.7818609E-02  0.9538965E-01
       -1   -1    0    0    0  501  0.00000000000E+00  0.00000000000E+00  0.21015781798E+03  0.21015781804E+03  0.50400001928E-02 0. -1.
        1   -1    0    0  501    0  0.00000000000E+00  0.00000000000E+00 -0.78958857613E+03  0.78958857615E+03  0.50400001928E-02 0.  1.
    10030    2    1    2    0    0  0.00000000000E+00  0.00000000000E+00 -0.57943075815E+03  0.99974639419E+03  0.81471028544E+03 0.  0.
        2    1    3    3  502    0  0.18799014337E+03  0.35393214028E+03 -0.37930311383E+03  0.55179625415E+03  0.25500000920E-02 0. -1.
       -2    1    3    3    0  502 -0.18799014337E+03 -0.35393214028E+03 -0.20012764432E+03  0.44795014003E+03  0.25500000920E-02 0.  1.
</event>
<event>
 5   0  0.9040674E-03  0.9926849E+03  0.7818609E-02  0.9316604E-01
        2   -1    0    0  501    0  0.00000000000E+00  0.00000000000E+00  0.91159822839E+03  0.91159822839E+03  0.25500000920E-02 0.  1.
       -2   -1    0    0    0  501  0.00000000000E+00  0.00000000000E+00 -0.27024606048E+03  0.27024606049E+03  0.25500000920E-02 0. -1.
    10030    2    1    2    0    0  0.00000000000E+00  0.00000000000E+00  0.64135216791E+03  0.11818442889E+04  0.99268490463E+03 0.  0.
        1    1    3    3  502    0  0.71628952185E+02 -0.18901085882E+03 -0.21902684581E+03  0.29804122325E+03  0.50400001928E-02 0. -1.
       -1    1    3    3    0  502 -0.71628952185E+02  0.18901085882E+03  0.86037901372E+03  0.88380306563E+03  0.50400001928E-02 0.  1.
</event>
<event>
 5   0  0.9040674E-03  0.9793784E+03  0.7818609E-02  0.9331456E-01
       -2   -1    0    0    0  501  0.00000000000E+00  0.00000000000E+00  0.65364010990E+03  0.65364010990E+03  0.25500000920E-02 0.  1.
        2   -1    0    0  501    0  0.00000000000E+00  0.00000000000E+00 -0.36686165042E+03  0.36686165043E+03  0.25500000920E-02 0. -1.
    10030    2    1    2    0    0  0.00000000000E+00  0.00000000000E+00  0.28677845948E+03  0.10205017603E+04  0.97937835284E+03 0.  0.
        1    1    3    3  502    0 -0.11034729410E+02 -0.44770525368E+03 -0.63002864315E+02  0.45225116955E+03  0.50400001928E-02 0. -1.
       -1    1    3    3    0  502  0.11034729410E+02  0.44770525368E+03  0.34978132379E+03  0.56825059078E+03  0.50400001928E-02 0.  1.
</event>
<event>
 5   0  0.8968798E-03  0.9973289E+03  0.7818609E-02  0.9311479E-01
       -2   -1    0    0    0  501  0.00000000000E+00  0.00000000000E+00  0.27265673134E+03  0.27265673136E+03  0.25500000920E-02 0.  1.
        2   -1    0    0  501    0  0.00000000000E+00  0.00000000000E+00 -0.91201215523E+03  0.91201215523E+03  0.25500000920E-02 0. -1.
    10030    2    1    2    0    0  0.00000000000E+00  0.00000000000E+00 -0.63935542389E+03  0.11846688866E+04  0.99732893912E+03 0.  0.
        2    1    3    3  502    0  0.34664049936E+02 -0.44774318381E+03 -0.62185255431E+02  0.45336801939E+03  0.25500000920E-02 0.  1.
       -2    1    3    3    0  502 -0.34664049936E+02  0.44774318381E+03 -0.57717016846E+03  0.73130086720E+03  0.25500000920E-02 0. -1.
</event>
<event>
 5   0  0.5349685E-03  0.9926298E+03  0.7818609E-02  0.9316665E-01
       -1   -1    0    0    0  501  0.00000000000E+00  0.00000000000E+00  0.64563443630E+03  0.64563443632E+03  0.50400001928E-02 0. -1.
        1   -1    0    0  501    0  0.00000000000E+00  0.00000000000E+00 -0.38152935281E+03  0.38152935284E+03  0.50400001928E-02 0.  1.
    10030    2    1    2    0    0  0.00000000000E+00  0.00000000000E+00  0.26410508349E+03  0.10271637892E+04  0.99262981752E+03 0.  0.
        4    1    3    3  502    0  0.43547379799E+03  0.12400537523E+03 -0.78272552934E+02  0.45950295676E+03  0.12699999809E+01 0. -1.
       -4    1    3    3    0  502 -0.43547379799E+03 -0.12400537523E+03  0.34237763642E+03  0.56766083241E+03  0.12699999809E+01 0.  1.
</event>
<event>
 5   0  0.5349685E-03  0.9712186E+03  0.7818609E-02  0.9340687E-01
        1   -1    0    0  501    0  0.00000000000E+00  0.00000000000E+00  0.88272427049E+03  0.88272427050E+03  0.50400001928E-02 0. -1.
       -1   -1    0    0    0  501  0.00000000000E+00  0.00000000000E+00 -0.26714613890E+03  0.26714613894E+03  0.50400001928E-02 0.  1.
    10030    2    1    2    0    0  0.00000000000E+00  0.00000000000E+00  0.61557813159E+03  0.11498704094E+04  0.97121857603E+03 0.  0.
        4    1    3    3  502    0  0.92322749727E+02  0.45383734729E+03  0.48067332688E+03  0.66748804333E+03  0.12699999809E+01 0. -1.
       -4    1    3    3    0  502 -0.92322749727E+02 -0.45383734729E+03  0.13490480471E+03  0.48238236612E+03  0.12699999809E+01 0.  1.
</event>
<event>
 5   0  0.5310275E-03  0.1026253E+04  0.7818609E-02  0.9280211E-01
       -1   -1    0    0    0  501  0.00000000000E+00  0.00000000000E+00  0.31072914416E+03  0.31072914420E+03  0.50400001928E-02 0.  1.
        1   -1    0    0  501    0  0.00000000000E+00  0.00000000000E+00 -0.84735760744E+03  0.84735760745E+03  0.50400001928E-02 0. -1.
    10030    2    1    2    0    0  0.00000000000E+00  0.00000000000E+00 -0.53662846327E+03  0.11580867517E+04  0.10262528035E+04 0.  0.
        1    1    3    3  502    0 -0.45670701957E+03  0.14227599291E+03 -0.58787941574E+02  0.48195412851E+03  0.50400001928E-02 0. -1.
       -1    1    3    3    0  502  0.45670701957E+03 -0.14227599291E+03 -0.47784052170E+03  0.67613262315E+03  0.50400001928E-02 0.  1.
</event>
<event>
 5   0  0.5201968E-03  0.1016084E+04  0.7818609E-02  0.9291078E-01
       -1   -1    0    0    0  501  0.00000000000E+00  0.00000000000E+00  0.98596353947E+03  0.98596353948E+03  0.50400001928E-02 0.  1.
        1   -1    0    0  501    0  0.00000000000E+00  0.00000000000E+00 -0.26178121369E+03  0.26178121374E+03  0.50400001928E-02 0. -1.
    10030    2    1    2    0    0  0.00000000000E+00  0.00000000000E+00  0.72418232577E+03  0.12477447532E+04  0.10160841147E+04 0.  0.
        2    1    3    3  502    0  0.16492494247E+03 -0.53625593063E+02 -0.22430731944E+03  0.28353079981E+03  0.25500000920E-02 0. -1.
       -2    1    3    3    0  502 -0.16492494247E+03  0.53625593063E+02  0.94848964521E+03  0.96421395342E+03  0.25500000920E-02 0.  1.
</event>
<event>
 5   0  0.3513625E-03  0.1012278E+04  0.7818609E-02  0.9295180E-01
       -4   -1    0    0    0  501  0.00000000000E+00  0.00000000000E+00  0.57296942165E+03  0.57297082914E+03  0.12699999809E+01 0. -1.
        4   -1    0    0  501    0  0.00000000000E+00  0.00000000000E+00 -0.44710108648E+03  0.44710289020E+03  0.12699999809E+01 0.  1.
    10030    2    1    2    0    0  0.00000000000E+00  0.00000000000E+00  0.12586833517E+03  0.10200737193E+04  0.10122783980E+04 0.  0.
        5    1    3    3  502    0 -0.47978584982E+03  0.12923494829E+03  0.15989710873E+03  0.52200125376E+03  0.46999998093E+01 0. -1.
       -5    1    3    3    0  502  0.47978584982E+03 -0.12923494829E+03 -0.34028773554E+02  0.49807246559E+03  0.46999998093E+01 0.  1.
</event>
<event>
 5   0  0.9243773E-03  0.1210771E+04  0.7818609E-02  0.9103481E-01
       -2   -1    0    0    0  501  0.00000000000E+00  0.00000000000E+00  0.91153159251E+03  0.91153159251E+03  0.25500000920E-02 0. -1.
        2   -1    0    0  501    0  0.00000000000E+00  0.00000000000E+00 -0.40206111014E+03  0.40206111014E+03  0.25500000920E-02 0.  1.
    10030    2    1    2    0    0  0.00000000000E+00  0.00000000000E+00  0.50947048237E+03  0.13135927027E+04  0.12107706703E+04 0.  0.
        3    1    3    3  502    0  0.12482636115E+03 -0.59159887190E+03  0.22181810172E+03  0.64402960035E+03  0.10100000352E+00 0.  1.
       -3    1    3    3    0  502 -0.12482636115E+03  0.59159887190E+03  0.28765238065E+03  0.66956310231E+03  0.10100000352E+00 0. -1.
</event>
<event>
 5   0  0.9040674E-03  0.1002032E+04  0.7818609E-02  0.9306319E-01
       -2   -1    0    0    0  501  0.00000000000E+00  0.00000000000E+00  0.16390182297E+03  0.16390182299E+03  0.25500000920E-02 0.  1.
        2   -1    0    0  501    0  0.00000000000E+00  0.00000000000E+00 -0.15315084554E+04  0.15315084554E+04  0.25500000920E-02 0. -1.
    10030    2    1    2    0    0  0.00000000000E+00  0.00000000000E+00 -0.13676066325E+04  0.16954102784E+04  0.10020319910E+04 0.  0.
        1    1    3    3  502    0  0.18771779916E+03 -0.40511777553E+03 -0.29924277191E+03  0.53749848441E+03  0.50400001928E-02 0.  1.
       -1    1    3    3    0  502 -0.18771779916E+03  0.40511777553E+03 -0.10683638606E+04  0.11579117940E+04  0.50400001928E-02 0. -1.
</event>
<event>
 5   0  0.9243773E-03  0.1002744E+04  0.7818609E-02  0.9305540E-01
        2   -1    0    0  501    0  0.00000000000E+00  0.00000000000E+00  0.11105697039E+04  0.11105697039E+04  0.25500000920E-02 0. -1.
       -2   -1    0    0    0  501  0.00000000000E+00  0.00000000000E+00 -0.22634681027E+03  0.22634681029E+03  0.25500000920E-02 0.  1.
    10030    2    1    2    0    0  0.00000000000E+00  0.00000000000E+00  0.88422289362E+03  0.13369165142E+04  0.10027440552E+04 0.  0.
        3    1    3    3  502    0  0.10051375525E+03 -0.33031208305E+03  0.92681043634E+03  0.98903320587E+03  0.10100000352E+00 0. -1.
       -3    1    3    3    0  502 -0.10051375525E+03  0.33031208305E+03 -0.42587542723E+02  0.34788330831E+03  0.10100000352E+00 0.  1.
</event>
<event>
 5   0  0.5349685E-03  0.7621297E+03  0.7818609E-02  0.9616511E-01
       -1   -1    0    0    0  501  0.00000000000E+00  0.00000000000E+00  0.35695172814E+03  0.35695172818E+03  0.50400001928E-02 0. -1.
        1   -1    0    0  501    0  0.00000000000E+00  0.00000000000E+00 -0.40680685367E+03  0.40680685370E+03  0.50400001928E-02 0.  1.
    10030    2    1    2    0    0  0.00000000000E+00  0.00000000000E+00 -0.49855125532E+02  0.76375858188E+03  0.76212967260E+03 0.  0.
        4    1    3    3  502    0  0.15149393113E+03  0.28317356360E+03  0.18062327938E+03  0.36846174869E+03  0.12699999809E+01 0. -1.
       -4    1    3    3    0  502 -0.15149393113E+03 -0.28317356360E+03 -0.23047840492E+03  0.39529683319E+03  0.12699999809E+01 0.  1.
</event>
<event>
 5   0  0.8968798E-03  0.9890547E+03  0.7818609E-02  0.9320632E-01
        2   -1    0    0  501    0  0.00000000000E+00  0.00000000000E+00  0.85338367865E+03  0.85338367865E+03  0.25500000920E-02 0. -1.
       -2   -1    0    0    0  501  0.00000000000E+00  0.00000000000E+00 -0.28657368491E+03  0.28657368492E+03  0.25500000920E-02 0.  1.
    10030    2    1    2    0    0  0.00000000000E+00  0.00000000000E+00  0.56680999374E+03  0.11399573636E+04  0.98905471120E+03 0.  0.
        2    1    3    3  502    0 -0.44124922899E+03  0.21776666908E+03  0.34026902303E+03  0.59825263249E+03  0.25500000920E-02 0. -1.
       -2    1    3    3    0  502  0.44124922899E+03 -0.21776666908E+03  0.22654097071E+03  0.54170473107E+03  0.25500000920E-02 0.  1.
</event>
<event>
 5   0  0.8968798E-03  0.9772089E+03  0.7818609E-02  0.9333901E-01
        2   -1    0    0  501    0  0.00000000000E+00  0.00000000000E+00  0.76585145966E+03  0.76585145967E+03  0.25500000920E-02 0. -1.
       -2   -1    0    0    0  501  0.00000000000E+00  0.00000000000E+00 -0.31172401241E+03  0.31172401242E+03  0.25500000920E-02 0.  1.
    10030    2    1    2    0    0  0.00000000000E+00  0.00000000000E+00  0.45412744725E+03  0.10775754721E+04  0.97720886186E+03 0.  0.
        2    1    3    3  502    0 -0.10105086664E+02 -0.20240935353E+03  0.71731934968E+03  0.74539835565E+03  0.25500000920E-02 0. -1.
       -2    1    3    3    0  502  0.10105086664E+02  0.20240935353E+03 -0.26319190243E+03  0.33217711644E+03  0.25500000920E-02 0.  1.
</event>
<event>
 5   0  0.5349685E-03  0.9768711E+03  0.7818609E-02  0.9334282E-01
        1   -1    0    0  501    0  0.00000000000E+00  0.00000000000E+00  0.54272426372E+03  0.54272426374E+03  0.50400001928E-02 0.  1.
       -1   -1    0    0    0  501  0.00000000000E+00  0.00000000000E+00 -0.43957737469E+03  0.43957737471E+03  0.50400001928E-02 0. -1.
    10030    2    1    2    0    0  0.00000000000E+00  0.00000000000E+00  0.10314688903E+03  0.98230163846E+03  0.97687114206E+03 0.  0.
        4    1    3    3  502    0 -0.15247963264E+03 -0.46394047406E+03  0.60391016988E+02  0.49207671117E+03  0.12699999809E+01 0. -1.
       -4    1    3    3    0  502  0.15247963264E+03  0.46394047406E+03  0.42755872045E+02  0.49022492729E+03  0.12699999809E+01 0.  1.
</event>
<event>
 5   0  0.5201968E-03  0.8066149E+03  0.7818609E-02  0.9550491E-01
        1   -1    0    0  501    0  0.00000000000E+00  0.00000000000E+00  0.34133766262E+03  0.34133766266E+03  0.50400001928E-02 0.  1.
       -1   -1    0    0    0  501  0.00000000000E+00  0.00000000000E+00 -0.47652785053E+03  0.47652785056E+03  0.50400001928E-02 0. -1.
    10030    2    1    2    0    0  0.00000000000E+00  0.00000000000E+00 -0.13519018791E+03  0.81786551322E+03  0.80661490862E+03 0.  0.
        2    1    3    3  502    0  0.26806530021E+03  0.28396150428E+03 -0.16981674377E+03  0.42582962269E+03  0.25500000920E-02 0. -1.
       -2    1    3    3    0  502 -0.26806530021E+03 -0.28396150428E+03  0.34626555856E+02  0.39203589053E+03  0.25500000920E-02 0.  1.
</event>
<event>
 5   0  0.5072205E-03  0.1051532E+04  0.7818609E-02  0.9253764E-01
        1   -1    0    0  501    0  0.00000000000E+00  0.00000000000E+00  0.15957227273E+04  0.15957227273E+04  0.50400001928E-02 0.  1.
       -1   -1    0    0    0  501  0.00000000000E+00  0.00000000000E+00 -0.17323180616E+03  0.17323180623E+03  0.50400001928E-02 0. -1.
    10030    2    1    2    0    0  0.00000000000E+00  0.00000000000E+00  0.14224909211E+04  0.17689545335E+04  0.10515320827E+04 0.  0.
        5    1    3    3  502    0 -0.35520034332E+03  0.37247029900E+03  0.89169862153E+03  0.10295872616E+04  0.46999998093E+01 0.  1.
       -5    1    3    3    0  502  0.35520034332E+03 -0.37247029900E+03  0.53079229956E+03  0.73936727193E+03  0.46999998093E+01 0. -1.
</event>
<event>
 5   0  0.8875655E-03  0.1009716E+04  0.7818609E-02  0.9297952E-01
        2   -1    0    0  501    0  0.00000000000E+00  0.00000000000E+00  0.64880447375E+03  0.64880447376E+03  0.25500000920E-02 0. -1.
       -2   -1    0    0    0  501  0.00000000000E+00  0.00000000000E+00 -0.39284839648E+03  0.39284839649E+03  0.25500000920E-02 0.  1.
    10030    2    1    2    0    0  0.00000000000E+00  0.00000000000E+00  0.25595607727E+03  0.10416528702E+04  0.10097163902E+04 0.  0.
        4    1    3    3  502    0 -0.29547064669E+03  0.72829440022E+02 -0.28759460151E+03  0.41871147358E+03  0.12699999809E+01 0.  1.
       -4    1    3    3    0  502  0.29547064669E+03 -0.72829440022E+02  0.54355067878E+03  0.62294139667E+03  0.12699999809E+01 0. -1.
</event>
<event>
 5   0  0.5072205E-03  0.9922216E+03  0.7818609E-02  0.9317117E-01
       -1   -1    0    0    0  501  0.00000000000E+00  0.00000000000E+00  0.27960257906E+03  0.27960257911E+03  0.50400001928E-02 0. -1.
        1   -1    0    0  501    0  0.00000000000E+00  0.00000000000E+00 -0.88027065618E+03  0.88027065619E+03  0.50400001928E-02 0.  1.
    10030    2    1    2    0    0  0.00000000000E+00  0.00000000000E+00 -0.60066807712E+03  0.11598732353E+04  0.99222164011E+03 0.  0.
        5    1    3    3  502    0  0.16723366979E+03  0.13192144688E+03  0.22340114155E+03  0.30870783680E+03  0.46999998093E+01 0. -1.
       -5    1    3    3    0  502 -0.16723366979E+03 -0.13192144688E+03 -0.82406921867E+03  0.85116539850E+03  0.46999998093E+01 0.  1.
</event>
<event>
 5   0  0.9040674E-03  0.1059979E+04  0.7818609E-02  0.9245102E-01
       -2   -1    0    0    0  501  0.00000000000E+00  0.00000000000E+00  0.46361144880E+03  0.46361144881E+03  0.25500000920E-02 0. -1.
        2   -1    0    0  501    0  0.00000000000E+00  0.00000000000E+00 -0.60587076806E+03  0.60587076807E+03  0.25500000920E-02 0.  1.
    10030    2    1    2    0    0  0.00000000000E+00  0.00000000000E+00 -0.14225931926E+03  0.10694822169E+04  0.10599785367E+04 0.  0.
        1    1    3    3  502    0 -0.40778967389E+03  0.29020257748E+03 -0.24698715257E+03  0.55813314511E+03  0.50400001928E-02 0. -1.
       -1    1    3    3    0  502  0.40778967389E+03 -0.29020257748E+03  0.10472783331E+03  0.51134907177E+03  0.50400001928E-02 0.  1.
</event>
<event>
 5   0  0.5072205E-03  0.1000009E+04  0.7818609E-02  0.9308535E-01
       -1   -1    0    0    0  501  0.00000000000E+00  0.00000000000E+00  0.16785906810E+03  0.16785906818E+03  0.50400001928E-02 0. -1.
        1   -1    0    0  501    0  0.00000000000E+00  0.00000000000E+00 -0.14893718442E+04  0.14893718442E+04  0.50400001928E-02 0.  1.
    10030    2    1    2    0    0  0.00000000000E+00  0.00000000000E+00 -0.13215127761E+04  0.16572309124E+04  0.10000091398E+04 0.  0.
        5    1    3    3  502    0  0.20086809715E+03  0.20012847382E+03  0.21692793827E+02  0.28441530512E+03  0.46999998093E+01 0. -1.
       -5    1    3    3    0  502 -0.20086809715E+03 -0.20012847382E+03 -0.13432055699E+04  0.13728156073E+04  0.46999998093E+01 0.  1.
</event>
<event>
 5   0  0.5310275E-03  0.9521842E+03  0.7818609E-02  0.9362601E-01
       -1   -1    0    0    0  501  0.00000000000E+00  0.00000000000E+00  0.45073575651E+03  0.45073575654E+03  0.50400001928E-02 0. -1.
        1   -1    0    0  501    0  0.00000000000E+00  0.00000000000E+00 -0.50287491435E+03  0.50287491438E+03  0.50400001928E-02 0.  1.
    10030    2    1    2    0    0  0.00000000000E+00  0.00000000000E+00 -0.52139157838E+02  0.95361067092E+03  0.95218423633E+03 0.  0.
        1    1    3    3  502    0 -0.21669509132E+03 -0.20048815362E+03  0.34800227290E+03  0.45635276302E+03  0.50400001928E-02 0. -1.
       -1    1    3    3    0  502  0.21669509132E+03  0.20048815362E+03 -0.40014143074E+03  0.49725790790E+03  0.50400001928E-02 0.  1.
</event>
<event>
 5   0  0.5189877E-03  0.1026963E+04  0.7818609E-02  0.9279457E-01
        1   -1    0    0  501    0  0.00000000000E+00  0.00000000000E+00  0.48665332446E+03  0.48665332448E+03  0.50400001928E-02 0. -1.
       -1   -1    0    0    0  501  0.00000000000E+00  0.00000000000E+00 -0.54178842255E+03  0.54178842258E+03  0.50400001928E-02 0.  1.
    10030    2    1    2    0    0  0.00000000000E+00  0.00000000000E+00 -0.55135098097E+02  0.10284417471E+04  0.10269627783E+04 0.  0.
        3    1    3    3  502    0 -0.37238742219E+03 -0.35179725264E+03  0.75461417980E+01  0.51233841709E+03  0.10100000352E+00 0.  1.
       -3    1    3    3    0  502  0.37238742219E+03  0.35179725264E+03 -0.62681239895E+02  0.51610332997E+03  0.10100000352E+00 0. -1.
</event>
<event>
 5   0  0.5072205E-03  0.9882819E+03  0.7818609E-02  0.9321491E-01
       -1   -1    0    0    0  501  0.00000000000E+00  0.00000000000E+00  0.55048787574E+03  0.55048787577E+03  0.50400001928E-02 0. -1.
        1   -1    0    0  501    0  0.00000000000E+00  0.00000000000E+00 -0.44356162800E+03  0.44356162803E+03  0.50400001928E-02 0.  1.
    10030    2    1    2    0    0  0.00000000000E+00  0.00000000000E+00  0.10692624774E+03  0.99404950380E+03  0.98828194031E+03 0.  0.
        5    1    3    3  502    0 -0.11591180963E+03 -0.29833980108E+02 -0.42873802338E+03  0.44515614864E+03  0.46999998093E+01 0.  1.
       -5    1    3    3    0  502  0.11591180963E+03  0.29833980108E+02  0.53566427112E+03  0.54889335516E+03  0.46999998093E+01 0. -1.
</event>
<event>
 5   0  0.8875655E-03  0.1013010E+04  0.7818609E-02  0.9294390E-01
        2   -1    0    0  501    0  0.00000000000E+00  0.00000000000E+00  0.25243459228E+03  0.25243459230E+03  0.25500000920E-02 0.  1.
       -2   -1    0    0    0  501  0.00000000000E+00  0.00000000000E+00 -0.10162921758E+04  0.10162921758E+04  0.25500000920E-02 0. -1.
    10030    2    1    2    0    0  0.00000000000E+00  0.00000000000E+00 -0.76385758351E+03  0.12687267681E+04  0.10130099724E+04 0.  0.
        4    1    3    3  502    0 -0.26429831711E+03 -0.29137252753E+03  0.17662271269E+02  0.39378308617E+03  0.12699999809E+01 0.  1.
       -4    1    3    3    0  502  0.26429831711E+03  0.29137252753E+03 -0.78151985478E+03  0.87494368193E+03  0.12699999809E+01 0. -1.
</event>
<event>
 5   0  0.9243773E-03  0.1024910E+04  0.7818609E-02  0.9281638E-01
        2   -1    0    0  501    0  0.00000000000E+00  0.00000000000E+00  0.42079293278E+03  0.42079293279E+03  0.25500000920E-02 0.  1.
       -2   -1    0    0    0  501  0.00000000000E+00  0.00000000000E+00 -0.62408416332E+03  0.62408416333E+03  0.25500000920E-02 0. -1.
    10030    2    1    2    0    0  0.00000000000E+00  0.00000000000E+00 -0.20329123054E+03  0.10448770961E+04  0.10249101529E+04 0.  0.
        3    1    3    3  502    0 -0.21661594303E+02  0.44670919497E+03 -0.35670327025E+03  0.57206255143E+03  0.10100000352E+00 0. -1.
       -3    1    3    3    0  502  0.21661594303E+02 -0.44670919497E+03  0.15341203971E+03  0.47281454469E+03  0.10100000352E+00 0.  1.
</event>
<event>
 5   0  0.8968798E-03  0.9988828E+03  0.7818609E-02  0.9309771E-01
       -2   -1    0    0    0  501  0.00000000000E+00  0.00000000000E+00  0.37698162336E+03  0.37698162337E+03  0.25500000920E-02 0.  1.
        2   -1    0    0  501    0  0.00000000000E+00  0.00000000000E+00 -0.66168132749E+03  0.66168132749E+03  0.25500000920E-02 0. -1.
    10030    2    1    2    0    0  0.00000000000E+00  0.00000000000E+00 -0.28469970413E+03  0.10386629509E+04  0.99888277789E+03 0.  0.
        2    1    3    3  502    0  0.70379886911E+02 -0.48630795580E+03 -0.23531357707E+03  0.54481302840E+03  0.25500000920E-02 0. -1.
       -2    1    3    3    0  502 -0.70379886911E+02  0.48630795580E+03 -0.49386127061E+02  0.49384992246E+03  0.25500000920E-02 0.  1.
</event>
<event>
 5   0  0.9040674E-03  0.9851184E+03  0.7818609E-02  0.9325019E-01
       -2   -1    0    0    0  501  0.00000000000E+00  0.00000000000E+00  0.21316292917E+03  0.21316292919E+03  0.25500000920E-02 0.  1.
        2   -1    0    0  501    0  0.00000000000E+00  0.00000000000E+00 -0.11381649381E+04  0.11381649381E+04  0.25500000920E-02 0. -1.
    10030    2    1    2    0    0  0.00000000000E+00  0.00000000000E+00 -0.92500200897E+03  0.13513278673E+04  0.98511841341E+03 0.  0.
        1    1    3    3  502    0 -0.36675501090E+03 -0.31030652266E+03 -0.31339581383E+03  0.57359943530E+03  0.50400001928E-02 0. -1.
       -1    1    3    3    0  502  0.36675501090E+03  0.31030652266E+03 -0.61160619515E+03  0.77772843204E+03  0.50400001928E-02 0.  1.
</event>
<event>
 5   0  0.8907355E-03  0.9803727E+03  0.7818609E-02  0.9330337E-01
       -2   -1    0    0    0  501  0.00000000000E+00  0.00000000000E+00  0.18511523446E+03  0.18511523448E+03  0.25500000920E-02 0.  1.
        2   -1    0    0  501    0  0.00000000000E+00  0.00000000000E+00 -0.12980167486E+04  0.12980167486E+04  0.25500000920E-02 0. -1.
    10030    2    1    2    0    0  0.00000000000E+00  0.00000000000E+00 -0.11129015141E+04  0.14831319831E+04  0.98037273475E+03 0.  0.
        5    1    3    3  502    0  0.34853967697E+03 -0.13807043006E+03 -0.10341710489E+04  0.11000341806E+04  0.46999998093E+01 0. -1.
       -5    1    3    3    0  502 -0.34853967697E+03  0.13807043006E+03 -0.78730465180E+02  0.38309780243E+03  0.46999998093E+01 0.  1.
</event>
<event>
 5   0  0.9243773E-03  0.1006194E+04  0.7818609E-02  0.9301778E-01
       -2   -1    0    0    0  501  0.00000000000E+00  0.00000000000E+00  0.25679016352E+03  0.25679016353E+03  0.25500000920E-02 0. -1.
        2   -1    0    0  501    0  0.00000000000E+00  0.00000000000E+00 -0.98565492919E+03  0.98565492920E+03  0.25500000920E-02 0.  1.
    10030    2    1    2    0    0  0.00000000000E+00  0.00000000000E+00 -0.72886476567E+03  0.12424450927E+04  0.10061937993E+04 0.  0.
        3    1    3    3  502    0 -0.34310312304E+03  0.20277850032E+03 -0.74355248242E+03  0.84362857796E+03  0.10100000352E+00 0.  1.
       -3    1    3    3    0  502  0.34310312304E+03 -0.20277850032E+03  0.14687716749E+02  0.39881651477E+03  0.10100000352E+00 0. -1.
</event>
<event>
 5   0  0.5310275E-03  0.1043163E+04  0.7818609E-02  0.9262431E-01
       -1   -1    0    0    0  501  0.00000000000E+00  0.00000000000E+00  0.17177106740E+03  0.17177106747E+03  0.50400001928E-02 0. -1.
        1   -1    0    0  501    0  0.00000000000E+00  0.00000000000E+00 -0.15837787388E+04  0.15837787388E+04  0.50400001928E-02 0.  1.
    10030    2    1    2    0    0  0.00000000000E+00  0.00000000000E+00 -0.14120076714E+04  0.17555498063E+04  0.10431631983E+04 0.  0.
        1    1    3    3  502    0  0.31840728603E+02 -0.20498739484E+03  0.99359084245E+02  0.23001280766E+03  0.50400001928E-02 0. -1.
       -1    1    3    3    0  502 -0.31840728603E+02  0.20498739484E+03 -0.15113667556E+04  0.15255369986E+04  0.50400001928E-02 0.  1.
</event>
<event>
 5   0  0.5189877E-03  0.1000144E+04  0.7818609E-02  0.9308386E-01
        1   -1    0    0  501    0  0.00000000000E+00  0.00000000000E+00  0.47748338277E+03  0.47748338280E+03  0.50400001928E-02 0. -1.
       -1   -1    0    0    0  501  0.00000000000E+00  0.00000000000E+00 -0.52372963014E+03  0.52372963016E+03  0.50400001928E-02 0.  1.
    10030    2    1    2    0    0  0.00000000000E+00  0.00000000000E+00 -0.46246247366E+02  0.10012130130E+04  0.10001443805E+04 0.  0.
        3    1    3    3  502    0  0.36629009900E+03  0.31488142804E+03  0.10645023551E+03  0.49462148477E+03  0.10100000352E+00 0.  1.
       -3    1    3    3    0  502 -0.36629009900E+03 -0.31488142804E+03 -0.15269648288E+03  0.50659152819E+03  0.10100000352E+00 0. -1.
</event>
<event>
 5   0  0.5072205E-03  0.1008698E+04  0.7818609E-02  0.9299056E-01
        1   -1    0    0  501    0  0.00000000000E+00  0.00000000000E+00  0.73032171031E+03  0.73032171033E+03  0.50400001928E-02 0.  1.
       -1   -1    0    0    0  501  0.00000000000E+00  0.00000000000E+00 -0.34829602446E+03  0.34829602450E+03  0.50400001928E-02 0. -1.
    10030    2    1    2    0    0  0.00000000000E+00  0.00000000000E+00  0.38202568585E+03  0.10786177348E+04  0.10086984650E+04 0.  0.
        5    1    3    3  502    0 -0.41468616152E+03  0.91237854512E+02 -0.99984850500E+02  0.43624307327E+03  0.46999998093E+01 0. -1.
       -5    1    3    3    0  502  0.41468616152E+03 -0.91237854512E+02  0.48201053635E+03  0.64237466155E+03  0.46999998093E+01 0.  1.
</event>
<event>
 5   0  0.5189877E-03  0.9674471E+03  0.7818609E-02  0.9344987E-01
       -1   -1    0    0    0  501  0.00000000000E+00  0.00000000000E+00  0.42370961029E+03  0.42370961032E+03  0.50400001928E-02 0.  1.
        1   -1    0    0  501    0  0.00000000000E+00  0.00000000000E+00 -0.55223781631E+03  0.55223781634E+03  0.50400001928E-02 0. -1.
    10030    2    1    2    0    0  0.00000000000E+00  0.00000000000E+00 -0.12852820602E+03  0.97594742666E+03  0.96744709409E+03 0.  0.
        3    1    3    3  502    0  0.30348474330E+03 -0.26882297706E+03  0.20190963394E+03  0.45291974222E+03  0.10100000352E+00 0.  1.
       -3    1    3    3    0  502 -0.30348474330E+03  0.26882297706E+03 -0.33043783996E+03  0.52302768444E+03  0.10100000352E+00 0. -1.
</event>
<event>
 5   0  0.8968798E-03  0.9964476E+03  0.7818609E-02  0.9312450E-01
        2   -1    0    0  501    0  0.00000000000E+00  0.00000000000E+00  0.69207569286E+03  0.69207569286E+03  0.25500000920E-02 0.  1.
       -2   -1    0    0    0  501  0.00000000000E+00  0.00000000000E+00 -0.35867025015E+03  0.35867025016E+03  0.25500000920E-02 0. -1.
    10030    2    1    2    0    0  0.00000000000E+00  0.00000000000E+00  0.33340544270E+03  0.10507459430E+04  0.99644761406E+03 0.  0.
        2    1    3    3  502    0  0.28560457051E+03 -0.15443364531E+03  0.56519358049E+03  0.65181554518E+03  0.25500000920E-02 0.  1.
       -2    1    3    3    0  502 -0.28560457051E+03  0.15443364531E+03 -0.23178813779E+03  0.39893039785E+03  0.25500000920E-02 0. -1.
</event>
<event>
 5   0  0.9243773E-03  0.9922472E+03  0.7818609E-02  0.9317089E-01
       -2   -1    0    0    0  501  0.00000000000E+00  0.00000000000E+00  0.88717310776E+03  0.88717310776E+03  0.25500000920E-02 0. -1.
        2   -1    0    0  501    0  0.00000000000E+00  0.00000000000E+00 -0.27744149085E+03  0.27744149086E+03  0.25500000920E-02 0.  1.
    10030    2    1    2    0    0  0.00000000000E+00  0.00000000000E+00  0.60973161691E+03  0.11646145986E+04  0.99224720644E+03 0.  0.
        3    1    3    3  502    0  0.14126667335E+03 -0.11316902286E+03 -0.23730263077E+03  0.29845610985E+03  0.10100000352E+00 0.  1.
       -3    1    3    3    0  502 -0.14126667335E+03  0.11316902286E+03  0.84703424768E+03  0.86615848878E+03  0.10100000352E+00 0. -1.
</event>
<event>
 5   0  0.5189877E-03  0.1003149E+04  0.7818609E-02  0.9305098E-01
        1   -1    0    0  501    0  0.00000000000E+00  0.00000000000E+00  0.10899990910E+04  0.10899990910E+04  0.50400001928E-02 0. -1.
       -1   -1    0    0    0  501  0.00000000000E+00  0.00000000000E+00 -0.23080467996E+03  0.23080468002E+03  0.50400001928E-02 0.  1.
    10030    2    1    2    0    0  0.00000000000E+00  0.00000000000E+00  0.85919441107E+03  0.13208037711E+04  0.10031488253E+04 0.  0.
        3    1    3    3  502    0  0.11847521230E+03  0.44024321797E+03  0.70492170859E+03  0.83950288406E+03  0.10100000352E+00 0. -1.
       -3    1    3    3    0  502 -0.11847521230E+03 -0.44024321797E+03  0.15427270248E+03  0.48130088700E+03  0.10100000352E+00 0.  1.
</event>
<event>
 5   0  0.5201968E-03  0.1000149E+04  0.7818609E-02  0.9308381E-01
        1   -1    0    0  501    0  0.00000000000E+00  0.00000000000E+00  0.62591926273E+03  0.62591926275E+03  0.50400001928E-02 0. -1.
       -1   -1    0    0    0  501  0.00000000000E+00  0.00000000000E+00 -0.39953195480E+03  0.39953195483E+03  0.50400001928E-02 0.  1.
    10030    2    1    2    0    0  0.00000000000E+00  0.00000000000E+00  0.22638730793E+03  0.10254512176E+04  0.10001494821E+04 0.  0.
        2    1    3    3  502    0  0.47780993287E+03 -0.14751480580E+03  0.10967212868E+03  0.51194816700E+03  0.25500000920E-02 0. -1.
       -2    1    3    3    0  502 -0.47780993287E+03  0.14751480580E+03  0.11671517925E+03  0.51350305058E+03  0.25500000920E-02 0.  1.
</event>
<event>
 5   0  0.8968798E-03  0.1002466E+04  0.7818609E-02  0.9305844E-01
       -2   -1    0    0    0  501  0.00000000000E+00  0.00000000000E+00  0.26297635300E+03  0.26297635301E+03  0.25500000920E-02 0.  1.
        2   -1    0    0  501    0  0.00000000000E+00  0.00000000000E+00 -0.95535098352E+03  0.95535098353E+03  0.25500000920E-02 0. -1.
    10030    2    1    2    0    0  0.00000000000E+00  0.00000000000E+00 -0.69237463052E+03  0.12183273365E+04  0.10024663934E+04 0.  0.
        2    1    3    3  502    0  0.12908900286E+03 -0.28890449756E+02 -0.93375385075E+03  0.94307734706E+03  0.25500000920E-02 0. -1.
       -2    1    3    3    0  502 -0.12908900286E+03  0.28890449756E+02  0.24137922022E+03  0.27524998948E+03  0.25500000920E-02 0.  1.
</event>
<event>
 5   0  0.5201968E-03  0.1063059E+04  0.7818609E-02  0.9241964E-01
        1   -1    0    0  501    0  0.00000000000E+00  0.00000000000E+00  0.44616766720E+03  0.44616766723E+03  0.50400001928E-02 0. -1.
       -1   -1    0    0    0  501  0.00000000000E+00  0.00000000000E+00 -0.63322312474E+03  0.63322312476E+03  0.50400001928E-02 0.  1.
    10030    2    1    2    0    0  0.00000000000E+00  0.00000000000E+00 -0.18705545754E+03  0.10793907920E+04  0.10630591412E+04 0.  0.
        2    1    3    3  502    0  0.36832088250E+03  0.38013630951E+03 -0.14285177621E+03  0.54824311784E+03  0.25500000920E-02 0.  1.
       -2    1    3    3    0  502 -0.36832088250E+03 -0.38013630951E+03 -0.44203681331E+02  0.53114767414E+03  0.25500000920E-02 0. -1.
</event>
<event>
 5   0  0.3513625E-03  0.1001804E+04  0.7818609E-02  0.9306568E-01
       -3   -1    0    0    0  501  0.00000000000E+00  0.00000000000E+00  0.57485935196E+03  0.57485936083E+03  0.10100000352E+00 0.  1.
        3   -1    0    0  501    0  0.00000000000E+00  0.00000000000E+00 -0.43645950341E+03  0.43645951510E+03  0.10100000352E+00 0. -1.
    10030    2    1    2    0    0  0.00000000000E+00  0.00000000000E+00  0.13839984854E+03  0.10113188759E+04  0.10018040481E+04 0.  0.
        4    1    3    3  502    0 -0.21584152482E+03  0.42698601302E+03 -0.80521229539E+02  0.48516997069E+03  0.12699999809E+01 0. -1.
       -4    1    3    3    0  502  0.21584152482E+03 -0.42698601302E+03  0.21892107808E+03  0.52614890524E+03  0.12699999809E+01 0.  1.
</event>
<event>
 5   0  0.9040674E-03  0.1017414E+04  0.7818609E-02  0.9289649E-01
        2   -1    0    0  501    0  0.00000000000E+00  0.00000000000E+00  0.11671889876E+04  0.11671889876E+04  0.25500000920E-02 0.  1.
       -2   -1    0    0    0  501  0.00000000000E+00  0.00000000000E+00 -0.22171463271E+03  0.22171463273E+03  0.25500000920E-02 0. -1.
    10030    2    1    2    0    0  0.00000000000E+00  0.00000000000E+00  0.94547435485E+03  0.13889036203E+04  0.10174141294E+04 0.  0.
        1    1    3    3  502    0  0.34092246966E+03 -0.11464931592E+03  0.96382451542E+03  0.10287518129E+04  0.50400001928E-02 0.  1.
       -1    1    3    3    0  502 -0.34092246966E+03  0.11464931592E+03 -0.18350160567E+02  0.36015180741E+03  0.50400001928E-02 0. -1.
</event>
<event>
 5   0  0.5349685E-03  0.1023957E+04  0.7818609E-02  0.9282652E-01
       -1   -1    0    0    0  501  0.00000000000E+00  0.00000000000E+00  0.62420761881E+03  0.62420761883E+03  0.50400001928E-02 0. -1.
        1   -1    0    0  501    0  0.00000000000E+00  0.00000000000E+00 -0.41992793962E+03  0.41992793965E+03  0.50400001928E-02 0.  1.
    10030    2    1    2    0    0  0.00000000000E+00  0.00000000000E+00  0.20427967920E+03  0.10441355585E+04  0.10239574587E+04 0.  0.
        4    1    3    3  502    0  0.39484850502E+02  0.43219539784E+03 -0.17481630887E+03  0.46788275250E+03  0.12699999809E+01 0.  1.
       -4    1    3    3    0  502 -0.39484850502E+02 -0.43219539784E+03  0.37909598807E+03  0.57625280599E+03  0.12699999809E+01 0. -1.
</event>
<event>
 5   0  0.5310275E-03  0.9965410E+03  0.7818609E-02  0.9312347E-01
       -1   -1    0    0    0  501  0.00000000000E+00  0.00000000000E+00  0.22467325237E+03  0.22467325243E+03  0.50400001928E-02 0.  1.
        1   -1    0    0  501    0  0.00000000000E+00  0.00000000000E+00 -0.11050424587E+04  0.11050424587E+04  0.50400001928E-02 0. -1.
    10030    2    1    2    0    0  0.00000000000E+00  0.00000000000E+00 -0.88036920630E+03  0.13297157111E+04  0.99654098409E+03 0.  0.
        1    1    3    3  502    0  0.47453312550E+03 -0.15163890099E+03 -0.45335599485E+03  0.67357828170E+03  0.50400001928E-02 0. -1.
       -1    1    3    3    0  502 -0.47453312550E+03  0.15163890099E+03 -0.42701321145E+03  0.65613742941E+03  0.50400001928E-02 0.  1.
</event>
<event>
 5   0  0.5201968E-03  0.9794130E+03  0.7818609E-02  0.9331417E-01
        1   -1    0    0  501    0  0.00000000000E+00  0.00000000000E+00  0.41281522681E+03  0.41281522684E+03  0.50400001928E-02 0.  1.
       -1   -1    0    0    0  501  0.00000000000E+00  0.00000000000E+00 -0.58091957214E+03  0.58091957216E+03  0.50400001928E-02 0. -1.
    10030    2    1    2    0    0  0.00000000000E+00  0.00000000000E+00 -0.16810434533E+03  0.99373479900E+03  0.97941297716E+03 0.  0.
        2    1    3    3  502    0  0.25971378030E+03  0.39991157277E+03  0.29076826224E+02  0.47773002370E+03  0.25500000920E-02 0.  1.
       -2    1    3    3    0  502 -0.25971378030E+03 -0.39991157277E+03 -0.19718117155E+03  0.51600477530E+03  0.25500000920E-02 0. -1.
</event>
<event>
 5   0  0.9040674E-03  0.9991536E+03  0.7818609E-02  0.9309474E-01
       -2   -1    0    0    0  501  0.00000000000E+00  0.00000000000E+00  0.14172007966E+03  0.14172007968E+03  0.25500000920E-02 0. -1.
        2   -1    0    0  501    0  0.00000000000E+00  0.00000000000E+00 -0.17610557918E+04  0.17610557918E+04  0.25500000920E-02 0.  1.
    10030    2    1    2    0    0  0.00000000000E+00  0.00000000000E+00 -0.16193357121E+04  0.19027758715E+04  0.99915357603E+03 0.  0.
        1    1    3    3  502    0  0.35009786362E+03  0.12218407806E+03 -0.17211163351E+03  0.40880298123E+03  0.50400001928E-02 0. -1.
       -1    1    3    3    0  502 -0.35009786362E+03 -0.12218407806E+03 -0.14472240786E+04  0.14939728902E+04  0.50400001928E-02 0.  1.
</event>
<event>
 5   0  0.8907355E-03  0.1011345E+04  0.7818609E-02  0.9296189E-01
       -2   -1    0    0    0  501  0.00000000000E+00  0.00000000000E+00  0.14868411175E+03  0.14868411177E+03  0.25500000920E-02 0.  1.
        2   -1    0    0  501    0  0.00000000000E+00  0.00000000000E+00 -0.17197841910E+04  0.17197841910E+04  0.25500000920E-02 0. -1.
    10030    2    1    2    0    0  0.00000000000E+00  0.00000000000E+00 -0.15711000792E+04  0.18684683028E+04  0.10113448173E+04 0.  0.
        5    1    3    3  502    0  0.31437517538E+02  0.23565482744E+03 -0.16100461449E+04  0.16275110426E+04  0.46999998093E+01 0. -1.
       -5    1    3    3    0  502 -0.31437517538E+02 -0.23565482744E+03  0.38946065614E+02  0.24095726017E+03  0.46999998093E+01 0.  1.
</event>
<event>
 5   0  0.5189877E-03  0.1007965E+04  0.7818609E-02  0.9299851E-01
       -1   -1    0    0    0  501  0.00000000000E+00  0.00000000000E+00  0.11955410388E+03  0.11955410399E+03  0.50400001928E-02 0. -1.
        1   -1    0    0  501    0  0.00000000000E+00  0.00000000000E+00 -0.21245487220E+04  0.21245487220E+04  0.50400001928E-02 0.  1.
    10030    2    1    2    0    0  0.00000000000E+00  0.00000000000E+00 -0.20049946181E+04  0.22441028260E+04  0.10079653144E+04 0.  0.
        3    1    3    3  502    0  0.22267034316E+03  0.21290103782E+03 -0.11448696295E+03  0.32865819404E+03  0.10100000352E+00 0. -1.
       -3    1    3    3    0  502 -0.22267034316E+03 -0.21290103782E+03 -0.18905076552E+04  0.19154446320E+04  0.10100000352E+00 0.  1.
</event>
<event>
 5   0  0.8875655E-03  0.9708313E+03  0.7818609E-02  0.9341128E-01
       -2   -1    0    0    0  501  0.00000000000E+00  0.00000000000E+00  0.29686574971E+03  0.29686574972E+03  0.25500000920E-02 0.  1.
        2   -1    0    0  501    0  0.00000000000E+00  0.00000000000E+00 -0.79372028234E+03  0.79372028234E+03  0.25500000920E-02 0. -1.
    10030    2    1    2    0    0  0.00000000000E+00  0.00000000000E+00 -0.49685453262E+03  0.10905860321E+04  0.97083132765E+03 0.  0.
        4    1    3    3  502    0 -0.41639900441E+03  0.10555998524E+03 -0.50235397202E+03  0.66097818985E+03  0.12699999809E+01 0. -1.
       -4    1    3    3    0  502  0.41639900441E+03 -0.10555998524E+03  0.54994393985E+01  0.42960784221E+03  0.12699999809E+01 0.  1.
</event>
<event>
 5   0  0.5349685E-03  0.9861418E+03  0.7818609E-02  0.9323876E-01
       -1   -1    0    0    0  501  0.00000000000E+00  0.00000000000E+00  0.24777567451E+03  0.24777567456E+03  0.50400001928E-02 0.  1.
        1   -1    0    0  501    0  0.00000000000E+00  0.00000000000E+00 -0.98120568289E+03  0.98120568290E+03  0.50400001928E-02 0. -1.
    10030    2    1    2    0    0  0.00000000000E+00  0.00000000000E+00 -0.73343000838E+03  0.12289813575E+04  0.98614177469E+03 0.  0.
        4    1    3    3  502    0  0.40940210941E+03 -0.99356167988E+02 -0.68599779329E+03  0.80503187552E+03  0.12699999809E+01 0. -1.
       -4    1    3    3    0  502 -0.40940210941E+03  0.99356167988E+02 -0.47432215093E+02  0.42394948194E+03  0.12699999809E+01 0.  1.
</event>
<event>
 5   0  0.5072205E-03  0.9657839E+03  0.7818609E-02  0.9346890E-01
       -1   -1    0    0    0  501  0.00000000000E+00  0.00000000000E+00  0.15289083941E+03  0.15289083950E+03  0.50400001928E-02 0. -1.
        1   -1    0    0  501    0  0.00000000000E+00  0.00000000000E+00 -0.15251707768E+04  0.15251707768E+04  0.50400001928E-02 0.  1.
    10030    2    1    2    0    0  0.00000000000E+00  0.00000000000E+00 -0.13722799373E+04  0.16780616163E+04  0.96578391037E+03 0.  0.
        5    1    3    3  502    0 -0.38897437168E+03 -0.23281821367E+03 -0.39718391925E+03  0.60272924116E+03  0.46999998093E+01 0.  1.
       -5    1    3    3    0  502  0.38897437168E+03  0.23281821367E+03 -0.97509601809E+03  0.10753323751E+04  0.46999998093E+01 0. -1.
</event>
<event>
 5   0  0.5201968E-03  0.9968945E+03  0.7818609E-02  0.9311957E-01
        1   -1    0    0  501    0  0.00000000000E+00  0.00000000000E+00  0.54636413475E+03  0.54636413477E+03  0.50400001928E-02 0. -1.
       -1   -1    0    0    0  501  0.00000000000E+00  0.00000000000E+00 -0.45473277523E+03  0.45473277526E+03  0.50400001928E-02 0.  1.
    10030    2    1    2    0    0  0.00000000000E+00  0.00000000000E+00  0.91631359520E+02  0.10010969100E+04  0.99689453666E+03 0.  0.
        2    1    3    3  502    0  0.20691108435E+03  0.38323518229E+03  0.28925929336E+03  0.52283108226E+03  0.25500000920E-02 0. -1.
       -2    1    3    3    0  502 -0.20691108435E+03 -0.38323518229E+03 -0.19762793384E+03  0.47826582777E+03  0.25500000920E-02 0.  1.
</event>
<event>
 5   0  0.5201968E-03  0.1001521E+04  0.7818609E-02  0.9306878E-01
       -1   -1    0    0    0  501  0.00000000000E+00  0.00000000000E+00  0.42814868468E+03  0.42814868470E+03  0.50400001928E-02 0. -1.
        1   -1    0    0  501    0  0.00000000000E+00  0.00000000000E+00 -0.58568714253E+03  0.58568714255E+03  0.50400001928E-02 0.  1.
    10030    2    1    2    0    0  0.00000000000E+00  0.00000000000E+00 -0.15753845786E+03  0.10138358273E+04  0.10015212024E+04 0.  0.
        2    1    3    3  502    0  0.29674839564E+03  0.25435214914E+03  0.23814011575E+03  0.45767383673E+03  0.25500000920E-02 0. -1.
       -2    1    3    3    0  502 -0.29674839564E+03 -0.25435214914E+03 -0.39567857360E+03  0.55616199053E+03  0.25500000920E-02 0.  1.
</event>
<event>
 5   0  0.5072205E-03  0.1013009E+04  0.7818609E-02  0.9294391E-01
        1   -1    0    0  501    0  0.00000000000E+00  0.00000000000E+00  0.11238223739E+04  0.11238223739E+04  0.50400001928E-02 0.  1.
       -1   -1    0    0    0  501  0.00000000000E+00  0.00000000000E+00 -0.22828041542E+03  0.22828041547E+03  0.50400001928E-02 0. -1.
    10030    2    1    2    0    0  0.00000000000E+00  0.00000000000E+00  0.89554195847E+03  0.13521027894E+04  0.10130086642E+04 0.  0.
        5    1    3    3  502    0  0.16036056251E+03  0.40755316509E+03  0.78730275385E+03  0.90093440861E+03  0.46999998093E+01 0.  1.
       -5    1    3    3    0  502 -0.16036056251E+03 -0.40755316509E+03  0.10823920461E+03  0.45116838076E+03  0.46999998093E+01 0. -1.
</event>
<event>
 5   0  0.5072205E-03  0.1003783E+04  0.7818609E-02  0.9304406E-01
       -1   -1    0    0    0  501  0.00000000000E+00  0.00000000000E+00  0.16840994571E+03  0.16840994579E+03  0.50400001928E-02 0.  1.
        1   -1    0    0  501    0  0.00000000000E+00  0.00000000000E+00 -0.14957249792E+04  0.14957249792E+04  0.50400001928E-02 0. -1.
    10030    2    1    2    0    0  0.00000000000E+00  0.00000000000E+00 -0.13273150335E+04  0.16641349250E+04  0.10037827705E+04 0.  0.
        5    1    3    3  502    0 -0.38969332101E+03  0.99955550776E+02 -0.11610742783E+04  0.12288073756E+04  0.46999998093E+01 0. -1.
       -5    1    3    3    0  502  0.38969332101E+03 -0.99955550776E+02 -0.16624075516E+03  0.43532754938E+03  0.46999998093E+01 0.  1.
</event>
<event>
 5   0  0.5201968E-03  0.9981330E+03  0.7818609E-02  0.9310595E-01
        1   -1    0    0  501    0  0.00000000000E+00  0.00000000000E+00  0.13974399946E+04  0.13974399946E+04  0.50400001928E-02 0. -1.
       -1   -1    0    0    0  501  0.00000000000E+00  0.00000000000E+00 -0.17823118927E+03  0.17823118935E+03  0.50400001928E-02 0.  1.
    10030    2    1    2    0    0  0.00000000000E+00  0.00000000000E+00  0.12192088053E+04  0.15756711839E+04  0.99813304170E+03 0.  0.
        2    1    3    3  502    0 -0.46397917639E+03 -0.26936104681E+02  0.89665766701E+03  0.10099491085E+04  0.25500000920E-02 0.  1.
       -2    1    3    3    0  502  0.46397917639E+03  0.26936104681E+02  0.32255113828E+03  0.56572207547E+03  0.25500000920E-02 0. -1.
</event>
<event>
 5   0  0.5201968E-03  0.1005188E+04  0.7818609E-02  0.9302873E-01
        1   -1    0    0  501    0  0.00000000000E+00  0.00000000000E+00  0.32005220715E+03  0.32005220719E+03  0.50400001928E-02 0.  1.
       -1   -1    0    0    0  501  0.00000000000E+00  0.00000000000E+00 -0.78924846859E+03  0.78924846861E+03  0.50400001928E-02 0. -1.
    10030    2    1    2    0    0  0.00000000000E+00  0.00000000000E+00 -0.46919626144E+03  0.11093006758E+04  0.10051879713E+04 0.  0.
        2    1    3    3  502    0  0.12003220475E+03 -0.39750388852E+02  0.30221260833E+03  0.32759774759E+03  0.25500000920E-02 0.  1.
       -2    1    3    3    0  502 -0.12003220475E+03  0.39750388852E+02 -0.77140886977E+03  0.78170292820E+03  0.25500000920E-02 0. -1.
</event>
<event>
 5   0  0.3513625E-03  0.9916210E+03  0.7818609E-02  0.9317783E-01
        4   -1    0    0  501    0  0.00000000000E+00  0.00000000000E+00  0.10682744371E+04  0.10682751920E+04  0.12699999809E+01 0.  1.
       -4   -1    0    0    0  501  0.00000000000E+00  0.00000000000E+00 -0.23011436386E+03  0.23011786839E+03  0.12699999809E+01 0. -1.
    10030    2    1    2    0    0  0.00000000000E+00  0.00000000000E+00  0.83816007325E+03  0.12983930604E+04  0.99162101174E+03 0.  0.
        4    1    3    3  502    0  0.39551766788E+03  0.26949987566E+03  0.58860117215E+03  0.75862860567E+03  0.12699999809E+01 0. -1.
       -4    1    3    3    0  502 -0.39551766788E+03 -0.26949987566E+03  0.24955890110E+03  0.53976445474E+03  0.12699999809E+01 0.  1.
</event>
<event>
 5   0  0.9040674E-03  0.9977866E+03  0.7818609E-02  0.9310976E-01
       -2   -1    0    0    0  501  0.00000000000E+00  0.00000000000E+00  0.16182374307E+03  0.16182374309E+03  0.25500000920E-02 0.  1.
        2   -1    0    0  501    0  0.00000000000E+00  0.00000000000E+00 -0.15380594230E+04  0.15380594230E+04  0.25500000920E-02 0. -1.
    10030    2    1    2    0    0  0.00000000000E+00  0.00000000000E+00 -0.13762356799E+04  0.16998831660E+04  0.99778661626E+03 0.  0.
        1    1    3    3  502    0 -0.29124233756E+03  0.17009538145E+03 -0.13144047691E+04  0.13569872642E+04  0.50400001928E-02 0. -1.
       -1    1    3    3    0  502  0.29124233756E+03 -0.17009538145E+03 -0.61830910775E+02  0.34289590189E+03  0.50400001928E-02 0.  1.
</event>
<event>
 5   0  0.5072205E-03  0.1022405E+04  0.7818609E-02  0.9284308E-01
       -1   -1    0    0    0  501  0.00000000000E+00  0.00000000000E+00  0.16843002093E+03  0.16843002101E+03  0.50400001928E-02 0.  1.
        1   -1    0    0  501    0  0.00000000000E+00  0.00000000000E+00 -0.15515509346E+04  0.15515509346E+04  0.50400001928E-02 0. -1.
    10030    2    1    2    0    0  0.00000000000E+00  0.00000000000E+00 -0.13831209136E+04  0.17199809556E+04  0.10224045314E+04 0.  0.
        5    1    3    3  502    0 -0.39840425321E+03 -0.22035038631E+03 -0.30053955993E+03  0.54555142636E+03  0.46999998093E+01 0. -1.
       -5    1    3    3    0  502  0.39840425321E+03  0.22035038631E+03 -0.10825813537E+04  0.11744295292E+04  0.46999998093E+01 0.  1.
</event>
<event>
 5   0  0.5201968E-03  0.9895950E+03  0.7818609E-02  0.9320031E-01
        1   -1    0    0  501    0  0.00000000000E+00  0.00000000000E+00  0.76388896209E+03  0.76388896210E+03  0.50400001928E-02 0.  1.
       -1   -1    0    0    0  501  0.00000000000E+00  0.00000000000E+00 -0.32049760647E+03  0.32049760651E+03  0.50400001928E-02 0. -1.
    10030    2    1    2    0    0  0.00000000000E+00  0.00000000000E+00  0.44339135562E+03  0.10843865686E+04  0.98959503634E+03 0.  0.
        2    1    3    3  502    0 -0.28448964306E+03 -0.10633262814E+03 -0.20634057051E+03  0.36717491181E+03  0.25500000920E-02 0. -1.
       -2    1    3    3    0  502  0.28448964306E+03  0.10633262814E+03  0.64973192613E+03  0.71721165680E+03  0.25500000920E-02 0.  1.
</event>
<event>
 5   0  0.5310275E-03  0.9644066E+03  0.7818609E-02  0.9348468E-01
       -1   -1    0    0    0  501  0.00000000000E+00  0.00000000000E+00  0.18701796684E+03  0.18701796690E+03  0.50400001928E-02 0. -1.
        1   -1    0    0  501    0  0.00000000000E+00  0.00000000000E+00 -0.12433030400E+04  0.12433030400E+04  0.50400001928E-02 0.  1.
    10030    2    1    2    0    0  0.00000000000E+00  0.00000000000E+00 -0.10562850732E+04  0.14303210069E+04  0.96440656730E+03 0.  0.
        1    1    3    3  502    0  0.47472410893E+02  0.91906851564E+02 -0.12266534992E+04  0.12310074355E+04  0.50400001928E-02 0.  1.
       -1    1    3    3    0  502 -0.47472410893E+02 -0.91906851564E+02  0.17036842600E+03  0.19931357144E+03  0.50400001928E-02 0. -1.
</event>
<event>
 5   0  0.8907355E-03  0.9978510E+03  0.7818609E-02  0.9310905E-01
        2   -1    0    0  501    0  0.00000000000E+00  0.00000000000E+00  0.17028817380E+03  0.17028817382E+03  0.25500000920E-02 0. -1.
       -2   -1    0    0    0  501  0.00000000000E+00  0.00000000000E+00 -0.14617964537E+04  0.14617964537E+04  0.25500000920E-02 0.  1.
    10030    2    1    2    0    0  0.00000000000E+00  0.00000000000E+00 -0.12915082799E+04  0.16320846275E+04  0.99785098805E+03 0.  0.
        5    1    3    3  502    0  0.97401443610E+02  0.28412547940E+03  0.58023520911E+01  0.30044980704E+03  0.46999998093E+01 0. -1.
       -5    1    3    3    0  502 -0.97401443610E+02 -0.28412547940E+03 -0.12973106320E+04  0.13316348205E+04  0.46999998093E+01 0.  1.
</event>
<event>
 5   0  0.8907355E-03  0.9993172E+03  0.7818609E-02  0.9309294E-01
        2   -1    0    0  501    0  0.00000000000E+00  0.00000000000E+00  0.78235722429E+03  0.78235722430E+03  0.25500000920E-02 0.  1.
       -2   -1    0    0    0  501  0.00000000000E+00  0.00000000000E+00 -0.31911091841E+03  0.31911091842E+03  0.25500000920E-02 0. -1.
    10030    2    1    2    0    0  0.00000000000E+00  0.00000000000E+00  0.46324630589E+03  0.11014681427E+04  0.99931723166E+03 0.  0.
        5    1    3    3  502    0 -0.17228928791E+03 -0.43504047650E+03  0.38521045517E+02  0.46952079386E+03  0.46999998093E+01 0. -1.
       -5    1    3    3    0  502  0.17228928791E+03  0.43504047650E+03  0.42472526037E+03  0.63194734885E+03  0.46999998093E+01 0.  1.
</event>
<event>
 5   0  0.8875655E-03  0.9926033E+03  0.7818609E-02  0.9316695E-01
       -2   -1    0    0    0  501  0.00000000000E+00  0.00000000000E+00  0.16141337863E+03  0.16141337865E+03  0.25500000920E-02 0.  1.
        2   -1    0    0  501    0  0.00000000000E+00  0.00000000000E+00 -0.15259906999E+04  0.15259906999E+04  0.25500000920E-02 0. -1.
    10030    2    1    2    0    0  0.00000000000E+00  0.00000000000E+00 -0.13645773213E+04  0.16874040786E+04  0.99260327353E+03 0.  0.
        4    1    3    3  502    0  0.24733828511E+03  0.38654519885E+03 -0.36099597319E+03  0.58387766150E+03  0.12699999809E+01 0. -1.
       -4    1    3    3    0  502 -0.24733828511E+03 -0.38654519885E+03 -0.10035813481E+04  0.11035264171E+04  0.12699999809E+01 0.  1.
</event>
<event>
 5   0  0.5072205E-03  0.9813517E+03  0.7818609E-02  0.9329238E-01
        1   -1    0    0  501    0  0.00000000000E+00  0.00000000000E+00  0.11825585079E+03  0.11825585090E+03  0.50400001928E-02 0. -1.
       -1   -1    0    0    0  501  0.00000000000E+00  0.00000000000E+00 -0.20359482770E+04  0.20359482770E+04  0.50400001928E-02 0.  1.
    10030    2    1    2    0    0  0.00000000000E+00  0.00000000000E+00 -0.19176924262E+04  0.21542041279E+04  0.98135171224E+03 0.  0.
        5    1    3    3  502    0  0.32976648710E+03 -0.32338037827E+03 -0.13223384233E+04  0.14006861892E+04  0.46999998093E+01 0.  1.
       -5    1    3    3    0  502 -0.32976648710E+03  0.32338037827E+03 -0.59535400290E+03  0.75351793863E+03  0.46999998093E+01 0. -1.
</event>
<event>
 5   0  0.8968798E-03  0.9839715E+03  0.7818609E-02  0.9326301E-01
        2   -1    0    0  501    0  0.00000000000E+00  0.00000000000E+00  0.83436741866E+03  0.83436741866E+03  0.25500000920E-02 0. -1.
       -2   -1    0    0    0  501  0.00000000000E+00  0.00000000000E+00 -0.29009997544E+03  0.29009997545E+03  0.25500000920E-02 0.  1.
    10030    2    1    2    0    0  0.00000000000E+00  0.00000000000E+00  0.54426744322E+03  0.11244673941E+04  0.98397147858E+03 0.  0.
        2    1    3    3  502    0 -0.38928596052E+03  0.26533536515E+03  0.43416571017E+03  0.64066081428E+03  0.25500000920E-02 0. -1.
       -2    1    3    3    0  502  0.38928596052E+03 -0.26533536515E+03  0.11010173305E+03  0.48380657983E+03  0.25500000920E-02 0.  1.
</event>
<event>
 5   0  0.5201968E-03  0.9873492E+03  0.7818609E-02  0.9322530E-01
       -1   -1    0    0    0  501  0.00000000000E+00  0.00000000000E+00  0.64420094761E+03  0.64420094763E+03  0.50400001928E-02 0. -1.
        1   -1    0    0  501    0  0.00000000000E+00  0.00000000000E+00 -0.37832081519E+03  0.37832081523E+03  0.50400001928E-02 0.  1.
    10030    2    1    2    0    0  0.00000000000E+00  0.00000000000E+00  0.26588013242E+03  0.10225217629E+04  0.98734923442E+03 0.  0.
        2    1    3    3  502    0 -0.22333274833E+03 -0.14034542841E+02  0.58866150878E+03  0.62975936420E+03  0.25500000920E-02 0. -1.
       -2    1    3    3    0  502  0.22333274833E+03  0.14034542841E+02 -0.32278137636E+03  0.39276239866E+03  0.25500000920E-02 0.  1.
</event>
<event>
 5   0  0.8968798E-03  0.9927905E+03  0.7818609E-02  0.9316488E-01
        2   -1    0    0  501    0  0.00000000000E+00  0.00000000000E+00  0.82995284996E+03  0.82995284996E+03  0.25500000920E-02 0.  1.
       -2   -1    0    0    0  501  0.00000000000E+00  0.00000000000E+00 -0.29689425721E+03  0.29689425722E+03  0.25500000920E-02 0. -1.
    10030    2    1    2    0    0  0.00000000000E+00  0.00000000000E+00  0.53305859275E+03  0.11268471072E+04  0.99279048125E+03 0.  0.
        2    1    3    3  502    0 -0.91424487937E+02 -0.37240279127E+03  0.62431765325E+03  0.73267646892E+03  0.25500000920E-02 0.  1.
       -2    1    3    3    0  502  0.91424487937E+02  0.37240279127E+03 -0.91259060503E+02  0.39417063826E+03  0.25500000920E-02 0. -1.
</event>
<event>
 5   0  0.5072205E-03  0.9930201E+03  0.7818609E-02  0.9316234E-01
       -1   -1    0    0    0  501  0.00000000000E+00  0.00000000000E+00  0.24764308601E+03  0.24764308606E+03  0.50400001928E-02 0. -1.
        1   -1    0    0  501    0  0.00000000000E+00  0.00000000000E+00 -0.99547387032E+03  0.99547387033E+03  0.50400001928E-02 0.  1.
    10030    2    1    2    0    0  0.00000000000E+00  0.00000000000E+00 -0.74783078431E+03  0.12431169564E+04  0.99302008304E+03 0.  0.
        5    1    3    3  502    0 -0.43852409549E+02 -0.19971527192E+03  0.19245851140E+03  0.28084086645E+03  0.46999998093E+01 0. -1.
       -5    1    3    3    0  502  0.43852409549E+02  0.19971527192E+03 -0.94028929571E+03  0.96227608994E+03  0.46999998093E+01 0.  1.
</event>
<event>
 5   0  0.8875655E-03  0.9734487E+03  0.7818609E-02  0.9338155E-01
        2   -1    0    0  501    0  0.00000000000E+00  0.00000000000E+00  0.18466601287E+04  0.18466601287E+04  0.25500000920E-02 0. -1.
       -2   -1    0    0    0  501  0.00000000000E+00  0.00000000000E+00 -0.12828597850E+03  0.12828597853E+03  0.25500000920E-02 0.  1.
    10030    2    1    2    0    0  0.00000000000E+00  0.00000000000E+00  0.17183741502E+04  0.19749461073E+04  0.97344871791E+03 0.  0.
        4    1    3    3  502    0  0.44851922141E+01  0.43703853367E+03  0.12937331702E+04  0.13655657895E+04  0.12699999809E+01 0. -1.
       -4    1    3    3    0  502 -0.44851922141E+01 -0.43703853367E+03  0.42464098005E+03  0.60938031779E+03  0.12699999809E+01 0.  1.
</event>
<event>
 5   0  0.5310275E-03  0.9944011E+03  0.7818609E-02  0.9314707E-01
        1   -1    0    0  501    0  0.00000000000E+00  0.00000000000E+00  0.10418412202E+04  0.10418412202E+04  0.50400001928E-02 0. -1.
       -1   -1    0    0    0  501  0.00000000000E+00  0.00000000000E+00 -0.23728028326E+03  0.23728028331E+03  0.50400001928E-02 0.  1.
    10030    2    1    2    0    0  0.00000000000E+00  0.00000000000E+00  0.80456093697E+03  0.12791215036E+04  0.99440108586E+03 0.  0.
        1    1    3    3  502    0  0.45300198943E+03  0.15456630067E+01  0.13867769405E+03  0.47375594387E+03  0.50400001928E-02 0.  1.
       -1    1    3    3    0  502 -0.45300198943E+03 -0.15456630067E+01  0.66588324292E+03  0.80536555968E+03  0.50400001928E-02 0. -1.
</event>
<event>
 5   0  0.5072205E-03  0.9961015E+03  0.7818609E-02  0.9312831E-01
       -1   -1    0    0    0  501  0.00000000000E+00  0.00000000000E+00  0.22866726940E+03  0.22866726946E+03  0.50400001928E-02 0.  1.
        1   -1    0    0  501    0  0.00000000000E+00  0.00000000000E+00 -0.10847837124E+04  0.10847837124E+04  0.50400001928E-02 0. -1.
    10030    2    1    2    0    0  0.00000000000E+00  0.00000000000E+00 -0.85611644301E+03  0.13134509819E+04  0.99610145959E+03 0.  0.
        5    1    3    3  502    0  0.34338004017E+03 -0.20075173266E+03 -0.82324283961E+03  0.91430956088E+03  0.46999998093E+01 0. -1.
       -5    1    3    3    0  502 -0.34338004017E+03  0.20075173266E+03 -0.32873603397E+02  0.39914142099E+03  0.46999998093E+01 0.  1.
</event>
<event>
 5   0  0.5349685E-03  0.1209672E+04  0.7818609E-02  0.9104432E-01
       -1   -1    0    0    0  501  0.00000000000E+00  0.00000000000E+00  0.22508893374E+03  0.22508893379E+03  0.50400001928E-02 0. -1.
        1   -1    0    0  501    0  0.00000000000E+00  0.00000000000E+00 -0.16252537938E+04  0.16252537938E+04  0.50400001928E-02 0.  1.
    10030    2    1    2    0    0  0.00000000000E+00  0.00000000000E+00 -0.14001648601E+04  0.18503427276E+04  0.12096720937E+04 0.  0.
        4    1    3    3  502    0  0.35895353522E+03  0.48386538063E+03 -0.78176608983E+03  0.98698185350E+03  0.12699999809E+01 0. -1.
       -4    1    3    3    0  502 -0.35895353522E+03 -0.48386538063E+03 -0.61839877024E+03  0.86336087411E+03  0.12699999809E+01 0.  1.
</event>
<event>
 5   0  0.8968798E-03  0.9957670E+03  0.7818609E-02  0.9313200E-01
        2   -1    0    0  501    0  0.00000000000E+00  0.00000000000E+00  0.14385804093E+04  0.14385804093E+04  0.25500000920E-02 0. -1.
       -2   -1    0    0    0  501  0.00000000000E+00  0.00000000000E+00 -0.17231430861E+03  0.17231430863E+03  0.25500000920E-02 0.  1.
    10030    2    1    2    0    0  0.00000000000E+00  0.00000000000E+00  0.12662661007E+04  0.16108947179E+04  0.99576701817E+03 0.  0.
        2    1    3    3  502    0 -0.21878884132E+03 -0.44072094284E+03  0.51009437133E+03  0.70873110148E+03  0.25500000920E-02 0. -1.
       -2    1    3    3    0  502  0.21878884132E+03  0.44072094284E+03  0.75617172935E+03  0.90216361643E+03  0.25500000920E-02 0.  1.
</event>
<event>
 5   0  0.9243773E-03  0.9272059E+03  0.7818609E-02  0.9392197E-01
       -2   -1    0    0    0  501  0.00000000000E+00  0.00000000000E+00  0.21947539738E+03  0.21947539740E+03  0.25500000920E-02 0. -1.
        2   -1    0    0  501    0  0.00000000000E+00  0.00000000000E+00 -0.97927919101E+03  0.97927919101E+03  0.25500000920E-02 0.  1.
    10030    2    1    2    0    0  0.00000000000E+00  0.00000000000E+00 -0.75980379363E+03  0.11987545884E+04  0.92720588783E+03 0.  0.
        3    1    3    3  502    0 -0.43200513036E+03 -0.81863254384E+02 -0.18990023706E+03  0.47894899030E+03  0.10100000352E+00 0. -1.
       -3    1    3    3    0  502  0.43200513036E+03  0.81863254384E+02 -0.56990355657E+03  0.71980559811E+03  0.10100000352E+00 0.  1.
</event>
<event>
 5   0  0.5072205E-03  0.1073495E+04  0.7818609E-02  0.9231417E-01
        1   -1    0    0  501    0  0.00000000000E+00  0.00000000000E+00  0.25638327817E+03  0.25638327822E+03  0.50400001928E-02 0. -1.
       -1   -1    0    0    0  501  0.00000000000E+00  0.00000000000E+00 -0.11237007151E+04  0.11237007151E+04  0.50400001928E-02 0.  1.
    10030    2    1    2    0    0  0.00000000000E+00  0.00000000000E+00 -0.86731743689E+03  0.13800839933E+04  0.10734953620E+04 0.  0.
        5    1    3    3  502    0  0.34801977327E+03  0.40718043488E+03 -0.47748827386E+03  0.71758679671E+03  0.46999998093E+01 0. -1.
       -5    1    3    3    0  502 -0.34801977327E+03 -0.40718043488E+03 -0.38982916303E+03  0.66249719658E+03  0.46999998093E+01 0.  1.
</event>
<event>
 5   0  0.8907355E-03  0.9826205E+03  0.7818609E-02  0.9327814E-01
        2   -1    0    0  501    0  0.00000000000E+00  0.00000000000E+00  0.15085238569E+04  0.15085238569E+04  0.25500000920E-02 0.  1.
       -2   -1    0    0    0  501  0.00000000000E+00  0.00000000000E+00 -0.16001455594E+03  0.16001455596E+03  0.25500000920E-02 0. -1.
    10030    2    1    2    0    0  0.00000000000E+00  0.00000000000E+00  0.13485093010E+04  0.16685384129E+04  0.98262052717E+03 0.  0.
        5    1    3    3  502    0  0.48686521694E+03  0.44087933327E+02  0.75713268950E+03  0.90125106648E+03  0.46999998093E+01 0. -1.
       -5    1    3    3    0  502 -0.48686521694E+03 -0.44087933327E+02  0.59137661146E+03  0.76728734638E+03  0.46999998093E+01 0.  1.
</event>
<event>
 5   0  0.8907355E-03  0.9979955E+03  0.7818609E-02  0.9310746E-01
        2   -1    0    0  501    0  0.00000000000E+00  0.00000000000E+00  0.34031145455E+03  0.34031145456E+03  0.25500000920E-02 0. -1.
       -2   -1    0    0    0  501  0.00000000000E+00  0.00000000000E+00 -0.73167899617E+03  0.73167899617E+03  0.25500000920E-02 0.  1.
    10030    2    1    2    0    0  0.00000000000E+00  0.00000000000E+00 -0.39136754162E+03  0.10719904507E+04  0.99799547785E+03 0.  0.
        5    1    3    3  502    0 -0.17806068484E+03 -0.36950614424E+03  0.10952474324E+03  0.42456820123E+03  0.46999998093E+01 0. -1.
       -5    1    3    3    0  502  0.17806068484E+03  0.36950614424E+03 -0.50089228486E+03  0.64742224950E+03  0.46999998093E+01 0.  1.
</event>
<event>
 5   0  0.8907355E-03  0.9955463E+03  0.7818609E-02  0.9313443E-01
       -2   -1    0    0    0  501  0.00000000000E+00  0.00000000000E+00  0.29879639904E+03  0.29879639905E+03  0.25500000920E-02 0. -1.
        2   -1    0    0  501    0  0.00000000000E+00  0.00000000000E+00 -0.82925393799E+03  0.82925393800E+03  0.25500000920E-02 0.  1.
    10030    2    1    2    0    0  0.00000000000E+00  0.00000000000E+00 -0.53045753895E+03  0.11280503371E+04  0.99554626326E+03 0.  0.
        5    1    3    3  502    0  0.30845140109E+03  0.29494474225E+03 -0.55549035040E+03  0.70051858448E+03  0.46999998093E+01 0. -1.
       -5    1    3    3    0  502 -0.30845140109E+03 -0.29494474225E+03  0.25032811447E+02  0.42753175258E+03  0.46999998093E+01 0.  1.
</event>
<event>
 5   0  0.5349685E-03  0.1030706E+04  0.7818609E-02  0.9275494E-01
        1   -1    0    0  501    0  0.00000000000E+00  0.00000000000E+00  0.54656540168E+03  0.54656540171E+03  0.50400001928E-02 0. -1.
       -1   -1    0    0    0  501  0.00000000000E+00  0.00000000000E+00 -0.48592298492E+03  0.48592298494E+03  0.50400001928E-02 0.  1.
    10030    2    1    2    0    0  0.00000000000E+00  0.00000000000E+00  0.60642416766E+02  0.10324883866E+04  0.10307059551E+04 0.  0.
        4    1    3    3  502    0 -0.50785601758E+03 -0.19463671992E+02  0.11585334650E+03  0.52126785813E+03  0.12699999809E+01 0. -1.
       -4    1    3    3    0  502  0.50785601758E+03  0.19463671992E+02 -0.55210929732E+02  0.51122052852E+03  0.12699999809E+01 0.  1.
</event>
<event>
 5   0  0.8875655E-03  0.1001075E+04  0.7818609E-02  0.9307367E-01
        2   -1    0    0  501    0  0.00000000000E+00  0.00000000000E+00  0.85646066382E+03  0.85646066382E+03  0.25500000920E-02 0. -1.
       -2   -1    0    0    0  501  0.00000000000E+00  0.00000000000E+00 -0.29252666030E+03  0.29252666031E+03  0.25500000920E-02 0.  1.
    10030    2    1    2    0    0  0.00000000000E+00  0.00000000000E+00  0.56393400352E+03  0.11489873241E+04  0.10010745780E+04 0.  0.
        4    1    3    3  502    0  0.21083050435E+03  0.93620883476E+02  0.79180959170E+03  0.82472929728E+03  0.12699999809E+01 0. -1.
       -4    1    3    3    0  502 -0.21083050435E+03 -0.93620883476E+02 -0.22787558818E+03  0.32425802685E+03  0.12699999809E+01 0.  1.
</event>
<event>
 5   0  0.5310275E-03  0.9854208E+03  0.7818609E-02  0.9324681E-01
        1   -1    0    0  501    0  0.00000000000E+00  0.00000000000E+00  0.25049844334E+03  0.25049844339E+03  0.50400001928E-02 0. -1.
       -1   -1    0    0    0  501  0.00000000000E+00  0.00000000000E+00 -0.96912196470E+03  0.96912196471E+03  0.50400001928E-02 0.  1.
    10030    2    1    2    0    0  0.00000000000E+00  0.00000000000E+00 -0.71862352136E+03  0.12196204081E+04  0.98542081083E+03 0.  0.
        1    1    3    3  502    0  0.39367124103E+03 -0.29395142666E+03 -0.31335028585E+03  0.58272882966E+03  0.50400001928E-02 0. -1.
       -1    1    3    3    0  502 -0.39367124103E+03  0.29395142666E+03 -0.40527323551E+03  0.63689157845E+03  0.50400001928E-02 0.  1.
</event>
<event>
 5   0  0.3513625E-03  0.1006531E+04  0.7818609E-02  0.9301411E-01
        3   -1    0    0  501    0  0.00000000000E+00  0.00000000000E+00  0.10792235599E+04  0.10792235647E+04  0.10100000352E+00 0. -1.
       -3   -1    0    0    0  501  0.00000000000E+00  0.00000000000E+00 -0.23468365305E+03  0.23468367479E+03  0.10100000352E+00 0.  1.
    10030    2    1    2    0    0  0.00000000000E+00  0.00000000000E+00  0.84453990688E+03  0.13139072394E+04  0.10065309630E+04 0.  0.
        3    1    3    3  502    0 -0.50293049605E+03 -0.62936602672E+01  0.39975672692E+03  0.64248279739E+03  0.10100000352E+00 0. -1.
       -3    1    3    3    0  502  0.50293049605E+03  0.62936602672E+01  0.44478317996E+03  0.67142444206E+03  0.10100000352E+00 0.  1.
</event>
<event>
 5   0  0.5310275E-03  0.9985675E+03  0.7818609E-02  0.9310117E-01
        1   -1    0    0  501    0  0.00000000000E+00  0.00000000000E+00  0.96528190998E+03  0.96528190999E+03  0.50400001928E-02 0. -1.
       -1   -1    0    0    0  501  0.00000000000E+00  0.00000000000E+00 -0.25825020965E+03  0.25825020970E+03  0.50400001928E-02 0.  1.
    10030    2    1    2    0    0  0.00000000000E+00  0.00000000000E+00  0.70703170033E+03  0.12235321197E+04  0.99856748527E+03 0.  0.
        1    1    3    3  502    0 -0.24468083463E+03 -0.40670396875E+03  0.16366578133E+03  0.50205907724E+03  0.50400001928E-02 0.  1.
       -1    1    3    3    0  502  0.24468083463E+03  0.40670396875E+03  0.54336591900E+03  0.72147304246E+03  0.50400001928E-02 0. -1.
</event>
<event>
 5   0  0.5201968E-03  0.9934848E+03  0.7818609E-02  0.9315720E-01
       -1   -1    0    0    0  501  0.00000000000E+00  0.00000000000E+00  0.70385842302E+03  0.70385842304E+03  0.50400001928E-02 0. -1.
        1   -1    0    0  501    0  0.00000000000E+00  0.00000000000E+00 -0.35057196044E+03  0.35057196048E+03  0.50400001928E-02 0.  1.
    10030    2    1    2    0    0  0.00000000000E+00  0.00000000000E+00  0.35328646258E+03  0.10544303835E+04  0.99348483081E+03 0.  0.
        2    1    3    3  502    0  0.37542633817E+03 -0.52007012877E+02  0.51743813040E+03  0.64139838133E+03  0.25500000920E-02 0. -1.
       -2    1    3    3    0  502 -0.37542633817E+03  0.52007012877E+02 -0.16415166782E+03  0.41303200219E+03  0.25500000920E-02 0.  1.
</event>
<event>
 5   0  0.8875655E-03  0.1052988E+04  0.7818609E-02  0.9252265E-01
        2   -1    0    0  501    0  0.00000000000E+00  0.00000000000E+00  0.64157936716E+03  0.64157936717E+03  0.25500000920E-02 0.  1.
       -2   -1    0    0    0  501  0.00000000000E+00  0.00000000000E+00 -0.43205214265E+03  0.43205214266E+03  0.25500000920E-02 0. -1.
    10030    2    1    2    0    0  0.00000000000E+00  0.00000000000E+00  0.20952722451E+03  0.10736315098E+04  0.10529876358E+04 0.  0.
        4    1    3    3  502    0 -0.22850773887E+03 -0.64893561875E+02  0.58383388065E+03  0.63030990329E+03  0.12699999809E+01 0.  1.
       -4    1    3    3    0  502  0.22850773887E+03  0.64893561875E+02 -0.37430665613E+03  0.44332160654E+03  0.12699999809E+01 0. -1.
</event>
<event>
 5   0  0.5349685E-03  0.9858146E+03  0.7818609E-02  0.9324241E-01
       -1   -1    0    0    0  501  0.00000000000E+00  0.00000000000E+00  0.35006845846E+03  0.35006845850E+03  0.50400001928E-02 0.  1.
        1   -1    0    0  501    0  0.00000000000E+00  0.00000000000E+00 -0.69402882603E+03  0.69402882604E+03  0.50400001928E-02 0. -1.
    10030    2    1    2    0    0  0.00000000000E+00  0.00000000000E+00 -0.34396036757E+03  0.10440972845E+04  0.98581458963E+03 0.  0.
        4    1    3    3  502    0  0.39842710278E+03  0.15544334804E+03  0.87556845729E+02  0.43654851370E+03  0.12699999809E+01 0.  1.
       -4    1    3    3    0  502 -0.39842710278E+03 -0.15544334804E+03 -0.43151721329E+03  0.60754877084E+03  0.12699999809E+01 0. -1.
</event>
<event>
 5   0  0.5310275E-03  0.9944384E+03  0.7818609E-02  0.9314666E-01
       -1   -1    0    0    0  501  0.00000000000E+00  0.00000000000E+00  0.12773134752E+04  0.12773134752E+04  0.50400001928E-02 0.  1.
        1   -1    0    0  501    0  0.00000000000E+00  0.00000000000E+00 -0.19355227239E+03  0.19355227246E+03  0.50400001928E-02 0. -1.
    10030    2    1    2    0    0  0.00000000000E+00  0.00000000000E+00  0.10837612028E+04  0.14708657477E+04  0.99443838571E+03 0.  0.
        1    1    3    3  502    0 -0.17321436210E+03  0.19704673438E+03 -0.82843225058E+02  0.27512475485E+03  0.50400001928E-02 0. -1.
       -1    1    3    3    0  502  0.17321436210E+03 -0.19704673438E+03  0.11666044279E+04  0.11957409928E+04  0.50400001928E-02 0.  1.
</event>
<event>
 5   0  0.9040674E-03  0.9789281E+03  0.7818609E-02  0.9331963E-01
        2   -1    0    0  501    0  0.00000000000E+00  0.00000000000E+00  0.16883532976E+04  0.16883532976E+04  0.25500000920E-02 0.  1.
       -2   -1    0    0    0  501  0.00000000000E+00  0.00000000000E+00 -0.14189865783E+03  0.14189865785E+03  0.25500000920E-02 0. -1.
    10030    2    1    2    0    0  0.00000000000E+00  0.00000000000E+00  0.15464546398E+04  0.18302519555E+04  0.97892812177E+03 0.  0.
        1    1    3    3  502    0 -0.13940576397E+03 -0.46783946680E+03  0.70666852159E+03  0.85888773024E+03  0.50400001928E-02 0.  1.
       -1    1    3    3    0  502  0.13940576397E+03  0.46783946680E+03  0.83978611822E+03  0.97136422525E+03  0.50400001928E-02 0. -1.
</event>
<event>
 5   0  0.8907355E-03  0.9993023E+03  0.7818609E-02  0.9309310E-01
       -2   -1    0    0    0  501  0.00000000000E+00  0.00000000000E+00  0.14728546718E+03  0.14728546720E+03  0.25500000920E-02 0.  1.
        2   -1    0    0  501    0  0.00000000000E+00  0.00000000000E+00 -0.16950161811E+04  0.16950161812E+04  0.25500000920E-02 0. -1.
    10030    2    1    2    0    0  0.00000000000E+00  0.00000000000E+00 -0.15477307140E+04  0.18423016483E+04  0.99930225685E+03 0.  0.
        5    1    3    3  502    0 -0.14150025306E+03  0.85914552184E+02 -0.16429475389E+04  0.16512729446E+04  0.46999998093E+01 0. -1.
       -5    1    3    3    0  502  0.14150025306E+03 -0.85914552184E+02  0.95216824973E+02  0.19102870373E+03  0.46999998093E+01 0.  1.
</event>
<event>
 5   0  0.5349685E-03  0.9358893E+03  0.7818609E-02  0.9381798E-01
       -1   -1    0    0    0  501  0.00000000000E+00  0.00000000000E+00  0.83658927622E+03  0.83658927623E+03  0.50400001928E-02 0.  1.
        1   -1    0    0  501    0  0.00000000000E+00  0.00000000000E+00 -0.26174393965E+03  0.26174393970E+03  0.50400001928E-02 0. -1.
    10030    2    1    2    0    0  0.00000000000E+00  0.00000000000E+00  0.57484533657E+03  0.10983332159E+04  0.93588925212E+03 0.  0.
        4    1    3    3  502    0  0.16150123006E+03  0.34248562022E+03  0.61008344611E+03  0.71804071715E+03  0.12699999809E+01 0.  1.
       -4    1    3    3    0  502 -0.16150123006E+03 -0.34248562022E+03 -0.35238109535E+02  0.38029249878E+03  0.12699999809E+01 0. -1.
</event>
<event>
 5   0  0.8875655E-03  0.9967953E+03  0.7818609E-02  0.9312067E-01
       -2   -1    0    0    0  501  0.00000000000E+00  0.00000000000E+00  0.49094011831E+03  0.49094011831E+03  0.25500000920E-02 0.  1.
        2   -1    0    0  501    0  0.00000000000E+00  0.00000000000E+00 -0.50596843349E+03  0.50596843349E+03  0.25500000920E-02 0. -1.
    10030    2    1    2    0    0  0.00000000000E+00  0.00000000000E+00 -0.15028315178E+02  0.99690855181E+03  0.99679527006E+03 0.  0.
        4    1    3    3  502    0 -0.22755725402E+03 -0.43197827312E+03 -0.10758080018E+03  0.49996277239E+03  0.12699999809E+01 0.  1.
       -4    1    3    3    0  502  0.22755725402E+03  0.43197827312E+03  0.92552485001E+02  0.49694577942E+03  0.12699999809E+01 0. -1.
</event>
<event>
 5   0  0.8968798E-03  0.1002971E+04  0.7818609E-02  0.9305292E-01
       -2   -1    0    0    0  501  0.00000000000E+00  0.00000000000E+00  0.30666070075E+03  0.30666070076E+03  0.25500000920E-02 0.  1.
        2   -1    0    0  501    0  0.00000000000E+00  0.00000000000E+00 -0.82008487446E+03  0.82008487447E+03  0.25500000920E-02 0. -1.
    10030    2    1    2    0    0  0.00000000000E+00  0.00000000000E+00 -0.51342417372E+03  0.11267455752E+04  0.10029711906E+04 0.  0.
        2    1    3    3  502    0  0.42794084453E+03  0.10123442898E+03 -0.52751166954E+03  0.68676803765E+03  0.25500000920E-02 0. -1.
       -2    1    3    3    0  502 -0.42794084453E+03 -0.10123442898E+03  0.14087495823E+02  0.43997753758E+03  0.25500000920E-02 0.  1.
</event>
<event>
 5   0  0.5310275E-03  0.1000214E+04  0.7818609E-02  0.9308311E-01
       -1   -1    0    0    0  501  0.00000000000E+00  0.00000000000E+00  0.91230986990E+03  0.91230986991E+03  0.50400001928E-02 0.  1.
        1   -1    0    0  501    0  0.00000000000E+00  0.00000000000E+00 -0.27414674929E+03  0.27414674933E+03  0.50400001928E-02 0. -1.
    10030    2    1    2    0    0  0.00000000000E+00  0.00000000000E+00  0.63816312061E+03  0.11864566192E+04  0.10002135476E+04 0.  0.
        1    1    3    3  502    0  0.47543965306E+03  0.95411881277E+02  0.46416976402E+03  0.67126735407E+03  0.50400001928E-02 0.  1.
       -1    1    3    3    0  502 -0.47543965306E+03 -0.95411881277E+02  0.17399335659E+03  0.51518926517E+03  0.50400001928E-02 0. -1.
</event>
<event>
 5   0  0.8968798E-03  0.9662649E+03  0.7818609E-02  0.9346339E-01
       -2   -1    0    0    0  501  0.00000000000E+00  0.00000000000E+00  0.44900147517E+03  0.44900147518E+03  0.25500000920E-02 0.  1.
        2   -1    0    0  501    0  0.00000000000E+00  0.00000000000E+00 -0.51985787705E+03  0.51985787706E+03  0.25500000920E-02 0. -1.
    10030    2    1    2    0    0  0.00000000000E+00  0.00000000000E+00 -0.70856401881E+02  0.96885935224E+03  0.96626487814E+03 0.  0.
        2    1    3    3  502    0 -0.14371264250E+03  0.18905550981E+03 -0.45729731112E+03  0.51528258283E+03  0.25500000920E-02 0. -1.
       -2    1    3    3    0  502  0.14371264250E+03 -0.18905550981E+03  0.38644090924E+03  0.45357676941E+03  0.25500000920E-02 0.  1.
</event>
<event>
 5   0  0.5201968E-03  0.9320262E+03  0.7818609E-02  0.9386409E-01
        1   -1    0    0  501    0  0.00000000000E+00  0.00000000000E+00  0.88077115854E+03  0.88077115856E+03  0.50400001928E-02 0.  1.
       -1   -1    0    0    0  501  0.00000000000E+00  0.00000000000E+00 -0.24656601211E+03  0.24656601216E+03  0.50400001928E-02 0. -1.
    10030    2    1    2    0    0  0.00000000000E+00  0.00000000000E+00  0.63420514643E+03  0.11273371707E+04  0.93202624894E+03 0.  0.
        2    1    3    3  502    0 -0.75888551796E+02 -0.10781497130E+03  0.85774138753E+03  0.86781531919E+03  0.25500000920E-02 0.  1.
       -2    1    3    3    0  502  0.75888551796E+02  0.10781497130E+03 -0.22353624110E+03  0.25952185153E+03  0.25500000920E-02 0. -1.
</event>
<event>
 5   0  0.5349685E-03  0.9983432E+03  0.7818609E-02  0.9310364E-01
        1   -1    0    0  501    0  0.00000000000E+00  0.00000000000E+00  0.14487808368E+04  0.14487808368E+04  0.50400001928E-02 0.  1.
       -1   -1    0    0    0  501  0.00000000000E+00  0.00000000000E+00 -0.17198756091E+03  0.17198756098E+03  0.50400001928E-02 0. -1.
    10030    2    1    2    0    0  0.00000000000E+00  0.00000000000E+00  0.12767932759E+04  0.16207683978E+04  0.99834319245E+03 0.  0.
        4    1    3    3  502    0 -0.41519394122E+03  0.11333510339E+03  0.10489095174E+04  0.11337740705E+04  0.12699999809E+01 0.  1.
       -4    1    3    3    0  502  0.41519394122E+03 -0.11333510339E+03  0.22788375853E+03  0.48699432726E+03  0.12699999809E+01 0. -1.
</event>
<event>
 5   0  0.9040674E-03  0.1043496E+04  0.7818609E-02  0.9262085E-01
        2   -1    0    0  501    0  0.00000000000E+00  0.00000000000E+00  0.55967049103E+03  0.55967049103E+03  0.25500000920E-02 0.  1.
       -2   -1    0    0    0  501  0.00000000000E+00  0.00000000000E+00 -0.48639488190E+03  0.48639488190E+03  0.25500000920E-02 0. -1.
    10030    2    1    2    0    0  0.00000000000E+00  0.00000000000E+00  0.73275609130E+02  0.10460653729E+04  0.10434957832E+04 0.  0.
        1    1    3    3  502    0 -0.24680537155E+02  0.25381080396E+03  0.49294195519E+03  0.55499623813E+03  0.50400001928E-02 0.  1.
       -1    1    3    3    0  502  0.24680537155E+02 -0.25381080396E+03 -0.41966634606E+03  0.49106913481E+03  0.50400001928E-02 0. -1.
</event>
<event>
 5   0  0.8968798E-03  0.9763378E+03  0.7818609E-02  0.9334885E-01
       -2   -1    0    0    0  501  0.00000000000E+00  0.00000000000E+00  0.69770899064E+03  0.69770899064E+03  0.25500000920E-02 0.  1.
        2   -1    0    0  501    0  0.00000000000E+00  0.00000000000E+00 -0.34155915257E+03  0.34155915258E+03  0.25500000920E-02 0. -1.
    10030    2    1    2    0    0  0.00000000000E+00  0.00000000000E+00  0.35614983807E+03  0.10392681432E+04  0.97633783413E+03 0.  0.
        2    1    3    3  502    0 -0.36689878195E+03 -0.57656714091E+02  0.51530724322E+03  0.63520120261E+03  0.25500000920E-02 0.  1.
       -2    1    3    3    0  502  0.36689878195E+03  0.57656714091E+02 -0.15915740515E+03  0.40406694061E+03  0.25500000920E-02 0. -1.
</event>
<event>
 5   0  0.5310275E-03  0.9831335E+03  0.7818609E-02  0.9327240E-01
       -1   -1    0    0    0  501  0.00000000000E+00  0.00000000000E+00  0.95859709539E+02  0.95859709672E+02  0.50400001928E-02 0. -1.
        1   -1    0    0  501    0  0.00000000000E+00  0.00000000000E+00 -0.25207448741E+04  0.25207448741E+04  0.50400001928E-02 0.  1.
    10030    2    1    2    0    0  0.00000000000E+00  0.00000000000E+00 -0.24248851645E+04  0.26166045838E+04  0.98313350392E+03 0.  0.
        1    1    3    3  502    0 -0.29953766553E+03  0.18801926573E+03 -0.21211152739E+04  0.21503962571E+04  0.50400001928E-02 0.  1.
       -1    1    3    3    0  502  0.29953766553E+03 -0.18801926573E+03 -0.30376989063E+03  0.46620832665E+03  0.50400001928E-02 0. -1.
</event>
<event>
 5   0  0.5201968E-03  0.1001964E+04  0.7818609E-02  0.9306393E-01
        1   -1    0    0  501    0  0.00000000000E+00  0.00000000000E+00  0.84045432225E+03  0.84045432226E+03  0.50400001928E-02 0. -1.
       -1   -1    0    0    0  501  0.00000000000E+00  0.00000000000E+00 -0.29862783849E+03  0.29862783853E+03  0.50400001928E-02 0.  1.
    10030    2    1    2    0    0  0.00000000000E+00  0.00000000000E+00  0.54182648376E+03  0.11390821608E+04  0.10019641863E+04 0.  0.
        2    1    3    3  502    0 -0.21116230140E+02 -0.49785522673E+03  0.21208928107E+03  0.54156032454E+03  0.25500000920E-02 0. -1.
       -2    1    3    3    0  502  0.21116230140E+02  0.49785522673E+03  0.32973720268E+03  0.59752183625E+03  0.25500000920E-02 0.  1.
</event>
<event>
 5   0  0.9040674E-03  0.7666743E+03  0.7818609E-02  0.9609548E-01
       -2   -1    0    0    0  501  0.00000000000E+00  0.00000000000E+00  0.42159643833E+03  0.42159643833E+03  0.25500000920E-02 0. -1.
        2   -1    0    0  501    0  0.00000000000E+00  0.00000000000E+00 -0.34854982467E+03  0.34854982468E+03  0.25500000920E-02 0.  1.
    10030    2    1    2    0    0  0.00000000000E+00  0.00000000000E+00  0.73046613652E+02  0.77014626302E+03  0.76667428460E+03 0.  0.
        1    1    3    3  502    0 -0.51963178374E+02 -0.21461692610E+03 -0.27824340526E+03  0.35521822795E+03  0.50400001928E-02 0.  1.
       -1    1    3    3    0  502  0.51963178374E+02  0.21461692610E+03  0.35129001891E+03  0.41492803507E+03  0.50400001928E-02 0. -1.
</event>
<event>
 5   0  0.5201968E-03  0.1000971E+04  0.7818609E-02  0.9307481E-01
        1   -1    0    0  501    0  0.00000000000E+00  0.00000000000E+00  0.44801062599E+03  0.44801062602E+03  0.50400001928E-02 0. -1.
       -1   -1    0    0    0  501  0.00000000000E+00  0.00000000000E+00 -0.55910621176E+03  0.55910621179E+03  0.50400001928E-02 0.  1.
    10030    2    1    2    0    0  0.00000000000E+00  0.00000000000E+00 -0.11109558577E+03  0.10071168378E+04  0.10009705769E+04 0.  0.
        2    1    3    3  502    0 -0.15313066706E+03  0.11085858636E+03  0.41070558730E+03  0.45212576438E+03  0.25500000920E-02 0. -1.
       -2    1    3    3    0  502  0.15313066706E+03 -0.11085858636E+03 -0.52180117307E+03  0.55499107343E+03  0.25500000920E-02 0.  1.
</event>
<event>
 5   0  0.5189877E-03  0.9637688E+03  0.7818609E-02  0.9349200E-01
        1   -1    0    0  501    0  0.00000000000E+00  0.00000000000E+00  0.16802165765E+04  0.16802165765E+04  0.50400001928E-02 0. -1.
       -1   -1    0    0    0  501  0.00000000000E+00  0.00000000000E+00 -0.13820395807E+03  0.13820395816E+03  0.50400001928E-02 0.  1.
    10030    2    1    2    0    0  0.00000000000E+00  0.00000000000E+00  0.15420126184E+04  0.18184205346E+04  0.96376881329E+03 0.  0.
        3    1    3    3  502    0 -0.37274085889E+03  0.73949352182E+01  0.13470839087E+04  0.13977215389E+04  0.10100000352E+00 0.  1.
       -3    1    3    3    0  502  0.37274085889E+03 -0.73949352182E+01  0.19492870967E+03  0.42069899573E+03  0.10100000352E+00 0. -1.
</event>
<event>
 5   0  0.8875655E-03  0.1042926E+04  0.7818609E-02  0.9262678E-01
       -2   -1    0    0    0  501  0.00000000000E+00  0.00000000000E+00  0.45448393723E+03  0.45448393724E+03  0.25500000920E-02 0.  1.
        2   -1    0    0  501    0  0.00000000000E+00  0.00000000000E+00 -0.59831335104E+03  0.59831335105E+03  0.25500000920E-02 0. -1.
    10030    2    1    2    0    0  0.00000000000E+00  0.00000000000E+00 -0.14382941381E+03  0.10527972883E+04  0.10429262821E+04 0.  0.
        4    1    3    3  502    0  0.29855346939E+03 -0.31114169176E+03 -0.36791150114E+03  0.56683667137E+03  0.12699999809E+01 0. -1.
       -4    1    3    3    0  502 -0.29855346939E+03  0.31114169176E+03  0.22408208732E+03  0.48596061692E+03  0.12699999809E+01 0.  1.
</event>
<event>
 5   0  0.8875655E-03  0.1003372E+04  0.7818609E-02  0.9304854E-01
       -2   -1    0    0    0  501  0.00000000000E+00  0.00000000000E+00  0.98870448041E+03  0.98870448041E+03  0.25500000920E-02 0. -1.
        2   -1    0    0  501    0  0.00000000000E+00  0.00000000000E+00 -0.25456415451E+03  0.25456415452E+03  0.25500000920E-02 0.  1.
    10030    2    1    2    0    0  0.00000000000E+00  0.00000000000E+00  0.73414032589E+03  0.12432686349E+04  0.10033717559E+04 0.  0.
        4    1    3    3  502    0  0.24522839101E+03 -0.36482184909E+02 -0.17334841932E+03  0.30252140578E+03  0.12699999809E+01 0.  1.
       -4    1    3    3    0  502 -0.24522839101E+03  0.36482184909E+02  0.90748874521E+03  0.94074722916E+03  0.12699999809E+01 0. -1.
</event>
<event>
 5   0  0.8875655E-03  0.9953421E+03  0.7818609E-02  0.9313668E-01
       -2   -1    0    0    0  501  0.00000000000E+00  0.00000000000E+00  0.59037190211E+03  0.59037190212E+03  0.25500000920E-02 0.  1.
        2   -1    0    0  501    0  0.00000000000E+00  0.00000000000E+00 -0.41952621631E+03  0.41952621632E+03  0.25500000920E-02 0. -1.
    10030    2    1    2    0    0  0.00000000000E+00  0.00000000000E+00  0.17084568580E+03  0.10098981184E+04  0.99534213276E+03 0.  0.
        4    1    3    3  502    0 -0.33073196441E+03  0.27413685122E+03  0.34037474790E+03  0.54807958126E+03  0.12699999809E+01 0.  1.
       -4    1    3    3    0  502  0.33073196441E+03 -0.27413685122E+03 -0.16952906210E+03  0.46181853717E+03  0.12699999809E+01 0. -1.
</event>
<event>
 5   0  0.9243773E-03  0.9991861E+03  0.7818609E-02  0.9309438E-01
        2   -1    0    0  501    0  0.00000000000E+00  0.00000000000E+00  0.64888215177E+03  0.64888215177E+03  0.25500000920E-02 0. -1.
       -2   -1    0    0    0  501  0.00000000000E+00  0.00000000000E+00 -0.38465103942E+03  0.38465103943E+03  0.25500000920E-02 0.  1.
    10030    2    1    2    0    0  0.00000000000E+00  0.00000000000E+00  0.26423111235E+03  0.10335331912E+04  0.99918605704E+03 0.  0.
        3    1    3    3  502    0  0.21478353574E+03  0.19884974442E+03 -0.28667225240E+03  0.40970010810E+03  0.10100000352E+00 0.  1.
       -3    1    3    3    0  502 -0.21478353574E+03 -0.19884974442E+03  0.55090336475E+03  0.62383308310E+03  0.10100000352E+00 0. -1.
</event>
<event>
 5   0  0.5310275E-03  0.1019448E+04  0.7818609E-02  0.9287468E-01
        1   -1    0    0  501    0  0.00000000000E+00  0.00000000000E+00  0.98338007914E+03  0.98338007915E+03  0.50400001928E-02 0.  1.
       -1   -1    0    0    0  501  0.00000000000E+00  0.00000000000E+00 -0.26420992944E+03  0.26420992949E+03  0.50400001928E-02 0. -1.
    10030    2    1    2    0    0  0.00000000000E+00  0.00000000000E+00  0.71917014970E+03  0.12475900086E+04  0.10194484418E+04 0.  0.
        1    1    3    3  502    0 -0.22498574245E+03 -0.80593448955E+02 -0.19139860813E+03  0.30618183411E+03  0.50400001928E-02 0. -1.
       -1    1    3    3    0  502  0.22498574245E+03  0.80593448955E+02  0.91056875783E+03  0.94140817453E+03  0.50400001928E-02 0.  1.
</event>
<event>
 5   0  0.8968798E-03  0.1000115E+04  0.7818609E-02  0.9308419E-01
        2   -1    0    0  501    0  0.00000000000E+00  0.00000000000E+00  0.10590370116E+04  0.10590370116E+04  0.25500000920E-02 0. -1.
       -2   -1    0    0    0  501  0.00000000000E+00  0.00000000000E+00 -0.23611785429E+03  0.23611785430E+03  0.25500000920E-02 0.  1.
    10030    2    1    2    0    0  0.00000000000E+00  0.00000000000E+00  0.82291915733E+03  0.12951548659E+04  0.10001150870E+04 0.  0.
        2    1    3    3  502    0  0.10349918186E+03 -0.47479828782E+01  0.10449847454E+04  0.10501084430E+04  0.25500000920E-02 0. -1.
       -2    1    3    3    0  502 -0.10349918186E+03  0.47479828782E+01 -0.22206558805E+03  0.24504642292E+03  0.25500000920E-02 0.  1.
</event>
<event>
 5   0  0.9040674E-03  0.1002114E+04  0.7818609E-02  0.9306229E-01
       -2   -1    0    0    0  501  0.00000000000E+00  0.00000000000E+00  0.25847289555E+03  0.25847289556E+03  0.25500000920E-02 0. -1.
        2   -1    0    0  501    0  0.00000000000E+00  0.00000000000E+00 -0.97131366909E+03  0.97131366910E+03  0.25500000920E-02 0.  1.
    10030    2    1    2    0    0  0.00000000000E+00  0.00000000000E+00 -0.71284077354E+03  0.12297865647E+04  0.10021142780E+04 0.  0.
        1    1    3    3  502    0  0.40575862526E+03  0.19150770519E+03 -0.82718083347E+02  0.45624285688E+03  0.50400001928E-02 0. -1.
       -1    1    3    3    0  502 -0.40575862526E+03 -0.19150770519E+03 -0.63012269020E+03  0.77354370778E+03  0.50400001928E-02 0.  1.
</event>
<event>
 5   0  0.5201968E-03  0.9975522E+03  0.7818609E-02  0.9311234E-01
       -1   -1    0    0    0  501  0.00000000000E+00  0.00000000000E+00  0.13441187011E+03  0.13441187020E+03  0.50400001928E-02 0. -1.
        1   -1    0    0  501    0  0.00000000000E+00  0.00000000000E+00 -0.18508604683E+04  0.18508604684E+04  0.50400001928E-02 0.  1.
    10030    2    1    2    0    0  0.00000000000E+00  0.00000000000E+00 -0.17164485982E+04  0.19852723386E+04  0.99755223815E+03 0.  0.
        2    1    3    3  502    0 -0.23028308983E+03  0.28747125804E+03 -0.18890966443E+03  0.41395275936E+03  0.25500000920E-02 0. -1.
       -2    1    3    3    0  502  0.23028308983E+03 -0.28747125804E+03 -0.15275389338E+04  0.15713195792E+04  0.25500000920E-02 0.  1.
</event>
<event>
 5   0  0.5201968E-03  0.9994988E+03  0.7818609E-02  0.9309095E-01
       -1   -1    0    0    0  501  0.00000000000E+00  0.00000000000E+00  0.48442435239E+03  0.48442435241E+03  0.50400001928E-02 0.  1.
        1   -1    0    0  501    0  0.00000000000E+00  0.00000000000E+00 -0.51555923450E+03  0.51555923452E+03  0.50400001928E-02 0. -1.
    10030    2    1    2    0    0  0.00000000000E+00  0.00000000000E+00 -0.31134882111E+02  0.99998358693E+03  0.99949877101E+03 0.  0.
        2    1    3    3  502    0 -0.22671072507E+03  0.70471909964E+01  0.42995972488E+03  0.48612013000E+03  0.25500000920E-02 0.  1.
       -2    1    3    3    0  502  0.22671072507E+03 -0.70471909964E+01 -0.46109460699E+03  0.51386345693E+03  0.25500000920E-02 0. -1.
</event>
<event>
 5   0  0.8875655E-03  0.9783878E+03  0.7818609E-02  0.9332572E-01
        2   -1    0    0  501    0  0.00000000000E+00  0.00000000000E+00  0.29790060959E+03  0.29790060960E+03  0.25500000920E-02 0.  1.
       -2   -1    0    0    0  501  0.00000000000E+00  0.00000000000E+00 -0.80332379519E+03  0.80332379520E+03  0.25500000920E-02 0. -1.
    10030    2    1    2    0    0  0.00000000000E+00  0.00000000000E+00 -0.50542318561E+03  0.11012244048E+04  0.97838775195E+03 0.  0.
        4    1    3    3  502    0 -0.30298679051E+02  0.13627586717E+03 -0.78042525316E+03  0.79281417154E+03  0.12699999809E+01 0. -1.
       -4    1    3    3    0  502  0.30298679051E+02 -0.13627586717E+03  0.27500206755E+03  0.30841023326E+03  0.12699999809E+01 0.  1.
</event>
<event>
 5   0  0.8875655E-03  0.9963529E+03  0.7818609E-02  0.9312554E-01
       -2   -1    0    0    0  501  0.00000000000E+00  0.00000000000E+00  0.20127125783E+03  0.20127125785E+03  0.25500000920E-02 0.  1.
        2   -1    0    0  501    0  0.00000000000E+00  0.00000000000E+00 -0.12330610850E+04  0.12330610850E+04  0.25500000920E-02 0. -1.
    10030    2    1    2    0    0  0.00000000000E+00  0.00000000000E+00 -0.10317898271E+04  0.14343323428E+04  0.99635286032E+03 0.  0.
        4    1    3    3  502    0 -0.21099745181E+03 -0.12368210144E+03 -0.11406820254E+04  0.11666080245E+04  0.12699999809E+01 0. -1.
       -4    1    3    3    0  502  0.21099745181E+03  0.12368210144E+03  0.10889219824E+03  0.26772431833E+03  0.12699999809E+01 0.  1.
</event>
<event>
 5   0  0.8875655E-03  0.1010181E+04  0.7818609E-02  0.9297448E-01
        2   -1    0    0  501    0  0.00000000000E+00  0.00000000000E+00  0.10892584870E+04  0.10892584870E+04  0.25500000920E-02 0.  1.
       -2   -1    0    0    0  501  0.00000000000E+00  0.00000000000E+00 -0.23421120062E+03  0.23421120063E+03  0.25500000920E-02 0. -1.
    10030    2    1    2    0    0  0.00000000000E+00  0.00000000000E+00  0.85504728641E+03  0.13234696877E+04  0.10101812472E+04 0.  0.
        4    1    3    3  502    0 -0.15400663554E+03  0.34813147174E+03 -0.73951489964E+01  0.38074908606E+03  0.12699999809E+01 0. -1.
       -4    1    3    3    0  502  0.15400663554E+03 -0.34813147174E+03  0.86244243541E+03  0.94272060161E+03  0.12699999809E+01 0.  1.
</event>
<event>
 5   0  0.5189877E-03  0.1007399E+04  0.7818609E-02  0.9300467E-01
        1   -1    0    0  501    0  0.00000000000E+00  0.00000000000E+00  0.19572790123E+03  0.19572790129E+03  0.50400001928E-02 0.  1.
       -1   -1    0    0    0  501  0.00000000000E+00  0.00000000000E+00 -0.12962539287E+04  0.12962539288E+04  0.50400001928E-02 0. -1.
    10030    2    1    2    0    0  0.00000000000E+00  0.00000000000E+00 -0.11005260275E+04  0.14919818300E+04  0.10073987512E+04 0.  0.
        3    1    3    3  502    0 -0.69305827274E+02  0.20319192685E+03  0.12457516003E+03  0.24821208176E+03  0.10100000352E+00 0.  1.
       -3    1    3    3    0  502  0.69305827274E+02 -0.20319192685E+03 -0.12251011875E+04  0.12437697483E+04  0.10100000352E+00 0. -1.
</event>
<event>
 5   0  0.3513625E-03  0.1013671E+04  0.7818609E-02  0.9293676E-01
        3   -1    0    0  501    0  0.00000000000E+00  0.00000000000E+00  0.21030915203E+03  0.21030917629E+03  0.10100000352E+00 0. -1.
       -3   -1    0    0    0  501  0.00000000000E+00  0.00000000000E+00 -0.12214513767E+04  0.12214513809E+04  0.10100000352E+00 0.  1.
    10030    2    1    2    0    0  0.00000000000E+00  0.00000000000E+00 -0.10111422247E+04  0.14317605572E+04  0.10136713938E+04 0.  0.
        4    1    3    3  502    0 -0.94096742940E+02  0.27989418032E+03  0.76258783091E+02  0.30497862893E+03  0.12699999809E+01 0. -1.
       -4    1    3    3    0  502  0.94096742940E+02 -0.27989418032E+03 -0.10874010078E+04  0.11267819283E+04  0.12699999809E+01 0.  1.
</event>
<event>
 5   0  0.5189877E-03  0.1004751E+04  0.7818609E-02  0.9303350E-01
       -1   -1    0    0    0  501  0.00000000000E+00  0.00000000000E+00  0.97228098990E+02  0.97228099120E+02  0.50400001928E-02 0. -1.
        1   -1    0    0  501    0  0.00000000000E+00  0.00000000000E+00 -0.25957617298E+04  0.25957617298E+04  0.50400001928E-02 0.  1.
    10030    2    1    2    0    0  0.00000000000E+00  0.00000000000E+00 -0.24985336308E+04  0.26929898289E+04  0.10047506727E+04 0.  0.
        3    1    3    3  502    0  0.31664603898E+03  0.37712084146E+03 -0.98263682261E+03  0.10991178183E+04  0.10100000352E+00 0. -1.
       -3    1    3    3    0  502 -0.31664603898E+03 -0.37712084146E+03 -0.15158968082E+04  0.15938720106E+04  0.10100000352E+00 0.  1.
</event>
<event>
 5   0  0.8968798E-03  0.1006460E+04  0.7818609E-02  0.9301487E-01
       -2   -1    0    0    0  501  0.00000000000E+00  0.00000000000E+00  0.36385872042E+03  0.36385872043E+03  0.25500000920E-02 0. -1.
        2   -1    0    0  501    0  0.00000000000E+00  0.00000000000E+00 -0.69598628976E+03  0.69598628976E+03  0.25500000920E-02 0.  1.
    10030    2    1    2    0    0  0.00000000000E+00  0.00000000000E+00 -0.33212756933E+03  0.10598450102E+04  0.10064604927E+04 0.  0.
        2    1    3    3  502    0 -0.30124203691E+03  0.22542617578E+02  0.25775873424E+03  0.39710766738E+03  0.25500000920E-02 0. -1.
       -2    1    3    3    0  502  0.30124203691E+03 -0.22542617578E+02 -0.58988630357E+03  0.66273734281E+03  0.25500000920E-02 0.  1.
</event>
<event>
 5   0  0.5201968E-03  0.9735127E+03  0.7818609E-02  0.9338082E-01
        1   -1    0    0  501    0  0.00000000000E+00  0.00000000000E+00  0.35506268417E+03  0.35506268421E+03  0.50400001928E-02 0.  1.
       -1   -1    0    0    0  501  0.00000000000E+00  0.00000000000E+00 -0.66729552823E+03  0.66729552825E+03  0.50400001928E-02 0. -1.
    10030    2    1    2    0    0  0.00000000000E+00  0.00000000000E+00 -0.31223284406E+03  0.10223582125E+04  0.97351269415E+03 0.  0.
        2    1    3    3  502    0  0.12766775976E+03 -0.43373614669E+03  0.33222904878E+02  0.45335401536E+03  0.25500000920E-02 0.  1.
       -2    1    3    3    0  502 -0.12766775976E+03  0.43373614669E+03 -0.34545574894E+03  0.56900419709E+03  0.25500000920E-02 0. -1.
</event>
<event>
 5   0  0.5201968E-03  0.9925495E+03  0.7818609E-02  0.9316754E-01
       -1   -1    0    0    0  501  0.00000000000E+00  0.00000000000E+00  0.46678420810E+03  0.46678420813E+03  0.50400001928E-02 0.  1.
        1   -1    0    0  501    0  0.00000000000E+00  0.00000000000E+00 -0.52762841492E+03  0.52762841494E+03  0.50400001928E-02 0. -1.
    10030    2    1    2    0    0  0.00000000000E+00  0.00000000000E+00 -0.60844206816E+02  0.99441262307E+03  0.99254946850E+03 0.  0.
        2    1    3    3  502    0 -0.12363228325E+03  0.18664504147E+03 -0.47416128037E+03  0.52435697076E+03  0.25500000920E-02 0. -1.
       -2    1    3    3    0  502  0.12363228325E+03 -0.18664504147E+03  0.41331707356E+03  0.47005565231E+03  0.25500000920E-02 0.  1.
</event>
<event>
 5   0  0.5310275E-03  0.9776310E+03  0.7818609E-02  0.9333425E-01
       -1   -1    0    0    0  501  0.00000000000E+00  0.00000000000E+00  0.75944620093E+03  0.75944620094E+03  0.50400001928E-02 0. -1.
        1   -1    0    0  501    0  0.00000000000E+00  0.00000000000E+00 -0.31462478028E+03  0.31462478032E+03  0.50400001928E-02 0.  1.
    10030    2    1    2    0    0  0.00000000000E+00  0.00000000000E+00  0.44482142065E+03  0.10740709813E+04  0.97763100223E+03 0.  0.
        1    1    3    3  502    0  0.17864417555E+03 -0.82911095129E+02  0.71392781876E+03  0.74059497810E+03  0.50400001928E-02 0. -1.
       -1    1    3    3    0  502 -0.17864417555E+03  0.82911095129E+02 -0.26910639812E+03  0.33347600316E+03  0.50400001928E-02 0.  1.
</event>
<event>
 5   0  0.8968798E-03  0.8154986E+03  0.7818609E-02  0.9537851E-01
        2   -1    0    0  501    0  0.00000000000E+00  0.00000000000E+00  0.42221337018E+03  0.42221337018E+03  0.25500000920E-02 0.  1.
       -2   -1    0    0    0  501  0.00000000000E+00  0.00000000000E+00 -0.39378070561E+03  0.39378070561E+03  0.25500000920E-02 0. -1.
    10030    2    1    2    0    0  0.00000000000E+00  0.00000000000E+00  0.28432664570E+02  0.81599407580E+03  0.81549856856E+03 0.  0.
        2    1    3    3  502    0  0.30746850977E+03  0.26363071805E+03 -0.32944447910E+02  0.40635375802E+03  0.25500000920E-02 0. -1.
       -2    1    3    3    0  502 -0.30746850977E+03 -0.26363071805E+03  0.61377112480E+02  0.40964031777E+03  0.25500000920E-02 0.  1.
</event>
<event>
 5   0  0.8875655E-03  0.1028166E+04  0.7818609E-02  0.9278181E-01
       -2   -1    0    0    0  501  0.00000000000E+00  0.00000000000E+00  0.32655835189E+03  0.32655835190E+03  0.25500000920E-02 0.  1.
        2   -1    0    0  501    0  0.00000000000E+00  0.00000000000E+00 -0.80929240321E+03  0.80929240322E+03  0.25500000920E-02 0. -1.
    10030    2    1    2    0    0  0.00000000000E+00  0.00000000000E+00 -0.48273405132E+03  0.11358507551E+04  0.10281657325E+04 0.  0.
        4    1    3    3  502    0 -0.28702564917E+03 -0.13147528037E+03 -0.68958203492E+03  0.75841576224E+03  0.12699999809E+01 0. -1.
       -4    1    3    3    0  502  0.28702564917E+03  0.13147528037E+03  0.20684798360E+03  0.37743499287E+03  0.12699999809E+01 0.  1.
</event>
<event>
 5   0  0.5310275E-03  0.9961536E+03  0.7818609E-02  0.9312774E-01
       -1   -1    0    0    0  501  0.00000000000E+00  0.00000000000E+00  0.16127665897E+03  0.16127665905E+03  0.50400001928E-02 0.  1.
        1   -1    0    0  501    0  0.00000000000E+00  0.00000000000E+00 -0.15382294376E+04  0.15382294376E+04  0.50400001928E-02 0. -1.
    10030    2    1    2    0    0  0.00000000000E+00  0.00000000000E+00 -0.13769527786E+04  0.16995060966E+04  0.99615361163E+03 0.  0.
        1    1    3    3  502    0  0.11871870933E+03 -0.22452330271E+03 -0.14194538081E+04  0.14419965183E+04  0.50400001928E-02 0. -1.
       -1    1    3    3    0  502 -0.11871870933E+03  0.22452330271E+03  0.42501029494E+02  0.25750957834E+03  0.50400001928E-02 0.  1.
</event>
<event>
 5   0  0.9040674E-03  0.1000100E+04  0.7818609E-02  0.9308435E-01
       -2   -1    0    0    0  501  0.00000000000E+00  0.00000000000E+00  0.23325846877E+03  0.23325846879E+03  0.25500000920E-02 0. -1.
        2   -1    0    0  501    0  0.00000000000E+00  0.00000000000E+00 -0.10719864475E+04  0.10719864475E+04  0.25500000920E-02 0.  1.
    10030    2    1    2    0    0  0.00000000000E+00  0.00000000000E+00 -0.83872797869E+03  0.13052449162E+04  0.10000998296E+04 0.  0.
        1    1    3    3  502    0 -0.18505920952E+03  0.46314400290E+03 -0.37229585206E+03  0.62237728103E+03  0.50400001928E-02 0. -1.
       -1    1    3    3    0  502  0.18505920952E+03 -0.46314400290E+03 -0.46643212662E+03  0.68286763522E+03  0.50400001928E-02 0.  1.
</event>
<event>
 5   0  0.5201968E-03  0.9988395E+03  0.7818609E-02  0.9309819E-01
        1   -1    0    0  501    0  0.00000000000E+00  0.00000000000E+00  0.38984927866E+03  0.38984927869E+03  0.50400001928E-02 0.  1.
       -1   -1    0    0    0  501  0.00000000000E+00  0.00000000000E+00 -0.63978594730E+03  0.63978594732E+03  0.50400001928E-02 0. -1.
    10030    2    1    2    0    0  0.00000000000E+00  0.00000000000E+00 -0.24993666864E+03  0.10296352260E+04  0.99883950679E+03 0.  0.
        2    1    3    3  502    0  0.15929440604E+01  0.43949475212E+03 -0.36947738398E+03  0.57417045543E+03  0.25500000920E-02 0. -1.
       -2    1    3    3    0  502 -0.15929440604E+01 -0.43949475212E+03  0.11954071534E+03  0.45546477058E+03  0.25500000920E-02 0.  1.
</event>
<event>
 5   0  0.5349685E-03  0.1009302E+04  0.7818609E-02  0.9298401E-01
       -1   -1    0    0    0  501  0.00000000000E+00  0.00000000000E+00  0.12154563023E+03  0.12154563033E+03  0.50400001928E-02 0. -1.
        1   -1    0    0  501    0  0.00000000000E+00  0.00000000000E+00 -0.20952849868E+04  0.20952849868E+04  0.50400001928E-02 0.  1.
    10030    2    1    2    0    0  0.00000000000E+00  0.00000000000E+00 -0.19737393565E+04  0.22168306171E+04  0.10093022032E+04 0.  0.
        4    1    3    3  502    0 -0.28983773679E+01 -0.12430495375E+03  0.87371664343E+02  0.15197217755E+03  0.12699999809E+01 0. -1.
       -4    1    3    3    0  502  0.28983773679E+01  0.12430495375E+03 -0.20611110209E+04  0.20648584395E+04  0.12699999809E+01 0.  1.
</event>
<event>
 5   0  0.5310275E-03  0.1012883E+04  0.7818609E-02  0.9294526E-01
        1   -1    0    0  501    0  0.00000000000E+00  0.00000000000E+00  0.46544464936E+03  0.46544464939E+03  0.50400001928E-02 0. -1.
       -1   -1    0    0    0  501  0.00000000000E+00  0.00000000000E+00 -0.55104979868E+03  0.55104979870E+03  0.50400001928E-02 0.  1.
    10030    2    1    2    0    0  0.00000000000E+00  0.00000000000E+00 -0.85605149313E+02  0.10164944481E+04  0.10128833701E+04 0.  0.
        1    1    3    3  502    0 -0.34063727552E+03  0.10334532738E+03 -0.40432174686E+03  0.53869294146E+03  0.50400001928E-02 0.  1.
       -1    1    3    3    0  502  0.34063727552E+03 -0.10334532738E+03  0.31871659755E+03  0.47780150663E+03  0.50400001928E-02 0. -1.
</event>
<event>
 5   0  0.5310275E-03  0.9953183E+03  0.7818609E-02  0.9313695E-01
        1   -1    0    0  501    0  0.00000000000E+00  0.00000000000E+00  0.57151829473E+03  0.57151829475E+03  0.50400001928E-02 0.  1.
       -1   -1    0    0    0  501  0.00000000000E+00  0.00000000000E+00 -0.43334510081E+03  0.43334510084E+03  0.50400001928E-02 0. -1.
    10030    2    1    2    0    0  0.00000000000E+00  0.00000000000E+00  0.13817319392E+03  0.10048633956E+04  0.99531834721E+03 0.  0.
        1    1    3    3  502    0  0.21602707987E+03 -0.43226673621E+03 -0.50975775684E+02  0.48592258664E+03  0.50400001928E-02 0.  1.
       -1    1    3    3    0  502 -0.21602707987E+03  0.43226673621E+03  0.18914896960E+03  0.51894080896E+03  0.50400001928E-02 0. -1.
</event>
<event>
 5   0  0.5310275E-03  0.9896799E+03  0.7818609E-02  0.9319937E-01
        1   -1    0    0  501    0  0.00000000000E+00  0.00000000000E+00  0.20381563493E+03  0.20381563499E+03  0.50400001928E-02 0. -1.
       -1   -1    0    0    0  501  0.00000000000E+00  0.00000000000E+00 -0.12014120560E+04  0.12014120560E+04  0.50400001928E-02 0.  1.
    10030    2    1    2    0    0  0.00000000000E+00  0.00000000000E+00 -0.99759642108E+03  0.14052276910E+04  0.98967986957E+03 0.  0.
        1    1    3    3  502    0 -0.46260003774E+03  0.17568130871E+03 -0.49601441753E+03  0.70063758076E+03  0.50400001928E-02 0.  1.
       -1    1    3    3    0  502  0.46260003774E+03 -0.17568130871E+03 -0.50158200355E+03  0.70459011025E+03  0.50400001928E-02 0. -1.
</event>
<event>
 5   0  0.5201968E-03  0.1015016E+04  0.7818609E-02  0.9292228E-01
       -1   -1    0    0    0  501  0.00000000000E+00  0.00000000000E+00  0.20643653041E+03  0.20643653047E+03  0.50400001928E-02 0.  1.
        1   -1    0    0  501    0  0.00000000000E+00  0.00000000000E+00 -0.12476673600E+04  0.12476673600E+04  0.50400001928E-02 0. -1.
    10030    2    1    2    0    0  0.00000000000E+00  0.00000000000E+00 -0.10412308296E+04  0.14541038904E+04  0.10150155091E+04 0.  0.
        2    1    3    3  502    0 -0.36115261208E+03  0.14631656880E+03 -0.98642703485E+03  0.10606026790E+04  0.25500000920E-02 0. -1.
       -2    1    3    3    0  502  0.36115261208E+03 -0.14631656880E+03 -0.54803794712E+02  0.39350121149E+03  0.25500000920E-02 0.  1.
</event>
<event>
 5   0  0.5349685E-03  0.1002544E+04  0.7818609E-02  0.9305759E-01
       -1   -1    0    0    0  501  0.00000000000E+00  0.00000000000E+00  0.77090549922E+03  0.77090549924E+03  0.50400001928E-02 0.  1.
        1   -1    0    0  501    0  0.00000000000E+00  0.00000000000E+00 -0.32594609237E+03  0.32594609241E+03  0.50400001928E-02 0. -1.
    10030    2    1    2    0    0  0.00000000000E+00  0.00000000000E+00  0.44495940685E+03  0.10968515916E+04  0.10025440341E+04 0.  0.
        4    1    3    3  502    0 -0.46604592546E+03 -0.99144908214E+02  0.39282969422E+03  0.61753161783E+03  0.12699999809E+01 0.  1.
       -4    1    3    3    0  502  0.46604592546E+03  0.99144908214E+02  0.52129712633E+02  0.47931997382E+03  0.12699999809E+01 0. -1.
</event>
<event>
 5   0  0.8968798E-03  0.1005752E+04  0.7818609E-02  0.9302258E-01
        2   -1    0    0  501    0  0.00000000000E+00  0.00000000000E+00  0.44476243744E+03  0.44476243744E+03  0.25500000920E-02 0. -1.
       -2   -1    0    0    0  501  0.00000000000E+00  0.00000000000E+00 -0.56858326568E+03  0.56858326569E+03  0.25500000920E-02 0.  1.
    10030    2    1    2    0    0  0.00000000000E+00  0.00000000000E+00 -0.12382082825E+03  0.10133457031E+04  0.10057524131E+04 0.  0.
        2    1    3    3  502    0  0.29727001304E+03  0.21923491742E+03  0.28191524777E+03  0.46466075432E+03  0.25500000920E-02 0. -1.
       -2    1    3    3    0  502 -0.29727001304E+03 -0.21923491742E+03 -0.40573607602E+03  0.54868494882E+03  0.25500000920E-02 0.  1.
</event>
<event>
 5   0  0.5201968E-03  0.8922387E+03  0.7818609E-02  0.9435336E-01
        1   -1    0    0  501    0  0.00000000000E+00  0.00000000000E+00  0.50179091536E+03  0.50179091539E+03  0.50400001928E-02 0.  1.
       -1   -1    0    0    0  501  0.00000000000E+00  0.00000000000E+00 -0.39662430759E+03  0.39662430762E+03  0.50400001928E-02 0. -1.
    10030    2    1    2    0    0  0.00000000000E+00  0.00000000000E+00  0.10516660777E+03  0.89841522301E+03  0.89223869987E+03 0.  0.
        2    1    3    3  502    0 -0.64619294937E+02 -0.41163847266E+03  0.21306220390E+03  0.46799293604E+03  0.25500000920E-02 0.  1.
       -2    1    3    3    0  502  0.64619294937E+02  0.41163847266E+03 -0.10789559613E+03  0.43042228697E+03  0.25500000920E-02 0. -1.
</event>
<event>
 5   0  0.5072205E-03  0.9961348E+03  0.7818609E-02  0.9312794E-01
        1   -1    0    0  501    0  0.00000000000E+00  0.00000000000E+00  0.12360375474E+04  0.12360375474E+04  0.50400001928E-02 0. -1.
       -1   -1    0    0    0  501  0.00000000000E+00  0.00000000000E+00 -0.20069869778E+03  0.20069869785E+03  0.50400001928E-02 0.  1.
    10030    2    1    2    0    0  0.00000000000E+00  0.00000000000E+00  0.10353388497E+04  0.14367362453E+04  0.99613478252E+03 0.  0.
        5    1    3    3  502    0  0.39735884880E+03 -0.15186112834E+03  0.14407694208E+03  0.44915043388E+03  0.46999998093E+01 0.  1.
       -5    1    3    3    0  502 -0.39735884880E+03  0.15186112834E+03  0.89126190757E+03  0.98758581141E+03  0.46999998093E+01 0. -1.
</event>
<event>
 5   0  0.9040674E-03  0.9815138E+03  0.7818609E-02  0.9329056E-01
       -2   -1    0    0    0  501  0.00000000000E+00  0.00000000000E+00  0.96215596608E+03  0.96215596609E+03  0.25500000920E-02 0.  1.
        2   -1    0    0  501    0  0.00000000000E+00  0.00000000000E+00 -0.25031525190E+03  0.25031525192E+03  0.25500000920E-02 0. -1.
    10030    2    1    2    0    0  0.00000000000E+00  0.00000000000E+00  0.71184071418E+03  0.12124712180E+04  0.98151375544E+03 0.  0.
        1    1    3    3  502    0 -0.20200275791E+03 -0.17449415249E+03  0.86463457276E+03  0.90490124759E+03  0.50400001928E-02 0.  1.
       -1    1    3    3    0  502  0.20200275791E+03  0.17449415249E+03 -0.15279385858E+03  0.30756997041E+03  0.50400001928E-02 0. -1.
</event>
<event>
 5   0  0.9040674E-03  0.1013719E+04  0.7818609E-02  0.9293625E-01
        2   -1    0    0  501    0  0.00000000000E+00  0.00000000000E+00  0.24182094933E+03  0.24182094934E+03  0.25500000920E-02 0.  1.
       -2   -1    0    0    0  501  0.00000000000E+00  0.00000000000E+00 -0.10623831501E+04  0.10623831501E+04  0.25500000920E-02 0. -1.
    10030    2    1    2    0    0  0.00000000000E+00  0.00000000000E+00 -0.82056220081E+03  0.13042040995E+04  0.10137188997E+04 0.  0.
        1    1    3    3  502    0  0.18101235588E+02  0.41487857875E+03 -0.78416753053E+03  0.88733905910E+03  0.50400001928E-02 0. -1.
       -1    1    3    3    0  502 -0.18101235588E+02 -0.41487857875E+03 -0.36394670279E+02  0.41686504038E+03  0.50400001928E-02 0.  1.
</event>
<event>
 5   0  0.8968798E-03  0.9627609E+03  0.7818609E-02  0.9350358E-01
       -2   -1    0    0    0  501  0.00000000000E+00  0.00000000000E+00  0.78566208552E+03  0.78566208552E+03  0.25500000920E-02 0. -1.
        2   -1    0    0  501    0  0.00000000000E+00  0.00000000000E+00 -0.29494505101E+03  0.29494505103E+03  0.25500000920E-02 0.  1.
    10030    2    1    2    0    0  0.00000000000E+00  0.00000000000E+00  0.49071703450E+03  0.10806071365E+04  0.96276091300E+03 0.  0.
        2    1    3    3  502    0  0.19522907317E+03 -0.40720379779E+03  0.43249340029E+03  0.62528382775E+03  0.25500000920E-02 0. -1.
       -2    1    3    3    0  502 -0.19522907317E+03  0.40720379779E+03  0.58223634215E+02  0.45532330880E+03  0.25500000920E-02 0.  1.
</event>
<event>
 5   0  0.8907355E-03  0.1011948E+04  0.7818609E-02  0.9295536E-01
       -2   -1    0    0    0  501  0.00000000000E+00  0.00000000000E+00  0.20069133223E+03  0.20069133224E+03  0.25500000920E-02 0. -1.
        2   -1    0    0  501    0  0.00000000000E+00  0.00000000000E+00 -0.12756400558E+04  0.12756400558E+04  0.25500000920E-02 0.  1.
    10030    2    1    2    0    0  0.00000000000E+00  0.00000000000E+00 -0.10749487236E+04  0.14763313881E+04  0.10119484221E+04 0.  0.
        5    1    3    3  502    0 -0.12211637839E+03  0.14657023037E+03 -0.12211251148E+04  0.12359465515E+04  0.46999998093E+01 0.  1.
       -5    1    3    3    0  502  0.12211637839E+03 -0.14657023037E+03  0.14617639118E+03  0.24038483654E+03  0.46999998093E+01 0. -1.
</event>
<event>
 5   0  0.5349685E-03  0.1004672E+04  0.7818609E-02  0.9303435E-01
       -1   -1    0    0    0  501  0.00000000000E+00  0.00000000000E+00  0.13111726944E+04  0.13111726944E+04  0.50400001928E-02 0. -1.
        1   -1    0    0  501    0  0.00000000000E+00  0.00000000000E+00 -0.19245490636E+03  0.19245490643E+03  0.50400001928E-02 0.  1.
    10030    2    1    2    0    0  0.00000000000E+00  0.00000000000E+00  0.11187177881E+04  0.15036276009E+04  0.10046723211E+04 0.  0.
        4    1    3    3  502    0  0.78211456458E+02  0.12629303508E+03  0.12775456653E+04  0.12861537631E+04  0.12699999809E+01 0. -1.
       -4    1    3    3    0  502 -0.78211456458E+02 -0.12629303508E+03 -0.15882787720E+03  0.21747383775E+03  0.12699999809E+01 0.  1.
</event>
<event>
 5   0  0.9040674E-03  0.9905218E+03  0.7818609E-02  0.9319002E-01
       -2   -1    0    0    0  501  0.00000000000E+00  0.00000000000E+00  0.34304845894E+03  0.34304845895E+03  0.25500000920E-02 0.  1.
        2   -1    0    0  501    0  0.00000000000E+00  0.00000000000E+00 -0.71501081017E+03  0.71501081017E+03  0.25500000920E-02 0. -1.
    10030    2    1    2    0    0  0.00000000000E+00  0.00000000000E+00 -0.37196235123E+03  0.10580592691E+04  0.99052179494E+03 0.  0.
        1    1    3    3  502    0  0.68421344741E+02 -0.34524234214E+03  0.18621548879E+03  0.39818332902E+03  0.50400001928E-02 0.  1.
       -1    1    3    3    0  502 -0.68421344741E+02  0.34524234214E+03 -0.55817784001E+03  0.65987594010E+03  0.50400001928E-02 0. -1.
</event>
<event>
 5   0  0.5310275E-03  0.1004440E+04  0.7818609E-02  0.9303688E-01
        1   -1    0    0  501    0  0.00000000000E+00  0.00000000000E+00  0.39094438424E+03  0.39094438427E+03  0.50400001928E-02 0. -1.
       -1   -1    0    0    0  501  0.00000000000E+00  0.00000000000E+00 -0.64516848762E+03  0.64516848764E+03  0.50400001928E-02 0.  1.
    10030    2    1    2    0    0  0.00000000000E+00  0.00000000000E+00 -0.25422410338E+03  0.10361128719E+04  0.10044401369E+04 0.  0.
        1    1    3    3  502    0 -0.66121623508E+02  0.49213971579E+03 -0.20465853663E+03  0.53708349965E+03  0.50400001928E-02 0.  1.
       -1    1    3    3    0  502  0.66121623508E+02 -0.49213971579E+03 -0.49565566747E+02  0.49902937226E+03  0.50400001928E-02 0. -1.
</event>
<event>
 5   0  0.3513625E-03  0.1030693E+04  0.7818609E-02  0.9275507E-01
       -4   -1    0    0    0  501  0.00000000000E+00  0.00000000000E+00  0.40542333001E+03  0.40542531916E+03  0.12699999809E+01 0. -1.
        4   -1    0    0  501    0  0.00000000000E+00  0.00000000000E+00 -0.65506964860E+03  0.65507087969E+03  0.12699999809E+01 0.  1.
    10030    2    1    2    0    0  0.00000000000E+00  0.00000000000E+00 -0.24964631860E+03  0.10604961988E+04  0.10306934090E+04 0.  0.
        3    1    3    3  502    0  0.30793237068E+03 -0.51712144879E+02  0.29701419349E+03  0.43094539350E+03  0.10100000352E+00 0. -1.
       -3    1    3    3    0  502 -0.30793237068E+03  0.51712144879E+02 -0.54666051209E+03  0.62955080535E+03  0.10100000352E+00 0.  1.
</event>
<event>
 5   0  0.5310275E-03  0.9815488E+03  0.7818609E-02  0.9329017E-01
        1   -1    0    0  501    0  0.00000000000E+00  0.00000000000E+00  0.47275732579E+03  0.47275732582E+03  0.50400001928E-02 0. -1.
       -1   -1    0    0    0  501  0.00000000000E+00  0.00000000000E+00 -0.50947808178E+03  0.50947808180E+03  0.50400001928E-02 0.  1.
    10030    2    1    2    0    0  0.00000000000E+00  0.00000000000E+00 -0.36720755984E+02  0.98223540762E+03  0.98154876703E+03 0.  0.
        1    1    3    3  502    0 -0.33594510981E+03 -0.12399305961E+03  0.31747251158E+03  0.47856263046E+03  0.50400001928E-02 0. -1.
       -1    1    3    3    0  502  0.33594510981E+03  0.12399305961E+03 -0.35419326756E+03  0.50367277716E+03  0.50400001928E-02 0.  1.
</event>
<event>
 5   0  0.5072205E-03  0.1002866E+04  0.7818609E-02  0.9305407E-01
       -1   -1    0    0    0  501  0.00000000000E+00  0.00000000000E+00  0.54493034446E+03  0.54493034448E+03  0.50400001928E-02 0. -1.
        1   -1    0    0  501    0  0.00000000000E+00  0.00000000000E+00 -0.46140754051E+03  0.46140754054E+03  0.50400001928E-02 0.  1.
    10030    2    1    2    0    0  0.00000000000E+00  0.00000000000E+00  0.83522803949E+02  0.10063378850E+04  0.10028658335E+04 0.  0.
        5    1    3    3  502    0 -0.46240361669E+02  0.46334963354E+03  0.22836712027E+03  0.51865661624E+03  0.46999998093E+01 0. -1.
       -5    1    3    3    0  502  0.46240361669E+02 -0.46334963354E+03 -0.14484431632E+03  0.48768126878E+03  0.46999998093E+01 0.  1.
</event>
<event>
 5   0  0.3513625E-03  0.9684124E+03  0.7818609E-02  0.9343884E-01
        4   -1    0    0  501    0  0.00000000000E+00  0.00000000000E+00  0.37852609486E+03  0.37852822536E+03  0.12699999809E+01 0. -1.
       -4   -1    0    0    0  501  0.00000000000E+00  0.00000000000E+00 -0.61938645210E+03  0.61938775411E+03  0.12699999809E+01 0.  1.
    10030    2    1    2    0    0  0.00000000000E+00  0.00000000000E+00 -0.24086035723E+03  0.99791597947E+03  0.96841240719E+03 0.  0.
        5    1    3    3  502    0  0.25357072574E+03 -0.22136485682E+03 -0.47907531768E+03  0.58552178678E+03  0.46999998093E+01 0.  1.
       -5    1    3    3    0  502 -0.25357072574E+03  0.22136485682E+03  0.23821496044E+03  0.41239419269E+03  0.46999998093E+01 0. -1.
</event>
<event>
 5   0  0.9040674E-03  0.9866815E+03  0.7818609E-02  0.9323274E-01
        2   -1    0    0  501    0  0.00000000000E+00  0.00000000000E+00  0.18217247518E+04  0.18217247518E+04  0.25500000920E-02 0. -1.
       -2   -1    0    0    0  501  0.00000000000E+00  0.00000000000E+00 -0.13360147806E+03  0.13360147808E+03  0.25500000920E-02 0.  1.
    10030    2    1    2    0    0  0.00000000000E+00  0.00000000000E+00  0.16881232738E+04  0.19553262299E+04  0.98668154839E+03 0.  0.
        1    1    3    3  502    0 -0.38820493128E+03  0.92375502078E+02  0.14189271135E+04  0.14739709819E+04  0.50400001928E-02 0. -1.
       -1    1    3    3    0  502  0.38820493128E+03 -0.92375502078E+02  0.26919616028E+03  0.48135524801E+03  0.50400001928E-02 0.  1.
</event>
<event>
 5   0  0.9243773E-03  0.9833616E+03  0.7818609E-02  0.9326984E-01
        2   -1    0    0  501    0  0.00000000000E+00  0.00000000000E+00  0.23495232442E+04  0.23495232442E+04  0.25500000920E-02 0. -1.
       -2   -1    0    0    0  501  0.00000000000E+00  0.00000000000E+00 -0.10289321901E+03  0.10289321904E+03  0.25500000920E-02 0.  1.
    10030    2    1    2    0    0  0.00000000000E+00  0.00000000000E+00  0.22466300252E+04  0.24524164633E+04  0.98336160140E+03 0.  0.
        3    1    3    3  502    0  0.18300991660E+03  0.19007116891E+03  0.21580036173E+04  0.21740743550E+04  0.10100000352E+00 0. -1.
       -3    1    3    3    0  502 -0.18300991660E+03 -0.19007116891E+03  0.88626407922E+02  0.27834210822E+03  0.10100000352E+00 0.  1.
</event>
<event>
 5   0  0.5310275E-03  0.1011730E+04  0.7818609E-02  0.9295772E-01
       -1   -1    0    0    0  501  0.00000000000E+00  0.00000000000E+00  0.23475409184E+03  0.23475409189E+03  0.50400001928E-02 0.  1.
        1   -1    0    0  501    0  0.00000000000E+00  0.00000000000E+00 -0.10900742489E+04  0.10900742489E+04  0.50400001928E-02 0. -1.
    10030    2    1    2    0    0  0.00000000000E+00  0.00000000000E+00 -0.85532015702E+03  0.13248283408E+04  0.10117299845E+04 0.  0.
        1    1    3    3  502    0 -0.12068963207E+03  0.74149257948E+02 -0.10635755417E+04  0.10729664639E+04  0.50400001928E-02 0. -1.
       -1    1    3    3    0  502  0.12068963207E+03 -0.74149257948E+02  0.20825538468E+03  0.25186187686E+03  0.50400001928E-02 0.  1.
</event>
<event>
 5   0  0.5201968E-03  0.9848554E+03  0.7818609E-02  0.9325313E-01
       -1   -1    0    0    0  501  0.00000000000E+00  0.00000000000E+00  0.11399280958E+04  0.11399280959E+04  0.50400001928E-02 0. -1.
        1   -1    0    0  501    0  0.00000000000E+00  0.00000000000E+00 -0.21271960277E+03  0.21271960283E+03  0.50400001928E-02 0.  1.
    10030    2    1    2    0    0  0.00000000000E+00  0.00000000000E+00  0.92720849307E+03  0.13526476987E+04  0.98485542449E+03 0.  0.
        2    1    3    3  502    0  0.24392954193E+02  0.15548797860E+02  0.11387601388E+04  0.11391274885E+04  0.25500000920E-02 0. -1.
       -2    1    3    3    0  502 -0.24392954193E+02 -0.15548797860E+02 -0.21155164575E+03  0.21352021017E+03  0.25500000920E-02 0.  1.
</event>
<event>
 5   0  0.3513625E-03  0.1000428E+04  0.7818609E-02  0.9308075E-01
        3   -1    0    0  501    0  0.00000000000E+00  0.00000000000E+00  0.12259523514E+04  0.12259523555E+04  0.10100000352E+00 0. -1.
       -3   -1    0    0    0  501  0.00000000000E+00  0.00000000000E+00 -0.20409769723E+03  0.20409772223E+03  0.10100000352E+00 0.  1.
    10030    2    1    2    0    0  0.00000000000E+00  0.00000000000E+00  0.10218546542E+04  0.14300500778E+04  0.10004280537E+04 0.  0.
        4    1    3    3  502    0  0.52061670715E+02 -0.48219962671E+03  0.68591276353E+03  0.84006239627E+03  0.12699999809E+01 0. -1.
       -4    1    3    3    0  502 -0.52061670715E+02  0.48219962671E+03  0.33594189063E+03  0.58998768151E+03  0.12699999809E+01 0.  1.
</event>
<event>
 5   0  0.5349685E-03  0.9695053E+03  0.7818609E-02  0.9342638E-01
        1   -1    0    0  501    0  0.00000000000E+00  0.00000000000E+00  0.13354493251E+03  0.13354493261E+03  0.50400001928E-02 0. -1.
       -1   -1    0    0    0  501  0.00000000000E+00  0.00000000000E+00 -0.17595958888E+04  0.17595958888E+04  0.50400001928E-02 0.  1.
    10030    2    1    2    0    0  0.00000000000E+00  0.00000000000E+00 -0.16260509563E+04  0.18931408214E+04  0.96950526417E+03 0.  0.
        4    1    3    3  502    0  0.12332442956E+03 -0.39864326316E+03 -0.33130837158E+03  0.53281536781E+03  0.12699999809E+01 0. -1.
       -4    1    3    3    0  502 -0.12332442956E+03  0.39864326316E+03 -0.12947425847E+04  0.13603254536E+04  0.12699999809E+01 0.  1.
</event>
<event>
 5   0  0.5201968E-03  0.1010172E+04  0.7818609E-02  0.9297459E-01
       -1   -1    0    0    0  501  0.00000000000E+00  0.00000000000E+00  0.47288178342E+03  0.47288178345E+03  0.50400001928E-02 0.  1.
        1   -1    0    0  501    0  0.00000000000E+00  0.00000000000E+00 -0.53948305035E+03  0.53948305037E+03  0.50400001928E-02 0. -1.
    10030    2    1    2    0    0  0.00000000000E+00  0.00000000000E+00 -0.66601266930E+02  0.10123648338E+04  0.10101716824E+04 0.  0.
        2    1    3    3  502    0 -0.43666190544E+03 -0.66681234670E+02  0.21216316257E+03  0.49003389095E+03  0.25500000920E-02 0.  1.
       -2    1    3    3    0  502  0.43666190544E+03  0.66681234670E+02 -0.27876442950E+03  0.52233094287E+03  0.25500000920E-02 0. -1.
</event>
<event>
 5   0  0.5189877E-03  0.1179072E+04  0.7818609E-02  0.9131374E-01
       -1   -1    0    0    0  501  0.00000000000E+00  0.00000000000E+00  0.97873155775E+03  0.97873155777E+03  0.50400001928E-02 0.  1.
        1   -1    0    0  501    0  0.00000000000E+00  0.00000000000E+00 -0.35510543784E+03  0.35510543788E+03  0.50400001928E-02 0. -1.
    10030    2    1    2    0    0  0.00000000000E+00  0.00000000000E+00  0.62362611991E+03  0.13338369956E+04  0.11790723445E+04 0.  0.
        3    1    3    3  502    0  0.50963449897E+03 -0.21801537067E+03  0.53889738227E+03  0.77309017793E+03  0.10100000352E+00 0.  1.
       -3    1    3    3    0  502 -0.50963449897E+03  0.21801537067E+03  0.84728737639E+02  0.56074681771E+03  0.10100000352E+00 0. -1.
</event>
<event>
 5   0  0.9040674E-03  0.1000586E+04  0.7818609E-02  0.9307902E-01
        2   -1    0    0  501    0  0.00000000000E+00  0.00000000000E+00  0.80755009756E+03  0.80755009756E+03  0.25500000920E-02 0.  1.
       -2   -1    0    0    0  501  0.00000000000E+00  0.00000000000E+00 -0.30994128685E+03  0.30994128686E+03  0.25500000920E-02 0. -1.
    10030    2    1    2    0    0  0.00000000000E+00  0.00000000000E+00  0.49760881070E+03  0.11174913844E+04  0.10005860612E+04 0.  0.
        1    1    3    3  502    0 -0.15500422884E+03 -0.17818835042E+03  0.74137341499E+03  0.77808221909E+03  0.50400001928E-02 0.  1.
       -1    1    3    3    0  502  0.15500422884E+03  0.17818835042E+03 -0.24376460429E+03  0.33940916533E+03  0.50400001928E-02 0. -1.
</event>
<event>
 5   0  0.5072205E-03  0.9936318E+03  0.7818609E-02  0.9315557E-01
        1   -1    0    0  501    0  0.00000000000E+00  0.00000000000E+00  0.73247822963E+03  0.73247822964E+03  0.50400001928E-02 0.  1.
       -1   -1    0    0    0  501  0.00000000000E+00  0.00000000000E+00 -0.33697391650E+03  0.33697391654E+03  0.50400001928E-02 0. -1.
    10030    2    1    2    0    0  0.00000000000E+00  0.00000000000E+00  0.39550431312E+03  0.10694521462E+04  0.99363183890E+03 0.  0.
        5    1    3    3  502    0  0.27527820168E+03 -0.69557019904E+02 -0.24101619725E+03  0.37246095725E+03  0.46999998093E+01 0. -1.
       -5    1    3    3    0  502 -0.27527820168E+03  0.69557019904E+02  0.63652051037E+03  0.69699118894E+03  0.46999998093E+01 0.  1.
</event>
<event>
 5   0  0.8968798E-03  0.9900879E+03  0.7818609E-02  0.9319484E-01
       -2   -1    0    0    0  501  0.00000000000E+00  0.00000000000E+00  0.24549710413E+03  0.24549710415E+03  0.25500000920E-02 0. -1.
        2   -1    0    0  501    0  0.00000000000E+00  0.00000000000E+00 -0.99825418172E+03  0.99825418173E+03  0.25500000920E-02 0.  1.
    10030    2    1    2    0    0  0.00000000000E+00  0.00000000000E+00 -0.75275707759E+03  0.12437512859E+04  0.99008789673E+03 0.  0.
        2    1    3    3  502    0 -0.13012758787E+03 -0.23766996158E+03  0.14407211503E+03  0.30688267155E+03  0.25500000920E-02 0. -1.
       -2    1    3    3    0  502  0.13012758787E+03  0.23766996158E+03 -0.89682919262E+03  0.93686861432E+03  0.25500000920E-02 0.  1.
</event>
<event>
 5   0  0.5201968E-03  0.1062847E+04  0.7818609E-02  0.9242180E-01
        1   -1    0    0  501    0  0.00000000000E+00  0.00000000000E+00  0.33446155324E+03  0.33446155328E+03  0.50400001928E-02 0.  1.
       -1   -1    0    0    0  501  0.00000000000E+00  0.00000000000E+00 -0.84437524654E+03  0.84437524655E+03  0.50400001928E-02 0. -1.
    10030    2    1    2    0    0  0.00000000000E+00  0.00000000000E+00 -0.50991369330E+03  0.11788367998E+04  0.10628472261E+04 0.  0.
        2    1    3    3  502    0  0.17439029132E+03 -0.29524803632E+03  0.19533897186E+03  0.39463995058E+03  0.25500000920E-02 0.  1.
       -2    1    3    3    0  502 -0.17439029132E+03  0.29524803632E+03 -0.70525266516E+03  0.78419684925E+03  0.25500000920E-02 0. -1.
</event>
<event>
 5   0  0.9243773E-03  0.1025568E+04  0.7818609E-02  0.9280938E-01
       -2   -1    0    0    0  501  0.00000000000E+00  0.00000000000E+00  0.40391961871E+03  0.40391961871E+03  0.25500000920E-02 0.  1.
        2   -1    0    0  501    0  0.00000000000E+00  0.00000000000E+00 -0.65098989995E+03  0.65098989995E+03  0.25500000920E-02 0. -1.
    10030    2    1    2    0    0  0.00000000000E+00  0.00000000000E+00 -0.24707028124E+03  0.10549095187E+04  0.10255683150E+04 0.  0.
        3    1    3    3  502    0  0.17883344987E+03  0.22874068482E+03 -0.55829024084E+03  0.62927871957E+03  0.10100000352E+00 0. -1.
       -3    1    3    3    0  502 -0.17883344987E+03 -0.22874068482E+03  0.31121995960E+03  0.42563079910E+03  0.10100000352E+00 0.  1.
</event>
<event>
 5   0  0.5310275E-03  0.9664099E+03  0.7818609E-02  0.9346173E-01
        1   -1    0    0  501    0  0.00000000000E+00  0.00000000000E+00  0.51745049201E+03  0.51745049203E+03  0.50400001928E-02 0. -1.
       -1   -1    0    0    0  501  0.00000000000E+00  0.00000000000E+00 -0.45122583839E+03  0.45122583842E+03  0.50400001928E-02 0.  1.
    10030    2    1    2    0    0  0.00000000000E+00  0.00000000000E+00  0.66224653618E+02  0.96867633045E+03  0.96640991739E+03 0.  0.
        1    1    3    3  502    0  0.27721829677E+03  0.39381399408E+03  0.72543955693E+02  0.48703395316E+03  0.50400001928E-02 0.  1.
       -1    1    3    3    0  502 -0.27721829677E+03 -0.39381399408E+03 -0.63193020751E+01  0.48164237729E+03  0.50400001928E-02 0. -1.
</event>
<event>
 5   0  0.9243773E-03  0.9990312E+03  0.7818609E-02  0.9309608E-01
       -2   -1    0    0    0  501  0.00000000000E+00  0.00000000000E+00  0.24482259180E+03  0.24482259182E+03  0.25500000920E-02 0.  1.
        2   -1    0    0  501    0  0.00000000000E+00  0.00000000000E+00 -0.10191699226E+04  0.10191699226E+04  0.25500000920E-02 0. -1.
    10030    2    1    2    0    0  0.00000000000E+00  0.00000000000E+00 -0.77434733083E+03  0.12639925144E+04  0.99903117460E+03 0.  0.
        3    1    3    3  502    0  0.12682304886E+03  0.49109229356E+01 -0.99842942771E+03  0.10064638768E+04  0.10100000352E+00 0. -1.
       -3    1    3    3    0  502 -0.12682304886E+03 -0.49109229356E+01  0.22408209689E+03  0.25752863769E+03  0.10100000352E+00 0.  1.
</event>
<event>
 5   0  0.5189877E-03  0.8975852E+03  0.7818609E-02  0.9428605E-01
        1   -1    0    0  501    0  0.00000000000E+00  0.00000000000E+00  0.39910861156E+03  0.39910861159E+03  0.50400001928E-02 0. -1.
       -1   -1    0    0    0  501  0.00000000000E+00  0.00000000000E+00 -0.50466156849E+03  0.50466156851E+03  0.50400001928E-02 0.  1.
    10030    2    1    2    0    0  0.00000000000E+00  0.00000000000E+00 -0.10555295692E+03  0.90377018010E+03  0.89758515570E+03 0.  0.
        3    1    3    3  502    0 -0.21494325047E+03 -0.27185036464E+03 -0.33989317961E+03  0.48541796982E+03  0.10100000352E+00 0.  1.
       -3    1    3    3    0  502  0.21494325047E+03  0.27185036464E+03  0.23434022269E+03  0.41835221028E+03  0.10100000352E+00 0. -1.
</event>
<event>
 5   0  0.5072205E-03  0.1000279E+04  0.7818609E-02  0.9308239E-01
       -1   -1    0    0    0  501  0.00000000000E+00  0.00000000000E+00  0.16761656624E+03  0.16761656631E+03  0.50400001928E-02 0.  1.
        1   -1    0    0  501    0  0.00000000000E+00  0.00000000000E+00 -0.14923318570E+04  0.14923318570E+04  0.50400001928E-02 0. -1.
    10030    2    1    2    0    0  0.00000000000E+00  0.00000000000E+00 -0.13247152908E+04  0.16599484234E+04  0.10002790443E+04 0.  0.
        5    1    3    3  502    0 -0.48047743372E+03 -0.84876824560E+02 -0.84455985691E+03  0.97537996779E+03  0.46999998093E+01 0. -1.
       -5    1    3    3    0  502  0.48047743372E+03  0.84876824560E+02 -0.48015543389E+03  0.68456845557E+03  0.46999998093E+01 0.  1.
</event>
<event>
 5   0  0.5189877E-03  0.9983747E+03  0.7818609E-02  0.9310329E-01
       -1   -1    0    0    0  501  0.00000000000E+00  0.00000000000E+00  0.29744311819E+03  0.29744311824E+03  0.50400001928E-02 0. -1.
        1   -1    0    0  501    0  0.00000000000E+00  0.00000000000E+00 -0.83776696670E+03  0.83776696671E+03  0.50400001928E-02 0.  1.
    10030    2    1    2    0    0  0.00000000000E+00  0.00000000000E+00 -0.54032384850E+03  0.11352100850E+04  0.99837471708E+03 0.  0.
        3    1    3    3  502    0  0.31465590671E+03  0.18982464035E+03 -0.65432315850E+03  0.75045355597E+03  0.10100000352E+00 0.  1.
       -3    1    3    3    0  502 -0.31465590671E+03 -0.18982464035E+03  0.11399931000E+03  0.38475652898E+03  0.10100000352E+00 0. -1.
</event>
<event>
 5   0  0.8907355E-03  0.1033999E+04  0.7818609E-02  0.9272021E-01
        2   -1    0    0  501    0  0.00000000000E+00  0.00000000000E+00  0.11216862871E+04  0.11216862871E+04  0.25500000920E-02 0.  1.
       -2   -1    0    0    0  501  0.00000000000E+00  0.00000000000E+00 -0.23829183485E+03  0.23829183486E+03  0.25500000920E-02 0. -1.
    10030    2    1    2    0    0  0.00000000000E+00  0.00000000000E+00  0.88339445223E+03  0.13599781219E+04  0.10339993878E+04 0.  0.
        5    1    3    3  502    0  0.11773716162E+03 -0.69344062206E+02 -0.21408353195E+03  0.25401670582E+03  0.46999998093E+01 0. -1.
       -5    1    3    3    0  502 -0.11773716162E+03  0.69344062206E+02  0.10974779842E+04  0.11059614161E+04  0.46999998093E+01 0.  1.
</event>
<event>
 5   0  0.9040674E-03  0.1001950E+04  0.7818609E-02  0.9306409E-01
       -2   -1    0    0    0  501  0.00000000000E+00  0.00000000000E+00  0.10660914645E+04  0.10660914645E+04  0.25500000920E-02 0.  1.
        2   -1    0    0  501    0  0.00000000000E+00  0.00000000000E+00 -0.23541678698E+03  0.23541678700E+03  0.25500000920E-02 0. -1.
    10030    2    1    2    0    0  0.00000000000E+00  0.00000000000E+00  0.83067467748E+03  0.13015082515E+04  0.10019497536E+04 0.  0.
        1    1    3    3  502    0 -0.30517010881E+02  0.45320505932E+02  0.10622096840E+04  0.10636139567E+04  0.50400001928E-02 0.  1.
       -1    1    3    3    0  502  0.30517010881E+02 -0.45320505932E+02 -0.23153500649E+03  0.23789429473E+03  0.50400001928E-02 0. -1.
</event>
<event>
 5   0  0.9040674E-03  0.9990360E+03  0.7818609E-02  0.9309603E-01
       -2   -1    0    0    0  501  0.00000000000E+00  0.00000000000E+00  0.31561963472E+03  0.31561963473E+03  0.25500000920E-02 0. -1.
        2   -1    0    0  501    0  0.00000000000E+00  0.00000000000E+00 -0.79056622803E+03  0.79056622803E+03  0.25500000920E-02 0.  1.
    10030    2    1    2    0    0  0.00000000000E+00  0.00000000000E+00 -0.47494659331E+03  0.11061858628E+04  0.99903598357E+03 0.  0.
        1    1    3    3  502    0  0.40543311706E+03 -0.90047477538E+01 -0.56040637833E+03  0.69174591201E+03  0.50400001928E-02 0.  1.
       -1    1    3    3    0  502 -0.40543311706E+03  0.90047477538E+01  0.85459785022E+02  0.41443995074E+03  0.50400001928E-02 0. -1.
</event>
<event>
 5   0  0.5201968E-03  0.9764453E+03  0.7818609E-02  0.9334763E-01
        1   -1    0    0  501    0  0.00000000000E+00  0.00000000000E+00  0.99609908258E+03  0.99609908260E+03  0.50400001928E-02 0.  1.
       -1   -1    0    0    0  501  0.00000000000E+00  0.00000000000E+00 -0.23929483030E+03  0.23929483035E+03  0.50400001928E-02 0. -1.
    10030    2    1    2    0    0  0.00000000000E+00  0.00000000000E+00  0.75680425228E+03  0.12353939129E+04  0.97644531023E+03 0.  0.
        2    1    3    3  502    0 -0.24384113853E+03 -0.32605417845E+03  0.71928133777E+03  0.82652009715E+03  0.25500000920E-02 0.  1.
       -2    1    3    3    0  502  0.24384113853E+03  0.32605417845E+03  0.37522914516E+02  0.40887381580E+03  0.25500000920E-02 0. -1.
</event>
<event>
 5   0  0.3513625E-03  0.1012523E+04  0.7818609E-02  0.9294916E-01
        4   -1    0    0  501    0  0.00000000000E+00  0.00000000000E+00  0.40236299069E+03  0.40236499497E+03  0.12699999809E+01 0.  1.
       -4   -1    0    0    0  501  0.00000000000E+00  0.00000000000E+00 -0.63698424885E+03  0.63698551490E+03  0.12699999809E+01 0. -1.
    10030    2    1    2    0    0  0.00000000000E+00  0.00000000000E+00 -0.23462125816E+03  0.10393505099E+04  0.10125227640E+04 0.  0.
        4    1    3    3  502    0  0.79861530198E+01  0.13538488557E+03  0.38336915000E+03  0.40665263303E+03  0.12699999809E+01 0.  1.
       -4    1    3    3    0  502 -0.79861530198E+01 -0.13538488557E+03 -0.61799040816E+03  0.63269787684E+03  0.12699999809E+01 0. -1.
</event>
<event>
 5   0  0.8968798E-03  0.9681485E+03  0.7818609E-02  0.9344186E-01
        2   -1    0    0  501    0  0.00000000000E+00  0.00000000000E+00  0.10024347475E+04  0.10024347475E+04  0.25500000920E-02 0.  1.
       -2   -1    0    0    0  501  0.00000000000E+00  0.00000000000E+00 -0.23375873456E+03  0.23375873458E+03  0.25500000920E-02 0. -1.
    10030    2    1    2    0    0  0.00000000000E+00  0.00000000000E+00  0.76867601294E+03  0.12361934821E+04  0.96814849702E+03 0.  0.
        2    1    3    3  502    0  0.15065146027E+03  0.45255717478E+03  0.27885934937E+03  0.55250918152E+03  0.25500000920E-02 0.  1.
       -2    1    3    3    0  502 -0.15065146027E+03 -0.45255717478E+03  0.48981666357E+03  0.68368430057E+03  0.25500000920E-02 0. -1.
</event>
<event>
 5   0  0.5072205E-03  0.9967575E+03  0.7818609E-02  0.9312108E-01
        1   -1    0    0  501    0  0.00000000000E+00  0.00000000000E+00  0.75041296465E+03  0.75041296467E+03  0.50400001928E-02 0.  1.
       -1   -1    0    0    0  501  0.00000000000E+00  0.00000000000E+00 -0.33099289393E+03  0.33099289397E+03  0.50400001928E-02 0. -1.
    10030    2    1    2    0    0  0.00000000000E+00  0.00000000000E+00  0.41942007072E+03  0.10814058586E+04  0.99675746065E+03 0.  0.
        5    1    3    3  502    0 -0.29369816879E+03 -0.26969779479E+03  0.53403466081E+03  0.66649127812E+03  0.46999998093E+01 0.  1.
       -5    1    3    3    0  502  0.29369816879E+03  0.26969779479E+03 -0.11461459009E+03  0.41491458052E+03  0.46999998093E+01 0. -1.
</event>
<event>
 5   0  0.5349685E-03  0.1002722E+04  0.7818609E-02  0.9305565E-01
        1   -1    0    0  501    0  0.00000000000E+00  0.00000000000E+00  0.63610140673E+03  0.63610140675E+03  0.50400001928E-02 0.  1.
       -1   -1    0    0    0  501  0.00000000000E+00  0.00000000000E+00 -0.39516145795E+03  0.39516145798E+03  0.50400001928E-02 0. -1.
    10030    2    1    2    0    0  0.00000000000E+00  0.00000000000E+00  0.24093994878E+03  0.10312628647E+04  0.10027218145E+04 0.  0.
        4    1    3    3  502    0 -0.59562543201E+02  0.25999148402E+03  0.55707411695E+03  0.61763780081E+03  0.12699999809E+01 0.  1.
       -4    1    3    3    0  502  0.59562543201E+02 -0.25999148402E+03 -0.31613416817E+03  0.41362506391E+03  0.12699999809E+01 0. -1.
</event>
<event>
 5   0  0.5189877E-03  0.1011322E+04  0.7818609E-02  0.9296213E-01
       -1   -1    0    0    0  501  0.00000000000E+00  0.00000000000E+00  0.32426557554E+03  0.32426557558E+03  0.50400001928E-02 0. -1.
        1   -1    0    0  501    0  0.00000000000E+00  0.00000000000E+00 -0.78853018700E+03  0.78853018702E+03  0.50400001928E-02 0.  1.
    10030    2    1    2    0    0  0.00000000000E+00  0.00000000000E+00 -0.46426461146E+03  0.11127957626E+04  0.10113222927E+04 0.  0.
        3    1    3    3  502    0  0.30520494065E+03  0.18661582523E+03  0.16110196845E+03  0.39233834437E+03  0.10100000352E+00 0. -1.
       -3    1    3    3    0  502 -0.30520494065E+03 -0.18661582523E+03 -0.62536657991E+03  0.72045741823E+03  0.10100000352E+00 0.  1.
</event>
<event>
 5   0  0.5189877E-03  0.1006111E+04  0.7818609E-02  0.9301868E-01
       -1   -1    0    0    0  501  0.00000000000E+00  0.00000000000E+00  0.35322894927E+03  0.35322894931E+03  0.50400001928E-02 0.  1.
        1   -1    0    0  501    0  0.00000000000E+00  0.00000000000E+00 -0.71643259590E+03  0.71643259592E+03  0.50400001928E-02 0. -1.
    10030    2    1    2    0    0  0.00000000000E+00  0.00000000000E+00 -0.36320364662E+03  0.10696615452E+04  0.10061107953E+04 0.  0.
        3    1    3    3  502    0 -0.42187598644E+03  0.78052244030E+02  0.97654996660E+02  0.44000910139E+03  0.10100000352E+00 0.  1.
       -3    1    3    3    0  502  0.42187598644E+03 -0.78052244030E+02 -0.46085864328E+03  0.62965244383E+03  0.10100000352E+00 0. -1.
</event>
<event>
 5   0  0.8968798E-03  0.9838309E+03  0.7818609E-02  0.9326459E-01
        2   -1    0    0  501    0  0.00000000000E+00  0.00000000000E+00  0.15275224256E+04  0.15275224256E+04  0.25500000920E-02 0. -1.
       -2   -1    0    0    0  501  0.00000000000E+00  0.00000000000E+00 -0.15841390323E+03  0.15841390325E+03  0.25500000920E-02 0.  1.
    10030    2    1    2    0    0  0.00000000000E+00  0.00000000000E+00  0.13691085224E+04  0.16859363289E+04  0.98383085892E+03 0.  0.
        2    1    3    3  502    0 -0.27323418485E+03 -0.27335617051E+03  0.12060213023E+04  0.12664390618E+04  0.25500000920E-02 0. -1.
       -2    1    3    3    0  502  0.27323418485E+03  0.27335617051E+03  0.16308722015E+03  0.41949726710E+03  0.25500000920E-02 0.  1.
</event>
<event>
 5   0  0.8968798E-03  0.1040677E+04  0.7818609E-02  0.9265022E-01
       -2   -1    0    0    0  501  0.00000000000E+00  0.00000000000E+00  0.32116219868E+03  0.32116219869E+03  0.25500000920E-02 0.  1.
        2   -1    0    0  501    0  0.00000000000E+00  0.00000000000E+00 -0.84303942117E+03  0.84303942117E+03  0.25500000920E-02 0. -1.
    10030    2    1    2    0    0  0.00000000000E+00  0.00000000000E+00 -0.52187722249E+03  0.11642016199E+04  0.10406774603E+04 0.  0.
        2    1    3    3  502    0  0.26196820561E+02  0.41184189762E+03 -0.61550057904E+03  0.74104047450E+03  0.25500000920E-02 0. -1.
       -2    1    3    3    0  502 -0.26196820561E+02 -0.41184189762E+03  0.93623356550E+02  0.42316114536E+03  0.25500000920E-02 0.  1.
</event>
<event>
 5   0  0.5349685E-03  0.1004013E+04  0.7818609E-02  0.9304154E-01
        1   -1    0    0  501    0  0.00000000000E+00  0.00000000000E+00  0.58810852795E+03  0.58810852797E+03  0.50400001928E-02 0.  1.
       -1   -1    0    0    0  501  0.00000000000E+00  0.00000000000E+00 -0.42851036308E+03  0.42851036311E+03  0.50400001928E-02 0. -1.
    10030    2    1    2    0    0  0.00000000000E+00  0.00000000000E+00  0.15959816487E+03  0.10166188911E+04  0.10040131451E+04 0.  0.
        4    1    3    3  502    0  0.73169380415E+02 -0.22128359843E+02 -0.42258101525E+03  0.42944120656E+03  0.12699999809E+01 0. -1.
       -4    1    3    3    0  502 -0.73169380415E+02  0.22128359843E+02  0.58217918012E+03  0.58717768452E+03  0.12699999809E+01 0.  1.
</event>
<event>
 5   0  0.5310275E-03  0.9889894E+03  0.7818609E-02  0.9320704E-01
        1   -1    0    0  501    0  0.00000000000E+00  0.00000000000E+00  0.10647821467E+04  0.10647821467E+04  0.50400001928E-02 0.  1.
       -1   -1    0    0    0  501  0.00000000000E+00  0.00000000000E+00 -0.22964791864E+03  0.22964791869E+03  0.50400001928E-02 0. -1.
    10030    2    1    2    0    0  0.00000000000E+00  0.00000000000E+00  0.83513422805E+03  0.12944300654E+04  0.98898939091E+03 0.  0.
        1    1    3    3  502    0  0.32203395746E+03 -0.34421281773E+03  0.22195480734E+03  0.52101081580E+03  0.50400001928E-02 0. -1.
       -1    1    3    3    0  502 -0.32203395746E+03  0.34421281773E+03  0.61317942071E+03  0.77341924960E+03  0.50400001928E-02 0.  1.
</event>
<event>
 5   0  0.5310275E-03  0.9994439E+03  0.7818609E-02  0.9309155E-01
        1   -1    0    0  501    0  0.00000000000E+00  0.00000000000E+00  0.93015524610E+03  0.93015524612E+03  0.50400001928E-02 0.  1.
       -1   -1    0    0    0  501  0.00000000000E+00  0.00000000000E+00 -0.26847346621E+03  0.26847346625E+03  0.50400001928E-02 0. -1.
    10030    2    1    2    0    0  0.00000000000E+00  0.00000000000E+00  0.66168177990E+03  0.11986287124E+04  0.99944385149E+03 0.  0.
        1    1    3    3  502    0 -0.16807452262E+02  0.38515974816E+03  0.71215559665E+03  0.80981239551E+03  0.50400001928E-02 0.  1.
       -1    1    3    3    0  502  0.16807452262E+02 -0.38515974816E+03 -0.50473816757E+02  0.38881631686E+03  0.50400001928E-02 0. -1.
</event>
<event>
 5   0  0.3513625E-03  0.1002020E+04  0.7818609E-02  0.9306332E-01
       -3   -1    0    0    0  501  0.00000000000E+00  0.00000000000E+00  0.18762492676E+03  0.18762495394E+03  0.10100000352E+00 0.  1.
        3   -1    0    0  501    0  0.00000000000E+00  0.00000000000E+00 -0.13378339612E+04  0.13378339650E+04  0.10100000352E+00 0. -1.
    10030    2    1    2    0    0  0.00000000000E+00  0.00000000000E+00 -0.11502090344E+04  0.15254589189E+04  0.10020200050E+04 0.  0.
        4    1    3    3  502    0 -0.22080926535E+02 -0.46066304129E+03 -0.87308523551E+03  0.98740946233E+03  0.12699999809E+01 0.  1.
       -4    1    3    3    0  502  0.22080926535E+02  0.46066304129E+03 -0.27712379890E+03  0.53804945660E+03  0.12699999809E+01 0. -1.
</event>
<event>
 5   0  0.5072205E-03  0.1009158E+04  0.7818609E-02  0.9298557E-01
        1   -1    0    0  501    0  0.00000000000E+00  0.00000000000E+00  0.54773591277E+03  0.54773591279E+03  0.50400001928E-02 0.  1.
       -1   -1    0    0    0  501  0.00000000000E+00  0.00000000000E+00 -0.46482266808E+03  0.46482266811E+03  0.50400001928E-02 0. -1.
    10030    2    1    2    0    0  0.00000000000E+00  0.00000000000E+00  0.82913244687E+02  0.10125585809E+04  0.10091582005E+04 0.  0.
        5    1    3    3  502    0 -0.68899533985E+02 -0.31665893578E+03  0.42948693889E+03  0.53805310896E+03  0.46999998093E+01 0.  1.
       -5    1    3    3    0  502  0.68899533985E+02  0.31665893578E+03 -0.34657369420E+03  0.47450547194E+03  0.46999998093E+01 0. -1.
</event>
<event>
 5   0  0.8875655E-03  0.1001693E+04  0.7818609E-02  0.9306690E-01
       -2   -1    0    0    0  501  0.00000000000E+00  0.00000000000E+00  0.66216043328E+03  0.66216043329E+03  0.25500000920E-02 0. -1.
        2   -1    0    0  501    0  0.00000000000E+00  0.00000000000E+00 -0.37883163274E+03  0.37883163275E+03  0.25500000920E-02 0.  1.
    10030    2    1    2    0    0  0.00000000000E+00  0.00000000000E+00  0.28332880054E+03  0.10409920660E+04  0.10016932027E+04 0.  0.
        4    1    3    3  502    0 -0.50041950142E+03 -0.16847304725E+02  0.12927196850E+03  0.51712316117E+03  0.12699999809E+01 0. -1.
       -4    1    3    3    0  502  0.50041950142E+03  0.16847304725E+02  0.15405683204E+03  0.52386890486E+03  0.12699999809E+01 0.  1.
</event>
<event>
 5   0  0.9243773E-03  0.9957264E+03  0.7818609E-02  0.9313244E-01
        2   -1    0    0  501    0  0.00000000000E+00  0.00000000000E+00  0.17683735746E+04  0.17683735746E+04  0.25500000920E-02 0.  1.
       -2   -1    0    0    0  501  0.00000000000E+00  0.00000000000E+00 -0.14016707507E+03  0.14016707509E+03  0.25500000920E-02 0. -1.
    10030    2    1    2    0    0  0.00000000000E+00  0.00000000000E+00  0.16282064995E+04  0.19085406497E+04  0.99572637124E+03 0.  0.
        3    1    3    3  502    0  0.35818457023E+03 -0.32482030686E+03  0.10414063637E+04  0.11481862404E+04  0.10100000352E+00 0.  1.
       -3    1    3    3    0  502 -0.35818457023E+03  0.32482030686E+03  0.58680013578E+03  0.76035440924E+03  0.10100000352E+00 0. -1.
</event>
<event>
 5   0  0.9040674E-03  0.9899636E+03  0.7818609E-02  0.9319622E-01
       -2   -1    0    0    0  501  0.00000000000E+00  0.00000000000E+00  0.21266173523E+03  0.21266173525E+03  0.25500000920E-02 0.  1.
        2   -1    0    0  501    0  0.00000000000E+00  0.00000000000E+00 -0.11520971183E+04  0.11520971183E+04  0.25500000920E-02 0. -1.
    10030    2    1    2    0    0  0.00000000000E+00  0.00000000000E+00 -0.93943538307E+03  0.13647588535E+04  0.98996357983E+03 0.  0.
        1    1    3    3  502    0 -0.18931153444E+03 -0.10067400138E+03  0.14531626684E+03  0.25901916736E+03  0.50400001928E-02 0.  1.
       -1    1    3    3    0  502  0.18931153444E+03  0.10067400138E+03 -0.10847516499E+04  0.11057396862E+04  0.50400001928E-02 0. -1.
</event>
<event>
 5   0  0.3513625E-03  0.1019000E+04  0.7818609E-02  0.9287948E-01
        3   -1    0    0  501    0  0.00000000000E+00  0.00000000000E+00  0.77670397011E+03  0.77670397668E+03  0.10100000352E+00 0. -1.
       -3   -1    0    0    0  501  0.00000000000E+00  0.00000000000E+00 -0.33422010304E+03  0.33422011830E+03  0.10100000352E+00 0.  1.
    10030    2    1    2    0    0  0.00000000000E+00  0.00000000000E+00  0.44248386707E+03  0.11109240950E+04  0.10189996919E+04 0.  0.
        3    1    3    3  502    0  0.64570111875E+02 -0.48320494437E+03  0.38270266997E+03  0.61977226577E+03  0.10100000352E+00 0.  1.
       -3    1    3    3    0  502 -0.64570111875E+02  0.48320494437E+03  0.59781197103E+02  0.49115182921E+03  0.10100000352E+00 0. -1.
</event>
<event>
 5   0  0.9243773E-03  0.1038245E+04  0.7818609E-02  0.9267565E-01
       -2   -1    0    0    0  501  0.00000000000E+00  0.00000000000E+00  0.22407152180E+03  0.22407152182E+03  0.25500000920E-02 0.  1.
        2   -1    0    0  501    0  0.00000000000E+00  0.00000000000E+00 -0.12026875443E+04  0.12026875443E+04  0.25500000920E-02 0. -1.
    10030    2    1    2    0    0  0.00000000000E+00  0.00000000000E+00 -0.97861602247E+03  0.14267590661E+04  0.10382447270E+04 0.  0.
        3    1    3    3  502    0 -0.11808581360E+03 -0.48923067472E+03 -0.66419987834E+03  0.83333810728E+03  0.10100000352E+00 0.  1.
       -3    1    3    3    0  502  0.11808581360E+03  0.48923067472E+03 -0.31441614413E+03  0.59342095881E+03  0.10100000352E+00 0. -1.
</event>
<event>
 5   0  0.8907355E-03  0.1016507E+04  0.7818609E-02  0.9290624E-01
       -2   -1    0    0    0  501  0.00000000000E+00  0.00000000000E+00  0.96198681837E+02  0.96198681871E+02  0.25500000920E-02 0. -1.
        2   -1    0    0  501    0  0.00000000000E+00  0.00000000000E+00 -0.26852911213E+04  0.26852911213E+04  0.25500000920E-02 0.  1.
    10030    2    1    2    0    0  0.00000000000E+00  0.00000000000E+00 -0.25890924395E+04  0.27814898032E+04  0.10165066970E+04 0.  0.
        5    1    3    3  502    0  0.12275993419E+02 -0.41968800220E+03 -0.20781605575E+04  0.21201561527E+04  0.46999998093E+01 0.  1.
       -5    1    3    3    0  502 -0.12275993419E+02  0.41968800220E+03 -0.51093188198E+03  0.66133365046E+03  0.46999998093E+01 0. -1.
</event>
<event>
 5   0  0.3513625E-03  0.1031972E+04  0.7818609E-02  0.9274157E-01
        4   -1    0    0  501    0  0.00000000000E+00  0.00000000000E+00  0.42235193818E+03  0.42235384760E+03  0.12699999809E+01 0.  1.
       -4   -1    0    0    0  501  0.00000000000E+00  0.00000000000E+00 -0.63037454983E+03  0.63037582915E+03  0.12699999809E+01 0. -1.
    10030    2    1    2    0    0  0.00000000000E+00  0.00000000000E+00 -0.20802261165E+03  0.10527296768E+04  0.10319720759E+04 0.  0.
        2    1    3    3  502    0 -0.48214250317E+03  0.16913522860E+03 -0.17738493305E+03  0.54086369207E+03  0.25500000920E-02 0. -1.
       -2    1    3    3    0  502  0.48214250317E+03 -0.16913522860E+03 -0.30637678595E+02  0.51186598468E+03  0.25500000920E-02 0.  1.
</event>
<event>
 5   0  0.5310275E-03  0.9679071E+03  0.7818609E-02  0.9344461E-01
       -1   -1    0    0    0  501  0.00000000000E+00  0.00000000000E+00  0.23017395500E+03  0.23017395506E+03  0.50400001928E-02 0.  1.
        1   -1    0    0  501    0  0.00000000000E+00  0.00000000000E+00 -0.10175393308E+04  0.10175393308E+04  0.50400001928E-02 0. -1.
    10030    2    1    2    0    0  0.00000000000E+00  0.00000000000E+00 -0.78736537575E+03  0.12477132858E+04  0.96790712813E+03 0.  0.
        1    1    3    3  502    0  0.10749579733E+03 -0.46956760433E+03 -0.33374416863E+03  0.58603263698E+03  0.50400001928E-02 0.  1.
       -1    1    3    3    0  502 -0.10749579733E+03  0.46956760433E+03 -0.45362120712E+03  0.66168064885E+03  0.50400001928E-02 0. -1.
</event>
<event>
 5   0  0.9040674E-03  0.1006186E+04  0.7818609E-02  0.9301786E-01
        2   -1    0    0  501    0  0.00000000000E+00  0.00000000000E+00  0.12426281784E+04  0.12426281784E+04  0.25500000920E-02 0.  1.
       -2   -1    0    0    0  501  0.00000000000E+00  0.00000000000E+00 -0.20368342983E+03  0.20368342985E+03  0.25500000920E-02 0. -1.
    10030    2    1    2    0    0  0.00000000000E+00  0.00000000000E+00  0.10389447486E+04  0.14463116082E+04  0.10061864030E+04 0.  0.
        1    1    3    3  502    0 -0.22124636900E+03 -0.41340738105E+03  0.25737622233E+03  0.53488142457E+03  0.50400001928E-02 0. -1.
       -1    1    3    3    0  502  0.22124636900E+03  0.41340738105E+03  0.78156852622E+03  0.91143018367E+03  0.50400001928E-02 0.  1.
</event>
<event>
 5   0  0.5189877E-03  0.1036309E+04  0.7818609E-02  0.9269595E-01
        1   -1    0    0  501    0  0.00000000000E+00  0.00000000000E+00  0.86089195981E+03  0.86089195982E+03  0.50400001928E-02 0. -1.
       -1   -1    0    0    0  501  0.00000000000E+00  0.00000000000E+00 -0.31186714254E+03  0.31186714258E+03  0.50400001928E-02 0.  1.
    10030    2    1    2    0    0  0.00000000000E+00  0.00000000000E+00  0.54902481727E+03  0.11727591024E+04  0.10363086713E+04 0.  0.
        3    1    3    3  502    0  0.36877024225E+03  0.12052364890E+02 -0.13718391049E+03  0.39364474666E+03  0.10100000352E+00 0.  1.
       -3    1    3    3    0  502 -0.36877024225E+03 -0.12052364890E+02  0.68620872776E+03  0.77911435574E+03  0.10100000352E+00 0. -1.
</event>
<event>
 5   0  0.5201968E-03  0.9894040E+03  0.7818609E-02  0.9320243E-01
        1   -1    0    0  501    0  0.00000000000E+00  0.00000000000E+00  0.23101172913E+04  0.23101172913E+04  0.50400001928E-02 0. -1.
       -1   -1    0    0    0  501  0.00000000000E+00  0.00000000000E+00 -0.10593837565E+03  0.10593837577E+03  0.50400001928E-02 0.  1.
    10030    2    1    2    0    0  0.00000000000E+00  0.00000000000E+00  0.22041789157E+04  0.24160556671E+04  0.98940400962E+03 0.  0.
        2    1    3    3  502    0  0.15262720210E+03 -0.35154712377E+03  0.18659478694E+04  0.19048994447E+04  0.25500000920E-02 0. -1.
       -2    1    3    3    0  502 -0.15262720210E+03  0.35154712377E+03  0.33823104630E+03  0.51115622244E+03  0.25500000920E-02 0.  1.
</event>
<event>
 5   0  0.5349685E-03  0.1002159E+04  0.7818609E-02  0.9306180E-01
       -1   -1    0    0    0  501  0.00000000000E+00  0.00000000000E+00  0.33253477788E+03  0.33253477791E+03  0.50400001928E-02 0. -1.
        1   -1    0    0  501    0  0.00000000000E+00  0.00000000000E+00 -0.75505051719E+03  0.75505051721E+03  0.50400001928E-02 0.  1.
    10030    2    1    2    0    0  0.00000000000E+00  0.00000000000E+00 -0.42251573931E+03  0.10875852951E+04  0.10021587819E+04 0.  0.
        4    1    3    3  502    0 -0.21432197109E+03 -0.20223138442E+03  0.22856334985E+03  0.37292661199E+03  0.12699999809E+01 0. -1.
       -4    1    3    3    0  502  0.21432197109E+03  0.20223138442E+03 -0.65107908916E+03  0.71465868313E+03  0.12699999809E+01 0.  1.
</event>
<event>
 5   0  0.8875655E-03  0.1031003E+04  0.7818609E-02  0.9275180E-01
       -2   -1    0    0    0  501  0.00000000000E+00  0.00000000000E+00  0.22373914549E+03  0.22373914550E+03  0.25500000920E-02 0. -1.
        2   -1    0    0  501    0  0.00000000000E+00  0.00000000000E+00 -0.11877305871E+04  0.11877305871E+04  0.25500000920E-02 0.  1.
    10030    2    1    2    0    0  0.00000000000E+00  0.00000000000E+00 -0.96399144164E+03  0.14114697326E+04  0.10310030585E+04 0.  0.
        4    1    3    3  502    0  0.21054378767E+03  0.25269148901E+03 -0.10254119293E+04  0.10768718182E+04  0.12699999809E+01 0.  1.
       -4    1    3    3    0  502 -0.21054378767E+03 -0.25269148901E+03  0.61420487669E+02  0.33459791444E+03  0.12699999809E+01 0. -1.
</event>
<event>
 5   0  0.5072205E-03  0.9976241E+03  0.7818609E-02  0.9311154E-01
       -1   -1    0    0    0  501  0.00000000000E+00  0.00000000000E+00  0.37132163298E+03  0.37132163301E+03  0.50400001928E-02 0. -1.
        1   -1    0    0  501    0  0.00000000000E+00  0.00000000000E+00 -0.67007531858E+03  0.67007531860E+03  0.50400001928E-02 0.  1.
    10030    2    1    2    0    0  0.00000000000E+00  0.00000000000E+00 -0.29875368560E+03  0.10413969516E+04  0.99762410063E+03 0.  0.
        5    1    3    3  502    0 -0.38633192597E+03  0.23726585307E+03  0.67699224503E+02  0.45842416718E+03  0.46999998093E+01 0. -1.
       -5    1    3    3    0  502  0.38633192597E+03 -0.23726585307E+03 -0.36645291011E+03  0.58297278443E+03  0.46999998093E+01 0.  1.
</event>
<event>
 5   0  0.5189877E-03  0.1023638E+04  0.7818609E-02  0.9282992E-01
        1   -1    0    0  501    0  0.00000000000E+00  0.00000000000E+00  0.25722794418E+04  0.25722794418E+04  0.50400001928E-02 0. -1.
       -1   -1    0    0    0  501  0.00000000000E+00  0.00000000000E+00 -0.10183917698E+03  0.10183917710E+03  0.50400001928E-02 0.  1.
    10030    2    1    2    0    0  0.00000000000E+00  0.00000000000E+00  0.24704402649E+04  0.26741186190E+04  0.10236382593E+04 0.  0.
        3    1    3    3  502    0  0.39766507896E+03  0.21228298863E+03  0.18684549870E+04  0.19220628582E+04  0.10100000352E+00 0. -1.
       -3    1    3    3    0  502 -0.39766507896E+03 -0.21228298863E+03  0.60198527784E+03  0.75205576071E+03  0.10100000352E+00 0.  1.
</event>
<event>
 5   0  0.5072205E-03  0.1001751E+04  0.7818609E-02  0.9306627E-01
       -1   -1    0    0    0  501  0.00000000000E+00  0.00000000000E+00  0.88187128858E+03  0.88187128859E+03  0.50400001928E-02 0. -1.
        1   -1    0    0  501    0  0.00000000000E+00  0.00000000000E+00 -0.28448153618E+03  0.28448153622E+03  0.50400001928E-02 0.  1.
    10030    2    1    2    0    0  0.00000000000E+00  0.00000000000E+00  0.59738975240E+03  0.11663528248E+04  0.10017506654E+04 0.  0.
        5    1    3    3  502    0 -0.44197773582E+03 -0.23450044292E+03  0.32522572392E+03  0.59676514492E+03  0.46999998093E+01 0. -1.
       -5    1    3    3    0  502  0.44197773582E+03  0.23450044292E+03  0.27216402849E+03  0.56958767990E+03  0.46999998093E+01 0.  1.
</event>
<event>
 5   0  0.8907355E-03  0.1006233E+04  0.7818609E-02  0.9301734E-01
       -2   -1    0    0    0  501  0.00000000000E+00  0.00000000000E+00  0.13823596692E+03  0.13823596694E+03  0.25500000920E-02 0. -1.
        2   -1    0    0  501    0  0.00000000000E+00  0.00000000000E+00 -0.18311183901E+04  0.18311183901E+04  0.25500000920E-02 0.  1.
    10030    2    1    2    0    0  0.00000000000E+00  0.00000000000E+00 -0.16928824232E+04  0.19693543571E+04  0.10062334147E+04 0.  0.
        5    1    3    3  502    0 -0.34940798816E+03 -0.33982064336E+03 -0.10904217038E+04  0.11944059586E+04  0.46999998093E+01 0.  1.
       -5    1    3    3    0  502  0.34940798816E+03  0.33982064336E+03 -0.60246071938E+03  0.77494839844E+03  0.46999998093E+01 0. -1.
</event>
<event>
 5   0  0.9040674E-03  0.9965007E+03  0.7818609E-02  0.9312391E-01
       -2   -1    0    0    0  501  0.00000000000E+00  0.00000000000E+00  0.22209628366E+03  0.22209628368E+03  0.25500000920E-02 0.  1.
        2   -1    0    0  501    0  0.00000000000E+00  0.00000000000E+00 -0.11177738434E+04  0.11177738434E+04  0.25500000920E-02 0. -1.
    10030    2    1    2    0    0  0.00000000000E+00  0.00000000000E+00 -0.89567755974E+03  0.13398701271E+04  0.99650071069E+03 0.  0.
        1    1    3    3  502    0  0.91576361127E+01  0.45326708117E+03 -0.16993584924E+03  0.48416226831E+03  0.50400001928E-02 0.  1.
       -1    1    3    3    0  502 -0.91576361127E+01 -0.45326708117E+03 -0.72574171050E+03  0.85570785877E+03  0.50400001928E-02 0. -1.
</event>
<event>
 5   0  0.5201968E-03  0.1006813E+04  0.7818609E-02  0.9301103E-01
       -1   -1    0    0    0  501  0.00000000000E+00  0.00000000000E+00  0.64605509324E+03  0.64605509326E+03  0.50400001928E-02 0. -1.
        1   -1    0    0  501    0  0.00000000000E+00  0.00000000000E+00 -0.39225489559E+03  0.39225489563E+03  0.50400001928E-02 0.  1.
    10030    2    1    2    0    0  0.00000000000E+00  0.00000000000E+00  0.25380019764E+03  0.10383099889E+04  0.10068133356E+04 0.  0.
        2    1    3    3  502    0 -0.36693077051E+03 -0.12683248891E+03 -0.20358339064E+03  0.43837297766E+03  0.25500000920E-02 0.  1.
       -2    1    3    3    0  502  0.36693077051E+03  0.12683248891E+03  0.45738358829E+03  0.59993701122E+03  0.25500000920E-02 0. -1.
</event>
<event>
 5   0  0.3513625E-03  0.1000867E+04  0.7818609E-02  0.9307594E-01
        4   -1    0    0  501    0  0.00000000000E+00  0.00000000000E+00  0.40796853572E+03  0.40797051246E+03  0.12699999809E+01 0.  1.
       -4   -1    0    0    0  501  0.00000000000E+00  0.00000000000E+00 -0.61385121134E+03  0.61385252510E+03  0.12699999809E+01 0. -1.
    10030    2    1    2    0    0  0.00000000000E+00  0.00000000000E+00 -0.20588267563E+03  0.10218230376E+04  0.10008669462E+04 0.  0.
        2    1    3    3  502    0 -0.35750775955E+03  0.26058964401E+03 -0.34175114010E+03  0.55902826625E+03  0.25500000920E-02 0. -1.
       -2    1    3    3    0  502  0.35750775955E+03 -0.26058964401E+03  0.13586846447E+03  0.46279477130E+03  0.25500000920E-02 0.  1.
</event>
<event>
 5   0  0.9040674E-03  0.9994364E+03  0.7818609E-02  0.9309163E-01
       -2   -1    0    0    0  501  0.00000000000E+00  0.00000000000E+00  0.24406419113E+03  0.24406419114E+03  0.25500000920E-02 0.  1.
        2   -1    0    0  501    0  0.00000000000E+00  0.00000000000E+00 -0.10231663270E+04  0.10231663270E+04  0.25500000920E-02 0. -1.
    10030    2    1    2    0    0  0.00000000000E+00  0.00000000000E+00 -0.77910213585E+03  0.12672305181E+04  0.99943636515E+03 0.  0.
        1    1    3    3  502    0  0.22585752199E+03 -0.41569072827E+02 -0.95229401216E+03  0.97959353493E+03  0.50400001928E-02 0. -1.
       -1    1    3    3    0  502 -0.22585752199E+03  0.41569072827E+02  0.17319187631E+03  0.28763698319E+03  0.50400001928E-02 0.  1.
</event>
<event>
 5   0  0.3513625E-03  0.1002592E+04  0.7818609E-02  0.9305707E-01
        3   -1    0    0  501    0  0.00000000000E+00  0.00000000000E+00  0.66100375735E+03  0.66100376507E+03  0.10100000352E+00 0.  1.
       -3   -1    0    0    0  501  0.00000000000E+00  0.00000000000E+00 -0.38017561676E+03  0.38017563017E+03  0.10100000352E+00 0. -1.
    10030    2    1    2    0    0  0.00000000000E+00  0.00000000000E+00  0.28082814059E+03  0.10411793952E+04  0.10025916858E+04 0.  0.
        2    1    3    3  502    0 -0.11468989899E+03 -0.19513090934E+03 -0.32409043571E+03  0.39530299168E+03  0.25500000920E-02 0. -1.
       -2    1    3    3    0  502  0.11468989899E+03  0.19513090934E+03  0.60491857630E+03  0.64587640356E+03  0.25500000920E-02 0.  1.
</event>
<event>
 5   0  0.9040674E-03  0.1002504E+04  0.7818609E-02  0.9305803E-01
        2   -1    0    0  501    0  0.00000000000E+00  0.00000000000E+00  0.35926300594E+03  0.35926300595E+03  0.25500000920E-02 0. -1.
       -2   -1    0    0    0  501  0.00000000000E+00  0.00000000000E+00 -0.69935847034E+03  0.69935847034E+03  0.25500000920E-02 0.  1.
    10030    2    1    2    0    0  0.00000000000E+00  0.00000000000E+00 -0.34009546440E+03  0.10586214763E+04  0.10025041173E+04 0.  0.
        1    1    3    3  502    0  0.32552334708E+03  0.23602992552E+03 -0.48609740129E+03  0.63084566955E+03  0.50400001928E-02 0.  1.
       -1    1    3    3    0  502 -0.32552334708E+03 -0.23602992552E+03  0.14600193689E+03  0.42777580674E+03  0.50400001928E-02 0. -1.
</event>
<event>
 5   0  0.9243773E-03  0.9522436E+03  0.7818609E-02  0.9362532E-01
        2   -1    0    0  501    0  0.00000000000E+00  0.00000000000E+00  0.54972887216E+03  0.54972887217E+03  0.25500000920E-02 0. -1.
       -2   -1    0    0    0  501  0.00000000000E+00  0.00000000000E+00 -0.41237049727E+03  0.41237049728E+03  0.25500000920E-02 0.  1.
    10030    2    1    2    0    0  0.00000000000E+00  0.00000000000E+00  0.13735837489E+03  0.96209936945E+03  0.95224359989E+03 0.  0.
        3    1    3    3  502    0 -0.73545088717E+02 -0.26346421216E+03 -0.32505889017E+03  0.42483592532E+03  0.10100000352E+00 0.  1.
       -3    1    3    3    0  502  0.73545088717E+02  0.26346421216E+03  0.46241726506E+03  0.53726344412E+03  0.10100000352E+00 0. -1.
</event>
<event>
 5   0  0.5349685E-03  0.9886385E+03  0.7818609E-02  0.9321094E-01
        1   -1    0    0  501    0  0.00000000000E+00  0.00000000000E+00  0.18942072228E+03  0.18942072235E+03  0.50400001928E-02 0.  1.
       -1   -1    0    0    0  501  0.00000000000E+00  0.00000000000E+00 -0.12899936572E+04  0.12899936572E+04  0.50400001928E-02 0. -1.
    10030    2    1    2    0    0  0.00000000000E+00  0.00000000000E+00 -0.11005729349E+04  0.14794143795E+04  0.98863851905E+03 0.  0.
        4    1    3    3  502    0  0.25867206549E+02 -0.72086420693E+02 -0.12810590643E+04  0.12833469926E+04  0.12699999809E+01 0. -1.
       -4    1    3    3    0  502 -0.25867206549E+02  0.72086420693E+02  0.18048612936E+03  0.19606738692E+03  0.12699999809E+01 0.  1.
</event>
<event>
 5   0  0.5349685E-03  0.1000639E+04  0.7818609E-02  0.9307844E-01
       -1   -1    0    0    0  501  0.00000000000E+00  0.00000000000E+00  0.36127904082E+03  0.36127904085E+03  0.50400001928E-02 0. -1.
        1   -1    0    0  501    0  0.00000000000E+00  0.00000000000E+00 -0.69287060519E+03  0.69287060521E+03  0.50400001928E-02 0.  1.
    10030    2    1    2    0    0  0.00000000000E+00  0.00000000000E+00 -0.33159156437E+03  0.10541496461E+04  0.10006390512E+04 0.  0.
        4    1    3    3  502    0  0.42899025126E+03  0.25293777484E+03 -0.21640500399E+03  0.54299437591E+03  0.12699999809E+01 0.  1.
       -4    1    3    3    0  502 -0.42899025126E+03 -0.25293777484E+03 -0.11518656038E+03  0.51115527016E+03  0.12699999809E+01 0. -1.
</event>
<event>
 5   0  0.5310275E-03  0.1016081E+04  0.7818609E-02  0.9291081E-01
       -1   -1    0    0    0  501  0.00000000000E+00  0.00000000000E+00  0.44510947298E+03  0.44510947301E+03  0.50400001928E-02 0. -1.
        1   -1    0    0  501    0  0.00000000000E+00  0.00000000000E+00 -0.57986899447E+03  0.57986899449E+03  0.50400001928E-02 0.  1.
    10030    2    1    2    0    0  0.00000000000E+00  0.00000000000E+00 -0.13475952149E+03  0.10249784675E+04  0.10160810648E+04 0.  0.
        1    1    3    3  502    0 -0.11693781718E+03 -0.46799513240E+03 -0.22818481743E+03  0.53363115348E+03  0.50400001928E-02 0.  1.
       -1    1    3    3    0  502  0.11693781718E+03  0.46799513240E+03  0.93425295944E+02  0.49134731401E+03  0.50400001928E-02 0. -1.
</event>
<event>
 5   0  0.8907355E-03  0.9970132E+03  0.7818609E-02  0.9311827E-01
       -2   -1    0    0    0  501  0.00000000000E+00  0.00000000000E+00  0.19992904745E+03  0.19992904747E+03  0.25500000920E-02 0. -1.
        2   -1    0    0  501    0  0.00000000000E+00  0.00000000000E+00 -0.12429849919E+04  0.12429849919E+04  0.25500000920E-02 0.  1.
    10030    2    1    2    0    0  0.00000000000E+00  0.00000000000E+00 -0.10430559445E+04  0.14429140394E+04  0.99701315025E+03 0.  0.
        5    1    3    3  502    0 -0.24853116843E+03  0.36661697102E+03 -0.19052190033E+03  0.48217883573E+03  0.46999998093E+01 0. -1.
       -5    1    3    3    0  502  0.24853116843E+03 -0.36661697102E+03 -0.85253404414E+03  0.96073520366E+03  0.46999998093E+01 0.  1.
</event>
<event>
 5   0  0.5310275E-03  0.1009996E+04  0.7818609E-02  0.9297649E-01
       -1   -1    0    0    0  501  0.00000000000E+00  0.00000000000E+00  0.90773209857E+03  0.90773209858E+03  0.50400001928E-02 0.  1.
        1   -1    0    0  501    0  0.00000000000E+00  0.00000000000E+00 -0.28094532083E+03  0.28094532087E+03  0.50400001928E-02 0. -1.
    10030    2    1    2    0    0  0.00000000000E+00  0.00000000000E+00  0.62678677774E+03  0.11886774195E+04  0.10099962093E+04 0.  0.
        1    1    3    3  502    0 -0.18334401950E+03  0.45822509695E+03  0.43926153487E+03  0.66070868392E+03  0.50400001928E-02 0. -1.
       -1    1    3    3    0  502  0.18334401950E+03 -0.45822509695E+03  0.18752524287E+03  0.52796873553E+03  0.50400001928E-02 0.  1.
</event>
<event>
 5   0  0.3513625E-03  0.9764152E+03  0.7818609E-02  0.9334797E-01
        3   -1    0    0  501    0  0.00000000000E+00  0.00000000000E+00  0.71396956544E+03  0.71396957258E+03  0.10100000352E+00 0.  1.
       -3   -1    0    0    0  501  0.00000000000E+00  0.00000000000E+00 -0.33383306674E+03  0.33383308202E+03  0.10100000352E+00 0. -1.
    10030    2    1    2    0    0  0.00000000000E+00  0.00000000000E+00  0.38013649870E+03  0.10478026546E+04  0.97641520130E+03 0.  0.
        4    1    3    3  502    0  0.11305109426E+03  0.38684302673E+03  0.48574310864E+03  0.63117038724E+03  0.12699999809E+01 0.  1.
       -4    1    3    3    0  502 -0.11305109426E+03 -0.38684302673E+03 -0.10560660994E+03  0.41663226736E+03  0.12699999809E+01 0. -1.
</event>
<event>
 5   0  0.8907355E-03  0.8568479E+03  0.7818609E-02  0.9481192E-01
       -2   -1    0    0    0  501  0.00000000000E+00  0.00000000000E+00  0.22779661807E+03  0.22779661809E+03  0.25500000920E-02 0.  1.
        2   -1    0    0  501    0  0.00000000000E+00  0.00000000000E+00 -0.80574984490E+03  0.80574984491E+03  0.25500000920E-02 0. -1.
    10030    2    1    2    0    0  0.00000000000E+00  0.00000000000E+00 -0.57795322683E+03  0.10335464630E+04  0.85684792044E+03 0.  0.
        5    1    3    3  502    0 -0.15691880531E+03 -0.43290250807E+02 -0.76696135886E+03  0.78405954701E+03  0.46999998093E+01 0. -1.
       -5    1    3    3    0  502  0.15691880531E+03  0.43290250807E+02  0.18900813203E+03  0.24948691598E+03  0.46999998093E+01 0.  1.
</event>
<event>
 5   0  0.9040674E-03  0.1002703E+04  0.7818609E-02  0.9305585E-01
        2   -1    0    0  501    0  0.00000000000E+00  0.00000000000E+00  0.11017875651E+04  0.11017875651E+04  0.25500000920E-02 0. -1.
       -2   -1    0    0    0  501  0.00000000000E+00  0.00000000000E+00 -0.22813242748E+03  0.22813242749E+03  0.25500000920E-02 0.  1.
    10030    2    1    2    0    0  0.00000000000E+00  0.00000000000E+00  0.87365513766E+03  0.13299199926E+04  0.10027032897E+04 0.  0.
        1    1    3    3  502    0  0.32444774694E+03 -0.26157305339E+03  0.67194843204E+02  0.42213972774E+03  0.50400001928E-02 0.  1.
       -1    1    3    3    0  502 -0.32444774694E+03  0.26157305339E+03  0.80646029446E+03  0.90778026489E+03  0.50400001928E-02 0. -1.
</event>
<event>
 5   0  0.8875655E-03  0.1012676E+04  0.7818609E-02  0.9294751E-01
       -2   -1    0    0    0  501  0.00000000000E+00  0.00000000000E+00  0.40892424101E+03  0.40892424102E+03  0.25500000920E-02 0.  1.
        2   -1    0    0  501    0  0.00000000000E+00  0.00000000000E+00 -0.62695719730E+03  0.62695719730E+03  0.25500000920E-02 0. -1.
    10030    2    1    2    0    0  0.00000000000E+00  0.00000000000E+00 -0.21803295629E+03  0.10358814383E+04  0.10126756560E+04 0.  0.
        4    1    3    3  502    0  0.13762056770E+03  0.43000233719E+03 -0.34347382878E+03  0.56728944517E+03  0.12699999809E+01 0. -1.
       -4    1    3    3    0  502 -0.13762056770E+03 -0.43000233719E+03  0.12544087250E+03  0.46859199314E+03  0.12699999809E+01 0.  1.
</event>
<event>
 5   0  0.8907355E-03  0.1009550E+04  0.7818609E-02  0.9298132E-01
        2   -1    0    0  501    0  0.00000000000E+00  0.00000000000E+00  0.86135220061E+03  0.86135220061E+03  0.25500000920E-02 0. -1.
       -2   -1    0    0    0  501  0.00000000000E+00  0.00000000000E+00 -0.29581134409E+03  0.29581134410E+03  0.25500000920E-02 0.  1.
    10030    2    1    2    0    0  0.00000000000E+00  0.00000000000E+00  0.56554085652E+03  0.11571635447E+04  0.10095499041E+04 0.  0.
        5    1    3    3  502    0 -0.37556607789E+03  0.48884323754E+02  0.66522949912E+03  0.76550109894E+03  0.46999998093E+01 0. -1.
       -5    1    3    3    0  502  0.37556607789E+03 -0.48884323754E+02 -0.99688642606E+02  0.39166244578E+03  0.46999998093E+01 0.  1.
</event>
<event>
 5   0  0.5349685E-03  0.8009757E+03  0.7818609E-02  0.9558606E-01
        1   -1    0    0  501    0  0.00000000000E+00  0.00000000000E+00  0.83098745151E+03  0.83098745153E+03  0.50400001928E-02 0.  1.
       -1   -1    0    0    0  501  0.00000000000E+00  0.00000000000E+00 -0.19301197478E+03  0.19301197485E+03  0.50400001928E-02 0. -1.
    10030    2    1    2    0    0  0.00000000000E+00  0.00000000000E+00  0.63797547673E+03  0.10239994264E+04  0.80097572767E+03 0.  0.
        4    1    3    3  502    0 -0.81451437728E+02 -0.22724260773E+03 -0.89544120006E+02  0.25747485664E+03  0.12699999809E+01 0. -1.
       -4    1    3    3    0  502  0.81451437728E+02  0.22724260773E+03  0.72751959674E+03  0.76652456974E+03  0.12699999809E+01 0.  1.
</event>
<event>
 5   0  0.9040674E-03  0.9992364E+03  0.7818609E-02  0.9309383E-01
        2   -1    0    0  501    0  0.00000000000E+00  0.00000000000E+00  0.20705692354E+04  0.20705692354E+04  0.25500000920E-02 0.  1.
       -2   -1    0    0    0  501  0.00000000000E+00  0.00000000000E+00 -0.12055541607E+03  0.12055541609E+03  0.25500000920E-02 0. -1.
    10030    2    1    2    0    0  0.00000000000E+00  0.00000000000E+00  0.19500138193E+04  0.21911246515E+04  0.99923637984E+03 0.  0.
        1    1    3    3  502    0  0.23457063551E+02  0.49900479148E+03  0.99231751722E+03  0.11109680782E+04  0.50400001928E-02 0. -1.
       -1    1    3    3    0  502 -0.23457063551E+02 -0.49900479148E+03  0.95769630208E+03  0.10801565733E+04  0.50400001928E-02 0.  1.
</event>
<event>
 5   0  0.5349685E-03  0.9789228E+03  0.7818609E-02  0.9331969E-01
        1   -1    0    0  501    0  0.00000000000E+00  0.00000000000E+00  0.60185007228E+03  0.60185007230E+03  0.50400001928E-02 0. -1.
       -1   -1    0    0    0  501  0.00000000000E+00  0.00000000000E+00 -0.39806001271E+03  0.39806001274E+03  0.50400001928E-02 0.  1.
    10030    2    1    2    0    0  0.00000000000E+00  0.00000000000E+00  0.20379005957E+03  0.99991008504E+03  0.97892277008E+03 0.  0.
        4    1    3    3  502    0  0.18137219313E+03  0.26591040804E+03 -0.27474689813E+03  0.42319225947E+03  0.12699999809E+01 0.  1.
       -4    1    3    3    0  502 -0.18137219313E+03 -0.26591040804E+03  0.47853695771E+03  0.57671782557E+03  0.12699999809E+01 0. -1.
</event>
<event>
 5   0  0.5201968E-03  0.1008473E+04  0.7818609E-02  0.9299300E-01
       -1   -1    0    0    0  501  0.00000000000E+00  0.00000000000E+00  0.32232733395E+03  0.32232733399E+03  0.50400001928E-02 0.  1.
        1   -1    0    0  501    0  0.00000000000E+00  0.00000000000E+00 -0.78880804011E+03  0.78880804013E+03  0.50400001928E-02 0. -1.
    10030    2    1    2    0    0  0.00000000000E+00  0.00000000000E+00 -0.46648070616E+03  0.11111353741E+04  0.10084728903E+04 0.  0.
        2    1    3    3  502    0 -0.32164219400E+03 -0.14408746804E+03  0.16407960420E+03  0.38876344469E+03  0.25500000920E-02 0.  1.
       -2    1    3    3    0  502  0.32164219400E+03  0.14408746804E+03 -0.63056031036E+03  0.72237192942E+03  0.25500000920E-02 0. -1.
</event>
<event>
 5   0  0.3513625E-03  0.9821264E+03  0.7818609E-02  0.9328368E-01
       -4   -1    0    0    0  501  0.00000000000E+00  0.00000000000E+00  0.26186921906E+03  0.26187229863E+03  0.12699999809E+01 0. -1.
        4   -1    0    0  501    0  0.00000000000E+00  0.00000000000E+00 -0.92084415577E+03  0.92084503154E+03  0.12699999809E+01 0.  1.
    10030    2    1    2    0    0  0.00000000000E+00  0.00000000000E+00 -0.65897493671E+03  0.11827173302E+04  0.98212642560E+03 0.  0.
        1    1    3    3  502    0 -0.24444045015E+03  0.60398724974E+02  0.17821697523E+03  0.30848084209E+03  0.50400001928E-02 0. -1.
       -1    1    3    3    0  502  0.24444045015E+03 -0.60398724974E+02 -0.83719191194E+03  0.87423648808E+03  0.50400001928E-02 0.  1.
</event>
<event>
 5   0  0.5310275E-03  0.9923269E+03  0.7818609E-02  0.9317001E-01
        1   -1    0    0  501    0  0.00000000000E+00  0.00000000000E+00  0.11951711312E+04  0.11951711312E+04  0.50400001928E-02 0.  1.
       -1   -1    0    0    0  501  0.00000000000E+00  0.00000000000E+00 -0.20597734776E+03  0.20597734782E+03  0.50400001928E-02 0. -1.
    10030    2    1    2    0    0  0.00000000000E+00  0.00000000000E+00  0.98919378339E+03  0.14011484790E+04  0.99232692147E+03 0.  0.
        1    1    3    3  502    0  0.80917779512E+01  0.93219301190E+02 -0.19340662224E+03  0.21485212714E+03  0.50400001928E-02 0. -1.
       -1    1    3    3    0  502 -0.80917779512E+01 -0.93219301190E+02  0.11826004056E+04  0.11862963519E+04  0.50400001928E-02 0.  1.
</event>
<event>
 5   0  0.5349685E-03  0.9962373E+03  0.7818609E-02  0.9312681E-01
        1   -1    0    0  501    0  0.00000000000E+00  0.00000000000E+00  0.56174262191E+03  0.56174262193E+03  0.50400001928E-02 0.  1.
       -1   -1    0    0    0  501  0.00000000000E+00  0.00000000000E+00 -0.44170080646E+03  0.44170080649E+03  0.50400001928E-02 0. -1.
    10030    2    1    2    0    0  0.00000000000E+00  0.00000000000E+00  0.12004181545E+03  0.10034434284E+04  0.99623725918E+03 0.  0.
        4    1    3    3  502    0  0.21473245205E+03 -0.36836290009E+03  0.31940903467E+03  0.53275228433E+03  0.12699999809E+01 0.  1.
       -4    1    3    3    0  502 -0.21473245205E+03  0.36836290009E+03 -0.19936721922E+03  0.47069114409E+03  0.12699999809E+01 0. -1.
</event>
<event>
 5   0  0.8875655E-03  0.1003657E+04  0.7818609E-02  0.9304543E-01
       -2   -1    0    0    0  501  0.00000000000E+00  0.00000000000E+00  0.20325979552E+03  0.20325979554E+03  0.25500000920E-02 0.  1.
        2   -1    0    0  501    0  0.00000000000E+00  0.00000000000E+00 -0.12389660848E+04  0.12389660848E+04  0.25500000920E-02 0. -1.
    10030    2    1    2    0    0  0.00000000000E+00  0.00000000000E+00 -0.10357062893E+04  0.14422258804E+04  0.10036572982E+04 0.  0.
        4    1    3    3  502    0 -0.14229170313E+03 -0.46097161338E+03 -0.71638725701E+03  0.86368632734E+03  0.12699999809E+01 0. -1.
       -4    1    3    3    0  502  0.14229170313E+03  0.46097161338E+03 -0.31931903228E+03  0.57853955301E+03  0.12699999809E+01 0.  1.
</event>
<event>
 5   0  0.8875655E-03  0.9876446E+03  0.7818609E-02  0.9322201E-01
        2   -1    0    0  501    0  0.00000000000E+00  0.00000000000E+00  0.10515959163E+04  0.10515959163E+04  0.25500000920E-02 0. -1.
       -2   -1    0    0    0  501  0.00000000000E+00  0.00000000000E+00 -0.23189560995E+03  0.23189560996E+03  0.25500000920E-02 0.  1.
    10030    2    1    2    0    0  0.00000000000E+00  0.00000000000E+00  0.81970030636E+03  0.12834915263E+04  0.98764462524E+03 0.  0.
        4    1    3    3  502    0  0.44804470121E+03 -0.29200199136E+02  0.14269218376E+03  0.47112565004E+03  0.12699999809E+01 0.  1.
       -4    1    3    3    0  502 -0.44804470121E+03  0.29200199136E+02  0.67700812259E+03  0.81236587624E+03  0.12699999809E+01 0. -1.
</event>
<event>
 5   0  0.5189877E-03  0.1003050E+04  0.7818609E-02  0.9305206E-01
       -1   -1    0    0    0  501  0.00000000000E+00  0.00000000000E+00  0.45175904482E+03  0.45175904485E+03  0.50400001928E-02 0. -1.
        1   -1    0    0  501    0  0.00000000000E+00  0.00000000000E+00 -0.55677354039E+03  0.55677354041E+03  0.50400001928E-02 0.  1.
    10030    2    1    2    0    0  0.00000000000E+00  0.00000000000E+00 -0.10501449557E+03  0.10085325853E+04  0.10030503134E+04 0.  0.
        3    1    3    3  502    0 -0.15493918831E+03 -0.25459550418E+03 -0.45807579095E+03  0.54649653546E+03  0.10100000352E+00 0.  1.
       -3    1    3    3    0  502  0.15493918831E+03  0.25459550418E+03  0.35306129537E+03  0.46203604980E+03  0.10100000352E+00 0. -1.
</event>
<event>
 5   0  0.8968798E-03  0.9603025E+03  0.7818609E-02  0.9353189E-01
        2   -1    0    0  501    0  0.00000000000E+00  0.00000000000E+00  0.15558001484E+04  0.15558001484E+04  0.25500000920E-02 0. -1.
       -2   -1    0    0    0  501  0.00000000000E+00  0.00000000000E+00 -0.14818433863E+03  0.14818433865E+03  0.25500000920E-02 0.  1.
    10030    2    1    2    0    0  0.00000000000E+00  0.00000000000E+00  0.14076158098E+04  0.17039844871E+04  0.96030248579E+03 0.  0.
        2    1    3    3  502    0 -0.36475980171E+03 -0.20813437280E+03  0.29079902216E+03  0.51081670037E+03  0.25500000920E-02 0.  1.
       -2    1    3    3    0  502  0.36475980171E+03  0.20813437280E+03  0.11168167876E+04  0.11931677867E+04  0.25500000920E-02 0. -1.
</event>
<event>
 5   0  0.5072205E-03  0.1019038E+04  0.7818609E-02  0.9287907E-01
       -1   -1    0    0    0  501  0.00000000000E+00  0.00000000000E+00  0.77562669801E+03  0.77562669803E+03  0.50400001928E-02 0.  1.
        1   -1    0    0  501    0  0.00000000000E+00  0.00000000000E+00 -0.33470974477E+03  0.33470974481E+03  0.50400001928E-02 0. -1.
    10030    2    1    2    0    0  0.00000000000E+00  0.00000000000E+00  0.44091695324E+03  0.11103364428E+04  0.10190383980E+04 0.  0.
        5    1    3    3  502    0 -0.20083265638E+02  0.29393101786E+03  0.67337902014E+03  0.73502392858E+03  0.46999998093E+01 0.  1.
       -5    1    3    3    0  502  0.20083265638E+02 -0.29393101786E+03 -0.23246206690E+03  0.37531251426E+03  0.46999998093E+01 0. -1.
</event>
<event>
 5   0  0.9040674E-03  0.1007223E+04  0.7818609E-02  0.9300658E-01
       -2   -1    0    0    0  501  0.00000000000E+00  0.00000000000E+00  0.14624509373E+03  0.14624509375E+03  0.25500000920E-02 0.  1.
        2   -1    0    0  501    0  0.00000000000E+00  0.00000000000E+00 -0.17342436479E+04  0.17342436479E+04  0.25500000920E-02 0. -1.
    10030    2    1    2    0    0  0.00000000000E+00  0.00000000000E+00 -0.15879985542E+04  0.18804887417E+04  0.10072231627E+04 0.  0.
        1    1    3    3  502    0  0.37643295311E+03 -0.20902125123E+03 -0.30631115189E+03  0.52841098915E+03  0.50400001928E-02 0.  1.
       -1    1    3    3    0  502 -0.37643295311E+03  0.20902125123E+03 -0.12816874023E+04  0.13520777525E+04  0.50400001928E-02 0. -1.
</event>
<event>
 5   0  0.8875655E-03  0.9985631E+03  0.7818609E-02  0.9310122E-01
        2   -1    0    0  501    0  0.00000000000E+00  0.00000000000E+00  0.19296160982E+03  0.19296160984E+03  0.25500000920E-02 0. -1.
       -2   -1    0    0    0  501  0.00000000000E+00  0.00000000000E+00 -0.12918739500E+04  0.12918739500E+04  0.25500000920E-02 0.  1.
    10030    2    1    2    0    0  0.00000000000E+00  0.00000000000E+00 -0.10989123402E+04  0.14848355599E+04  0.99856312190E+03 0.  0.
        4    1    3    3  502    0 -0.17188827404E+03  0.91417730417E+02 -0.12331039446E+04  0.12483788413E+04  0.12699999809E+01 0.  1.
       -4    1    3    3    0  502  0.17188827404E+03 -0.91417730417E+02  0.13419160440E+03  0.23645671862E+03  0.12699999809E+01 0. -1.
</event>
<event>
 5   0  0.5189877E-03  0.9963495E+03  0.7818609E-02  0.9312558E-01
        1   -1    0    0  501    0  0.00000000000E+00  0.00000000000E+00  0.13898202253E+04  0.13898202253E+04  0.50400001928E-02 0. -1.
       -1   -1    0    0    0  501  0.00000000000E+00  0.00000000000E+00 -0.17856848265E+03  0.17856848272E+03  0.50400001928E-02 0.  1.
    10030    2    1    2    0    0  0.00000000000E+00  0.00000000000E+00  0.12112517427E+04  0.15683887081E+04  0.99634951469E+03 0.  0.
        3    1    3    3  502    0 -0.41318160293E+03  0.17231104318E+03  0.26158481132E+03  0.51849470230E+03  0.10100000352E+00 0.  1.
       -3    1    3    3    0  502  0.41318160293E+03 -0.17231104318E+03  0.94966693135E+03  0.10498940058E+04  0.10100000352E+00 0. -1.
</event>
<event>
 5   0  0.8875655E-03  0.9871593E+03  0.7818609E-02  0.9322741E-01
        2   -1    0    0  501    0  0.00000000000E+00  0.00000000000E+00  0.43938209925E+03  0.43938209926E+03  0.25500000920E-02 0. -1.
       -2   -1    0    0    0  501  0.00000000000E+00  0.00000000000E+00 -0.55446240272E+03  0.55446240273E+03  0.25500000920E-02 0.  1.
    10030    2    1    2    0    0  0.00000000000E+00  0.00000000000E+00 -0.11508030347E+03  0.99384450199E+03  0.98715926673E+03 0.  0.
        4    1    3    3  502    0 -0.22506197820E+03  0.22168274338E+03 -0.43934861324E+03  0.54113302394E+03  0.12699999809E+01 0.  1.
       -4    1    3    3    0  502  0.22506197820E+03 -0.22168274338E+03  0.32426830977E+03  0.45271147805E+03  0.12699999809E+01 0. -1.
</event>
<event>
 5   0  0.8907355E-03  0.1010549E+04  0.7818609E-02  0.9297050E-01
        2   -1    0    0  501    0  0.00000000000E+00  0.00000000000E+00  0.20127991568E+04  0.20127991568E+04  0.25500000920E-02 0.  1.
       -2   -1    0    0    0  501  0.00000000000E+00  0.00000000000E+00 -0.12683940863E+03  0.12683940865E+03  0.25500000920E-02 0. -1.
    10030    2    1    2    0    0  0.00000000000E+00  0.00000000000E+00  0.18859597482E+04  0.21396385654E+04  0.10105488702E+04 0.  0.
        5    1    3    3  502    0 -0.43247719805E+03 -0.10552262693E+03  0.43699923054E+03  0.62382847732E+03  0.46999998093E+01 0. -1.
       -5    1    3    3    0  502  0.43247719805E+03  0.10552262693E+03  0.14489605176E+04  0.15158100881E+04  0.46999998093E+01 0.  1.
</event>
<event>
 5   0  0.9040674E-03  0.1000464E+04  0.7818609E-02  0.9308036E-01
        2   -1    0    0  501    0  0.00000000000E+00  0.00000000000E+00  0.54663650467E+03  0.54663650467E+03  0.25500000920E-02 0. -1.
       -2   -1    0    0    0  501  0.00000000000E+00  0.00000000000E+00 -0.45776685826E+03  0.45776685826E+03  0.25500000920E-02 0.  1.
    10030    2    1    2    0    0  0.00000000000E+00  0.00000000000E+00  0.88869646412E+02  0.10044033629E+04  0.10004640430E+04 0.  0.
        1    1    3    3  502    0 -0.37536575769E+03  0.32760666534E+03  0.89405128367E+02  0.50618065572E+03  0.50400001928E-02 0. -1.
       -1    1    3    3    0  502  0.37536575769E+03 -0.32760666534E+03 -0.53548195477E+00  0.49822270722E+03  0.50400001928E-02 0.  1.
</event>
<event>
 5   0  0.5349685E-03  0.9940618E+03  0.7818609E-02  0.9315082E-01
       -1   -1    0    0    0  501  0.00000000000E+00  0.00000000000E+00  0.12337877699E+03  0.12337877710E+03  0.50400001928E-02 0.  1.
        1   -1    0    0  501    0  0.00000000000E+00  0.00000000000E+00 -0.20022869855E+04  0.20022869855E+04  0.50400001928E-02 0. -1.
    10030    2    1    2    0    0  0.00000000000E+00  0.00000000000E+00 -0.18789082085E+04  0.21256657626E+04  0.99406180810E+03 0.  0.
        4    1    3    3  502    0  0.21787203477E+03 -0.38141866936E+03 -0.14367773992E+04  0.15024244849E+04  0.12699999809E+01 0. -1.
       -4    1    3    3    0  502 -0.21787203477E+03  0.38141866936E+03 -0.44213080927E+03  0.62324127773E+03  0.12699999809E+01 0.  1.
</event>
<event>
 5   0  0.9040674E-03  0.9956484E+03  0.7818609E-02  0.9313330E-01
       -2   -1    0    0    0  501  0.00000000000E+00  0.00000000000E+00  0.21645642262E+03  0.21645642264E+03  0.25500000920E-02 0. -1.
        2   -1    0    0  501    0  0.00000000000E+00  0.00000000000E+00 -0.11449368646E+04  0.11449368646E+04  0.25500000920E-02 0.  1.
    10030    2    1    2    0    0  0.00000000000E+00  0.00000000000E+00 -0.92848044199E+03  0.13613932872E+04  0.99564840752E+03 0.  0.
        1    1    3    3  502    0  0.36375094085E+02  0.49504167128E+03 -0.41236158209E+03  0.64531502244E+03  0.50400001928E-02 0. -1.
       -1    1    3    3    0  502 -0.36375094085E+02 -0.49504167128E+03 -0.51611885990E+03  0.71607826481E+03  0.50400001928E-02 0.  1.
</event>
<event>
 5   0  0.5201968E-03  0.1000867E+04  0.7818609E-02  0.9307594E-01
        1   -1    0    0  501    0  0.00000000000E+00  0.00000000000E+00  0.11401651320E+04  0.11401651320E+04  0.50400001928E-02 0. -1.
       -1   -1    0    0    0  501  0.00000000000E+00  0.00000000000E+00 -0.21964690580E+03  0.21964690586E+03  0.50400001928E-02 0.  1.
    10030    2    1    2    0    0  0.00000000000E+00  0.00000000000E+00  0.92051822617E+03  0.13598120378E+04  0.10008671108E+04 0.  0.
        2    1    3    3  502    0 -0.31892181074E+01  0.48302673736E+03  0.63796897027E+03  0.80020585299E+03  0.25500000920E-02 0. -1.
       -2    1    3    3    0  502  0.31892181074E+01 -0.48302673736E+03  0.28254925590E+03  0.55960618486E+03  0.25500000920E-02 0.  1.
</event>
<event>
 5   0  0.9243773E-03  0.1001022E+04  0.7818609E-02  0.9307425E-01
       -2   -1    0    0    0  501  0.00000000000E+00  0.00000000000E+00  0.20914763907E+03  0.20914763909E+03  0.25500000920E-02 0.  1.
        2   -1    0    0  501    0  0.00000000000E+00  0.00000000000E+00 -0.11977725523E+04  0.11977725523E+04  0.25500000920E-02 0. -1.
    10030    2    1    2    0    0  0.00000000000E+00  0.00000000000E+00 -0.98862491321E+03  0.14069201914E+04  0.10010220806E+04 0.  0.
        3    1    3    3  502    0  0.40788295060E+03  0.20033517438E+03 -0.78915803550E+03  0.91064433160E+03  0.10100000352E+00 0. -1.
       -3    1    3    3    0  502 -0.40788295060E+03 -0.20033517438E+03 -0.19946687771E+03  0.49627585977E+03  0.10100000352E+00 0.  1.
</event>
<event>
 5   0  0.5349685E-03  0.9985444E+03  0.7818609E-02  0.9310143E-01
       -1   -1    0    0    0  501  0.00000000000E+00  0.00000000000E+00  0.32375032695E+03  0.32375032699E+03  0.50400001928E-02 0.  1.
        1   -1    0    0  501    0  0.00000000000E+00  0.00000000000E+00 -0.76995361336E+03  0.76995361337E+03  0.50400001928E-02 0. -1.
    10030    2    1    2    0    0  0.00000000000E+00  0.00000000000E+00 -0.44620328641E+03  0.10937039404E+04  0.99854440880E+03 0.  0.
        4    1    3    3  502    0 -0.40904988601E+03  0.22346675017E+03 -0.41907104991E+03  0.62680248520E+03  0.12699999809E+01 0. -1.
       -4    1    3    3    0  502  0.40904988601E+03 -0.22346675017E+03 -0.27132236496E+02  0.46690145516E+03  0.12699999809E+01 0.  1.
</event>
<event>
 5   0  0.5349685E-03  0.9901353E+03  0.7818609E-02  0.9319431E-01
        1   -1    0    0  501    0  0.00000000000E+00  0.00000000000E+00  0.10371022714E+04  0.10371022714E+04  0.50400001928E-02 0. -1.
       -1   -1    0    0    0  501  0.00000000000E+00  0.00000000000E+00 -0.23632384829E+03  0.23632384834E+03  0.50400001928E-02 0.  1.
    10030    2    1    2    0    0  0.00000000000E+00  0.00000000000E+00  0.80077842310E+03  0.12734261197E+04  0.99013534405E+03 0.  0.
        4    1    3    3  502    0 -0.91505026498E+02  0.24308586923E+03  0.94243133955E+03  0.97756961510E+03  0.12699999809E+01 0. -1.
       -4    1    3    3    0  502  0.91505026498E+02 -0.24308586923E+03 -0.14165291646E+03  0.29585650463E+03  0.12699999809E+01 0.  1.
</event>
<event>
 5   0  0.9040674E-03  0.1010853E+04  0.7818609E-02  0.9296721E-01
        2   -1    0    0  501    0  0.00000000000E+00  0.00000000000E+00  0.16058229538E+04  0.16058229538E+04  0.25500000920E-02 0. -1.
       -2   -1    0    0    0  501  0.00000000000E+00  0.00000000000E+00 -0.15908097313E+03  0.15908097315E+03  0.25500000920E-02 0.  1.
    10030    2    1    2    0    0  0.00000000000E+00  0.00000000000E+00  0.14467419806E+04  0.17649039269E+04  0.10108528640E+04 0.  0.
        1    1    3    3  502    0 -0.11346316706E+03  0.14607651334E+03  0.15446080155E+04  0.15556433266E+04  0.50400001928E-02 0. -1.
       -1    1    3    3    0  502  0.11346316706E+03 -0.14607651334E+03 -0.97866034886E+02  0.20926060030E+03  0.50400001928E-02 0.  1.
</event>
<event>
 5   0  0.8875655E-03  0.9989303E+03  0.7818609E-02  0.9309719E-01
        2   -1    0    0  501    0  0.00000000000E+00  0.00000000000E+00  0.12874990293E+04  0.12874990293E+04  0.25500000920E-02 0.  1.
       -2   -1    0    0    0  501  0.00000000000E+00  0.00000000000E+00 -0.19375971614E+03  0.19375971615E+03  0.25500000920E-02 0. -1.
    10030    2    1    2    0    0  0.00000000000E+00  0.00000000000E+00  0.10937393131E+04  0.14812587454E+04  0.99893032080E+03 0.  0.
        4    1    3    3  502    0  0.27805189291E+03 -0.23642497351E+03  0.10524615211E+04  0.11139508470E+04  0.12699999809E+01 0.  1.
       -4    1    3    3    0  502 -0.27805189291E+03  0.23642497351E+03  0.41277792077E+02  0.36730789846E+03  0.12699999809E+01 0. -1.
</event>
<event>
 5   0  0.5072205E-03  0.1012416E+04  0.7818609E-02  0.9295031E-01
        1   -1    0    0  501    0  0.00000000000E+00  0.00000000000E+00  0.29977840666E+03  0.29977840670E+03  0.50400001928E-02 0. -1.
       -1   -1    0    0    0  501  0.00000000000E+00  0.00000000000E+00 -0.85478577875E+03  0.85478577876E+03  0.50400001928E-02 0.  1.
    10030    2    1    2    0    0  0.00000000000E+00  0.00000000000E+00 -0.55500737209E+03  0.11545641855E+04  0.10124155645E+04 0.  0.
        5    1    3    3  502    0  0.29064134757E+03  0.85978341047E+02  0.18483129523E+03  0.35503431629E+03  0.46999998093E+01 0. -1.
       -5    1    3    3    0  502 -0.29064134757E+03 -0.85978341047E+02 -0.73983866732E+03  0.79952986918E+03  0.46999998093E+01 0.  1.
</event>
<event>
 5   0  0.9040674E-03  0.9929692E+03  0.7818609E-02  0.9316290E-01
        2   -1    0    0  501    0  0.00000000000E+00  0.00000000000E+00  0.15069268552E+04  0.15069268552E+04  0.25500000920E-02 0. -1.
       -2   -1    0    0    0  501  0.00000000000E+00  0.00000000000E+00 -0.16357593265E+03  0.16357593267E+03  0.25500000920E-02 0.  1.
    10030    2    1    2    0    0  0.00000000000E+00  0.00000000000E+00  0.13433509226E+04  0.16705027879E+04  0.99296921564E+03 0.  0.
        1    1    3    3  502    0 -0.45627468717E+03 -0.55709984836E+02  0.35601184207E+03  0.58140745117E+03  0.50400001928E-02 0.  1.
       -1    1    3    3    0  502  0.45627468717E+03  0.55709984836E+02  0.98733908051E+03  0.10890953367E+04  0.50400001928E-02 0. -1.
</event>
<event>
 5   0  0.9243773E-03  0.9898420E+03  0.7818609E-02  0.9319757E-01
       -2   -1    0    0    0  501  0.00000000000E+00  0.00000000000E+00  0.31005402153E+03  0.31005402154E+03  0.25500000920E-02 0. -1.
        2   -1    0    0  501    0  0.00000000000E+00  0.00000000000E+00 -0.79001325729E+03  0.79001325729E+03  0.25500000920E-02 0.  1.
    10030    2    1    2    0    0  0.00000000000E+00  0.00000000000E+00 -0.47995923576E+03  0.11000672788E+04  0.98984198232E+03 0.  0.
        3    1    3    3  502    0  0.43180379553E+03 -0.62762110920E+02 -0.49955493939E+03  0.66328632435E+03  0.10100000352E+00 0.  1.
       -3    1    3    3    0  502 -0.43180379553E+03  0.62762110920E+02  0.19595703630E+02  0.43678095448E+03  0.10100000352E+00 0. -1.
</event>
<event>
 5   0  0.5310275E-03  0.1000008E+04  0.7818609E-02  0.9308536E-01
       -1   -1    0    0    0  501  0.00000000000E+00  0.00000000000E+00  0.35517734829E+03  0.35517734833E+03  0.50400001928E-02 0. -1.
        1   -1    0    0  501    0  0.00000000000E+00  0.00000000000E+00 -0.70388543196E+03  0.70388543198E+03  0.50400001928E-02 0.  1.
    10030    2    1    2    0    0  0.00000000000E+00  0.00000000000E+00 -0.34870808367E+03  0.10590627803E+04  0.10000083225E+04 0.  0.
        1    1    3    3  502    0 -0.12044568217E+02 -0.88710319622E+02 -0.69532847873E+03  0.70106796089E+03  0.50400001928E-02 0.  1.
       -1    1    3    3    0  502  0.12044568217E+02  0.88710319622E+02  0.34662039506E+03  0.35799481942E+03  0.50400001928E-02 0. -1.
</event>
<event>
 5   0  0.5349685E-03  0.1005311E+04  0.7818609E-02  0.9302739E-01
        1   -1    0    0  501    0  0.00000000000E+00  0.00000000000E+00  0.10337051841E+04  0.10337051841E+04  0.50400001928E-02 0.  1.
       -1   -1    0    0    0  501  0.00000000000E+00  0.00000000000E+00 -0.24442435890E+03  0.24442435895E+03  0.50400001928E-02 0. -1.
    10030    2    1    2    0    0  0.00000000000E+00  0.00000000000E+00  0.78928082523E+03  0.12781295431E+04  0.10053113487E+04 0.  0.
        4    1    3    3  502    0 -0.12920497849E+03  0.21964959548E+03  0.94548742531E+03  0.97922824488E+03  0.12699999809E+01 0.  1.
       -4    1    3    3    0  502  0.12920497849E+03 -0.21964959548E+03 -0.15620660008E+03  0.29890129821E+03  0.12699999809E+01 0. -1.
</event>
<event>
 5   0  0.5189877E-03  0.1018961E+04  0.7818609E-02  0.9287990E-01
       -1   -1    0    0    0  501  0.00000000000E+00  0.00000000000E+00  0.64957901933E+03  0.64957901935E+03  0.50400001928E-02 0. -1.
        1   -1    0    0  501    0  0.00000000000E+00  0.00000000000E+00 -0.39959765084E+03  0.39959765087E+03  0.50400001928E-02 0.  1.
    10030    2    1    2    0    0  0.00000000000E+00  0.00000000000E+00  0.24998136849E+03  0.10491766702E+04  0.10189607454E+04 0.  0.
        3    1    3    3  502    0 -0.14438690163E+03  0.43195020880E+03  0.36010749403E+03  0.58060828250E+03  0.10100000352E+00 0. -1.
       -3    1    3    3    0  502  0.14438690163E+03 -0.43195020880E+03 -0.11012612554E+03  0.46856838773E+03  0.10100000352E+00 0.  1.
</event>
<event>
 5   0  0.5072205E-03  0.1010829E+04  0.7818609E-02  0.9296746E-01
       -1   -1    0    0    0  501  0.00000000000E+00  0.00000000000E+00  0.15630931892E+03  0.15630931900E+03  0.50400001928E-02 0.  1.
        1   -1    0    0  501    0  0.00000000000E+00  0.00000000000E+00 -0.16342215307E+04  0.16342215307E+04  0.50400001928E-02 0. -1.
    10030    2    1    2    0    0  0.00000000000E+00  0.00000000000E+00 -0.14779122117E+04  0.17905308497E+04  0.10108294703E+04 0.  0.
        5    1    3    3  502    0  0.40595852311E+02 -0.50345249648E+03 -0.70779220449E+03  0.86954260055E+03  0.46999998093E+01 0. -1.
       -5    1    3    3    0  502 -0.40595852311E+02  0.50345249648E+03 -0.77012000725E+03  0.92098824912E+03  0.46999998093E+01 0.  1.
</event>
<event>
 5   0  0.3513625E-03  0.1116572E+04  0.7818609E-02  0.9189189E-01
        3   -1    0    0  501    0  0.00000000000E+00  0.00000000000E+00  0.41346816472E+03  0.41346817706E+03  0.10100000352E+00 0. -1.
       -3   -1    0    0    0  501  0.00000000000E+00  0.00000000000E+00 -0.75382607702E+03  0.75382608379E+03  0.10100000352E+00 0.  1.
    10030    2    1    2    0    0  0.00000000000E+00  0.00000000000E+00 -0.34035791230E+03  0.11672942608E+04  0.11165717097E+04 0.  0.
        1    1    3    3  502    0  0.32390953081E+02  0.31259531447E+03  0.31221294994E+03  0.44299202093E+03  0.50400001928E-02 0. -1.
       -1    1    3    3    0  502 -0.32390953081E+02 -0.31259531447E+03 -0.65257086224E+03  0.72430223991E+03  0.50400001928E-02 0.  1.
</event>
<event>
 5   0  0.5189877E-03  0.1008863E+04  0.7818609E-02  0.9298877E-01
        1   -1    0    0  501    0  0.00000000000E+00  0.00000000000E+00  0.21669943102E+03  0.21669943108E+03  0.50400001928E-02 0. -1.
       -1   -1    0    0    0  501  0.00000000000E+00  0.00000000000E+00 -0.11742130946E+04  0.11742130946E+04  0.50400001928E-02 0.  1.
    10030    2    1    2    0    0  0.00000000000E+00  0.00000000000E+00 -0.95751366357E+03  0.13909125257E+04  0.10088633397E+04 0.  0.
        3    1    3    3  502    0 -0.11032321163E+03  0.64692351646E+02 -0.11514896336E+04  0.11585701091E+04  0.10100000352E+00 0.  1.
       -3    1    3    3    0  502  0.11032321163E+03 -0.64692351646E+02  0.19397597000E+03  0.23234241654E+03  0.10100000352E+00 0. -1.
</event>
<event>
 5   0  0.8875655E-03  0.9944593E+03  0.7818609E-02  0.9314643E-01
       -2   -1    0    0    0  501  0.00000000000E+00  0.00000000000E+00  0.18646248113E+03  0.18646248114E+03  0.25500000920E-02 0.  1.
        2   -1    0    0  501    0  0.00000000000E+00  0.00000000000E+00 -0.13259361092E+04  0.13259361092E+04  0.25500000920E-02 0. -1.
    10030    2    1    2    0    0  0.00000000000E+00  0.00000000000E+00 -0.11394736281E+04  0.15123985903E+04  0.99445932395E+03 0.  0.
        4    1    3    3  502    0  0.18176709368E+03 -0.30658612414E+02 -0.12720492772E+04  0.12853366109E+04  0.12699999809E+01 0. -1.
       -4    1    3    3    0  502 -0.18176709368E+03  0.30658612414E+02  0.13257564912E+03  0.22706197943E+03  0.12699999809E+01 0.  1.
</event>
<event>
 5   0  0.9040674E-03  0.1052552E+04  0.7818609E-02  0.9252714E-01
       -2   -1    0    0    0  501  0.00000000000E+00  0.00000000000E+00  0.13240705669E+03  0.13240705671E+03  0.25500000920E-02 0. -1.
        2   -1    0    0  501    0  0.00000000000E+00  0.00000000000E+00 -0.20917780924E+04  0.20917780924E+04  0.25500000920E-02 0.  1.
    10030    2    1    2    0    0  0.00000000000E+00  0.00000000000E+00 -0.19593710357E+04  0.22241851491E+04  0.10525515294E+04 0.  0.
        1    1    3    3  502    0  0.33488809760E+03  0.26820089478E+03 -0.33566602457E+03  0.54475080353E+03  0.50400001928E-02 0. -1.
       -1    1    3    3    0  502 -0.33488809760E+03 -0.26820089478E+03 -0.16237050112E+04  0.16794343456E+04  0.50400001928E-02 0.  1.
</event>
<event>
 5   0  0.5201968E-03  0.9818198E+03  0.7818609E-02  0.9328712E-01
        1   -1    0    0  501    0  0.00000000000E+00  0.00000000000E+00  0.11041364589E+04  0.11041364590E+04  0.50400001928E-02 0.  1.
       -1   -1    0    0    0  501  0.00000000000E+00  0.00000000000E+00 -0.21826335312E+03  0.21826335318E+03  0.50400001928E-02 0. -1.
    10030    2    1    2    0    0  0.00000000000E+00  0.00000000000E+00  0.88587310582E+03  0.13223998121E+04  0.98181979177E+03 0.  0.
        2    1    3    3  502    0  0.47879715983E+03 -0.61186028426E+02  0.56342136918E+03  0.74191245413E+03  0.25500000920E-02 0.  1.
       -2    1    3    3    0  502 -0.47879715983E+03  0.61186028426E+02  0.32245173664E+03  0.58048735801E+03  0.25500000920E-02 0. -1.
</event>
<event>
 5   0  0.8907355E-03  0.1003861E+04  0.7818609E-02  0.9304321E-01
        2   -1    0    0  501    0  0.00000000000E+00  0.00000000000E+00  0.19945986943E+04  0.19945986943E+04  0.25500000920E-02 0.  1.
       -2   -1    0    0    0  501  0.00000000000E+00  0.00000000000E+00 -0.12630816625E+03  0.12630816628E+03  0.25500000920E-02 0. -1.
    10030    2    1    2    0    0  0.00000000000E+00  0.00000000000E+00  0.18682905280E+04  0.21209068606E+04  0.10038607543E+04 0.  0.
        5    1    3    3  502    0  0.36995352281E+02 -0.83991276834E+02 -0.10838251524E+03  0.14209873428E+03  0.46999998093E+01 0. -1.
       -5    1    3    3    0  502 -0.36995352281E+02  0.83991276834E+02  0.19766730433E+04  0.19788081263E+04  0.46999998093E+01 0.  1.
</event>
<event>
 5   0  0.5201968E-03  0.9910134E+03  0.7818609E-02  0.9318456E-01
        1   -1    0    0  501    0  0.00000000000E+00  0.00000000000E+00  0.13406684606E+04  0.13406684606E+04  0.50400001928E-02 0. -1.
       -1   -1    0    0    0  501  0.00000000000E+00  0.00000000000E+00 -0.18313766327E+03  0.18313766334E+03  0.50400001928E-02 0.  1.
    10030    2    1    2    0    0  0.00000000000E+00  0.00000000000E+00  0.11575307973E+04  0.15238061239E+04  0.99101339879E+03 0.  0.
        2    1    3    3  502    0  0.34955062326E+03 -0.13655509457E+03  0.81244880917E+02  0.38397091395E+03  0.25500000920E-02 0. -1.
       -2    1    3    3    0  502 -0.34955062326E+03  0.13655509457E+03  0.10762859164E+04  0.11398352100E+04  0.25500000920E-02 0.  1.
</event>
<event>
 5   0  0.8968798E-03  0.1006062E+04  0.7818609E-02  0.9301921E-01
        2   -1    0    0  501    0  0.00000000000E+00  0.00000000000E+00  0.91249389988E+03  0.91249389989E+03  0.25500000920E-02 0. -1.
       -2   -1    0    0    0  501  0.00000000000E+00  0.00000000000E+00 -0.27730612898E+03  0.27730612899E+03  0.25500000920E-02 0.  1.
    10030    2    1    2    0    0  0.00000000000E+00  0.00000000000E+00  0.63518777090E+03  0.11898000289E+04  0.10060619287E+04 0.  0.
        2    1    3    3  502    0 -0.26806671885E+02  0.48197049856E+02  0.90890772921E+03  0.91057938341E+03  0.25500000920E-02 0. -1.
       -2    1    3    3    0  502  0.26806671885E+02 -0.48197049856E+02 -0.27371995831E+03  0.27922064547E+03  0.25500000920E-02 0.  1.
</event>
<event>
 5   0  0.9243773E-03  0.1042756E+04  0.7818609E-02  0.9262855E-01
        2   -1    0    0  501    0  0.00000000000E+00  0.00000000000E+00  0.11331285427E+04  0.11331285427E+04  0.25500000920E-02 0.  1.
       -2   -1    0    0    0  501  0.00000000000E+00  0.00000000000E+00 -0.23989763516E+03  0.23989763517E+03  0.25500000920E-02 0. -1.
    10030    2    1    2    0    0  0.00000000000E+00  0.00000000000E+00  0.89323090749E+03  0.13730261778E+04  0.10427556909E+04 0.  0.
        3    1    3    3  502    0 -0.32542665070E+03  0.30676260643E+03  0.93719809900E+02  0.45693458466E+03  0.10100000352E+00 0. -1.
       -3    1    3    3    0  502  0.32542665070E+03 -0.30676260643E+03  0.79951109759E+03  0.91609159317E+03  0.10100000352E+00 0.  1.
</event>
<event>
 5   0  0.3513625E-03  0.1008890E+04  0.7818609E-02  0.9298847E-01
        3   -1    0    0  501    0  0.00000000000E+00  0.00000000000E+00  0.69185231129E+03  0.69185231866E+03  0.10100000352E+00 0.  1.
       -3   -1    0    0    0  501  0.00000000000E+00  0.00000000000E+00 -0.36780239345E+03  0.36780240731E+03  0.10100000352E+00 0. -1.
    10030    2    1    2    0    0  0.00000000000E+00  0.00000000000E+00  0.32404991784E+03  0.10596547260E+04  0.10088903751E+04 0.  0.
        2    1    3    3  502    0  0.45007226643E+03  0.12000661006E+03  0.36541340656E+03  0.59202499032E+03  0.25500000920E-02 0. -1.
       -2    1    3    3    0  502 -0.45007226643E+03 -0.12000661006E+03 -0.41363488715E+02  0.46762973566E+03  0.25500000920E-02 0.  1.
</event>
<event>
 5   0  0.9040674E-03  0.1011156E+04  0.7818609E-02  0.9296393E-01
       -2   -1    0    0    0  501  0.00000000000E+00  0.00000000000E+00  0.10064709809E+03  0.10064709812E+03  0.25500000920E-02 0.  1.
        2   -1    0    0  501    0  0.00000000000E+00  0.00000000000E+00 -0.25396568785E+04  0.25396568785E+04  0.25500000920E-02 0. -1.
    10030    2    1    2    0    0  0.00000000000E+00  0.00000000000E+00 -0.24390097804E+04  0.26403039766E+04  0.10111559623E+04 0.  0.
        1    1    3    3  502    0  0.30292771056E+03  0.26417889696E+03 -0.20203030199E+04  0.20598980508E+04  0.50400001928E-02 0. -1.
       -1    1    3    3    0  502 -0.30292771056E+03 -0.26417889696E+03 -0.41870676053E+03  0.58040592585E+03  0.50400001928E-02 0.  1.
</event>
<event>
 5   0  0.8875655E-03  0.9107339E+03  0.7818609E-02  0.9412262E-01
       -2   -1    0    0    0  501  0.00000000000E+00  0.00000000000E+00  0.13458470262E+03  0.13458470264E+03  0.25500000920E-02 0.  1.
        2   -1    0    0  501    0  0.00000000000E+00  0.00000000000E+00 -0.15407327123E+04  0.15407327123E+04  0.25500000920E-02 0. -1.
    10030    2    1    2    0    0  0.00000000000E+00  0.00000000000E+00 -0.14061480097E+04  0.16753174149E+04  0.91073388851E+03 0.  0.
        4    1    3    3  502    0 -0.25712537909E+03 -0.12363825130E+03 -0.13559305030E+04  0.13856222499E+04  0.12699999809E+01 0. -1.
       -4    1    3    3    0  502  0.25712537909E+03  0.12363825130E+03 -0.50217506736E+02  0.28969516502E+03  0.12699999809E+01 0.  1.
</event>
<event>
 5   0  0.5072205E-03  0.9941365E+03  0.7818609E-02  0.9314999E-01
        1   -1    0    0  501    0  0.00000000000E+00  0.00000000000E+00  0.24211210977E+03  0.24211210982E+03  0.50400001928E-02 0.  1.
       -1   -1    0    0    0  501  0.00000000000E+00  0.00000000000E+00 -0.10205059632E+04  0.10205059632E+04  0.50400001928E-02 0. -1.
    10030    2    1    2    0    0  0.00000000000E+00  0.00000000000E+00 -0.77839385339E+03  0.12626180730E+04  0.99413651339E+03 0.  0.
        5    1    3    3  502    0 -0.45540467532E+03 -0.19897976407E+03 -0.39970067971E+03  0.63778451547E+03  0.46999998093E+01 0.  1.
       -5    1    3    3    0  502  0.45540467532E+03  0.19897976407E+03 -0.37869317368E+03  0.62483355752E+03  0.46999998093E+01 0. -1.
</event>
<event>
 5   0  0.5201968E-03  0.9615583E+03  0.7818609E-02  0.9351742E-01
        1   -1    0    0  501    0  0.00000000000E+00  0.00000000000E+00  0.92428691437E+03  0.92428691438E+03  0.50400001928E-02 0.  1.
       -1   -1    0    0    0  501  0.00000000000E+00  0.00000000000E+00 -0.25008315442E+03  0.25008315447E+03  0.50400001928E-02 0. -1.
    10030    2    1    2    0    0  0.00000000000E+00  0.00000000000E+00  0.67420375995E+03  0.11743700689E+04  0.96155829189E+03 0.  0.
        2    1    3    3  502    0  0.47951619467E+03  0.23813374317E+02  0.30606667322E+03  0.56936777763E+03  0.25500000920E-02 0. -1.
       -2    1    3    3    0  502 -0.47951619467E+03 -0.23813374317E+02  0.36813708673E+03  0.60500229122E+03  0.25500000920E-02 0.  1.
</event>
<event>
 5   0  0.5072205E-03  0.9899435E+03  0.7818609E-02  0.9319644E-01
        1   -1    0    0  501    0  0.00000000000E+00  0.00000000000E+00  0.50812825042E+03  0.50812825045E+03  0.50400001928E-02 0.  1.
       -1   -1    0    0    0  501  0.00000000000E+00  0.00000000000E+00 -0.48215586299E+03  0.48215586302E+03  0.50400001928E-02 0. -1.
    10030    2    1    2    0    0  0.00000000000E+00  0.00000000000E+00  0.25972387432E+02  0.99028411346E+03  0.98994346327E+03 0.  0.
        5    1    3    3  502    0  0.28281046577E+03  0.22384642975E+03 -0.32607872933E+03  0.48624933047E+03  0.46999998093E+01 0. -1.
       -5    1    3    3    0  502 -0.28281046577E+03 -0.22384642975E+03  0.35205111676E+03  0.50403478300E+03  0.46999998093E+01 0.  1.
</event>
<event>
 5   0  0.9243773E-03  0.9715454E+03  0.7818609E-02  0.9340316E-01
        2   -1    0    0  501    0  0.00000000000E+00  0.00000000000E+00  0.89071908836E+03  0.89071908837E+03  0.25500000920E-02 0.  1.
       -2   -1    0    0    0  501  0.00000000000E+00  0.00000000000E+00 -0.26492651458E+03  0.26492651459E+03  0.25500000920E-02 0. -1.
    10030    2    1    2    0    0  0.00000000000E+00  0.00000000000E+00  0.62579257379E+03  0.11556456030E+04  0.97154537425E+03 0.  0.
        3    1    3    3  502    0  0.38089269390E+02  0.24109995064E+02  0.88822575466E+03  0.88936892556E+03  0.10100000352E+00 0.  1.
       -3    1    3    3    0  502 -0.38089269390E+02 -0.24109995064E+02 -0.26243318087E+03  0.26627667740E+03  0.10100000352E+00 0. -1.
</event>
<event>
 5   0  0.8968798E-03  0.9911295E+03  0.7818609E-02  0.9318328E-01
       -2   -1    0    0    0  501  0.00000000000E+00  0.00000000000E+00  0.45899569349E+03  0.45899569349E+03  0.25500000920E-02 0. -1.
        2   -1    0    0  501    0  0.00000000000E+00  0.00000000000E+00 -0.53504729210E+03  0.53504729210E+03  0.25500000920E-02 0.  1.
    10030    2    1    2    0    0  0.00000000000E+00  0.00000000000E+00 -0.76051598611E+02  0.99404298560E+03  0.99112946256E+03 0.  0.
        2    1    3    3  502    0 -0.45248998460E+03 -0.92657395000E+02  0.14209004514E+03  0.48324130612E+03  0.25500000920E-02 0. -1.
       -2    1    3    3    0  502  0.45248998460E+03  0.92657395000E+02 -0.21814164375E+03  0.51080167947E+03  0.25500000920E-02 0.  1.
</event>
<event>
 5   0  0.8907355E-03  0.9984222E+03  0.7818609E-02  0.9310277E-01
        2   -1    0    0  501    0  0.00000000000E+00  0.00000000000E+00  0.41457140706E+03  0.41457140707E+03  0.25500000920E-02 0. -1.
       -2   -1    0    0    0  501  0.00000000000E+00  0.00000000000E+00 -0.60113102294E+03  0.60113102295E+03  0.25500000920E-02 0.  1.
    10030    2    1    2    0    0  0.00000000000E+00  0.00000000000E+00 -0.18655961588E+03  0.10157024300E+04  0.99842222334E+03 0.  0.
        5    1    3    3  502    0  0.11983261006E+03  0.21901953331E+03 -0.53303471678E+03  0.58862340226E+03  0.46999998093E+01 0.  1.
       -5    1    3    3    0  502 -0.11983261006E+03 -0.21901953331E+03  0.34647510090E+03  0.42707902775E+03  0.46999998093E+01 0. -1.
</event>
<event>
 5   0  0.5349685E-03  0.1017902E+04  0.7818609E-02  0.9289125E-01
        1   -1    0    0  501    0  0.00000000000E+00  0.00000000000E+00  0.18683174096E+04  0.18683174096E+04  0.50400001928E-02 0.  1.
       -1   -1    0    0    0  501  0.00000000000E+00  0.00000000000E+00 -0.13864406407E+03  0.13864406416E+03  0.50400001928E-02 0. -1.
    10030    2    1    2    0    0  0.00000000000E+00  0.00000000000E+00  0.17296733456E+04  0.20069614738E+04  0.10179019968E+04 0.  0.
        4    1    3    3  502    0  0.17777266017E+03 -0.28925970331E+03  0.11727871671E+03  0.35920774624E+03  0.12699999809E+01 0. -1.
       -4    1    3    3    0  502 -0.17777266017E+03  0.28925970331E+03  0.16123946288E+04  0.16477537276E+04  0.12699999809E+01 0.  1.
</event>
<event>
 5   0  0.5310275E-03  0.1001801E+04  0.7818609E-02  0.9306571E-01
       -1   -1    0    0    0  501  0.00000000000E+00  0.00000000000E+00  0.18295821245E+03  0.18295821252E+03  0.50400001928E-02 0. -1.
        1   -1    0    0  501    0  0.00000000000E+00  0.00000000000E+00 -0.13713596018E+04  0.13713596018E+04  0.50400001928E-02 0.  1.
    10030    2    1    2    0    0  0.00000000000E+00  0.00000000000E+00 -0.11884013893E+04  0.15543178143E+04  0.10018013804E+04 0.  0.
        1    1    3    3  502    0 -0.18168709684E+03 -0.20920828529E+02  0.12930427555E+03  0.22398097670E+03  0.50400001928E-02 0. -1.
       -1    1    3    3    0  502  0.18168709684E+03  0.20920828529E+02 -0.13177056649E+04  0.13303368376E+04  0.50400001928E-02 0.  1.
</event>
<event>
 5   0  0.8968798E-03  0.1000356E+04  0.7818609E-02  0.9308155E-01
       -2   -1    0    0    0  501  0.00000000000E+00  0.00000000000E+00  0.13743534404E+03  0.13743534406E+03  0.25500000920E-02 0. -1.
        2   -1    0    0  501    0  0.00000000000E+00  0.00000000000E+00 -0.18203308070E+04  0.18203308070E+04  0.25500000920E-02 0.  1.
    10030    2    1    2    0    0  0.00000000000E+00  0.00000000000E+00 -0.16828954630E+04  0.19577661511E+04  0.10003555183E+04 0.  0.
        2    1    3    3  502    0 -0.33447763169E+03  0.10556436305E+03 -0.14356985406E+03  0.37898736634E+03  0.25500000920E-02 0. -1.
       -2    1    3    3    0  502  0.33447763169E+03 -0.10556436305E+03 -0.15393256089E+04  0.15787787847E+04  0.25500000920E-02 0.  1.
</event>
<event>
 5   0  0.5072205E-03  0.1017394E+04  0.7818609E-02  0.9289670E-01
        1   -1    0    0  501    0  0.00000000000E+00  0.00000000000E+00  0.83697575792E+03  0.83697575794E+03  0.50400001928E-02 0.  1.
       -1   -1    0    0    0  501  0.00000000000E+00  0.00000000000E+00 -0.30917579651E+03  0.30917579655E+03  0.50400001928E-02 0. -1.
    10030    2    1    2    0    0  0.00000000000E+00  0.00000000000E+00  0.52779996141E+03  0.11461515545E+04  0.10173940174E+04 0.  0.
        5    1    3    3  502    0 -0.10334321361E+03 -0.25092613207E+02  0.82428792670E+03  0.83113304298E+03  0.46999998093E+01 0.  1.
       -5    1    3    3    0  502  0.10334321361E+03  0.25092613207E+02 -0.29648796528E+03  0.31501851151E+03  0.46999998093E+01 0. -1.
</event>
<event>
 5   0  0.5349685E-03  0.1008470E+04  0.7818609E-02  0.9299304E-01
       -1   -1    0    0    0  501  0.00000000000E+00  0.00000000000E+00  0.32105967301E+03  0.32105967305E+03  0.50400001928E-02 0. -1.
        1   -1    0    0  501    0  0.00000000000E+00  0.00000000000E+00 -0.79191754661E+03  0.79191754663E+03  0.50400001928E-02 0.  1.
    10030    2    1    2    0    0  0.00000000000E+00  0.00000000000E+00 -0.47085787360E+03  0.11129772197E+04  0.10084697092E+04 0.  0.
        4    1    3    3  502    0  0.18139014227E+03  0.45813513017E+03 -0.11727870742E+03  0.50650379004E+03  0.12699999809E+01 0.  1.
       -4    1    3    3    0  502 -0.18139014227E+03 -0.45813513017E+03 -0.35357916618E+03  0.60647342964E+03  0.12699999809E+01 0. -1.
</event>
<event>
 5   0  0.8875655E-03  0.9827191E+03  0.7818609E-02  0.9327704E-01
        2   -1    0    0  501    0  0.00000000000E+00  0.00000000000E+00  0.58951052786E+03  0.58951052786E+03  0.25500000920E-02 0.  1.
       -2   -1    0    0    0  501  0.00000000000E+00  0.00000000000E+00 -0.40955024930E+03  0.40955024931E+03  0.25500000920E-02 0. -1.
    10030    2    1    2    0    0  0.00000000000E+00  0.00000000000E+00  0.17996027855E+03  0.99906077718E+03  0.98271905173E+03 0.  0.
        4    1    3    3  502    0 -0.21736722271E+03  0.47035078959E+02  0.53541192989E+03  0.57976577661E+03  0.12699999809E+01 0.  1.
       -4    1    3    3    0  502  0.21736722271E+03 -0.47035078959E+02 -0.35545165134E+03  0.41929500056E+03  0.12699999809E+01 0. -1.
</event>
<event>
 5   0  0.5072205E-03  0.1012633E+04  0.7818609E-02  0.9294797E-01
        1   -1    0    0  501    0  0.00000000000E+00  0.00000000000E+00  0.37800831179E+03  0.37800831182E+03  0.50400001928E-02 0.  1.
       -1   -1    0    0    0  501  0.00000000000E+00  0.00000000000E+00 -0.67817678180E+03  0.67817678182E+03  0.50400001928E-02 0. -1.
    10030    2    1    2    0    0  0.00000000000E+00  0.00000000000E+00 -0.30016847001E+03  0.10561850936E+04  0.10126331229E+04 0.  0.
        5    1    3    3  502    0 -0.45346134097E+02 -0.28491142465E+03 -0.58403546938E+03  0.65142176143E+03  0.46999998093E+01 0. -1.
       -5    1    3    3    0  502  0.45346134097E+02  0.28491142465E+03  0.28386699936E+03  0.40476333221E+03  0.46999998093E+01 0.  1.
</event>
<event>
 5   0  0.9243773E-03  0.9955583E+03  0.7818609E-02  0.9313430E-01
       -2   -1    0    0    0  501  0.00000000000E+00  0.00000000000E+00  0.25299745248E+03  0.25299745249E+03  0.25500000920E-02 0. -1.
        2   -1    0    0  501    0  0.00000000000E+00  0.00000000000E+00 -0.97939360050E+03  0.97939360050E+03  0.25500000920E-02 0.  1.
    10030    2    1    2    0    0  0.00000000000E+00  0.00000000000E+00 -0.72639614802E+03  0.12323910530E+04  0.99555830751E+03 0.  0.
        3    1    3    3  502    0 -0.21450425291E+03  0.44162695453E+03 -0.46480786339E+03  0.67608638616E+03  0.10100000352E+00 0. -1.
       -3    1    3    3    0  502  0.21450425291E+03 -0.44162695453E+03 -0.26158828463E+03  0.55630466683E+03  0.10100000352E+00 0.  1.
</event>
<event>
 5   0  0.9040674E-03  0.1016181E+04  0.7818609E-02  0.9290974E-01
        2   -1    0    0  501    0  0.00000000000E+00  0.00000000000E+00  0.90918997332E+03  0.90918997333E+03  0.25500000920E-02 0.  1.
       -2   -1    0    0    0  501  0.00000000000E+00  0.00000000000E+00 -0.28394068116E+03  0.28394068117E+03  0.25500000920E-02 0. -1.
    10030    2    1    2    0    0  0.00000000000E+00  0.00000000000E+00  0.62524929216E+03  0.11931306545E+04  0.10161811262E+04 0.  0.
        1    1    3    3  502    0 -0.69126973341E+02 -0.29077080312E+03  0.79506259317E+03  0.84938255543E+03  0.50400001928E-02 0.  1.
       -1    1    3    3    0  502  0.69126973341E+02  0.29077080312E+03 -0.16981330100E+03  0.34374809906E+03  0.50400001928E-02 0. -1.
</event>
<event>
 5   0  0.5310275E-03  0.9983812E+03  0.7818609E-02  0.9310322E-01
        1   -1    0    0  501    0  0.00000000000E+00  0.00000000000E+00  0.95735302566E+03  0.95735302567E+03  0.50400001928E-02 0.  1.
       -1   -1    0    0    0  501  0.00000000000E+00  0.00000000000E+00 -0.26029189734E+03  0.26029189739E+03  0.50400001928E-02 0. -1.
    10030    2    1    2    0    0  0.00000000000E+00  0.00000000000E+00  0.69706112832E+03  0.12176449231E+04  0.99838116070E+03 0.  0.
        1    1    3    3  502    0 -0.17459880015E+03  0.63607084672E+02  0.91359827054E+03  0.93230488693E+03  0.50400001928E-02 0.  1.
       -1    1    3    3    0  502  0.17459880015E+03 -0.63607084672E+02 -0.21653714222E+03  0.28534003613E+03  0.50400001928E-02 0. -1.
</event>
<event>
 5   0  0.3513625E-03  0.9909626E+03  0.7818609E-02  0.9318513E-01
       -3   -1    0    0    0  501  0.00000000000E+00  0.00000000000E+00  0.65552755624E+03  0.65552756402E+03  0.10100000352E+00 0.  1.
        3   -1    0    0  501    0  0.00000000000E+00  0.00000000000E+00 -0.37451009189E+03  0.37451010551E+03  0.10100000352E+00 0. -1.
    10030    2    1    2    0    0  0.00000000000E+00  0.00000000000E+00  0.28101746435E+03  0.10300376695E+04  0.99096255499E+03 0.  0.
        1    1    3    3  502    0 -0.31385381882E+03  0.31927898483E+03 -0.80131028636E+02  0.45482334100E+03  0.50400001928E-02 0.  1.
       -1    1    3    3    0  502  0.31385381882E+03 -0.31927898483E+03  0.36114849298E+03  0.57521432853E+03  0.50400001928E-02 0. -1.
</event>
<event>
 5   0  0.5201968E-03  0.9944048E+03  0.7818609E-02  0.9314703E-01
       -1   -1    0    0    0  501  0.00000000000E+00  0.00000000000E+00  0.26630550071E+03  0.26630550076E+03  0.50400001928E-02 0. -1.
        1   -1    0    0  501    0  0.00000000000E+00  0.00000000000E+00 -0.92829565289E+03  0.92829565290E+03  0.50400001928E-02 0.  1.
    10030    2    1    2    0    0  0.00000000000E+00  0.00000000000E+00 -0.66199015218E+03  0.11946011537E+04  0.99440482438E+03 0.  0.
        2    1    3    3  502    0 -0.12355755919E+03  0.47990617242E+03 -0.37955339709E+03  0.62420924857E+03  0.25500000920E-02 0.  1.
       -2    1    3    3    0  502  0.12355755919E+03 -0.47990617242E+03 -0.28243675509E+03  0.57039190509E+03  0.25500000920E-02 0. -1.
</event>
<event>
 5   0  0.5349685E-03  0.7898273E+03  0.7818609E-02  0.9574859E-01
       -1   -1    0    0    0  501  0.00000000000E+00  0.00000000000E+00  0.11619643049E+03  0.11619643060E+03  0.50400001928E-02 0. -1.
        1   -1    0    0  501    0  0.00000000000E+00  0.00000000000E+00 -0.13421823160E+04  0.13421823160E+04  0.50400001928E-02 0.  1.
    10030    2    1    2    0    0  0.00000000000E+00  0.00000000000E+00 -0.12259858855E+04  0.14583787466E+04  0.78982730841E+03 0.  0.
        4    1    3    3  502    0  0.10219221576E+03  0.35453259695E+03 -0.35305220938E+03  0.51067023284E+03  0.12699999809E+01 0. -1.
       -4    1    3    3    0  502 -0.10219221576E+03 -0.35453259695E+03 -0.87293367613E+03  0.94770851377E+03  0.12699999809E+01 0.  1.
</event>
<event>
 5   0  0.5349685E-03  0.1002312E+04  0.7818609E-02  0.9306013E-01
        1   -1    0    0  501    0  0.00000000000E+00  0.00000000000E+00  0.10627314454E+04  0.10627314454E+04  0.50400001928E-02 0.  1.
       -1   -1    0    0    0  501  0.00000000000E+00  0.00000000000E+00 -0.23633170500E+03  0.23633170506E+03  0.50400001928E-02 0. -1.
    10030    2    1    2    0    0  0.00000000000E+00  0.00000000000E+00  0.82639974041E+03  0.12990631505E+04  0.10023115973E+04 0.  0.
        4    1    3    3  502    0 -0.85213721347E+02  0.39614440273E+02 -0.22480864496E+03  0.24366210607E+03  0.12699999809E+01 0. -1.
       -4    1    3    3    0  502  0.85213721347E+02 -0.39614440273E+02  0.10512083854E+04  0.10554010444E+04  0.12699999809E+01 0.  1.
</event>
<event>
 5   0  0.5310275E-03  0.1004540E+04  0.7818609E-02  0.9303579E-01
       -1   -1    0    0    0  501  0.00000000000E+00  0.00000000000E+00  0.51567745420E+03  0.51567745423E+03  0.50400001928E-02 0.  1.
        1   -1    0    0  501    0  0.00000000000E+00  0.00000000000E+00 -0.48921142290E+03  0.48921142292E+03  0.50400001928E-02 0. -1.
    10030    2    1    2    0    0  0.00000000000E+00  0.00000000000E+00  0.26466031306E+02  0.10048888772E+04  0.10045402952E+04 0.  0.
        1    1    3    3  502    0 -0.93484940965E+02 -0.41133178492E+03  0.28598497795E+03  0.50962798109E+03  0.50400001928E-02 0.  1.
       -1    1    3    3    0  502  0.93484940965E+02  0.41133178492E+03 -0.25951894664E+03  0.49526089606E+03  0.50400001928E-02 0. -1.
</event>
<event>
 5   0  0.8907355E-03  0.1009118E+04  0.7818609E-02  0.9298600E-01
        2   -1    0    0  501    0  0.00000000000E+00  0.00000000000E+00  0.96969130426E+03  0.96969130427E+03  0.25500000920E-02 0. -1.
       -2   -1    0    0    0  501  0.00000000000E+00  0.00000000000E+00 -0.26253709655E+03  0.26253709656E+03  0.25500000920E-02 0.  1.
    10030    2    1    2    0    0  0.00000000000E+00  0.00000000000E+00  0.70715420772E+03  0.12322284008E+04  0.10091183074E+04 0.  0.
        5    1    3    3  502    0  0.33024559063E+02 -0.49861732694E+03  0.43859883779E+03  0.66490667822E+03  0.46999998093E+01 0. -1.
       -5    1    3    3    0  502 -0.33024559063E+02  0.49861732694E+03  0.26855536993E+03  0.56732172261E+03  0.46999998093E+01 0.  1.
</event>
<event>
 5   0  0.8968798E-03  0.9621185E+03  0.7818609E-02  0.9351097E-01
       -2   -1    0    0    0  501  0.00000000000E+00  0.00000000000E+00  0.59324522120E+03  0.59324522121E+03  0.25500000920E-02 0. -1.
        2   -1    0    0  501    0  0.00000000000E+00  0.00000000000E+00 -0.39008824272E+03  0.39008824273E+03  0.25500000920E-02 0.  1.
    10030    2    1    2    0    0  0.00000000000E+00  0.00000000000E+00  0.20315697849E+03  0.98333346393E+03  0.96211846640E+03 0.  0.
        2    1    3    3  502    0  0.47793092742E+03 -0.49854895777E+02  0.12476132566E+03  0.49645631269E+03  0.25500000920E-02 0.  1.
       -2    1    3    3    0  502 -0.47793092742E+03  0.49854895777E+02  0.78395652826E+02  0.48687715125E+03  0.25500000920E-02 0. -1.
</event>
<event>
 5   0  0.5201968E-03  0.1004665E+04  0.7818609E-02  0.9303443E-01
        1   -1    0    0  501    0  0.00000000000E+00  0.00000000000E+00  0.84372755657E+03  0.84372755659E+03  0.50400001928E-02 0. -1.
       -1   -1    0    0    0  501  0.00000000000E+00  0.00000000000E+00 -0.29907532342E+03  0.29907532346E+03  0.50400001928E-02 0.  1.
    10030    2    1    2    0    0  0.00000000000E+00  0.00000000000E+00  0.54465223315E+03  0.11428028801E+04  0.10046653013E+04 0.  0.
        2    1    3    3  502    0 -0.29411304201E+03 -0.32201780326E+03  0.55588029645E+03  0.70654147160E+03  0.25500000920E-02 0. -1.
       -2    1    3    3    0  502  0.29411304201E+03  0.32201780326E+03 -0.11228063297E+02  0.43626140846E+03  0.25500000920E-02 0.  1.
</event>
<event>
 5   0  0.5310275E-03  0.7601972E+03  0.7818609E-02  0.9619487E-01
       -1   -1    0    0    0  501  0.00000000000E+00  0.00000000000E+00  0.99113561318E+02  0.99113561447E+02  0.50400001928E-02 0. -1.
        1   -1    0    0  501    0  0.00000000000E+00  0.00000000000E+00 -0.14576709994E+04  0.14576709994E+04  0.50400001928E-02 0.  1.
    10030    2    1    2    0    0  0.00000000000E+00  0.00000000000E+00 -0.13585574381E+04  0.15567845608E+04  0.76019724831E+03 0.  0.
        1    1    3    3  502    0 -0.11265510773E+03  0.64821598902E+02  0.52191825628E+02  0.14006069995E+03  0.50400001928E-02 0. -1.
       -1    1    3    3    0  502  0.11265510773E+03 -0.64821598902E+02 -0.14107492637E+04  0.14167238609E+04  0.50400001928E-02 0.  1.
</event>
<event>
 5   0  0.5189877E-03  0.9885972E+03  0.7818609E-02  0.9321140E-01
       -1   -1    0    0    0  501  0.00000000000E+00  0.00000000000E+00  0.14681483221E+03  0.14681483229E+03  0.50400001928E-02 0.  1.
        1   -1    0    0  501    0  0.00000000000E+00  0.00000000000E+00 -0.16642125491E+04  0.16642125491E+04  0.50400001928E-02 0. -1.
    10030    2    1    2    0    0  0.00000000000E+00  0.00000000000E+00 -0.15173977169E+04  0.18110273814E+04  0.98859716010E+03 0.  0.
        3    1    3    3  502    0  0.44260620458E+03  0.21807157098E+03 -0.81290667524E+03  0.95093256083E+03  0.10100000352E+00 0.  1.
       -3    1    3    3    0  502 -0.44260620458E+03 -0.21807157098E+03 -0.70449104166E+03  0.86009482058E+03  0.10100000352E+00 0. -1.
</event>
<event>
 5   0  0.5310275E-03  0.9822226E+03  0.7818609E-02  0.9328260E-01
        1   -1    0    0  501    0  0.00000000000E+00  0.00000000000E+00  0.38619097824E+03  0.38619097827E+03  0.50400001928E-02 0. -1.
       -1   -1    0    0    0  501  0.00000000000E+00  0.00000000000E+00 -0.62453641741E+03  0.62453641743E+03  0.50400001928E-02 0.  1.
    10030    2    1    2    0    0  0.00000000000E+00  0.00000000000E+00 -0.23834543918E+03  0.10107273957E+04  0.98222264281E+03 0.  0.
        1    1    3    3  502    0 -0.21453462057E+03 -0.71480912958E+02 -0.56777817626E+03  0.61115193021E+03  0.50400001928E-02 0.  1.
       -1    1    3    3    0  502  0.21453462057E+03  0.71480912958E+02  0.32943273708E+03  0.39957546550E+03  0.50400001928E-02 0. -1.
</event>
<event>
 5   0  0.5349685E-03  0.9974429E+03  0.7818609E-02  0.9311354E-01
        1   -1    0    0  501    0  0.00000000000E+00  0.00000000000E+00  0.83984661560E+03  0.83984661561E+03  0.50400001928E-02 0.  1.
       -1   -1    0    0    0  501  0.00000000000E+00  0.00000000000E+00 -0.29615299744E+03  0.29615299748E+03  0.50400001928E-02 0. -1.
    10030    2    1    2    0    0  0.00000000000E+00  0.00000000000E+00  0.54369361816E+03  0.11359996131E+04  0.99744291592E+03 0.  0.
        4    1    3    3  502    0  0.27613828582E+03 -0.25666741247E+03  0.64368186575E+03  0.74596144050E+03  0.12699999809E+01 0.  1.
       -4    1    3    3    0  502 -0.27613828582E+03  0.25666741247E+03 -0.99988247592E+02  0.39003817259E+03  0.12699999809E+01 0. -1.
</event>
<event>
 5   0  0.5349685E-03  0.9991533E+03  0.7818609E-02  0.9309474E-01
       -1   -1    0    0    0  501  0.00000000000E+00  0.00000000000E+00  0.25339457930E+03  0.25339457935E+03  0.50400001928E-02 0. -1.
        1   -1    0    0  501    0  0.00000000000E+00  0.00000000000E+00 -0.98493351913E+03  0.98493351914E+03  0.50400001928E-02 0.  1.
    10030    2    1    2    0    0  0.00000000000E+00  0.00000000000E+00 -0.73153893983E+03  0.12383280985E+04  0.99915327104E+03 0.  0.
        4    1    3    3  502    0 -0.15951022053E+02 -0.30292312531E+03 -0.85772327127E+03  0.90978441288E+03  0.12699999809E+01 0.  1.
       -4    1    3    3    0  502  0.15951022053E+02  0.30292312531E+03  0.12618433144E+03  0.32854368560E+03  0.12699999809E+01 0. -1.
</event>
<event>
 5   0  0.5189877E-03  0.8747803E+03  0.7818609E-02  0.9457668E-01
       -1   -1    0    0    0  501  0.00000000000E+00  0.00000000000E+00  0.62473328087E+03  0.62473328089E+03  0.50400001928E-02 0. -1.
        1   -1    0    0  501    0  0.00000000000E+00  0.00000000000E+00 -0.30622688943E+03  0.30622688948E+03  0.50400001928E-02 0.  1.
    10030    2    1    2    0    0  0.00000000000E+00  0.00000000000E+00  0.31850639143E+03  0.93096017036E+03  0.87478026808E+03 0.  0.
        3    1    3    3  502    0 -0.20180135921E+03 -0.31633716553E+03 -0.79941447670E+02  0.38364519563E+03  0.10100000352E+00 0.  1.
       -3    1    3    3    0  502  0.20180135921E+03  0.31633716553E+03  0.39844783910E+03  0.54731497473E+03  0.10100000352E+00 0. -1.
</event>
<event>
 5   0  0.8968798E-03  0.1000356E+04  0.7818609E-02  0.9308155E-01
        2   -1    0    0  501    0  0.00000000000E+00  0.00000000000E+00  0.97053134728E+03  0.97053134729E+03  0.25500000920E-02 0.  1.
       -2   -1    0    0    0  501  0.00000000000E+00  0.00000000000E+00 -0.25777415878E+03  0.25777415879E+03  0.25500000920E-02 0. -1.
    10030    2    1    2    0    0  0.00000000000E+00  0.00000000000E+00  0.71275718851E+03  0.12283055061E+04  0.10003557400E+04 0.  0.
        2    1    3    3  502    0 -0.26644901144E+03  0.41816869576E+03  0.27569568082E+03  0.56733433022E+03  0.25500000920E-02 0. -1.
       -2    1    3    3    0  502  0.26644901144E+03 -0.41816869576E+03  0.43706150768E+03  0.66097117586E+03  0.25500000920E-02 0.  1.
</event>
<event>
 5   0  0.5072205E-03  0.1001282E+04  0.7818609E-02  0.9307140E-01
        1   -1    0    0  501    0  0.00000000000E+00  0.00000000000E+00  0.26498140858E+03  0.26498140863E+03  0.50400001928E-02 0. -1.
       -1   -1    0    0    0  501  0.00000000000E+00  0.00000000000E+00 -0.94588293285E+03  0.94588293287E+03  0.50400001928E-02 0.  1.
    10030    2    1    2    0    0  0.00000000000E+00  0.00000000000E+00 -0.68090152427E+03  0.12108643415E+04  0.10012819622E+04 0.  0.
        5    1    3    3  502    0 -0.26344142813E+03  0.19008704857E+03 -0.80107851402E+03  0.86445552095E+03  0.46999998093E+01 0.  1.
       -5    1    3    3    0  502  0.26344142813E+03 -0.19008704857E+03  0.12017698974E+03  0.34640882054E+03  0.46999998093E+01 0. -1.
</event>
<event>
 5   0  0.9040674E-03  0.9992400E+03  0.7818609E-02  0.9309379E-01
       -2   -1    0    0    0  501  0.00000000000E+00  0.00000000000E+00  0.85020147657E+03  0.85020147657E+03  0.25500000920E-02 0. -1.
        2   -1    0    0  501    0  0.00000000000E+00  0.00000000000E+00 -0.29360118202E+03  0.29360118203E+03  0.25500000920E-02 0.  1.
    10030    2    1    2    0    0  0.00000000000E+00  0.00000000000E+00  0.55660029455E+03  0.11438026586E+04  0.99924002820E+03 0.  0.
        1    1    3    3  502    0  0.44857148477E+03  0.50179069948E+02  0.52350024196E+03  0.69122125211E+03  0.50400001928E-02 0. -1.
       -1    1    3    3    0  502 -0.44857148477E+03 -0.50179069948E+02  0.33100052585E+02  0.45258140650E+03  0.50400001928E-02 0.  1.
</event>
<event>
 5   0  0.5189877E-03  0.7727977E+03  0.7818609E-02  0.9600248E-01
        1   -1    0    0  501    0  0.00000000000E+00  0.00000000000E+00  0.67327835682E+03  0.67327835684E+03  0.50400001928E-02 0.  1.
       -1   -1    0    0    0  501  0.00000000000E+00  0.00000000000E+00 -0.22175679793E+03  0.22175679798E+03  0.50400001928E-02 0. -1.
    10030    2    1    2    0    0  0.00000000000E+00  0.00000000000E+00  0.45152155889E+03  0.89503515482E+03  0.77279765154E+03 0.  0.
        3    1    3    3  502    0 -0.28227809479E+03  0.64440795946E+02  0.52210546280E+03  0.59701563084E+03  0.10100000352E+00 0.  1.
       -3    1    3    3    0  502  0.28227809479E+03 -0.64440795946E+02 -0.70583903904E+02  0.29801952398E+03  0.10100000352E+00 0. -1.
</event>
<event>
 5   0  0.9040674E-03  0.9941432E+03  0.7818609E-02  0.9314992E-01
        2   -1    0    0  501    0  0.00000000000E+00  0.00000000000E+00  0.93065112288E+03  0.93065112289E+03  0.25500000920E-02 0.  1.
       -2   -1    0    0    0  501  0.00000000000E+00  0.00000000000E+00 -0.26549171420E+03  0.26549171421E+03  0.25500000920E-02 0. -1.
    10030    2    1    2    0    0  0.00000000000E+00  0.00000000000E+00  0.66515940869E+03  0.11961428371E+04  0.99414317267E+03 0.  0.
        1    1    3    3  502    0  0.20862797592E+03 -0.43140544054E+03  0.17366810516E+03  0.50970275382E+03  0.50400001928E-02 0.  1.
       -1    1    3    3    0  502 -0.20862797592E+03  0.43140544054E+03  0.49149130352E+03  0.68644008328E+03  0.50400001928E-02 0. -1.
</event>
<event>
 5   0  0.5310275E-03  0.9967543E+03  0.7818609E-02  0.9312112E-01
        1   -1    0    0  501    0  0.00000000000E+00  0.00000000000E+00  0.14769643426E+04  0.14769643426E+04  0.50400001928E-02 0. -1.
       -1   -1    0    0    0  501  0.00000000000E+00  0.00000000000E+00 -0.16816911691E+03  0.16816911699E+03  0.50400001928E-02 0.  1.
    10030    2    1    2    0    0  0.00000000000E+00  0.00000000000E+00  0.13087952257E+04  0.16451334596E+04  0.99675431130E+03 0.  0.
        1    1    3    3  502    0  0.42447380695E+03 -0.23976379515E+03  0.48354913796E+03  0.68664725959E+03  0.50400001928E-02 0.  1.
       -1    1    3    3    0  502 -0.42447380695E+03  0.23976379515E+03  0.82524608773E+03  0.95848620001E+03  0.50400001928E-02 0. -1.
</event>
<event>
 5   0  0.8907355E-03  0.1038801E+04  0.7818609E-02  0.9266983E-01
        2   -1    0    0  501    0  0.00000000000E+00  0.00000000000E+00  0.14066621939E+04  0.14066621939E+04  0.25500000920E-02 0.  1.
       -2   -1    0    0    0  501  0.00000000000E+00  0.00000000000E+00 -0.19178526035E+03  0.19178526037E+03  0.25500000920E-02 0. -1.
    10030    2    1    2    0    0  0.00000000000E+00  0.00000000000E+00  0.12148769335E+04  0.15984474543E+04  0.10388013768E+04 0.  0.
        5    1    3    3  502    0 -0.25673529847E+02  0.28747984314E+03 -0.56990308965E+02  0.29423421905E+03  0.46999998093E+01 0. -1.
       -5    1    3    3    0  502  0.25673529847E+02 -0.28747984314E+03  0.12718672425E+04  0.13042132352E+04  0.46999998093E+01 0.  1.
</event>
<event>
 5   0  0.5201968E-03  0.9998953E+03  0.7818609E-02  0.9308660E-01
       -1   -1    0    0    0  501  0.00000000000E+00  0.00000000000E+00  0.27818567333E+03  0.27818567337E+03  0.50400001928E-02 0. -1.
        1   -1    0    0  501    0  0.00000000000E+00  0.00000000000E+00 -0.89849220921E+03  0.89849220923E+03  0.50400001928E-02 0.  1.
    10030    2    1    2    0    0  0.00000000000E+00  0.00000000000E+00 -0.62030653589E+03  0.11766778826E+04  0.99989531499E+03 0.  0.
        2    1    3    3  502    0  0.25188555154E+03  0.14940726929E+03 -0.78698109400E+03  0.83970715462E+03  0.25500000920E-02 0.  1.
       -2    1    3    3    0  502 -0.25188555154E+03 -0.14940726929E+03  0.16667455812E+03  0.33697072799E+03  0.25500000920E-02 0. -1.
</event>
<event>
 5   0  0.9243773E-03  0.1004448E+04  0.7818609E-02  0.9303679E-01
        2   -1    0    0  501    0  0.00000000000E+00  0.00000000000E+00  0.13211567960E+04  0.13211567960E+04  0.25500000920E-02 0. -1.
       -2   -1    0    0    0  501  0.00000000000E+00  0.00000000000E+00 -0.19091540861E+03  0.19091540863E+03  0.25500000920E-02 0.  1.
    10030    2    1    2    0    0  0.00000000000E+00  0.00000000000E+00  0.11302413874E+04  0.15120722046E+04  0.10044484846E+04 0.  0.
        3    1    3    3  502    0  0.43300510724E+03 -0.17996235803E+03  0.29436515640E+03  0.55365217304E+03  0.10100000352E+00 0.  1.
       -3    1    3    3    0  502 -0.43300510724E+03  0.17996235803E+03  0.83587623095E+03  0.95842003155E+03  0.10100000352E+00 0. -1.
</event>
<event>
 5   0  0.8968798E-03  0.1001621E+04  0.7818609E-02  0.9306769E-01
       -2   -1    0    0    0  501  0.00000000000E+00  0.00000000000E+00  0.40542299350E+03  0.40542299351E+03  0.25500000920E-02 0.  1.
        2   -1    0    0  501    0  0.00000000000E+00  0.00000000000E+00 -0.61864063322E+03  0.61864063322E+03  0.25500000920E-02 0. -1.
    10030    2    1    2    0    0  0.00000000000E+00  0.00000000000E+00 -0.21321763972E+03  0.10240636267E+04  0.10016209611E+04 0.  0.
        2    1    3    3  502    0  0.62404699781E+02  0.49684658310E+03 -0.11454573116E+03  0.51368433714E+03  0.25500000920E-02 0. -1.
       -2    1    3    3    0  502 -0.62404699781E+02 -0.49684658310E+03 -0.98671908557E+02  0.51037928959E+03  0.25500000920E-02 0.  1.
</event>
<event>
 5   0  0.3513625E-03  0.9887623E+03  0.7818609E-02  0.9320957E-01
        4   -1    0    0  501    0  0.00000000000E+00  0.00000000000E+00  0.46731996299E+03  0.46732168868E+03  0.12699999809E+01 0.  1.
       -4   -1    0    0    0  501  0.00000000000E+00  0.00000000000E+00 -0.52300594931E+03  0.52300749126E+03  0.12699999809E+01 0. -1.
    10030    2    1    2    0    0  0.00000000000E+00  0.00000000000E+00 -0.55685986316E+02  0.99032917993E+03  0.98876233522E+03 0.  0.
        3    1    3    3  502    0  0.20631330707E+03 -0.25046928437E+03 -0.40141216408E+03  0.51617030015E+03  0.10100000352E+00 0. -1.
       -3    1    3    3    0  502 -0.20631330707E+03  0.25046928437E+03  0.34572617776E+03  0.47415887978E+03  0.10100000352E+00 0.  1.
</event>
<event>
 5   0  0.8907355E-03  0.9895258E+03  0.7818609E-02  0.9320108E-01
       -2   -1    0    0    0  501  0.00000000000E+00  0.00000000000E+00  0.20220778189E+03  0.20220778190E+03  0.25500000920E-02 0. -1.
        2   -1    0    0  501    0  0.00000000000E+00  0.00000000000E+00 -0.12105880022E+04  0.12105880022E+04  0.25500000920E-02 0.  1.
    10030    2    1    2    0    0  0.00000000000E+00  0.00000000000E+00 -0.10083802203E+04  0.14127957841E+04  0.98952577472E+03 0.  0.
        5    1    3    3  502    0 -0.37080332738E+02  0.43539303656E+03 -0.17294532617E+03  0.46997257707E+03  0.46999998093E+01 0. -1.
       -5    1    3    3    0  502  0.37080332738E+02 -0.43539303656E+03 -0.83543489411E+03  0.94282320700E+03  0.46999998093E+01 0.  1.
</event>
<event>
 5   0  0.8907355E-03  0.9757750E+03  0.7818609E-02  0.9335521E-01
       -2   -1    0    0    0  501  0.00000000000E+00  0.00000000000E+00  0.20479339539E+03  0.20479339541E+03  0.25500000920E-02 0.  1.
        2   -1    0    0  501    0  0.00000000000E+00  0.00000000000E+00 -0.11623138782E+04  0.11623138782E+04  0.25500000920E-02 0. -1.
    10030    2    1    2    0    0  0.00000000000E+00  0.00000000000E+00 -0.95752048277E+03  0.13671072736E+04  0.97577498561E+03 0.  0.
        5    1    3    3  502    0  0.17423831013E+03  0.26432783663E+03 -0.99881872367E+03  0.10478020456E+04  0.46999998093E+01 0. -1.
       -5    1    3    3    0  502 -0.17423831013E+03 -0.26432783663E+03  0.41298240902E+02  0.31930522801E+03  0.46999998093E+01 0.  1.
</event>
<event>
 5   0  0.9243773E-03  0.9841360E+03  0.7818609E-02  0.9326117E-01
       -2   -1    0    0    0  501  0.00000000000E+00  0.00000000000E+00  0.44520423273E+03  0.44520423273E+03  0.25500000920E-02 0.  1.
        2   -1    0    0  501    0  0.00000000000E+00  0.00000000000E+00 -0.54386483497E+03  0.54386483498E+03  0.25500000920E-02 0. -1.
    10030    2    1    2    0    0  0.00000000000E+00  0.00000000000E+00 -0.98660602248E+02  0.98906906771E+03  0.98413602021E+03 0.  0.
        3    1    3    3  502    0 -0.29424319332E+03 -0.77012615050E+02 -0.43807783576E+03  0.53331247884E+03  0.10100000352E+00 0. -1.
       -3    1    3    3    0  502  0.29424319332E+03  0.77012615050E+02  0.33941723352E+03  0.45575658887E+03  0.10100000352E+00 0.  1.
</event>
<event>
 5   0  0.9040674E-03  0.9943319E+03  0.7818609E-02  0.9314783E-01
        2   -1    0    0  501    0  0.00000000000E+00  0.00000000000E+00  0.25420467032E+03  0.25420467033E+03  0.25500000920E-02 0. -1.
       -2   -1    0    0    0  501  0.00000000000E+00  0.00000000000E+00 -0.97234240864E+03  0.97234240865E+03  0.25500000920E-02 0.  1.
    10030    2    1    2    0    0  0.00000000000E+00  0.00000000000E+00 -0.71813773833E+03  0.12265470790E+04  0.99433189918E+03 0.  0.
        1    1    3    3  502    0 -0.18160336732E+03  0.62676151302E+02  0.20656742971E+03  0.28209605812E+03  0.50400001928E-02 0. -1.
       -1    1    3    3    0  502  0.18160336732E+03 -0.62676151302E+02 -0.92470516804E+03  0.94445102085E+03  0.50400001928E-02 0.  1.
</event>
<event>
 5   0  0.5072205E-03  0.9904486E+03  0.7818609E-02  0.9319083E-01
       -1   -1    0    0    0  501  0.00000000000E+00  0.00000000000E+00  0.12501961029E+04  0.12501961029E+04  0.50400001928E-02 0.  1.
        1   -1    0    0  501    0  0.00000000000E+00  0.00000000000E+00 -0.19616691260E+03  0.19616691266E+03  0.50400001928E-02 0. -1.
    10030    2    1    2    0    0  0.00000000000E+00  0.00000000000E+00  0.10540291903E+04  0.14463630156E+04  0.99044860483E+03 0.  0.
        5    1    3    3  502    0  0.30436462239E+02 -0.30081656062E+03 -0.45695554889E+02  0.30582209716E+03  0.46999998093E+01 0. -1.
       -5    1    3    3    0  502 -0.30436462239E+02  0.30081656062E+03  0.10997247452E+04  0.11405409184E+04  0.46999998093E+01 0.  1.
</event>
<event>
 5   0  0.5310275E-03  0.1003033E+04  0.7818609E-02  0.9305224E-01
       -1   -1    0    0    0  501  0.00000000000E+00  0.00000000000E+00  0.21805309811E+03  0.21805309817E+03  0.50400001928E-02 0. -1.
        1   -1    0    0  501    0  0.00000000000E+00  0.00000000000E+00 -0.11534759223E+04  0.11534759223E+04  0.50400001928E-02 0.  1.
    10030    2    1    2    0    0  0.00000000000E+00  0.00000000000E+00 -0.93542282415E+03  0.13715290204E+04  0.10030333962E+04 0.  0.
        1    1    3    3  502    0  0.33754171263E+02 -0.33428756623E+03 -0.97683185292E+03  0.10329995111E+04  0.50400001928E-02 0.  1.
       -1    1    3    3    0  502 -0.33754171263E+02  0.33428756623E+03  0.41409028768E+02  0.33852950935E+03  0.50400001928E-02 0. -1.
</event>
<event>
 5   0  0.3513625E-03  0.9709628E+03  0.7818609E-02  0.9340978E-01
       -3   -1    0    0    0  501  0.00000000000E+00  0.00000000000E+00  0.44312993398E+03  0.44312994549E+03  0.10100000352E+00 0. -1.
        3   -1    0    0  501    0  0.00000000000E+00  0.00000000000E+00 -0.53188047750E+03  0.53188048709E+03  0.10100000352E+00 0.  1.
    10030    2    1    2    0    0  0.00000000000E+00  0.00000000000E+00 -0.88750543515E+02  0.97501043258E+03  0.97096276173E+03 0.  0.
        4    1    3    3  502    0 -0.40258438270E+03 -0.23447100971E+03  0.92721227465E+02  0.47502597667E+03  0.12699999809E+01 0. -1.
       -4    1    3    3    0  502  0.40258438270E+03  0.23447100971E+03 -0.18147177098E+03  0.49998445591E+03  0.12699999809E+01 0.  1.
</event>
<event>
 5   0  0.8968798E-03  0.9481809E+03  0.7818609E-02  0.9367279E-01
       -2   -1    0    0    0  501  0.00000000000E+00  0.00000000000E+00  0.29773529951E+03  0.29773529952E+03  0.25500000920E-02 0.  1.
        2   -1    0    0  501    0  0.00000000000E+00  0.00000000000E+00 -0.75490467894E+03  0.75490467895E+03  0.25500000920E-02 0. -1.
    10030    2    1    2    0    0  0.00000000000E+00  0.00000000000E+00 -0.45716937944E+03  0.10526399785E+04  0.94818093356E+03 0.  0.
        2    1    3    3  502    0  0.52984868517E+02 -0.41282258820E+03 -0.48059984404E+03  0.63577204698E+03  0.25500000920E-02 0. -1.
       -2    1    3    3    0  502 -0.52984868517E+02  0.41282258820E+03  0.23430464602E+02  0.41686793149E+03  0.25500000920E-02 0.  1.
</event>
<event>
 5   0  0.5201968E-03  0.1021952E+04  0.7818609E-02  0.9284791E-01
        1   -1    0    0  501    0  0.00000000000E+00  0.00000000000E+00  0.16733845143E+03  0.16733845150E+03  0.50400001928E-02 0. -1.
       -1   -1    0    0    0  501  0.00000000000E+00  0.00000000000E+00 -0.15602892086E+04  0.15602892086E+04  0.50400001928E-02 0.  1.
    10030    2    1    2    0    0  0.00000000000E+00  0.00000000000E+00 -0.13929507571E+04  0.17276276601E+04  0.10219518188E+04 0.  0.
        2    1    3    3  502    0 -0.40533975937E+03  0.95423990498E+02 -0.11970808119E+04  0.12674417260E+04  0.25500000920E-02 0.  1.
       -2    1    3    3    0  502  0.40533975937E+03 -0.95423990498E+02 -0.19586994521E+03  0.46018593408E+03  0.25500000920E-02 0. -1.
</event>
<event>
 5   0  0.9040674E-03  0.8984861E+03  0.7818609E-02  0.9427476E-01
        2   -1    0    0  501    0  0.00000000000E+00  0.00000000000E+00  0.13185467382E+04  0.13185467382E+04  0.25500000920E-02 0.  1.
       -2   -1    0    0    0  501  0.00000000000E+00  0.00000000000E+00 -0.15306195312E+03  0.15306195314E+03  0.25500000920E-02 0. -1.
    10030    2    1    2    0    0  0.00000000000E+00  0.00000000000E+00  0.11654847851E+04  0.14716086914E+04  0.89848614691E+03 0.  0.
        1    1    3    3  502    0  0.20919791341E+03  0.48840824230E+01 -0.68365693919E+02  0.22013970420E+03  0.50400001928E-02 0. -1.
       -1    1    3    3    0  502 -0.20919791341E+03 -0.48840824230E+01  0.12338504790E+04  0.12514689872E+04  0.50400001928E-02 0.  1.
</event>
<event>
 5   0  0.8907355E-03  0.9983823E+03  0.7818609E-02  0.9310321E-01
        2   -1    0    0  501    0  0.00000000000E+00  0.00000000000E+00  0.13353779209E+03  0.13353779211E+03  0.25500000920E-02 0.  1.
       -2   -1    0    0    0  501  0.00000000000E+00  0.00000000000E+00 -0.18660770707E+04  0.18660770707E+04  0.25500000920E-02 0. -1.
    10030    2    1    2    0    0  0.00000000000E+00  0.00000000000E+00 -0.17325392786E+04  0.19996148628E+04  0.99838231537E+03 0.  0.
        5    1    3    3  502    0 -0.33818348212E+03 -0.36552036087E+03 -0.79698938390E+03  0.93978049025E+03  0.46999998093E+01 0.  1.
       -5    1    3    3    0  502  0.33818348212E+03  0.36552036087E+03 -0.93554989467E+03  0.10598343725E+04  0.46999998093E+01 0. -1.
</event>
<event>
 5   0  0.3513625E-03  0.1006445E+04  0.7818609E-02  0.9301504E-01
       -3   -1    0    0    0  501  0.00000000000E+00  0.00000000000E+00  0.65883629164E+03  0.65883629938E+03  0.10100000352E+00 0. -1.
        3   -1    0    0  501    0  0.00000000000E+00  0.00000000000E+00 -0.38436407619E+03  0.38436408946E+03  0.10100000352E+00 0.  1.
    10030    2    1    2    0    0  0.00000000000E+00  0.00000000000E+00  0.27447221546E+03  0.10432003888E+04  0.10064452564E+04 0.  0.
        4    1    3    3  502    0  0.28245012254E+03 -0.34083525056E+03  0.38531896564E+03  0.58687226713E+03  0.12699999809E+01 0. -1.
       -4    1    3    3    0  502 -0.28245012254E+03  0.34083525056E+03 -0.11084675018E+03  0.45632812172E+03  0.12699999809E+01 0.  1.
</event>
<event>
 5   0  0.5189877E-03  0.9625329E+03  0.7818609E-02  0.9350620E-01
        1   -1    0    0  501    0  0.00000000000E+00  0.00000000000E+00  0.11140356262E+04  0.11140356262E+04  0.50400001928E-02 0. -1.
       -1   -1    0    0    0  501  0.00000000000E+00  0.00000000000E+00 -0.20790841462E+03  0.20790841468E+03  0.50400001928E-02 0.  1.
    10030    2    1    2    0    0  0.00000000000E+00  0.00000000000E+00  0.90612721156E+03  0.13219440409E+04  0.96253286887E+03 0.  0.
        3    1    3    3  502    0 -0.15589454229E+02 -0.97811261396E+02 -0.19375933875E+03  0.21760690589E+03  0.10100000352E+00 0.  1.
       -3    1    3    3    0  502  0.15589454229E+02  0.97811261396E+02  0.10998865503E+04  0.11043371350E+04  0.10100000352E+00 0. -1.
</event>
<event>
 5   0  0.5072205E-03  0.8653878E+03  0.7818609E-02  0.9469914E-01
        1   -1    0    0  501    0  0.00000000000E+00  0.00000000000E+00  0.91076739480E+03  0.91076739481E+03  0.50400001928E-02 0.  1.
       -1   -1    0    0    0  501  0.00000000000E+00  0.00000000000E+00 -0.20556733124E+03  0.20556733130E+03  0.50400001928E-02 0. -1.
    10030    2    1    2    0    0  0.00000000000E+00  0.00000000000E+00  0.70520006356E+03  0.11163347261E+04  0.86538782698E+03 0.  0.
        5    1    3    3  502    0  0.21419252060E+03  0.29965171372E+03  0.64543545836E+03  0.74315449694E+03  0.46999998093E+01 0.  1.
       -5    1    3    3    0  502 -0.21419252060E+03 -0.29965171372E+03  0.59764605197E+02  0.37318022918E+03  0.46999998093E+01 0. -1.
</event>
<event>
 5   0  0.9040674E-03  0.9536694E+03  0.7818609E-02  0.9360872E-01
        2   -1    0    0  501    0  0.00000000000E+00  0.00000000000E+00  0.31085009344E+03  0.31085009345E+03  0.25500000920E-02 0.  1.
       -2   -1    0    0    0  501  0.00000000000E+00  0.00000000000E+00 -0.73145011808E+03  0.73145011809E+03  0.25500000920E-02 0. -1.
    10030    2    1    2    0    0  0.00000000000E+00  0.00000000000E+00 -0.42060002464E+03  0.10423002115E+04  0.95366941350E+03 0.  0.
        1    1    3    3  502    0 -0.12454690286E+03 -0.44342232734E+03 -0.34520596449E+03  0.57558878493E+03  0.50400001928E-02 0. -1.
       -1    1    3    3    0  502  0.12454690286E+03  0.44342232734E+03 -0.75394060153E+02  0.46671142661E+03  0.50400001928E-02 0.  1.
</event>
<event>
 5   0  0.8875655E-03  0.1032813E+04  0.7818609E-02  0.9273270E-01
        2   -1    0    0  501    0  0.00000000000E+00  0.00000000000E+00  0.57866427175E+03  0.57866427176E+03  0.25500000920E-02 0.  1.
       -2   -1    0    0    0  501  0.00000000000E+00  0.00000000000E+00 -0.46084707876E+03  0.46084707876E+03  0.25500000920E-02 0. -1.
    10030    2    1    2    0    0  0.00000000000E+00  0.00000000000E+00  0.11781719299E+03  0.10395113505E+04  0.10328131278E+04 0.  0.
        4    1    3    3  502    0  0.11665531000E+03  0.29629753275E+03 -0.35026633252E+03  0.47338019167E+03  0.12699999809E+01 0. -1.
       -4    1    3    3    0  502 -0.11665531000E+03 -0.29629753275E+03  0.46808352552E+03  0.56613115885E+03  0.12699999809E+01 0.  1.
</event>
<event>
 5   0  0.3513625E-03  0.9964064E+03  0.7818609E-02  0.9312495E-01
       -4   -1    0    0    0  501  0.00000000000E+00  0.00000000000E+00  0.13794207995E+04  0.13794213841E+04  0.12699999809E+01 0.  1.
        4   -1    0    0  501    0  0.00000000000E+00  0.00000000000E+00 -0.17993240561E+03  0.17993688751E+03  0.12699999809E+01 0. -1.
    10030    2    1    2    0    0  0.00000000000E+00  0.00000000000E+00  0.11994883939E+04  0.15593582716E+04  0.99640644932E+03 0.  0.
        1    1    3    3  502    0 -0.24655869130E+03 -0.62991543375E+02  0.12700378025E+04  0.12952818776E+04  0.50400001928E-02 0.  1.
       -1    1    3    3    0  502  0.24655869130E+03  0.62991543375E+02 -0.70549408589E+02  0.26407639400E+03  0.50400001928E-02 0. -1.
</event>
<event>
 5   0  0.5349685E-03  0.9892014E+03  0.7818609E-02  0.9320468E-01
       -1   -1    0    0    0  501  0.00000000000E+00  0.00000000000E+00  0.18545295213E+03  0.18545295220E+03  0.50400001928E-02 0. -1.
        1   -1    0    0  501    0  0.00000000000E+00  0.00000000000E+00 -0.13190938492E+04  0.13190938492E+04  0.50400001928E-02 0.  1.
    10030    2    1    2    0    0  0.00000000000E+00  0.00000000000E+00 -0.11336408970E+04  0.15045468014E+04  0.98920139208E+03 0.  0.
        4    1    3    3  502    0 -0.17949110294E+03  0.14491314898E+02  0.13381947681E+03  0.22435757067E+03  0.12699999809E+01 0. -1.
       -4    1    3    3    0  502  0.17949110294E+03 -0.14491314898E+02 -0.12674603739E+04  0.12801892307E+04  0.12699999809E+01 0.  1.
</event>
<event>
 5   0  0.9243773E-03  0.1023204E+04  0.7818609E-02  0.9283455E-01
        2   -1    0    0  501    0  0.00000000000E+00  0.00000000000E+00  0.80287096755E+03  0.80287096755E+03  0.25500000920E-02 0. -1.
       -2   -1    0    0    0  501  0.00000000000E+00  0.00000000000E+00 -0.32600069287E+03  0.32600069288E+03  0.25500000920E-02 0.  1.
    10030    2    1    2    0    0  0.00000000000E+00  0.00000000000E+00  0.47687027468E+03  0.11288716604E+04  0.10232037758E+04 0.  0.
        3    1    3    3  502    0 -0.15458185123E+03 -0.20999988511E+03  0.72405135682E+03  0.76957512823E+03  0.10100000352E+00 0. -1.
       -3    1    3    3    0  502  0.15458185123E+03  0.20999988511E+03 -0.24718108214E+03  0.35929653219E+03  0.10100000352E+00 0.  1.
</event>
<event>
 5   0  0.5310275E-03  0.1018902E+04  0.7818609E-02  0.9288053E-01
        1   -1    0    0  501    0  0.00000000000E+00  0.00000000000E+00  0.19330569898E+04  0.19330569898E+04  0.50400001928E-02 0. -1.
       -1   -1    0    0    0  501  0.00000000000E+00  0.00000000000E+00 -0.13426427190E+03  0.13426427199E+03  0.50400001928E-02 0.  1.
    10030    2    1    2    0    0  0.00000000000E+00  0.00000000000E+00  0.17987927179E+04  0.20673212618E+04  0.10189023297E+04 0.  0.
        1    1    3    3  502    0 -0.23087998338E+03  0.11337157037E+02  0.18205268233E+04  0.18351435944E+04  0.50400001928E-02 0. -1.
       -1    1    3    3    0  502  0.23087998338E+03 -0.11337157037E+02 -0.21734105394E+02  0.23217766736E+03  0.50400001928E-02 0.  1.
</event>
<event>
 5   0  0.8907355E-03  0.9874893E+03  0.7818609E-02  0.9322374E-01
       -2   -1    0    0    0  501  0.00000000000E+00  0.00000000000E+00  0.73145593269E+03  0.73145593269E+03  0.25500000920E-02 0.  1.
        2   -1    0    0  501    0  0.00000000000E+00  0.00000000000E+00 -0.33328570009E+03  0.33328570010E+03  0.25500000920E-02 0. -1.
    10030    2    1    2    0    0  0.00000000000E+00  0.00000000000E+00  0.39817023260E+03  0.10647416328E+04  0.98748934702E+03 0.  0.
        5    1    3    3  502    0 -0.38281003682E+03 -0.13275071123E+03  0.50328279974E+03  0.64612842542E+03  0.46999998093E+01 0.  1.
       -5    1    3    3    0  502  0.38281003682E+03  0.13275071123E+03 -0.10511256714E+03  0.41861320738E+03  0.46999998093E+01 0. -1.
</event>
<event>
 5   0  0.5201968E-03  0.1000072E+04  0.7818609E-02  0.9308466E-01
       -1   -1    0    0    0  501  0.00000000000E+00  0.00000000000E+00  0.33206242962E+03  0.33206242966E+03  0.50400001928E-02 0. -1.
        1   -1    0    0  501    0  0.00000000000E+00  0.00000000000E+00 -0.75297848136E+03  0.75297848138E+03  0.50400001928E-02 0.  1.
    10030    2    1    2    0    0  0.00000000000E+00  0.00000000000E+00 -0.42091605174E+03  0.10850409110E+04  0.10000717254E+04 0.  0.
        2    1    3    3  502    0 -0.40035731750E+03 -0.23956085031E+03 -0.15283806585E+02  0.46680721656E+03  0.25500000920E-02 0. -1.
       -2    1    3    3    0  502  0.40035731750E+03  0.23956085031E+03 -0.40563224516E+03  0.61823369449E+03  0.25500000920E-02 0.  1.
</event>
<event>
 5   0  0.9040674E-03  0.1029977E+04  0.7818609E-02  0.9276264E-01
       -2   -1    0    0    0  501  0.00000000000E+00  0.00000000000E+00  0.69072070193E+03  0.69072070193E+03  0.25500000920E-02 0.  1.
        2   -1    0    0  501    0  0.00000000000E+00  0.00000000000E+00 -0.38396619815E+03  0.38396619816E+03  0.25500000920E-02 0. -1.
    10030    2    1    2    0    0  0.00000000000E+00  0.00000000000E+00  0.30675450378E+03  0.10746869001E+04  0.10299774792E+04 0.  0.
        1    1    3    3  502    0  0.49630545868E+03  0.50462494971E+02  0.19968511098E+02  0.49926377114E+03  0.50400001928E-02 0. -1.
       -1    1    3    3    0  502 -0.49630545868E+03 -0.50462494971E+02  0.28678599268E+03  0.57542312895E+03  0.50400001928E-02 0.  1.
</event>
<event>
 5   0  0.8968798E-03  0.1000469E+04  0.7818609E-02  0.9308031E-01
       -2   -1    0    0    0  501  0.00000000000E+00  0.00000000000E+00  0.10202634273E+03  0.10202634276E+03  0.25500000920E-02 0. -1.
        2   -1    0    0  501    0  0.00000000000E+00  0.00000000000E+00 -0.24526445016E+04  0.24526445016E+04  0.25500000920E-02 0.  1.
    10030    2    1    2    0    0  0.00000000000E+00  0.00000000000E+00 -0.23506181589E+04  0.25546708444E+04  0.10004685873E+04 0.  0.
        2    1    3    3  502    0  0.32354857256E+03  0.10742194618E+03 -0.24054495820E+03  0.41723498205E+03  0.25500000920E-02 0. -1.
       -2    1    3    3    0  502 -0.32354857256E+03 -0.10742194618E+03 -0.21100732007E+04  0.21374358623E+04  0.25500000920E-02 0.  1.
</event>
<event>
 5   0  0.5072205E-03  0.1001306E+04  0.7818609E-02  0.9307113E-01
       -1   -1    0    0    0  501  0.00000000000E+00  0.00000000000E+00  0.24709501341E+03  0.24709501346E+03  0.50400001928E-02 0.  1.
        1   -1    0    0  501    0  0.00000000000E+00  0.00000000000E+00 -0.10144011986E+04  0.10144011986E+04  0.50400001928E-02 0. -1.
    10030    2    1    2    0    0  0.00000000000E+00  0.00000000000E+00 -0.76730618521E+03  0.12614962121E+04  0.10013061027E+04 0.  0.
        5    1    3    3  502    0 -0.37292624803E+03 -0.29605452036E+03 -0.57845845373E+03  0.74923863901E+03  0.46999998093E+01 0. -1.
       -5    1    3    3    0  502  0.37292624803E+03  0.29605452036E+03 -0.18884773148E+03  0.51225757308E+03  0.46999998093E+01 0.  1.
</event>
<event>
 5   0  0.5349685E-03  0.1010875E+04  0.7818609E-02  0.9296697E-01
       -1   -1    0    0    0  501  0.00000000000E+00  0.00000000000E+00  0.82277129494E+03  0.82277129496E+03  0.50400001928E-02 0.  1.
        1   -1    0    0  501    0  0.00000000000E+00  0.00000000000E+00 -0.31049566409E+03  0.31049566413E+03  0.50400001928E-02 0. -1.
    10030    2    1    2    0    0  0.00000000000E+00  0.00000000000E+00  0.51227563086E+03  0.11332669591E+04  0.10108747096E+04 0.  0.
        4    1    3    3  502    0 -0.30206693766E+03 -0.36721880845E+03  0.64007507580E+02  0.47978397434E+03  0.12699999809E+01 0. -1.
       -4    1    3    3    0  502  0.30206693766E+03  0.36721880845E+03  0.44826812328E+03  0.65348298475E+03  0.12699999809E+01 0.  1.
</event>
<event>
 5   0  0.3513625E-03  0.9995294E+03  0.7818609E-02  0.9309061E-01
        3   -1    0    0  501    0  0.00000000000E+00  0.00000000000E+00  0.82870000707E+03  0.82870001322E+03  0.10100000352E+00 0.  1.
       -3   -1    0    0    0  501  0.00000000000E+00  0.00000000000E+00 -0.30139345487E+03  0.30139347179E+03  0.10100000352E+00 0. -1.
    10030    2    1    2    0    0  0.00000000000E+00  0.00000000000E+00  0.52730655220E+03  0.11300934850E+04  0.99952943172E+03 0.  0.
        4    1    3    3  502    0 -0.69748435351E+02  0.29917858874E+03 -0.18203478157E+03  0.35708674968E+03  0.12699999809E+01 0. -1.
       -4    1    3    3    0  502  0.69748435351E+02 -0.29917858874E+03  0.70934133376E+03  0.77300673534E+03  0.12699999809E+01 0.  1.
</event>
<event>
 5   0  0.8875655E-03  0.9708879E+03  0.7818609E-02  0.9341064E-01
       -2   -1    0    0    0  501  0.00000000000E+00  0.00000000000E+00  0.30676931524E+03  0.30676931525E+03  0.25500000920E-02 0.  1.
        2   -1    0    0  501    0  0.00000000000E+00  0.00000000000E+00 -0.76818580475E+03  0.76818580475E+03  0.25500000920E-02 0. -1.
    10030    2    1    2    0    0  0.00000000000E+00  0.00000000000E+00 -0.46141648950E+03  0.10749551200E+04  0.97088790972E+03 0.  0.
        4    1    3    3  502    0 -0.39650423965E+03 -0.74659203709E+02 -0.52957634771E+03  0.66576447015E+03  0.12699999809E+01 0.  1.
       -4    1    3    3    0  502  0.39650423965E+03  0.74659203709E+02  0.68159858206E+02  0.40919064986E+03  0.12699999809E+01 0. -1.
</event>
<event>
 5   0  0.8907355E-03  0.7758689E+03  0.7818609E-02  0.9595618E-01
        2   -1    0    0  501    0  0.00000000000E+00  0.00000000000E+00  0.58749780958E+03  0.58749780959E+03  0.25500000920E-02 0.  1.
       -2   -1    0    0    0  501  0.00000000000E+00  0.00000000000E+00 -0.25615951221E+03  0.25615951222E+03  0.25500000920E-02 0. -1.
    10030    2    1    2    0    0  0.00000000000E+00  0.00000000000E+00  0.33133829737E+03  0.84365732181E+03  0.77586893824E+03 0.  0.
        5    1    3    3  502    0  0.31783933178E+03  0.18081836670E+03  0.24923107037E+02  0.36655200699E+03  0.46999998093E+01 0. -1.
       -5    1    3    3    0  502 -0.31783933178E+03 -0.18081836670E+03  0.30641519034E+03  0.47710531482E+03  0.46999998093E+01 0.  1.
</event>
<event>
 5   0  0.5349685E-03  0.1006388E+04  0.7818609E-02  0.9301566E-01
        1   -1    0    0  501    0  0.00000000000E+00  0.00000000000E+00  0.10764765461E+04  0.10764765461E+04  0.50400001928E-02 0.  1.
       -1   -1    0    0    0  501  0.00000000000E+00  0.00000000000E+00 -0.23521564159E+03  0.23521564164E+03  0.50400001928E-02 0. -1.
    10030    2    1    2    0    0  0.00000000000E+00  0.00000000000E+00  0.84126090451E+03  0.13116921878E+04  0.10063878407E+04 0.  0.
        4    1    3    3  502    0  0.52812693175E+02  0.14933984350E+03  0.10431308128E+04  0.10550900791E+04  0.12699999809E+01 0.  1.
       -4    1    3    3    0  502 -0.52812693175E+02 -0.14933984350E+03 -0.20186990828E+03  0.25660210870E+03  0.12699999809E+01 0. -1.
</event>
<event>
 5   0  0.8875655E-03  0.1002263E+04  0.7818609E-02  0.9306066E-01
       -2   -1    0    0    0  501  0.00000000000E+00  0.00000000000E+00  0.37143370019E+03  0.37143370020E+03  0.25500000920E-02 0. -1.
        2   -1    0    0  501    0  0.00000000000E+00  0.00000000000E+00 -0.67611739339E+03  0.67611739340E+03  0.25500000920E-02 0.  1.
    10030    2    1    2    0    0  0.00000000000E+00  0.00000000000E+00 -0.30468369321E+03  0.10475510936E+04  0.10022630098E+04 0.  0.
        4    1    3    3  502    0 -0.16625072729E+03 -0.10657795122E+03  0.32904878890E+03  0.38376149154E+03  0.12699999809E+01 0. -1.
       -4    1    3    3    0  502  0.16625072729E+03  0.10657795122E+03 -0.63373248211E+03  0.66378960205E+03  0.12699999809E+01 0.  1.
</event>
<event>
 5   0  0.3513625E-03  0.1019026E+04  0.7818609E-02  0.9287920E-01
        3   -1    0    0  501    0  0.00000000000E+00  0.00000000000E+00  0.10838580611E+04  0.10838580658E+04  0.10100000352E+00 0.  1.
       -3   -1    0    0    0  501  0.00000000000E+00  0.00000000000E+00 -0.23951812222E+03  0.23951814351E+03  0.10100000352E+00 0. -1.
    10030    2    1    2    0    0  0.00000000000E+00  0.00000000000E+00  0.84433993890E+03  0.13233762093E+04  0.10190263289E+04 0.  0.
        2    1    3    3  502    0 -0.34405069757E+02 -0.38021942062E+03 -0.16028079548E+02  0.38210916763E+03  0.25500000920E-02 0. -1.
       -2    1    3    3    0  502  0.34405069757E+02  0.38021942062E+03  0.86036801845E+03  0.94126704171E+03  0.25500000920E-02 0.  1.
</event>
<event>
 5   0  0.5189877E-03  0.1016979E+04  0.7818609E-02  0.9290116E-01
        1   -1    0    0  501    0  0.00000000000E+00  0.00000000000E+00  0.53660454431E+03  0.53660454434E+03  0.50400001928E-02 0.  1.
       -1   -1    0    0    0  501  0.00000000000E+00  0.00000000000E+00 -0.48184737493E+03  0.48184737495E+03  0.50400001928E-02 0. -1.
    10030    2    1    2    0    0  0.00000000000E+00  0.00000000000E+00  0.54757169389E+02  0.10184519193E+04  0.10169788416E+04 0.  0.
        3    1    3    3  502    0 -0.36136878077E+03  0.27992687102E+02  0.38453293271E+03  0.52842839892E+03  0.10100000352E+00 0.  1.
       -3    1    3    3    0  502  0.36136878077E+03 -0.27992687102E+02 -0.32977576332E+03  0.49002352037E+03  0.10100000352E+00 0. -1.
</event>
<event>
 5   0  0.5201968E-03  0.1019981E+04  0.7818609E-02  0.9286897E-01
       -1   -1    0    0    0  501  0.00000000000E+00  0.00000000000E+00  0.74358250217E+03  0.74358250218E+03  0.50400001928E-02 0.  1.
        1   -1    0    0  501    0  0.00000000000E+00  0.00000000000E+00 -0.34978036968E+03  0.34978036971E+03  0.50400001928E-02 0. -1.
    10030    2    1    2    0    0  0.00000000000E+00  0.00000000000E+00  0.39380213249E+03  0.10933628719E+04  0.10199814950E+04 0.  0.
        2    1    3    3  502    0  0.19254186002E+02 -0.41385833117E+02 -0.34758631282E+03  0.35057061447E+03  0.25500000920E-02 0. -1.
       -2    1    3    3    0  502 -0.19254186002E+02  0.41385833117E+02  0.74138844531E+03  0.74279225743E+03  0.25500000920E-02 0.  1.
</event>
<event>
 5   0  0.5201968E-03  0.9909128E+03  0.7818609E-02  0.9318568E-01
        1   -1    0    0  501    0  0.00000000000E+00  0.00000000000E+00  0.13807401617E+04  0.13807401617E+04  0.50400001928E-02 0.  1.
       -1   -1    0    0    0  501  0.00000000000E+00  0.00000000000E+00 -0.17778656263E+03  0.17778656270E+03  0.50400001928E-02 0. -1.
    10030    2    1    2    0    0  0.00000000000E+00  0.00000000000E+00  0.12029535991E+04  0.15585267244E+04  0.99091280603E+03 0.  0.
        2    1    3    3  502    0 -0.11018809603E+03  0.30836862091E+03  0.11862704182E+04  0.12306380979E+04  0.25500000920E-02 0.  1.
       -2    1    3    3    0  502  0.11018809603E+03 -0.30836862091E+03  0.16683180875E+02  0.32788862652E+03  0.25500000920E-02 0. -1.
</event>
<event>
 5   0  0.5310275E-03  0.9923817E+03  0.7818609E-02  0.9316940E-01
        1   -1    0    0  501    0  0.00000000000E+00  0.00000000000E+00  0.10328877173E+04  0.10328877173E+04  0.50400001928E-02 0. -1.
       -1   -1    0    0    0  501  0.00000000000E+00  0.00000000000E+00 -0.23836605342E+03  0.23836605347E+03  0.50400001928E-02 0.  1.
    10030    2    1    2    0    0  0.00000000000E+00  0.00000000000E+00  0.79452166385E+03  0.12712537708E+04  0.99238171856E+03 0.  0.
        1    1    3    3  502    0 -0.38495358260E+03  0.21760652288E+03  0.68559833489E+03  0.81583511593E+03  0.50400001928E-02 0. -1.
       -1    1    3    3    0  502  0.38495358260E+03 -0.21760652288E+03  0.10892332897E+03  0.45541865483E+03  0.50400001928E-02 0.  1.
</event>
<event>
 5   0  0.5072205E-03  0.9821295E+03  0.7818609E-02  0.9328365E-01
        1   -1    0    0  501    0  0.00000000000E+00  0.00000000000E+00  0.64790662033E+03  0.64790662034E+03  0.50400001928E-02 0.  1.
       -1   -1    0    0    0  501  0.00000000000E+00  0.00000000000E+00 -0.37219033032E+03  0.37219033036E+03  0.50400001928E-02 0. -1.
    10030    2    1    2    0    0  0.00000000000E+00  0.00000000000E+00  0.27571629000E+03  0.10200969507E+04  0.98212948039E+03 0.  0.
        5    1    3    3  502    0  0.34601114224E+03  0.34738335882E+03  0.16579748466E+03  0.51760004294E+03  0.46999998093E+01 0. -1.
       -5    1    3    3    0  502 -0.34601114224E+03 -0.34738335882E+03  0.10991880535E+03  0.50249690776E+03  0.46999998093E+01 0.  1.
</event>
<event>
 5   0  0.5201968E-03  0.1001629E+04  0.7818609E-02  0.9306760E-01
       -1   -1    0    0    0  501  0.00000000000E+00  0.00000000000E+00  0.39731708165E+03  0.39731708169E+03  0.50400001928E-02 0. -1.
        1   -1    0    0  501    0  0.00000000000E+00  0.00000000000E+00 -0.63127244799E+03  0.63127244801E+03  0.50400001928E-02 0.  1.
    10030    2    1    2    0    0  0.00000000000E+00  0.00000000000E+00 -0.23395536634E+03  0.10285895297E+04  0.10016293262E+04 0.  0.
        2    1    3    3  502    0  0.24977481992E+03 -0.16939161984E+03  0.29344770784E+03  0.42094244117E+03  0.25500000920E-02 0. -1.
       -2    1    3    3    0  502 -0.24977481992E+03  0.16939161984E+03 -0.52740307417E+03  0.60764708852E+03  0.25500000920E-02 0.  1.
</event>
<event>
 5   0  0.8875655E-03  0.1041764E+04  0.7818609E-02  0.9263889E-01
       -2   -1    0    0    0  501  0.00000000000E+00  0.00000000000E+00  0.81417001974E+03  0.81417001974E+03  0.25500000920E-02 0.  1.
        2   -1    0    0  501    0  0.00000000000E+00  0.00000000000E+00 -0.33324471599E+03  0.33324471600E+03  0.25500000920E-02 0. -1.
    10030    2    1    2    0    0  0.00000000000E+00  0.00000000000E+00  0.48092530375E+03  0.11474147357E+04  0.10417636143E+04 0.  0.
        4    1    3    3  502    0  0.32885793597E+03 -0.41591373807E+02 -0.20208014771E+03  0.38822079211E+03  0.12699999809E+01 0. -1.
       -4    1    3    3    0  502 -0.32885793597E+03  0.41591373807E+02  0.68300545146E+03  0.75919394363E+03  0.12699999809E+01 0.  1.
</event>
<event>
 5   0  0.8875655E-03  0.9616935E+03  0.7818609E-02  0.9351586E-01
       -2   -1    0    0    0  501  0.00000000000E+00  0.00000000000E+00  0.73060109536E+03  0.73060109536E+03  0.25500000920E-02 0. -1.
        2   -1    0    0  501    0  0.00000000000E+00  0.00000000000E+00 -0.31647038751E+03  0.31647038752E+03  0.25500000920E-02 0.  1.
    10030    2    1    2    0    0  0.00000000000E+00  0.00000000000E+00  0.41413070785E+03  0.10470714829E+04  0.96169353074E+03 0.  0.
        4    1    3    3  502    0  0.26579235921E+03 -0.40251835969E+02 -0.22700959818E+03  0.35185332040E+03  0.12699999809E+01 0.  1.
       -4    1    3    3    0  502 -0.26579235921E+03  0.40251835969E+02  0.64114030603E+03  0.69521816247E+03  0.12699999809E+01 0. -1.
</event>
<event>
 5   0  0.9040674E-03  0.9889375E+03  0.7818609E-02  0.9320762E-01
        2   -1    0    0  501    0  0.00000000000E+00  0.00000000000E+00  0.80646087601E+03  0.80646087602E+03  0.25500000920E-02 0.  1.
       -2   -1    0    0    0  501  0.00000000000E+00  0.00000000000E+00 -0.30317567843E+03  0.30317567844E+03  0.25500000920E-02 0. -1.
    10030    2    1    2    0    0  0.00000000000E+00  0.00000000000E+00  0.50328519758E+03  0.11096365545E+04  0.98893745651E+03 0.  0.
        1    1    3    3  502    0 -0.59064556763E+02 -0.64713512099E+02 -0.29439650109E+03  0.30715754979E+03  0.50400001928E-02 0. -1.
       -1    1    3    3    0  502  0.59064556763E+02  0.64713512099E+02  0.79768169867E+03  0.80247900467E+03  0.50400001928E-02 0.  1.
</event>
<event>
 5   0  0.5349685E-03  0.1106161E+04  0.7818609E-02  0.9199207E-01
       -1   -1    0    0    0  501  0.00000000000E+00  0.00000000000E+00  0.10755444357E+04  0.10755444357E+04  0.50400001928E-02 0. -1.
        1   -1    0    0  501    0  0.00000000000E+00  0.00000000000E+00 -0.28441237790E+03  0.28441237794E+03  0.50400001928E-02 0.  1.
    10030    2    1    2    0    0  0.00000000000E+00  0.00000000000E+00  0.79113205777E+03  0.13599568136E+04  0.11061612008E+04 0.  0.
        4    1    3    3  502    0  0.23202325378E+02 -0.34077561267E+03 -0.13924688756E+03  0.36885996623E+03  0.12699999809E+01 0.  1.
       -4    1    3    3    0  502 -0.23202325378E+02  0.34077561267E+03  0.93037894533E+03  0.99109684739E+03  0.12699999809E+01 0. -1.
</event>
<event>
 5   0  0.5349685E-03  0.1002830E+04  0.7818609E-02  0.9305446E-01
       -1   -1    0    0    0  501  0.00000000000E+00  0.00000000000E+00  0.67407965619E+03  0.67407965621E+03  0.50400001928E-02 0.  1.
        1   -1    0    0  501    0  0.00000000000E+00  0.00000000000E+00 -0.37297834200E+03  0.37297834203E+03  0.50400001928E-02 0. -1.
    10030    2    1    2    0    0  0.00000000000E+00  0.00000000000E+00  0.30110131419E+03  0.10470579982E+04  0.10028302201E+04 0.  0.
        4    1    3    3  502    0 -0.99010949046E+02 -0.48771170698E+03  0.21448542596E+03  0.54191465012E+03  0.12699999809E+01 0.  1.
       -4    1    3    3    0  502  0.99010949046E+02  0.48771170698E+03  0.86615888228E+02  0.50514334812E+03  0.12699999809E+01 0. -1.
</event>
<event>
 5   0  0.8907355E-03  0.9986515E+03  0.7818609E-02  0.9310025E-01
        2   -1    0    0  501    0  0.00000000000E+00  0.00000000000E+00  0.80029049224E+03  0.80029049225E+03  0.25500000920E-02 0.  1.
       -2   -1    0    0    0  501  0.00000000000E+00  0.00000000000E+00 -0.31154460855E+03  0.31154460856E+03  0.25500000920E-02 0. -1.
    10030    2    1    2    0    0  0.00000000000E+00  0.00000000000E+00  0.48874588369E+03  0.11118351008E+04  0.99865146702E+03 0.  0.
        5    1    3    3  502    0  0.19429011221E+03 -0.40336926735E+03  0.49043965779E+03  0.66408475474E+03  0.46999998093E+01 0. -1.
       -5    1    3    3    0  502 -0.19429011221E+03  0.40336926735E+03 -0.16937741020E+01  0.44775034608E+03  0.46999998093E+01 0.  1.
</event>
<event>
 5   0  0.5072205E-03  0.9989734E+03  0.7818609E-02  0.9309671E-01
        1   -1    0    0  501    0  0.00000000000E+00  0.00000000000E+00  0.10083171146E+04  0.10083171147E+04  0.50400001928E-02 0.  1.
       -1   -1    0    0    0  501  0.00000000000E+00  0.00000000000E+00 -0.24742905770E+03  0.24742905775E+03  0.50400001928E-02 0. -1.
    10030    2    1    2    0    0  0.00000000000E+00  0.00000000000E+00  0.76088805694E+03  0.12557461724E+04  0.99897338019E+03 0.  0.
        5    1    3    3  502    0  0.22544691247E+03  0.26363623866E+03 -0.71275710038E+02  0.35416478299E+03  0.46999998093E+01 0. -1.
       -5    1    3    3    0  502 -0.22544691247E+03 -0.26363623866E+03  0.83216376698E+03  0.90158138942E+03  0.46999998093E+01 0.  1.
</event>
<event>
 5   0  0.5072205E-03  0.1009866E+04  0.7818609E-02  0.9297789E-01
        1   -1    0    0  501    0  0.00000000000E+00  0.00000000000E+00  0.10620727036E+04  0.10620727036E+04  0.50400001928E-02 0. -1.
       -1   -1    0    0    0  501  0.00000000000E+00  0.00000000000E+00 -0.24005647438E+03  0.24005647443E+03  0.50400001928E-02 0.  1.
    10030    2    1    2    0    0  0.00000000000E+00  0.00000000000E+00  0.82201622924E+03  0.13021291781E+04  0.10098661868E+04 0.  0.
        5    1    3    3  502    0 -0.19760331372E+03  0.40000536552E+03  0.71582139960E+03  0.84348902077E+03  0.46999998093E+01 0. -1.
       -5    1    3    3    0  502  0.19760331372E+03 -0.40000536552E+03  0.10619482964E+03  0.45864015729E+03  0.46999998093E+01 0.  1.
</event>
<event>
 5   0  0.8968798E-03  0.9910428E+03  0.7818609E-02  0.9318424E-01
        2   -1    0    0  501    0  0.00000000000E+00  0.00000000000E+00  0.19609725308E+04  0.19609725308E+04  0.25500000920E-02 0. -1.
       -2   -1    0    0    0  501  0.00000000000E+00  0.00000000000E+00 -0.12521411673E+03  0.12521411676E+03  0.25500000920E-02 0.  1.
    10030    2    1    2    0    0  0.00000000000E+00  0.00000000000E+00  0.18357584141E+04  0.20861866476E+04  0.99104277083E+03 0.  0.
        2    1    3    3  502    0 -0.33713263629E+02 -0.34939533156E+03  0.16541257657E+04  0.16909600027E+04  0.25500000920E-02 0. -1.
       -2    1    3    3    0  502  0.33713263629E+02  0.34939533156E+03  0.18163264834E+03  0.39522664486E+03  0.25500000920E-02 0.  1.
</event>
<event>
 5   0  0.5189877E-03  0.9947942E+03  0.7818609E-02  0.9314273E-01
       -1   -1    0    0    0  501  0.00000000000E+00  0.00000000000E+00  0.25840254499E+03  0.25840254504E+03  0.50400001928E-02 0. -1.
        1   -1    0    0  501    0  0.00000000000E+00  0.00000000000E+00 -0.95743583472E+03  0.95743583473E+03  0.50400001928E-02 0.  1.
    10030    2    1    2    0    0  0.00000000000E+00  0.00000000000E+00 -0.69903328972E+03  0.12158383798E+04  0.99479416242E+03 0.  0.
        3    1    3    3  502    0  0.11747101630E+03 -0.36887361429E+03 -0.73122051850E+03  0.82737575495E+03  0.10100000352E+00 0.  1.
       -3    1    3    3    0  502 -0.11747101630E+03  0.36887361429E+03  0.32187228780E+02  0.38846262483E+03  0.10100000352E+00 0. -1.
</event>
<event>
 5   0  0.9243773E-03  0.9994404E+03  0.7818609E-02  0.9309159E-01
        2   -1    0    0  501    0  0.00000000000E+00  0.00000000000E+00  0.11572963752E+04  0.11572963752E+04  0.25500000920E-02 0. -1.
       -2   -1    0    0    0  501  0.00000000000E+00  0.00000000000E+00 -0.21577903751E+03  0.21577903753E+03  0.25500000920E-02 0.  1.
    10030    2    1    2    0    0  0.00000000000E+00  0.00000000000E+00  0.94151733769E+03  0.13730754127E+04  0.99944043939E+03 0.  0.
        3    1    3    3  502    0  0.21464853722E+03 -0.20944566669E+03 -0.78399006805E+02  0.30998047728E+03  0.10100000352E+00 0.  1.
       -3    1    3    3    0  502 -0.21464853722E+03  0.20944566669E+03  0.10199163445E+04  0.10630949355E+04  0.10100000352E+00 0. -1.
</event>
<event>
 5   0  0.3513625E-03  0.1000155E+04  0.7818609E-02  0.9308375E-01
       -3   -1    0    0    0  501  0.00000000000E+00  0.00000000000E+00  0.99131064005E+03  0.99131064520E+03  0.10100000352E+00 0.  1.
        3   -1    0    0  501    0  0.00000000000E+00  0.00000000000E+00 -0.25226945431E+03  0.25226947453E+03  0.10100000352E+00 0. -1.
    10030    2    1    2    0    0  0.00000000000E+00  0.00000000000E+00  0.73904118574E+03  0.12435801197E+04  0.10001548080E+04 0.  0.
        4    1    3    3  502    0 -0.19013110112E+03  0.43605294261E+03  0.56127577049E+03  0.73574731247E+03  0.12699999809E+01 0.  1.
       -4    1    3    3    0  502  0.19013110112E+03 -0.43605294261E+03  0.17776541525E+03  0.50783280726E+03  0.12699999809E+01 0. -1.
</event>
<event>
 5   0  0.8875655E-03  0.1005523E+04  0.7818609E-02  0.9302508E-01
       -2   -1    0    0    0  501  0.00000000000E+00  0.00000000000E+00  0.25319662974E+03  0.25319662976E+03  0.25500000920E-02 0. -1.
        2   -1    0    0  501    0  0.00000000000E+00  0.00000000000E+00 -0.99831161998E+03  0.99831161998E+03  0.25500000920E-02 0.  1.
    10030    2    1    2    0    0  0.00000000000E+00  0.00000000000E+00 -0.74511499023E+03  0.12515082497E+04  0.10055230234E+04 0.  0.
        4    1    3    3  502    0 -0.45757920672E+03  0.20280443671E+03 -0.31339933093E+03  0.59053291483E+03  0.12699999809E+01 0. -1.
       -4    1    3    3    0  502  0.45757920672E+03 -0.20280443671E+03 -0.43171565930E+03  0.66097533491E+03  0.12699999809E+01 0.  1.
</event>
<event>
 5   0  0.8875655E-03  0.9743921E+03  0.7818609E-02  0.9337086E-01
       -2   -1    0    0    0  501  0.00000000000E+00  0.00000000000E+00  0.17789452052E+03  0.17789452054E+03  0.25500000920E-02 0. -1.
        2   -1    0    0  501    0  0.00000000000E+00  0.00000000000E+00 -0.13342737570E+04  0.13342737570E+04  0.25500000920E-02 0.  1.
    10030    2    1    2    0    0  0.00000000000E+00  0.00000000000E+00 -0.11563792365E+04  0.15121682776E+04  0.97439209822E+03 0.  0.
        4    1    3    3  502    0 -0.11127482946E+03  0.29936502881E+03 -0.72285187666E+01  0.31946106575E+03  0.12699999809E+01 0. -1.
       -4    1    3    3    0  502  0.11127482946E+03 -0.29936502881E+03 -0.11491507177E+04  0.11927072118E+04  0.12699999809E+01 0.  1.
</event>
<event>
 5   0  0.5201968E-03  0.1005647E+04  0.7818609E-02  0.9302373E-01
        1   -1    0    0  501    0  0.00000000000E+00  0.00000000000E+00  0.50371207885E+03  0.50371207888E+03  0.50400001928E-02 0.  1.
       -1   -1    0    0    0  501  0.00000000000E+00  0.00000000000E+00 -0.50193679137E+03  0.50193679140E+03  0.50400001928E-02 0. -1.
    10030    2    1    2    0    0  0.00000000000E+00  0.00000000000E+00  0.17752874794E+01  0.10056488703E+04  0.10056473033E+04 0.  0.
        2    1    3    3  502    0  0.21287465132E+03  0.25021826623E+03  0.38155453001E+03  0.50349643227E+03  0.25500000920E-02 0.  1.
       -2    1    3    3    0  502 -0.21287465132E+03 -0.25021826623E+03 -0.37977924253E+03  0.50215243800E+03  0.25500000920E-02 0. -1.
</event>
<event>
 5   0  0.9040674E-03  0.1004700E+04  0.7818609E-02  0.9303405E-01
       -2   -1    0    0    0  501  0.00000000000E+00  0.00000000000E+00  0.53480436519E+03  0.53480436519E+03  0.25500000920E-02 0. -1.
        2   -1    0    0  501    0  0.00000000000E+00  0.00000000000E+00 -0.47186517875E+03  0.47186517876E+03  0.25500000920E-02 0.  1.
    10030    2    1    2    0    0  0.00000000000E+00  0.00000000000E+00  0.62939186435E+02  0.10066695440E+04  0.10047000694E+04 0.  0.
        1    1    3    3  502    0 -0.11492678566E+03  0.18795933894E+03  0.48381739864E+03  0.53161654828E+03  0.50400001928E-02 0. -1.
       -1    1    3    3    0  502  0.11492678566E+03 -0.18795933894E+03 -0.42087821220E+03  0.47505299567E+03  0.50400001928E-02 0.  1.
</event>
<event>
 5   0  0.5310275E-03  0.1003586E+04  0.7818609E-02  0.9304620E-01
       -1   -1    0    0    0  501  0.00000000000E+00  0.00000000000E+00  0.34005611652E+03  0.34005611656E+03  0.50400001928E-02 0.  1.
        1   -1    0    0  501    0  0.00000000000E+00  0.00000000000E+00 -0.74045546163E+03  0.74045546164E+03  0.50400001928E-02 0. -1.
    10030    2    1    2    0    0  0.00000000000E+00  0.00000000000E+00 -0.40039934511E+03  0.10805115782E+04  0.10035863864E+04 0.  0.
        1    1    3    3  502    0  0.34297442377E+03 -0.25101690081E+03 -0.48739594961E+03  0.64668056378E+03  0.50400001928E-02 0. -1.
       -1    1    3    3    0  502 -0.34297442377E+03  0.25101690081E+03  0.86996604498E+02  0.43383101442E+03  0.50400001928E-02 0.  1.
</event>
<event>
 5   0  0.5072205E-03  0.1000158E+04  0.7818609E-02  0.9308372E-01
        1   -1    0    0  501    0  0.00000000000E+00  0.00000000000E+00  0.82928303998E+03  0.82928304000E+03  0.50400001928E-02 0. -1.
       -1   -1    0    0    0  501  0.00000000000E+00  0.00000000000E+00 -0.30156030025E+03  0.30156030030E+03  0.50400001928E-02 0.  1.
    10030    2    1    2    0    0  0.00000000000E+00  0.00000000000E+00  0.52772273973E+03  0.11308433403E+04  0.10001576727E+04 0.  0.
        5    1    3    3  502    0 -0.15751907812E+02  0.49979761540E+03  0.26011587952E+03  0.56367378840E+03  0.46999998093E+01 0.  1.
       -5    1    3    3    0  502  0.15751907812E+02 -0.49979761540E+03  0.26760686021E+03  0.56716955189E+03  0.46999998093E+01 0. -1.
</event>
<event>
 5   0  0.9040674E-03  0.9990571E+03  0.7818609E-02  0.9309580E-01
        2   -1    0    0  501    0  0.00000000000E+00  0.00000000000E+00  0.19645010362E+04  0.19645010362E+04  0.25500000920E-02 0.  1.
       -2   -1    0    0    0  501  0.00000000000E+00  0.00000000000E+00 -0.12701889986E+03  0.12701889988E+03  0.25500000920E-02 0. -1.
    10030    2    1    2    0    0  0.00000000000E+00  0.00000000000E+00  0.18374821363E+04  0.20915199360E+04  0.99905707626E+03 0.  0.
        1    1    3    3  502    0 -0.17100890843E+03  0.36034191317E+03  0.15483171054E+04  0.15988671615E+04  0.50400001928E-02 0.  1.
       -1    1    3    3    0  502  0.17100890843E+03 -0.36034191317E+03  0.28916503086E+03  0.49265277452E+03  0.50400001928E-02 0. -1.
</event>
<event>
 5   0  0.5072205E-03  0.1015816E+04  0.7818609E-02  0.9291366E-01
       -1   -1    0    0    0  501  0.00000000000E+00  0.00000000000E+00  0.15014164655E+03  0.15014164663E+03  0.50400001928E-02 0. -1.
        1   -1    0    0  501    0  0.00000000000E+00  0.00000000000E+00 -0.17181824824E+04  0.17181824825E+04  0.50400001928E-02 0.  1.
    10030    2    1    2    0    0  0.00000000000E+00  0.00000000000E+00 -0.15680408359E+04  0.18683241291E+04  0.10158164147E+04 0.  0.
        5    1    3    3  502    0 -0.44617128454E+02  0.33734404903E+03 -0.14774798546E+04  0.15161663847E+04  0.46999998093E+01 0.  1.
       -5    1    3    3    0  502  0.44617128454E+02 -0.33734404903E+03 -0.90560981334E+02  0.35215774435E+03  0.46999998093E+01 0. -1.
</event>
<event>
 5   0  0.5189877E-03  0.1000216E+04  0.7818609E-02  0.9308308E-01
        1   -1    0    0  501    0  0.00000000000E+00  0.00000000000E+00  0.35891876681E+03  0.35891876684E+03  0.50400001928E-02 0. -1.
       -1   -1    0    0    0  501  0.00000000000E+00  0.00000000000E+00 -0.69683714423E+03  0.69683714425E+03  0.50400001928E-02 0.  1.
    10030    2    1    2    0    0  0.00000000000E+00  0.00000000000E+00 -0.33791837742E+03  0.10557559111E+04  0.10002158337E+04 0.  0.
        3    1    3    3  502    0  0.33497801309E+03  0.22685967640E+03  0.14135949360E+03  0.42855349569E+03  0.10100000352E+00 0. -1.
       -3    1    3    3    0  502 -0.33497801309E+03 -0.22685967640E+03 -0.47927787102E+03  0.62720241540E+03  0.10100000352E+00 0.  1.
</event>
<event>
 5   0  0.5349685E-03  0.1009913E+04  0.7818609E-02  0.9297738E-01
       -1   -1    0    0    0  501  0.00000000000E+00  0.00000000000E+00  0.45997548562E+03  0.45997548565E+03  0.50400001928E-02 0.  1.
        1   -1    0    0  501    0  0.00000000000E+00  0.00000000000E+00 -0.55433646226E+03  0.55433646228E+03  0.50400001928E-02 0. -1.
    10030    2    1    2    0    0  0.00000000000E+00  0.00000000000E+00 -0.94360976635E+02  0.10143119479E+04  0.10099132308E+04 0.  0.
        4    1    3    3  502    0  0.25403419576E+03  0.36855056688E+02  0.38955587332E+03  0.46652658998E+03  0.12699999809E+01 0.  1.
       -4    1    3    3    0  502 -0.25403419576E+03 -0.36855056688E+02 -0.48391684996E+03  0.54778535795E+03  0.12699999809E+01 0. -1.
</event>
<event>
 5   0  0.8907355E-03  0.9297200E+03  0.7818609E-02  0.9389174E-01
        2   -1    0    0  501    0  0.00000000000E+00  0.00000000000E+00  0.24874494208E+03  0.24874494209E+03  0.25500000920E-02 0. -1.
       -2   -1    0    0    0  501  0.00000000000E+00  0.00000000000E+00 -0.86874063999E+03  0.86874063999E+03  0.25500000920E-02 0.  1.
    10030    2    1    2    0    0  0.00000000000E+00  0.00000000000E+00 -0.61999569791E+03  0.11174855821E+04  0.92972004429E+03 0.  0.
        5    1    3    3  502    0 -0.37852368260E+03  0.24514439885E+03 -0.17456101325E+03  0.48360065335E+03  0.46999998093E+01 0. -1.
       -5    1    3    3    0  502  0.37852368260E+03 -0.24514439885E+03 -0.44543468466E+03  0.63388492873E+03  0.46999998093E+01 0.  1.
</event>
<event>
 5   0  0.9040674E-03  0.1006681E+04  0.7818609E-02  0.9301247E-01
       -2   -1    0    0    0  501  0.00000000000E+00  0.00000000000E+00  0.71422844996E+03  0.71422844997E+03  0.25500000920E-02 0.  1.
        2   -1    0    0  501    0  0.00000000000E+00  0.00000000000E+00 -0.35472082905E+03  0.35472082906E+03  0.25500000920E-02 0. -1.
    10030    2    1    2    0    0  0.00000000000E+00  0.00000000000E+00  0.35950762091E+03  0.10689492790E+04  0.10066810973E+04 0.  0.
        1    1    3    3  502    0  0.29165163612E+03  0.11233157783E+03  0.59871263346E+03  0.67537832191E+03  0.50400001928E-02 0.  1.
       -1    1    3    3    0  502 -0.29165163612E+03 -0.11233157783E+03 -0.23920501254E+03  0.39357095711E+03  0.50400001928E-02 0. -1.
</event>
<event>
 5   0  0.5201968E-03  0.1001672E+04  0.7818609E-02  0.9306712E-01
        1   -1    0    0  501    0  0.00000000000E+00  0.00000000000E+00  0.97193017873E+03  0.97193017875E+03  0.50400001928E-02 0.  1.
       -1   -1    0    0    0  501  0.00000000000E+00  0.00000000000E+00 -0.25808119880E+03  0.25808119885E+03  0.50400001928E-02 0. -1.
    10030    2    1    2    0    0  0.00000000000E+00  0.00000000000E+00  0.71384897993E+03  0.12300113776E+04  0.10016724129E+04 0.  0.
        2    1    3    3  502    0 -0.66077710250E+02 -0.32099778116E+03 -0.10813127174E+03  0.34510608693E+03  0.25500000920E-02 0. -1.
       -2    1    3    3    0  502  0.66077710250E+02  0.32099778116E+03  0.82198025167E+03  0.88490529066E+03  0.25500000920E-02 0.  1.
</event>
<event>
 5   0  0.5072205E-03  0.1026643E+04  0.7818609E-02  0.9279796E-01
        1   -1    0    0  501    0  0.00000000000E+00  0.00000000000E+00  0.61233501059E+03  0.61233501061E+03  0.50400001928E-02 0. -1.
       -1   -1    0    0    0  501  0.00000000000E+00  0.00000000000E+00 -0.43031853431E+03  0.43031853433E+03  0.50400001928E-02 0.  1.
    10030    2    1    2    0    0  0.00000000000E+00  0.00000000000E+00  0.18201647628E+03  0.10426535449E+04  0.10266432765E+04 0.  0.
        5    1    3    3  502    0 -0.36411292139E+03 -0.97744379612E+02 -0.26276998591E+03  0.45956755625E+03  0.46999998093E+01 0.  1.
       -5    1    3    3    0  502  0.36411292139E+03  0.97744379612E+02  0.44478646219E+03  0.58308598869E+03  0.46999998093E+01 0. -1.
</event>
<event>
 5   0  0.9243773E-03  0.1060575E+04  0.7818609E-02  0.9244494E-01
        2   -1    0    0  501    0  0.00000000000E+00  0.00000000000E+00  0.90474176535E+03  0.90474176535E+03  0.25500000920E-02 0.  1.
       -2   -1    0    0    0  501  0.00000000000E+00  0.00000000000E+00 -0.31081215875E+03  0.31081215876E+03  0.25500000920E-02 0. -1.
    10030    2    1    2    0    0  0.00000000000E+00  0.00000000000E+00  0.59392960660E+03  0.12155539241E+04  0.10605748275E+04 0.  0.
        3    1    3    3  502    0 -0.15067692237E+03 -0.12856073446E+03  0.86075389460E+03  0.88324893130E+03  0.10100000352E+00 0.  1.
       -3    1    3    3    0  502  0.15067692237E+03  0.12856073446E+03 -0.26682428800E+03  0.33230499281E+03  0.10100000352E+00 0. -1.
</event>
<event>
 5   0  0.9040674E-03  0.1004299E+04  0.7818609E-02  0.9303842E-01
       -2   -1    0    0    0  501  0.00000000000E+00  0.00000000000E+00  0.28728163604E+03  0.28728163606E+03  0.25500000920E-02 0.  1.
        2   -1    0    0  501    0  0.00000000000E+00  0.00000000000E+00 -0.87772452321E+03  0.87772452321E+03  0.25500000920E-02 0. -1.
    10030    2    1    2    0    0  0.00000000000E+00  0.00000000000E+00 -0.59044288717E+03  0.11650061593E+04  0.10042990332E+04 0.  0.
        1    1    3    3  502    0  0.41342360487E+03  0.78398844697E+02 -0.61309354640E+03  0.74360550870E+03  0.50400001928E-02 0. -1.
       -1    1    3    3    0  502 -0.41342360487E+03 -0.78398844697E+02  0.22650659229E+02  0.42140065057E+03  0.50400001928E-02 0.  1.
</event>
<event>
 5   0  0.3513625E-03  0.9992853E+03  0.7818609E-02  0.9309329E-01
        3   -1    0    0  501    0  0.00000000000E+00  0.00000000000E+00  0.38248071139E+03  0.38248072473E+03  0.10100000352E+00 0.  1.
       -3   -1    0    0    0  501  0.00000000000E+00  0.00000000000E+00 -0.65269374688E+03  0.65269375470E+03  0.10100000352E+00 0. -1.
    10030    2    1    2    0    0  0.00000000000E+00  0.00000000000E+00 -0.27021303549E+03  0.10351744794E+04  0.99928530376E+03 0.  0.
        1    1    3    3  502    0  0.12118853734E+03 -0.43211040047E+03  0.92410004032E+02  0.45819828529E+03  0.50400001928E-02 0.  1.
       -1    1    3    3    0  502 -0.12118853734E+03  0.43211040047E+03 -0.36262303953E+03  0.57697619413E+03  0.50400001928E-02 0. -1.
</event>
<event>
 5   0  0.5072205E-03  0.1009297E+04  0.7818609E-02  0.9298406E-01
       -1   -1    0    0    0  501  0.00000000000E+00  0.00000000000E+00  0.30276273891E+03  0.30276273895E+03  0.50400001928E-02 0.  1.
        1   -1    0    0  501    0  0.00000000000E+00  0.00000000000E+00 -0.84115396537E+03  0.84115396538E+03  0.50400001928E-02 0. -1.
    10030    2    1    2    0    0  0.00000000000E+00  0.00000000000E+00 -0.53839122646E+03  0.11439167043E+04  0.10092969403E+04 0.  0.
        5    1    3    3  502    0 -0.45188396554E+03 -0.15823488569E+03 -0.44986427549E+03  0.65699113671E+03  0.46999998093E+01 0. -1.
       -5    1    3    3    0  502  0.45188396554E+03  0.15823488569E+03 -0.88526950969E+02  0.48692556762E+03  0.46999998093E+01 0.  1.
</event>
<event>
 5   0  0.5201968E-03  0.1011248E+04  0.7818609E-02  0.9296294E-01
        1   -1    0    0  501    0  0.00000000000E+00  0.00000000000E+00  0.57326910445E+03  0.57326910447E+03  0.50400001928E-02 0.  1.
       -1   -1    0    0    0  501  0.00000000000E+00  0.00000000000E+00 -0.44596091986E+03  0.44596091988E+03  0.50400001928E-02 0. -1.
    10030    2    1    2    0    0  0.00000000000E+00  0.00000000000E+00  0.12730818459E+03  0.10192300244E+04  0.10112479759E+04 0.  0.
        2    1    3    3  502    0  0.42133105622E+03  0.26975868193E+03 -0.10177180111E+02  0.50039302594E+03  0.25500000920E-02 0. -1.
       -2    1    3    3    0  502 -0.42133105622E+03 -0.26975868193E+03  0.13748536470E+03  0.51883699841E+03  0.25500000920E-02 0.  1.
</event>
<event>
 5   0  0.5072205E-03  0.1002280E+04  0.7818609E-02  0.9306048E-01
       -1   -1    0    0    0  501  0.00000000000E+00  0.00000000000E+00  0.40236830721E+03  0.40236830724E+03  0.50400001928E-02 0. -1.
        1   -1    0    0  501    0  0.00000000000E+00  0.00000000000E+00 -0.62415757156E+03  0.62415757158E+03  0.50400001928E-02 0.  1.
    10030    2    1    2    0    0  0.00000000000E+00  0.00000000000E+00 -0.22178926435E+03  0.10265258788E+04  0.10022798522E+04 0.  0.
        5    1    3    3  502    0 -0.24731123823E+03  0.33034421587E+03 -0.40207659385E+03  0.57617517027E+03  0.46999998093E+01 0.  1.
       -5    1    3    3    0  502  0.24731123823E+03 -0.33034421587E+03  0.18028732950E+03  0.45035070855E+03  0.46999998093E+01 0. -1.
</event>
<event>
 5   0  0.5201968E-03  0.9309589E+03  0.7818609E-02  0.9387688E-01
        1   -1    0    0  501    0  0.00000000000E+00  0.00000000000E+00  0.68626000095E+03  0.68626000097E+03  0.50400001928E-02 0. -1.
       -1   -1    0    0    0  501  0.00000000000E+00  0.00000000000E+00 -0.31572746552E+03  0.31572746556E+03  0.50400001928E-02 0.  1.
    10030    2    1    2    0    0  0.00000000000E+00  0.00000000000E+00  0.37053253543E+03  0.10019874665E+04  0.93095892673E+03 0.  0.
        2    1    3    3  502    0 -0.73773680371E+02 -0.39687376183E+03  0.43472512580E+03  0.59324301408E+03  0.25500000920E-02 0. -1.
       -2    1    3    3    0  502  0.73773680371E+02  0.39687376183E+03 -0.64192590366E+02  0.40874445245E+03  0.25500000920E-02 0.  1.
</event>
<event>
 5   0  0.5072205E-03  0.9974103E+03  0.7818609E-02  0.9311390E-01
       -1   -1    0    0    0  501  0.00000000000E+00  0.00000000000E+00  0.28741395843E+03  0.28741395847E+03  0.50400001928E-02 0.  1.
        1   -1    0    0  501    0  0.00000000000E+00  0.00000000000E+00 -0.86532614613E+03  0.86532614614E+03  0.50400001928E-02 0. -1.
    10030    2    1    2    0    0  0.00000000000E+00  0.00000000000E+00 -0.57791218770E+03  0.11527401046E+04  0.99741027270E+03 0.  0.
        5    1    3    3  502    0  0.14747598701E+03 -0.18631809794E+03 -0.79566451340E+03  0.83040213647E+03  0.46999998093E+01 0. -1.
       -5    1    3    3    0  502 -0.14747598701E+03  0.18631809794E+03  0.21775232569E+03  0.32233796815E+03  0.46999998093E+01 0.  1.
</event>
<event>
 5   0  0.3513625E-03  0.9998465E+03  0.7818609E-02  0.9308713E-01
       -4   -1    0    0    0  501  0.00000000000E+00  0.00000000000E+00  0.28411409401E+03  0.28411693246E+03  0.12699999809E+01 0.  1.
        4   -1    0    0  501    0  0.00000000000E+00  0.00000000000E+00 -0.87965031812E+03  0.87965123491E+03  0.12699999809E+01 0. -1.
    10030    2    1    2    0    0  0.00000000000E+00  0.00000000000E+00 -0.59553622412E+03  0.11637681674E+04  0.99984646479E+03 0.  0.
        3    1    3    3  502    0 -0.32701706711E+03  0.23935405068E+03 -0.63849396133E+03  0.75624405625E+03  0.10100000352E+00 0. -1.
       -3    1    3    3    0  502  0.32701706711E+03 -0.23935405068E+03  0.42957737213E+02  0.40752411112E+03  0.10100000352E+00 0.  1.
</event>
<event>
 5   0  0.9243773E-03  0.1019862E+04  0.7818609E-02  0.9287024E-01
        2   -1    0    0  501    0  0.00000000000E+00  0.00000000000E+00  0.15815927951E+04  0.15815927951E+04  0.25500000920E-02 0. -1.
       -2   -1    0    0    0  501  0.00000000000E+00  0.00000000000E+00 -0.16441008682E+03  0.16441008684E+03  0.25500000920E-02 0.  1.
    10030    2    1    2    0    0  0.00000000000E+00  0.00000000000E+00  0.14171827083E+04  0.17460028820E+04  0.10198623609E+04 0.  0.
        3    1    3    3  502    0 -0.60546299949E+02  0.49472281174E+03  0.52409792212E+03  0.72325317632E+03  0.10100000352E+00 0.  1.
       -3    1    3    3    0  502  0.60546299949E+02 -0.49472281174E+03  0.89308478619E+03  0.10227497057E+04  0.10100000352E+00 0. -1.
</event>
<event>
 5   0  0.8968798E-03  0.1009927E+04  0.7818609E-02  0.9297723E-01
       -2   -1    0    0    0  501  0.00000000000E+00  0.00000000000E+00  0.45100156127E+03  0.45100156128E+03  0.25500000920E-02 0.  1.
        2   -1    0    0  501    0  0.00000000000E+00  0.00000000000E+00 -0.56538244702E+03  0.56538244702E+03  0.25500000920E-02 0. -1.
    10030    2    1    2    0    0  0.00000000000E+00  0.00000000000E+00 -0.11438088575E+03  0.10163840083E+04  0.10099274555E+04 0.  0.
        2    1    3    3  502    0  0.38807016128E+03 -0.25751664785E+03  0.13918542930E+03  0.48609243743E+03  0.25500000920E-02 0. -1.
       -2    1    3    3    0  502 -0.38807016128E+03  0.25751664785E+03 -0.25356631505E+03  0.53029157086E+03  0.25500000920E-02 0.  1.
</event>
<event>
 5   0  0.9040674E-03  0.1003516E+04  0.7818609E-02  0.9304697E-01
       -2   -1    0    0    0  501  0.00000000000E+00  0.00000000000E+00  0.53030170168E+03  0.53030170169E+03  0.25500000920E-02 0.  1.
        2   -1    0    0  501    0  0.00000000000E+00  0.00000000000E+00 -0.47475066871E+03  0.47475066871E+03  0.25500000920E-02 0. -1.
    10030    2    1    2    0    0  0.00000000000E+00  0.00000000000E+00  0.55551032976E+02  0.10050523704E+04  0.10035159939E+04 0.  0.
        1    1    3    3  502    0 -0.32318044850E+03  0.13128415815E+03  0.38899368193E+03  0.52249135598E+03  0.50400001928E-02 0.  1.
       -1    1    3    3    0  502  0.32318044850E+03 -0.13128415815E+03 -0.33344264896E+03  0.48256101442E+03  0.50400001928E-02 0. -1.
</event>
<event>
 5   0  0.5201968E-03  0.7437250E+03  0.7818609E-02  0.9645247E-01
       -1   -1    0    0    0  501  0.00000000000E+00  0.00000000000E+00  0.94697617822E+02  0.94697617956E+02  0.50400001928E-02 0. -1.
        1   -1    0    0  501    0  0.00000000000E+00  0.00000000000E+00 -0.14602451150E+04  0.14602451150E+04  0.50400001928E-02 0.  1.
    10030    2    1    2    0    0  0.00000000000E+00  0.00000000000E+00 -0.13655474972E+04  0.15549427330E+04  0.74372504042E+03 0.  0.
        2    1    3    3  502    0  0.22927759106E+03  0.69796209841E+02 -0.88316612922E+02  0.25542033748E+03  0.25500000920E-02 0. -1.
       -2    1    3    3    0  502 -0.22927759106E+03 -0.69796209841E+02 -0.12772308843E+04  0.12995223955E+04  0.25500000920E-02 0.  1.
</event>
<event>
 5   0  0.8875655E-03  0.9904302E+03  0.7818609E-02  0.9319103E-01
        2   -1    0    0  501    0  0.00000000000E+00  0.00000000000E+00  0.90398185800E+03  0.90398185801E+03  0.25500000920E-02 0. -1.
       -2   -1    0    0    0  501  0.00000000000E+00  0.00000000000E+00 -0.27128643283E+03  0.27128643284E+03  0.25500000920E-02 0.  1.
    10030    2    1    2    0    0  0.00000000000E+00  0.00000000000E+00  0.63269542518E+03  0.11752682908E+04  0.99043023703E+03 0.  0.
        4    1    3    3  502    0 -0.11371747966E+03 -0.39509973089E+03 -0.11214116510E+02  0.41129409409E+03  0.12699999809E+01 0. -1.
       -4    1    3    3    0  502  0.11371747966E+03  0.39509973089E+03  0.64390954169E+03  0.76397419675E+03  0.12699999809E+01 0.  1.
</event>
<event>
 5   0  0.5349685E-03  0.9980647E+03  0.7818609E-02  0.9310670E-01
       -1   -1    0    0    0  501  0.00000000000E+00  0.00000000000E+00  0.16521779063E+03  0.16521779071E+03  0.50400001928E-02 0. -1.
        1   -1    0    0  501    0  0.00000000000E+00  0.00000000000E+00 -0.15073030011E+04  0.15073030011E+04  0.50400001928E-02 0.  1.
    10030    2    1    2    0    0  0.00000000000E+00  0.00000000000E+00 -0.13420852104E+04  0.16725207918E+04  0.99806467069E+03 0.  0.
        4    1    3    3  502    0  0.23884919185E+02  0.21163710031E+02 -0.15055886420E+04  0.15059273435E+04  0.12699999809E+01 0.  1.
       -4    1    3    3    0  502 -0.23884919185E+02 -0.21163710031E+02  0.16350343157E+03  0.16659344831E+03  0.12699999809E+01 0. -1.
</event>
<event>
 5   0  0.5201968E-03  0.9840707E+03  0.7818609E-02  0.9326190E-01
       -1   -1    0    0    0  501  0.00000000000E+00  0.00000000000E+00  0.58993998791E+03  0.58993998793E+03  0.50400001928E-02 0. -1.
        1   -1    0    0  501    0  0.00000000000E+00  0.00000000000E+00 -0.41037870004E+03  0.41037870007E+03  0.50400001928E-02 0.  1.
    10030    2    1    2    0    0  0.00000000000E+00  0.00000000000E+00  0.17956128787E+03  0.10003186880E+04  0.98407074007E+03 0.  0.
        2    1    3    3  502    0  0.42223631055E+02  0.21685540712E+03  0.53668688804E+03  0.58038083912E+03  0.25500000920E-02 0. -1.
       -2    1    3    3    0  502 -0.42223631055E+02 -0.21685540712E+03 -0.35712560017E+03  0.41993784888E+03  0.25500000920E-02 0.  1.
</event>
<event>
 5   0  0.9243773E-03  0.9733393E+03  0.7818609E-02  0.9338279E-01
        2   -1    0    0  501    0  0.00000000000E+00  0.00000000000E+00  0.68982234308E+03  0.68982234308E+03  0.25500000920E-02 0.  1.
       -2   -1    0    0    0  501  0.00000000000E+00  0.00000000000E+00 -0.34334542273E+03  0.34334542274E+03  0.25500000920E-02 0. -1.
    10030    2    1    2    0    0  0.00000000000E+00  0.00000000000E+00  0.34647692035E+03  0.10331677658E+04  0.97333929131E+03 0.  0.
        3    1    3    3  502    0 -0.94274060352E+02 -0.35073621459E+03  0.51710116501E+03  0.63189960891E+03  0.10100000352E+00 0.  1.
       -3    1    3    3    0  502  0.94274060352E+02  0.35073621459E+03 -0.17062424467E+03  0.40126815691E+03  0.10100000352E+00 0. -1.
</event>
<event>
 5   0  0.5072205E-03  0.1004710E+04  0.7818609E-02  0.9303394E-01
        1   -1    0    0  501    0  0.00000000000E+00  0.00000000000E+00  0.23022054845E+04  0.23022054845E+04  0.50400001928E-02 0.  1.
       -1   -1    0    0    0  501  0.00000000000E+00  0.00000000000E+00 -0.10961682911E+03  0.10961682923E+03  0.50400001928E-02 0. -1.
    10030    2    1    2    0    0  0.00000000000E+00  0.00000000000E+00  0.21925886554E+04  0.24118223138E+04  0.10047098394E+04 0.  0.
        5    1    3    3  502    0 -0.10482611785E+03  0.47861059674E+03  0.83026169993E+03  0.96406078577E+03  0.46999998093E+01 0. -1.
       -5    1    3    3    0  502  0.10482611785E+03 -0.47861059674E+03  0.13623269555E+04  0.14477615280E+04  0.46999998093E+01 0.  1.
</event>
<event>
 5   0  0.9243773E-03  0.1002112E+04  0.7818609E-02  0.9306231E-01
        2   -1    0    0  501    0  0.00000000000E+00  0.00000000000E+00  0.16086102717E+04  0.16086102717E+04  0.25500000920E-02 0.  1.
       -2   -1    0    0    0  501  0.00000000000E+00  0.00000000000E+00 -0.15607083151E+03  0.15607083153E+03  0.25500000920E-02 0. -1.
    10030    2    1    2    0    0  0.00000000000E+00  0.00000000000E+00  0.14525394402E+04  0.17646811033E+04  0.10021120550E+04 0.  0.
        3    1    3    3  502    0 -0.11916413746E+03  0.38240405185E+03  0.19615239455E+03  0.44599184142E+03  0.10100000352E+00 0. -1.
       -3    1    3    3    0  502  0.11916413746E+03 -0.38240405185E+03  0.12563870457E+04  0.13186892618E+04  0.10100000352E+00 0.  1.
</event>
<event>
 5   0  0.3513625E-03  0.1003798E+04  0.7818609E-02  0.9304389E-01
        3   -1    0    0  501    0  0.00000000000E+00  0.00000000000E+00  0.26201944261E+03  0.26201946208E+03  0.10100000352E+00 0. -1.
       -3   -1    0    0    0  501  0.00000000000E+00  0.00000000000E+00 -0.96138970111E+03  0.96138970642E+03  0.10100000352E+00 0.  1.
    10030    2    1    2    0    0  0.00000000000E+00  0.00000000000E+00 -0.69937025850E+03  0.12234091685E+04  0.10037984036E+04 0.  0.
        3    1    3    3  502    0  0.52616404374E+02 -0.34898449848E+03  0.85240198719E+02  0.36307653169E+03  0.10100000352E+00 0. -1.
       -3    1    3    3    0  502 -0.52616404374E+02  0.34898449848E+03 -0.78461045722E+03  0.86033263681E+03  0.10100000352E+00 0.  1.
</event>
<event>
 5   0  0.5349685E-03  0.8133200E+03  0.7818609E-02  0.9540935E-01
       -1   -1    0    0    0  501  0.00000000000E+00  0.00000000000E+00  0.40952631127E+03  0.40952631130E+03  0.50400001928E-02 0. -1.
        1   -1    0    0  501    0  0.00000000000E+00  0.00000000000E+00 -0.40381377726E+03  0.40381377729E+03  0.50400001928E-02 0.  1.
    10030    2    1    2    0    0  0.00000000000E+00  0.00000000000E+00  0.57125340042E+01  0.81334008859E+03  0.81332002721E+03 0.  0.
        4    1    3    3  502    0  0.96511802655E+02  0.10126337541E+03 -0.37899337267E+03  0.40398810462E+03  0.12699999809E+01 0.  1.
       -4    1    3    3    0  502 -0.96511802655E+02 -0.10126337541E+03  0.38470590667E+03  0.40935198397E+03  0.12699999809E+01 0. -1.
</event>
<event>
 5   0  0.5072205E-03  0.9279585E+03  0.7818609E-02  0.9391291E-01
       -1   -1    0    0    0  501  0.00000000000E+00  0.00000000000E+00  0.26453564929E+03  0.26453564934E+03  0.50400001928E-02 0.  1.
        1   -1    0    0  501    0  0.00000000000E+00  0.00000000000E+00 -0.81379096704E+03  0.81379096706E+03  0.50400001928E-02 0. -1.
    10030    2    1    2    0    0  0.00000000000E+00  0.00000000000E+00 -0.54925531775E+03  0.10783266164E+04  0.92795845142E+03 0.  0.
        5    1    3    3  502    0  0.43413468700E+02 -0.43886156083E+02  0.25971442770E+03  0.26699138173E+03  0.46999998093E+01 0.  1.
       -5    1    3    3    0  502 -0.43413468700E+02  0.43886156083E+02 -0.80896974546E+03  0.81133523467E+03  0.46999998093E+01 0. -1.
</event>
<event>
 5   0  0.8907355E-03  0.1008170E+04  0.7818609E-02  0.9299629E-01
       -2   -1    0    0    0  501  0.00000000000E+00  0.00000000000E+00  0.53836153453E+03  0.53836153453E+03  0.25500000920E-02 0. -1.
        2   -1    0    0  501    0  0.00000000000E+00  0.00000000000E+00 -0.47199093963E+03  0.47199093964E+03  0.25500000920E-02 0.  1.
    10030    2    1    2    0    0  0.00000000000E+00  0.00000000000E+00  0.66370594898E+02  0.10103524742E+04  0.10081701574E+04 0.  0.
        5    1    3    3  502    0  0.51742576385E+02  0.25571094441E+03 -0.39904204044E+03  0.47678299188E+03  0.46999998093E+01 0.  1.
       -5    1    3    3    0  502 -0.51742576385E+02 -0.25571094441E+03  0.46541263534E+03  0.53356948229E+03  0.46999998093E+01 0. -1.
</event>
<event>
 5   0  0.5310275E-03  0.1033790E+04  0.7818609E-02  0.9272241E-01
        1   -1    0    0  501    0  0.00000000000E+00  0.00000000000E+00  0.19230565228E+04  0.19230565228E+04  0.50400001928E-02 0.  1.
       -1   -1    0    0    0  501  0.00000000000E+00  0.00000000000E+00 -0.13893541316E+03  0.13893541325E+03  0.50400001928E-02 0. -1.
    10030    2    1    2    0    0  0.00000000000E+00  0.00000000000E+00  0.17841211096E+04  0.20619919361E+04  0.10337904094E+04 0.  0.
        1    1    3    3  502    0 -0.11462798362E+03  0.48190010578E+03  0.59747204264E+03  0.77610574559E+03  0.50400001928E-02 0. -1.
       -1    1    3    3    0  502  0.11462798362E+03 -0.48190010578E+03  0.11866490670E+04  0.12858861905E+04  0.50400001928E-02 0.  1.
</event>
<event>
 5   0  0.8907355E-03  0.1066008E+04  0.7818609E-02  0.9238971E-01
       -2   -1    0    0    0  501  0.00000000000E+00  0.00000000000E+00  0.33633640923E+03  0.33633640924E+03  0.25500000920E-02 0.  1.
        2   -1    0    0  501    0  0.00000000000E+00  0.00000000000E+00 -0.84467032491E+03  0.84467032491E+03  0.25500000920E-02 0. -1.
    10030    2    1    2    0    0  0.00000000000E+00  0.00000000000E+00 -0.50833391568E+03  0.11810067341E+04  0.10660082252E+04 0.  0.
        5    1    3    3  502    0 -0.37118195666E+03 -0.34308904287E+03 -0.44147745440E+03  0.67112634357E+03  0.46999998093E+01 0. -1.
       -5    1    3    3    0  502  0.37118195666E+03  0.34308904287E+03 -0.66856461279E+02  0.50988039058E+03  0.46999998093E+01 0.  1.
</event>
<event>
 5   0  0.5201968E-03  0.9691350E+03  0.7818609E-02  0.9343060E-01
        1   -1    0    0  501    0  0.00000000000E+00  0.00000000000E+00  0.20886515241E+03  0.20886515247E+03  0.50400001928E-02 0. -1.
       -1   -1    0    0    0  501  0.00000000000E+00  0.00000000000E+00 -0.11241973050E+04  0.11241973050E+04  0.50400001928E-02 0.  1.
    10030    2    1    2    0    0  0.00000000000E+00  0.00000000000E+00 -0.91533215259E+03  0.13330624575E+04  0.96913495758E+03 0.  0.
        2    1    3    3  502    0  0.25575961970E+02 -0.27275551951E+03  0.92121274429E+02  0.28902600656E+03  0.25500000920E-02 0. -1.
       -2    1    3    3    0  502 -0.25575961970E+02  0.27275551951E+03 -0.10074534270E+04  0.10440364509E+04  0.25500000920E-02 0.  1.
</event>
<event>
 5   0  0.5189877E-03  0.9958577E+03  0.7818609E-02  0.9313100E-01
       -1   -1    0    0    0  501  0.00000000000E+00  0.00000000000E+00  0.34648659600E+03  0.34648659604E+03  0.50400001928E-02 0. -1.
        1   -1    0    0  501    0  0.00000000000E+00  0.00000000000E+00 -0.71556348952E+03  0.71556348954E+03  0.50400001928E-02 0.  1.
    10030    2    1    2    0    0  0.00000000000E+00  0.00000000000E+00 -0.36907689352E+03  0.10620500856E+04  0.99585773629E+03 0.  0.
        3    1    3    3  502    0  0.20627272637E+03  0.36826346280E+03 -0.46622874295E+03  0.62891626361E+03  0.10100000352E+00 0.  1.
       -3    1    3    3    0  502 -0.20627272637E+03 -0.36826346280E+03  0.97151849428E+02  0.43313382196E+03  0.10100000352E+00 0. -1.
</event>
<event>
 5   0  0.3513625E-03  0.1086283E+04  0.7818609E-02  0.9218665E-01
        3   -1    0    0  501    0  0.00000000000E+00  0.00000000000E+00  0.61604355791E+03  0.61604356619E+03  0.10100000352E+00 0. -1.
       -3   -1    0    0    0  501  0.00000000000E+00  0.00000000000E+00 -0.47886686192E+03  0.47886687257E+03  0.10100000352E+00 0.  1.
    10030    2    1    2    0    0  0.00000000000E+00  0.00000000000E+00  0.13717669598E+03  0.10949104388E+04  0.10862833070E+04 0.  0.
        3    1    3    3  502    0 -0.49643340810E+03  0.31772286308E+02  0.28837339435E+03  0.57499115786E+03  0.10100000352E+00 0. -1.
       -3    1    3    3    0  502  0.49643340810E+03 -0.31772286308E+02 -0.15119669836E+03  0.51991928090E+03  0.10100000352E+00 0.  1.
</event>
<event>
 5   0  0.5072205E-03  0.1010274E+04  0.7818609E-02  0.9297348E-01
        1   -1    0    0  501    0  0.00000000000E+00  0.00000000000E+00  0.14125646008E+04  0.14125646008E+04  0.50400001928E-02 0. -1.
       -1   -1    0    0    0  501  0.00000000000E+00  0.00000000000E+00 -0.18063841516E+03  0.18063841523E+03  0.50400001928E-02 0.  1.
    10030    2    1    2    0    0  0.00000000000E+00  0.00000000000E+00  0.12319261856E+04  0.15932030160E+04  0.10102740833E+04 0.  0.
        5    1    3    3  502    0  0.29875392901E+03 -0.18831968380E+03  0.11854833982E+04  0.12369766331E+04  0.46999998093E+01 0. -1.
       -5    1    3    3    0  502 -0.29875392901E+03  0.18831968380E+03  0.46442787439E+02  0.35622638295E+03  0.46999998093E+01 0.  1.
</event>
<event>
 5   0  0.8968798E-03  0.9840175E+03  0.7818609E-02  0.9326250E-01
       -2   -1    0    0    0  501  0.00000000000E+00  0.00000000000E+00  0.16280839221E+03  0.16280839223E+03  0.25500000920E-02 0. -1.
        2   -1    0    0  501    0  0.00000000000E+00  0.00000000000E+00 -0.14868558261E+04  0.14868558261E+04  0.25500000920E-02 0.  1.
    10030    2    1    2    0    0  0.00000000000E+00  0.00000000000E+00 -0.13240474339E+04  0.16496642183E+04  0.98401749276E+03 0.  0.
        2    1    3    3  502    0  0.10625595655E+03  0.47596237224E+03 -0.77121377719E+03  0.91246983415E+03  0.25500000920E-02 0.  1.
       -2    1    3    3    0  502 -0.10625595655E+03 -0.47596237224E+03 -0.55283365668E+03  0.73719438418E+03  0.25500000920E-02 0. -1.
</event>
<event>
 5   0  0.9040674E-03  0.1020160E+04  0.7818609E-02  0.9286706E-01
        2   -1    0    0  501    0  0.00000000000E+00  0.00000000000E+00  0.80546566008E+03  0.80546566009E+03  0.25500000920E-02 0. -1.
       -2   -1    0    0    0  501  0.00000000000E+00  0.00000000000E+00 -0.32301997528E+03  0.32301997529E+03  0.25500000920E-02 0.  1.
    10030    2    1    2    0    0  0.00000000000E+00  0.00000000000E+00  0.48244568480E+03  0.11284856354E+04  0.10201597867E+04 0.  0.
        1    1    3    3  502    0 -0.59861485484E+02 -0.50553037213E+03  0.27684720940E+03  0.57947280520E+03  0.50400001928E-02 0. -1.
       -1    1    3    3    0  502  0.59861485484E+02  0.50553037213E+03  0.20559847540E+03  0.54901283018E+03  0.50400001928E-02 0.  1.
</event>
<event>
 5   0  0.5310275E-03  0.9059235E+03  0.7818609E-02  0.9418207E-01
       -1   -1    0    0    0  501  0.00000000000E+00  0.00000000000E+00  0.29627200992E+03  0.29627200996E+03  0.50400001928E-02 0. -1.
        1   -1    0    0  501    0  0.00000000000E+00  0.00000000000E+00 -0.69252022147E+03  0.69252022148E+03  0.50400001928E-02 0.  1.
    10030    2    1    2    0    0  0.00000000000E+00  0.00000000000E+00 -0.39624821155E+03  0.98879223144E+03  0.90592352426E+03 0.  0.
        1    1    3    3  502    0  0.14535190646E+03  0.90812017154E+02 -0.65576348411E+03  0.67779034095E+03  0.50400001928E-02 0.  1.
       -1    1    3    3    0  502 -0.14535190646E+03 -0.90812017154E+02  0.25951527256E+03  0.31100189049E+03  0.50400001928E-02 0. -1.
</event>
<event>
 5   0  0.5189877E-03  0.1005222E+04  0.7818609E-02  0.9302836E-01
       -1   -1    0    0    0  501  0.00000000000E+00  0.00000000000E+00  0.40016673434E+03  0.40016673437E+03  0.50400001928E-02 0. -1.
        1   -1    0    0  501    0  0.00000000000E+00  0.00000000000E+00 -0.63128174445E+03  0.63128174447E+03  0.50400001928E-02 0.  1.
    10030    2    1    2    0    0  0.00000000000E+00  0.00000000000E+00 -0.23111501011E+03  0.10314484788E+04  0.10052222722E+04 0.  0.
        3    1    3    3  502    0 -0.91371090969E+02  0.37637173932E+03  0.21313353096E+03  0.44207496496E+03  0.10100000352E+00 0. -1.
       -3    1    3    3    0  502  0.91371090969E+02 -0.37637173932E+03 -0.44424854107E+03  0.58937351388E+03  0.10100000352E+00 0.  1.
</event>
<event>
 5   0  0.5189877E-03  0.1031845E+04  0.7818609E-02  0.9274291E-01
        1   -1    0    0  501    0  0.00000000000E+00  0.00000000000E+00  0.57879101517E+03  0.57879101520E+03  0.50400001928E-02 0. -1.
       -1   -1    0    0    0  501  0.00000000000E+00  0.00000000000E+00 -0.45988258298E+03  0.45988258300E+03  0.50400001928E-02 0.  1.
    10030    2    1    2    0    0  0.00000000000E+00  0.00000000000E+00  0.11890843220E+03  0.10386735982E+04  0.10318447695E+04 0.  0.
        3    1    3    3  502    0 -0.44058883576E+03  0.22964703772E+03  0.19936910569E+03  0.53535440096E+03  0.10100000352E+00 0. -1.
       -3    1    3    3    0  502  0.44058883576E+03 -0.22964703772E+03 -0.80460673495E+02  0.50331919724E+03  0.10100000352E+00 0.  1.
</event>
<event>
 5   0  0.5201968E-03  0.1030885E+04  0.7818609E-02  0.9275304E-01
        1   -1    0    0  501    0  0.00000000000E+00  0.00000000000E+00  0.56712528147E+03  0.56712528149E+03  0.50400001928E-02 0. -1.
       -1   -1    0    0    0  501  0.00000000000E+00  0.00000000000E+00 -0.46846987674E+03  0.46846987676E+03  0.50400001928E-02 0.  1.
    10030    2    1    2    0    0  0.00000000000E+00  0.00000000000E+00  0.98655404731E+02  0.10355951583E+04  0.10308852715E+04 0.  0.
        2    1    3    3  502    0  0.12596693458E+03 -0.43109406110E+03 -0.20475344577E+03  0.49359267791E+03  0.25500000920E-02 0.  1.
       -2    1    3    3    0  502 -0.12596693458E+03  0.43109406110E+03  0.30340885050E+03  0.54200248034E+03  0.25500000920E-02 0. -1.
</event>
<event>
 5   0  0.9040674E-03  0.1003142E+04  0.7818609E-02  0.9305105E-01
        2   -1    0    0  501    0  0.00000000000E+00  0.00000000000E+00  0.73287705168E+03  0.73287705169E+03  0.25500000920E-02 0.  1.
       -2   -1    0    0    0  501  0.00000000000E+00  0.00000000000E+00 -0.34326836310E+03  0.34326836311E+03  0.25500000920E-02 0. -1.
    10030    2    1    2    0    0  0.00000000000E+00  0.00000000000E+00  0.38960868858E+03  0.10761454148E+04  0.10031420755E+04 0.  0.
        1    1    3    3  502    0 -0.43620062772E+03 -0.23297925475E+03  0.28470763126E+03  0.57062137717E+03  0.50400001928E-02 0.  1.
       -1    1    3    3    0  502  0.43620062772E+03  0.23297925475E+03  0.10490105732E+03  0.50552403762E+03  0.50400001928E-02 0. -1.
</event>
<event>
 5   0  0.9243773E-03  0.9319230E+03  0.7818609E-02  0.9386533E-01
       -2   -1    0    0    0  501  0.00000000000E+00  0.00000000000E+00  0.18609153701E+03  0.18609153703E+03  0.25500000920E-02 0.  1.
        2   -1    0    0  501    0  0.00000000000E+00  0.00000000000E+00 -0.11667384015E+04  0.11667384015E+04  0.25500000920E-02 0. -1.
    10030    2    1    2    0    0  0.00000000000E+00  0.00000000000E+00 -0.98064686444E+03  0.13528299385E+04  0.93192304925E+03 0.  0.
        3    1    3    3  502    0  0.82722492759E+02 -0.19308038822E+03  0.11346188164E+03  0.23873972420E+03  0.10100000352E+00 0. -1.
       -3    1    3    3    0  502 -0.82722492759E+02  0.19308038822E+03 -0.10941087461E+04  0.11140902143E+04  0.10100000352E+00 0.  1.
</event>
<event>
 5   0  0.5189877E-03  0.1001049E+04  0.7818609E-02  0.9307395E-01
       -1   -1    0    0    0  501  0.00000000000E+00  0.00000000000E+00  0.42985435518E+03  0.42985435521E+03  0.50400001928E-02 0.  1.
        1   -1    0    0  501    0  0.00000000000E+00  0.00000000000E+00 -0.58281266188E+03  0.58281266190E+03  0.50400001928E-02 0. -1.
    10030    2    1    2    0    0  0.00000000000E+00  0.00000000000E+00 -0.15295830670E+03  0.10126670171E+04  0.10010485722E+04 0.  0.
        3    1    3    3  502    0 -0.12561252849E+03  0.39473415832E+03 -0.36068648903E+03  0.54926161037E+03  0.10100000352E+00 0. -1.
       -3    1    3    3    0  502  0.12561252849E+03 -0.39473415832E+03  0.20772818233E+03  0.46340540674E+03  0.10100000352E+00 0.  1.
</event>
<event>
 5   0  0.8875655E-03  0.1010713E+04  0.7818609E-02  0.9296872E-01
       -2   -1    0    0    0  501  0.00000000000E+00  0.00000000000E+00  0.23468136540E+03  0.23468136541E+03  0.25500000920E-02 0.  1.
        2   -1    0    0  501    0  0.00000000000E+00  0.00000000000E+00 -0.10882216325E+04  0.10882216325E+04  0.25500000920E-02 0. -1.
    10030    2    1    2    0    0  0.00000000000E+00  0.00000000000E+00 -0.85354026713E+03  0.13229029979E+04  0.10107132899E+04 0.  0.
        4    1    3    3  502    0  0.50066656381E+03  0.65061994449E+02 -0.45555522527E+03  0.68002371092E+03  0.12699999809E+01 0. -1.
       -4    1    3    3    0  502 -0.50066656381E+03 -0.65061994449E+02 -0.39798504186E+03  0.64287928703E+03  0.12699999809E+01 0.  1.
</event>
<event>
 5   0  0.5189877E-03  0.9881905E+03  0.7818609E-02  0.9321593E-01
        1   -1    0    0  501    0  0.00000000000E+00  0.00000000000E+00  0.91565273176E+03  0.91565273178E+03  0.50400001928E-02 0.  1.
       -1   -1    0    0    0  501  0.00000000000E+00  0.00000000000E+00 -0.26661866019E+03  0.26661866024E+03  0.50400001928E-02 0. -1.
    10030    2    1    2    0    0  0.00000000000E+00  0.00000000000E+00  0.64903407157E+03  0.11822713920E+04  0.98819047675E+03 0.  0.
        3    1    3    3  502    0 -0.19764447481E+03 -0.26718477785E+03 -0.11291258948E+03  0.35099901282E+03  0.10100000352E+00 0. -1.
       -3    1    3    3    0  502  0.19764447481E+03  0.26718477785E+03  0.76194666104E+03  0.83127237920E+03  0.10100000352E+00 0.  1.
</event>
<event>
 5   0  0.5189877E-03  0.9978880E+03  0.7818609E-02  0.9310864E-01
       -1   -1    0    0    0  501  0.00000000000E+00  0.00000000000E+00  0.47981208834E+03  0.47981208836E+03  0.50400001928E-02 0. -1.
        1   -1    0    0  501    0  0.00000000000E+00  0.00000000000E+00 -0.51883873103E+03  0.51883873105E+03  0.50400001928E-02 0.  1.
    10030    2    1    2    0    0  0.00000000000E+00  0.00000000000E+00 -0.39026642692E+02  0.99865081941E+03  0.99788795978E+03 0.  0.
        3    1    3    3  502    0 -0.46758962312E+03  0.16292816464E+03 -0.80874486436E+02  0.50172336525E+03  0.10100000352E+00 0.  1.
       -3    1    3    3    0  502  0.46758962312E+03 -0.16292816464E+03  0.41847843745E+02  0.49692745417E+03  0.10100000352E+00 0. -1.
</event>
<event>
 5   0  0.8907355E-03  0.9958014E+03  0.7818609E-02  0.9313162E-01
        2   -1    0    0  501    0  0.00000000000E+00  0.00000000000E+00  0.10473967644E+04  0.10473967644E+04  0.25500000920E-02 0. -1.
       -2   -1    0    0    0  501  0.00000000000E+00  0.00000000000E+00 -0.23668693137E+03  0.23668693138E+03  0.25500000920E-02 0.  1.
    10030    2    1    2    0    0  0.00000000000E+00  0.00000000000E+00  0.81070983303E+03  0.12840836958E+04  0.99580143824E+03 0.  0.
        5    1    3    3  502    0  0.37461275213E+03  0.32691673328E+03  0.43882655048E+03  0.66317425762E+03  0.46999998093E+01 0.  1.
       -5    1    3    3    0  502 -0.37461275213E+03 -0.32691673328E+03  0.37188328255E+03  0.62090943816E+03  0.46999998093E+01 0. -1.
</event>
<event>
 5   0  0.5349685E-03  0.9831557E+03  0.7818609E-02  0.9327215E-01
       -1   -1    0    0    0  501  0.00000000000E+00  0.00000000000E+00  0.41280305602E+03  0.41280305605E+03  0.50400001928E-02 0.  1.
        1   -1    0    0  501    0  0.00000000000E+00  0.00000000000E+00 -0.58538517753E+03  0.58538517755E+03  0.50400001928E-02 0. -1.
    10030    2    1    2    0    0  0.00000000000E+00  0.00000000000E+00 -0.17258212151E+03  0.99818823360E+03  0.98315571556E+03 0.  0.
        4    1    3    3  502    0 -0.38227062728E+03  0.14193868868E+03 -0.36502425093E+03  0.54728579416E+03  0.12699999809E+01 0.  1.
       -4    1    3    3    0  502  0.38227062728E+03 -0.14193868868E+03  0.19244212942E+03  0.45090243944E+03  0.12699999809E+01 0. -1.
</event>
<event>
 5   0  0.5189877E-03  0.9984856E+03  0.7818609E-02  0.9310207E-01
       -1   -1    0    0    0  501  0.00000000000E+00  0.00000000000E+00  0.91489798306E+03  0.91489798307E+03  0.50400001928E-02 0.  1.
        1   -1    0    0  501    0  0.00000000000E+00  0.00000000000E+00 -0.27242751168E+03  0.27242751173E+03  0.50400001928E-02 0. -1.
    10030    2    1    2    0    0  0.00000000000E+00  0.00000000000E+00  0.64247047137E+03  0.11873254948E+04  0.99848561533E+03 0.  0.
        3    1    3    3  502    0  0.25445527710E+02 -0.20696221668E+03  0.86063547335E+03  0.88553614393E+03  0.10100000352E+00 0.  1.
       -3    1    3    3    0  502 -0.25445527710E+02  0.20696221668E+03 -0.21816500198E+03  0.30178935087E+03  0.10100000352E+00 0. -1.
</event>
<event>
 5   0  0.8968798E-03  0.9951956E+03  0.7818609E-02  0.9313830E-01
        2   -1    0    0  501    0  0.00000000000E+00  0.00000000000E+00  0.25832172243E+03  0.25832172244E+03  0.25500000920E-02 0. -1.
       -2   -1    0    0    0  501  0.00000000000E+00  0.00000000000E+00 -0.95850847652E+03  0.95850847652E+03  0.25500000920E-02 0.  1.
    10030    2    1    2    0    0  0.00000000000E+00  0.00000000000E+00 -0.70018675409E+03  0.12168301990E+04  0.99519558003E+03 0.  0.
        2    1    3    3  502    0 -0.33723567161E+03  0.35736776515E+03 -0.25409788420E+03  0.55317750544E+03  0.25500000920E-02 0. -1.
       -2    1    3    3    0  502  0.33723567161E+03 -0.35736776515E+03 -0.44608886989E+03  0.66365269352E+03  0.25500000920E-02 0.  1.
</event>
<event>
 5   0  0.5349685E-03  0.9920609E+03  0.7818609E-02  0.9317295E-01
        1   -1    0    0  501    0  0.00000000000E+00  0.00000000000E+00  0.51325682156E+03  0.51325682159E+03  0.50400001928E-02 0. -1.
       -1   -1    0    0    0  501  0.00000000000E+00  0.00000000000E+00 -0.47938224644E+03  0.47938224646E+03  0.50400001928E-02 0.  1.
    10030    2    1    2    0    0  0.00000000000E+00  0.00000000000E+00  0.33874575124E+02  0.99263906805E+03  0.99206090165E+03 0.  0.
        4    1    3    3  502    0  0.18950404564E+03 -0.37192715890E+03 -0.25117969698E+03  0.48716983478E+03  0.12699999809E+01 0.  1.
       -4    1    3    3    0  502 -0.18950404564E+03  0.37192715890E+03  0.28505427210E+03  0.50546923327E+03  0.12699999809E+01 0. -1.
</event>
<event>
 5   0  0.9040674E-03  0.9460222E+03  0.7818609E-02  0.9369812E-01
        2   -1    0    0  501    0  0.00000000000E+00  0.00000000000E+00  0.27897448017E+03  0.27897448018E+03  0.25500000920E-02 0. -1.
       -2   -1    0    0    0  501  0.00000000000E+00  0.00000000000E+00 -0.80200700823E+03  0.80200700823E+03  0.25500000920E-02 0.  1.
    10030    2    1    2    0    0  0.00000000000E+00  0.00000000000E+00 -0.52303252806E+03  0.10809814884E+04  0.94602217358E+03 0.  0.
        1    1    3    3  502    0 -0.23474573580E+03 -0.40172498399E+03 -0.16421581505E+03  0.49341195483E+03  0.50400001928E-02 0. -1.
       -1    1    3    3    0  502  0.23474573580E+03  0.40172498399E+03 -0.35881671301E+03  0.58756953359E+03  0.50400001928E-02 0.  1.
</event>
<event>
 5   0  0.3513625E-03  0.9998423E+03  0.7818609E-02  0.9308718E-01
        4   -1    0    0  501    0  0.00000000000E+00  0.00000000000E+00  0.64185687621E+03  0.64185813264E+03  0.12699999809E+01 0.  1.
       -4   -1    0    0    0  501  0.00000000000E+00  0.00000000000E+00 -0.38936945373E+03  0.38937152490E+03  0.12699999809E+01 0. -1.
    10030    2    1    2    0    0  0.00000000000E+00  0.00000000000E+00  0.25248742248E+03  0.10312296575E+04  0.99984234161E+03 0.  0.
        5    1    3    3  502    0 -0.24880117827E+03  0.42591273930E+03  0.42482217401E+02  0.49510657096E+03  0.46999998093E+01 0. -1.
       -5    1    3    3    0  502  0.24880117827E+03 -0.42591273930E+03  0.21000520507E+03  0.53612308658E+03  0.46999998093E+01 0.  1.
</event>
<event>
 5   0  0.5349685E-03  0.9777972E+03  0.7818609E-02  0.9333237E-01
        1   -1    0    0  501    0  0.00000000000E+00  0.00000000000E+00  0.82896760611E+03  0.82896760613E+03  0.50400001928E-02 0.  1.
       -1   -1    0    0    0  501  0.00000000000E+00  0.00000000000E+00 -0.28833679595E+03  0.28833679599E+03  0.50400001928E-02 0. -1.
    10030    2    1    2    0    0  0.00000000000E+00  0.00000000000E+00  0.54063081016E+03  0.11173044021E+04  0.97779724590E+03 0.  0.
        4    1    3    3  502    0  0.27533010920E+03 -0.65692425201E+02 -0.18517793810E+03  0.33825233985E+03  0.12699999809E+01 0. -1.
       -4    1    3    3    0  502 -0.27533010920E+03  0.65692425201E+02  0.72580874826E+03  0.77905206226E+03  0.12699999809E+01 0.  1.
</event>
<event>
 5   0  0.9243773E-03  0.1002209E+04  0.7818609E-02  0.9306125E-01
       -2   -1    0    0    0  501  0.00000000000E+00  0.00000000000E+00  0.17712240120E+03  0.17712240122E+03  0.25500000920E-02 0. -1.
        2   -1    0    0  501    0  0.00000000000E+00  0.00000000000E+00 -0.14176960933E+04  0.14176960933E+04  0.25500000920E-02 0.  1.
    10030    2    1    2    0    0  0.00000000000E+00  0.00000000000E+00 -0.12405736921E+04  0.15948184945E+04  0.10022090326E+04 0.  0.
        3    1    3    3  502    0 -0.66394313082E+02 -0.13416455035E+03 -0.13812849231E+04  0.13893726571E+04  0.10100000352E+00 0.  1.
       -3    1    3    3    0  502  0.66394313082E+02  0.13416455035E+03  0.14071123100E+03  0.20544583741E+03  0.10100000352E+00 0. -1.
</event>
<event>
 5   0  0.5189877E-03  0.1008920E+04  0.7818609E-02  0.9298815E-01
        1   -1    0    0  501    0  0.00000000000E+00  0.00000000000E+00  0.64385072748E+03  0.64385072750E+03  0.50400001928E-02 0. -1.
       -1   -1    0    0    0  501  0.00000000000E+00  0.00000000000E+00 -0.39524687753E+03  0.39524687756E+03  0.50400001928E-02 0.  1.
    10030    2    1    2    0    0  0.00000000000E+00  0.00000000000E+00  0.24860384995E+03  0.10390976051E+04  0.10089201944E+04 0.  0.
        3    1    3    3  502    0  0.25274813551E+03  0.40696934014E+03  0.28706141749E+03  0.55848897163E+03  0.10100000352E+00 0.  1.
       -3    1    3    3    0  502 -0.25274813551E+03 -0.40696934014E+03 -0.38457567534E+02  0.48060863343E+03  0.10100000352E+00 0. -1.
</event>
<event>
 5   0  0.8968798E-03  0.9908189E+03  0.7818609E-02  0.9318672E-01
       -2   -1    0    0    0  501  0.00000000000E+00  0.00000000000E+00  0.15247668694E+03  0.15247668696E+03  0.25500000920E-02 0. -1.
        2   -1    0    0  501    0  0.00000000000E+00  0.00000000000E+00 -0.16096266105E+04  0.16096266105E+04  0.25500000920E-02 0.  1.
    10030    2    1    2    0    0  0.00000000000E+00  0.00000000000E+00 -0.14571499236E+04  0.17621032975E+04  0.99081891949E+03 0.  0.
        2    1    3    3  502    0  0.41862339663E+03  0.24163170929E+02 -0.25938878845E+03  0.49306384031E+03  0.25500000920E-02 0. -1.
       -2    1    3    3    0  502 -0.41862339663E+03 -0.24163170929E+02 -0.11977611351E+04  0.12690394572E+04  0.25500000920E-02 0.  1.
</event>
<event>
 5   0  0.9243773E-03  0.1000184E+04  0.7818609E-02  0.9308343E-01
       -2   -1    0    0    0  501  0.00000000000E+00  0.00000000000E+00  0.22718451736E+03  0.22718451737E+03  0.25500000920E-02 0.  1.
        2   -1    0    0  501    0  0.00000000000E+00  0.00000000000E+00 -0.11008324823E+04  0.11008324823E+04  0.25500000920E-02 0. -1.
    10030    2    1    2    0    0  0.00000000000E+00  0.00000000000E+00 -0.87364796495E+03  0.13280169997E+04  0.10001841754E+04 0.  0.
        3    1    3    3  502    0  0.48300305844E+03  0.12570578899E+03 -0.47877373699E+03  0.69160552433E+03  0.10100000352E+00 0. -1.
       -3    1    3    3    0  502 -0.48300305844E+03 -0.12570578899E+03 -0.39487422796E+03  0.63641147535E+03  0.10100000352E+00 0.  1.
</event>
<event>
 5   0  0.8968798E-03  0.1007174E+04  0.7818609E-02  0.9300711E-01
        2   -1    0    0  501    0  0.00000000000E+00  0.00000000000E+00  0.36763034797E+03  0.36763034798E+03  0.25500000920E-02 0.  1.
       -2   -1    0    0    0  501  0.00000000000E+00  0.00000000000E+00 -0.68982279237E+03  0.68982279238E+03  0.25500000920E-02 0. -1.
    10030    2    1    2    0    0  0.00000000000E+00  0.00000000000E+00 -0.32219244440E+03  0.10574531404E+04  0.10071738543E+04 0.  0.
        2    1    3    3  502    0  0.40652904928E+03 -0.24707794925E+03 -0.33452849141E+03  0.58156916397E+03  0.25500000920E-02 0. -1.
       -2    1    3    3    0  502 -0.40652904928E+03  0.24707794925E+03  0.12336047003E+02  0.47588397638E+03  0.25500000920E-02 0.  1.
</event>
<event>
 5   0  0.8968798E-03  0.9889992E+03  0.7818609E-02  0.9320693E-01
       -2   -1    0    0    0  501  0.00000000000E+00  0.00000000000E+00  0.52789512458E+03  0.52789512459E+03  0.25500000920E-02 0.  1.
        2   -1    0    0  501    0  0.00000000000E+00  0.00000000000E+00 -0.46321677556E+03  0.46321677556E+03  0.25500000920E-02 0. -1.
    10030    2    1    2    0    0  0.00000000000E+00  0.00000000000E+00  0.64678349027E+02  0.99111190015E+03  0.98899924661E+03 0.  0.
        2    1    3    3  502    0 -0.44661131076E+03  0.14630097856E+03 -0.12182128428E+03  0.48549568952E+03  0.25500000920E-02 0.  1.
       -2    1    3    3    0  502  0.44661131076E+03 -0.14630097856E+03  0.18649963331E+03  0.50561621064E+03  0.25500000920E-02 0. -1.
</event>
<event>
 5   0  0.5072205E-03  0.9979734E+03  0.7818609E-02  0.9310770E-01
        1   -1    0    0  501    0  0.00000000000E+00  0.00000000000E+00  0.14342751976E+04  0.14342751976E+04  0.50400001928E-02 0. -1.
       -1   -1    0    0    0  501  0.00000000000E+00  0.00000000000E+00 -0.17359828049E+03  0.17359828056E+03  0.50400001928E-02 0.  1.
    10030    2    1    2    0    0  0.00000000000E+00  0.00000000000E+00  0.12606769171E+04  0.16078734782E+04  0.99797336262E+03 0.  0.
        5    1    3    3  502    0  0.24628499318E+03 -0.30279719360E+03  0.11311491422E+04  0.11966047427E+04  0.46999998093E+01 0. -1.
       -5    1    3    3    0  502 -0.24628499318E+03  0.30279719360E+03  0.12952777490E+03  0.41126873548E+03  0.46999998093E+01 0.  1.
</event>
<event>
 5   0  0.5349685E-03  0.1108087E+04  0.7818609E-02  0.9197345E-01
       -1   -1    0    0    0  501  0.00000000000E+00  0.00000000000E+00  0.15408150530E+03  0.15408150538E+03  0.50400001928E-02 0. -1.
        1   -1    0    0  501    0  0.00000000000E+00  0.00000000000E+00 -0.19922192915E+04  0.19922192915E+04  0.50400001928E-02 0.  1.
    10030    2    1    2    0    0  0.00000000000E+00  0.00000000000E+00 -0.18381377862E+04  0.21463007969E+04  0.11080869053E+04 0.  0.
        4    1    3    3  502    0  0.36469245661E+02  0.52327331230E+03 -0.12645706525E+04  0.13690454753E+04  0.12699999809E+01 0.  1.
       -4    1    3    3    0  502 -0.36469245661E+02 -0.52327331230E+03 -0.57356713368E+03  0.77725532162E+03  0.12699999809E+01 0. -1.
</event>
<event>
 5   0  0.8968798E-03  0.9977119E+03  0.7818609E-02  0.9311058E-01
       -2   -1    0    0    0  501  0.00000000000E+00  0.00000000000E+00  0.25794163542E+03  0.25794163543E+03  0.25500000920E-02 0. -1.
        2   -1    0    0  501    0  0.00000000000E+00  0.00000000000E+00 -0.96478125638E+03  0.96478125639E+03  0.25500000920E-02 0.  1.
    10030    2    1    2    0    0  0.00000000000E+00  0.00000000000E+00 -0.70683962097E+03  0.12227228918E+04  0.99771189249E+03 0.  0.
        2    1    3    3  502    0 -0.48257262149E+03 -0.56167852036E+02 -0.49221361413E+03  0.69159627280E+03  0.25500000920E-02 0. -1.
       -2    1    3    3    0  502  0.48257262149E+03  0.56167852036E+02 -0.21462600684E+03  0.53112661902E+03  0.25500000920E-02 0.  1.
</event>
<event>
 5   0  0.8968798E-03  0.9642496E+03  0.7818609E-02  0.9348648E-01
       -2   -1    0    0    0  501  0.00000000000E+00  0.00000000000E+00  0.23399346120E+03  0.23399346121E+03  0.25500000920E-02 0. -1.
        2   -1    0    0  501    0  0.00000000000E+00  0.00000000000E+00 -0.99337959641E+03  0.99337959641E+03  0.25500000920E-02 0.  1.
    10030    2    1    2    0    0  0.00000000000E+00  0.00000000000E+00 -0.75938613521E+03  0.12273730576E+04  0.96424961511E+03 0.  0.
        2    1    3    3  502    0  0.16201097355E+03 -0.40091335826E+03 -0.65110373992E+03  0.78161061695E+03  0.25500000920E-02 0.  1.
       -2    1    3    3    0  502 -0.16201097355E+03  0.40091335826E+03 -0.10828239529E+03  0.44576244068E+03  0.25500000920E-02 0. -1.
</event>
<event>
 5   0  0.3513625E-03  0.1015935E+04  0.7818609E-02  0.9291238E-01
        3   -1    0    0  501    0  0.00000000000E+00  0.00000000000E+00  0.25352183387E+03  0.25352185399E+03  0.10100000352E+00 0.  1.
       -3   -1    0    0    0  501  0.00000000000E+00  0.00000000000E+00 -0.10177854730E+04  0.10177854781E+04  0.10100000352E+00 0. -1.
    10030    2    1    2    0    0  0.00000000000E+00  0.00000000000E+00 -0.76426363918E+03  0.12713073320E+04  0.10159347530E+04 0.  0.
        2    1    3    3  502    0 -0.49394852736E+02  0.53144977990E+01  0.25047449095E+03  0.25535380550E+03  0.25500000920E-02 0.  1.
       -2    1    3    3    0  502  0.49394852736E+02 -0.53144977990E+01 -0.10147381301E+04  0.10159535265E+04  0.25500000920E-02 0. -1.
</event>
<event>
 5   0  0.9243773E-03  0.1004106E+04  0.7818609E-02  0.9304053E-01
        2   -1    0    0  501    0  0.00000000000E+00  0.00000000000E+00  0.43970941897E+03  0.43970941898E+03  0.25500000920E-02 0. -1.
       -2   -1    0    0    0  501  0.00000000000E+00  0.00000000000E+00 -0.57323539058E+03  0.57323539058E+03  0.25500000920E-02 0.  1.
    10030    2    1    2    0    0  0.00000000000E+00  0.00000000000E+00 -0.13352597160E+03  0.10129448096E+04  0.10041055732E+04 0.  0.
        3    1    3    3  502    0 -0.44394494493E+03  0.24594022364E+02 -0.30197859735E+03  0.53747843075E+03  0.10100000352E+00 0.  1.
       -3    1    3    3    0  502  0.44394494493E+03 -0.24594022364E+02  0.16845262574E+03  0.47546637881E+03  0.10100000352E+00 0. -1.
</event>
<event>
 5   0  0.3513625E-03  0.1019551E+04  0.7818609E-02  0.9287358E-01
        4   -1    0    0  501    0  0.00000000000E+00  0.00000000000E+00  0.10604180495E+04  0.10604188100E+04  0.12699999809E+01 0. -1.
       -4   -1    0    0    0  501  0.00000000000E+00  0.00000000000E+00 -0.24506200091E+03  0.24506529168E+03  0.12699999809E+01 0.  1.
    10030    2    1    2    0    0  0.00000000000E+00  0.00000000000E+00  0.81535604855E+03  0.13054841016E+04  0.10195505155E+04 0.  0.
        1    1    3    3  502    0 -0.56171086894E+01 -0.17294886648E+03  0.10216643845E+04  0.10362147349E+04  0.50400001928E-02 0. -1.
       -1    1    3    3    0  502  0.56171086894E+01  0.17294886648E+03 -0.20630833596E+03  0.26926936669E+03  0.50400001928E-02 0.  1.
</event>
<event>
 5   0  0.5310275E-03  0.9995539E+03  0.7818609E-02  0.9309034E-01
       -1   -1    0    0    0  501  0.00000000000E+00  0.00000000000E+00  0.18280654500E+03  0.18280654507E+03  0.50400001928E-02 0. -1.
        1   -1    0    0  501    0  0.00000000000E+00  0.00000000000E+00 -0.13663459166E+04  0.13663459166E+04  0.50400001928E-02 0.  1.
    10030    2    1    2    0    0  0.00000000000E+00  0.00000000000E+00 -0.11835393716E+04  0.15491524616E+04  0.99955385316E+03 0.  0.
        1    1    3    3  502    0  0.54443446572E+02 -0.34183638391E+03 -0.33049826222E+02  0.34771898608E+03  0.50400001928E-02 0. -1.
       -1    1    3    3    0  502 -0.54443446572E+02  0.34183638391E+03 -0.11504895453E+04  0.12014334756E+04  0.50400001928E-02 0.  1.
</event>
<event>
 5   0  0.8968798E-03  0.9398965E+03  0.7818609E-02  0.9377039E-01
       -2   -1    0    0    0  501  0.00000000000E+00  0.00000000000E+00  0.36362117610E+03  0.36362117611E+03  0.25500000920E-02 0. -1.
        2   -1    0    0  501    0  0.00000000000E+00  0.00000000000E+00 -0.60736661440E+03  0.60736661441E+03  0.25500000920E-02 0.  1.
    10030    2    1    2    0    0  0.00000000000E+00  0.00000000000E+00 -0.24374543830E+03  0.97098779051E+03  0.93989651060E+03 0.  0.
        2    1    3    3  502    0  0.28312420534E+03  0.37208974955E+03 -0.17078077101E+03  0.49777120158E+03  0.25500000920E-02 0. -1.
       -2    1    3    3    0  502 -0.28312420534E+03 -0.37208974955E+03 -0.72964667292E+02  0.47321658894E+03  0.25500000920E-02 0.  1.
</event>
<event>
 5   0  0.8907355E-03  0.9950262E+03  0.7818609E-02  0.9314017E-01
       -2   -1    0    0    0  501  0.00000000000E+00  0.00000000000E+00  0.31880756054E+03  0.31880756055E+03  0.25500000920E-02 0. -1.
        2   -1    0    0  501    0  0.00000000000E+00  0.00000000000E+00 -0.77639092933E+03  0.77639092934E+03  0.25500000920E-02 0.  1.
    10030    2    1    2    0    0  0.00000000000E+00  0.00000000000E+00 -0.45758336879E+03  0.10951984899E+04  0.99502622722E+03 0.  0.
        5    1    3    3  502    0 -0.21798040358E+03  0.38270190016E+03  0.25844693605E+02  0.44120997146E+03  0.46999998093E+01 0. -1.
       -5    1    3    3    0  502  0.21798040358E+03 -0.38270190016E+03 -0.48342806240E+03  0.65398851843E+03  0.46999998093E+01 0.  1.
</event>
<event>
 5   0  0.3513625E-03  0.9138592E+03  0.7818609E-02  0.9408421E-01
       -4   -1    0    0    0  501  0.00000000000E+00  0.00000000000E+00  0.32530439389E+03  0.32530687294E+03  0.12699999809E+01 0.  1.
        4   -1    0    0  501    0  0.00000000000E+00  0.00000000000E+00 -0.64180767775E+03  0.64180893428E+03  0.12699999809E+01 0. -1.
    10030    2    1    2    0    0  0.00000000000E+00  0.00000000000E+00 -0.31650328386E+03  0.96711580722E+03  0.91385921010E+03 0.  0.
        4    1    3    3  502    0 -0.19508341775E+03 -0.27414487769E+03 -0.48541164422E+03  0.59062596547E+03  0.12699999809E+01 0. -1.
       -4    1    3    3    0  502  0.19508341775E+03  0.27414487769E+03  0.16890836036E+03  0.37648984175E+03  0.12699999809E+01 0.  1.
</event>
<event>
 5   0  0.5072205E-03  0.9977964E+03  0.7818609E-02  0.9310965E-01
       -1   -1    0    0    0  501  0.00000000000E+00  0.00000000000E+00  0.10331569101E+04  0.10331569101E+04  0.50400001928E-02 0. -1.
        1   -1    0    0  501    0  0.00000000000E+00  0.00000000000E+00 -0.24091152463E+03  0.24091152468E+03  0.50400001928E-02 0.  1.
    10030    2    1    2    0    0  0.00000000000E+00  0.00000000000E+00  0.79224538546E+03  0.12740684348E+04  0.99779638491E+03 0.  0.
        5    1    3    3  502    0  0.37524252548E+03  0.22043206924E+03  0.70753555927E+03  0.83067798075E+03  0.46999998093E+01 0. -1.
       -5    1    3    3    0  502 -0.37524252548E+03 -0.22043206924E+03  0.84709826185E+02  0.44339045403E+03  0.46999998093E+01 0.  1.
</event>
<event>
 5   0  0.8875655E-03  0.8803591E+03  0.7818609E-02  0.9450472E-01
       -2   -1    0    0    0  501  0.00000000000E+00  0.00000000000E+00  0.25475383786E+03  0.25475383788E+03  0.25500000920E-02 0. -1.
        2   -1    0    0  501    0  0.00000000000E+00  0.00000000000E+00 -0.76056963672E+03  0.76056963673E+03  0.25500000920E-02 0.  1.
    10030    2    1    2    0    0  0.00000000000E+00  0.00000000000E+00 -0.50581579886E+03  0.10153234746E+04  0.88035909475E+03 0.  0.
        4    1    3    3  502    0 -0.19237996659E+02  0.36334650145E+03 -0.53860590428E+03  0.64999131814E+03  0.12699999809E+01 0.  1.
       -4    1    3    3    0  502  0.19237996659E+02 -0.36334650145E+03  0.32790105416E+02  0.36533215647E+03  0.12699999809E+01 0. -1.
</event>
<event>
 5   0  0.5189877E-03  0.9938466E+03  0.7818609E-02  0.9315320E-01
        1   -1    0    0  501    0  0.00000000000E+00  0.00000000000E+00  0.75496773452E+03  0.75496773454E+03  0.50400001928E-02 0. -1.
       -1   -1    0    0    0  501  0.00000000000E+00  0.00000000000E+00 -0.32707722294E+03  0.32707722298E+03  0.50400001928E-02 0.  1.
    10030    2    1    2    0    0  0.00000000000E+00  0.00000000000E+00  0.42789051158E+03  0.10820449575E+04  0.99384656773E+03 0.  0.
        3    1    3    3  502    0 -0.43147545038E+03  0.19602717576E+03  0.51233416305E+02  0.47667870842E+03  0.10100000352E+00 0. -1.
       -3    1    3    3    0  502  0.43147545038E+03 -0.19602717576E+03  0.37665709527E+03  0.60536624909E+03  0.10100000352E+00 0.  1.
</event>
<event>
 5   0  0.5201968E-03  0.1000051E+04  0.7818609E-02  0.9308489E-01
        1   -1    0    0  501    0  0.00000000000E+00  0.00000000000E+00  0.47061446213E+03  0.47061446216E+03  0.50400001928E-02 0.  1.
       -1   -1    0    0    0  501  0.00000000000E+00  0.00000000000E+00 -0.53127441929E+03  0.53127441931E+03  0.50400001928E-02 0. -1.
    10030    2    1    2    0    0  0.00000000000E+00  0.00000000000E+00 -0.60659957155E+02  0.10018888815E+04  0.10000508489E+04 0.  0.
        2    1    3    3  502    0  0.41685208336E+03  0.54968325438E+02  0.24079307683E+03  0.48452913438E+03  0.25500000920E-02 0.  1.
       -2    1    3    3    0  502 -0.41685208336E+03 -0.54968325438E+02 -0.30145303399E+03  0.51735974709E+03  0.25500000920E-02 0. -1.
</event>
<event>
 5   0  0.8968798E-03  0.1035625E+04  0.7818609E-02  0.9270312E-01
       -2   -1    0    0    0  501  0.00000000000E+00  0.00000000000E+00  0.49539074616E+03  0.49539074617E+03  0.25500000920E-02 0.  1.
        2   -1    0    0  501    0  0.00000000000E+00  0.00000000000E+00 -0.54124901282E+03  0.54124901282E+03  0.25500000920E-02 0. -1.
    10030    2    1    2    0    0  0.00000000000E+00  0.00000000000E+00 -0.45858266655E+02  0.10366397590E+04  0.10356249366E+04 0.  0.
        2    1    3    3  502    0  0.10135711579E+03  0.35205409585E+02 -0.52999938267E+03  0.54075135823E+03  0.25500000920E-02 0. -1.
       -2    1    3    3    0  502 -0.10135711579E+03 -0.35205409585E+02  0.48414111602E+03  0.49588840076E+03  0.25500000920E-02 0.  1.
</event>
<event>
 5   0  0.8907355E-03  0.9877687E+03  0.7818609E-02  0.9322063E-01
        2   -1    0    0  501    0  0.00000000000E+00  0.00000000000E+00  0.19248296467E+04  0.19248296467E+04  0.25500000920E-02 0.  1.
       -2   -1    0    0    0  501  0.00000000000E+00  0.00000000000E+00 -0.12672380052E+03  0.12672380054E+03  0.25500000920E-02 0. -1.
    10030    2    1    2    0    0  0.00000000000E+00  0.00000000000E+00  0.17981058462E+04  0.20515534473E+04  0.98776865350E+03 0.  0.
        5    1    3    3  502    0 -0.37323802965E+03  0.84553576776E+01  0.22757699080E+03  0.43725449865E+03  0.46999998093E+01 0. -1.
       -5    1    3    3    0  502  0.37323802965E+03 -0.84553576776E+01  0.15705288554E+04  0.16142989486E+04  0.46999998093E+01 0.  1.
</event>
<event>
 5   0  0.5349685E-03  0.1000653E+04  0.7818609E-02  0.9307829E-01
        1   -1    0    0  501    0  0.00000000000E+00  0.00000000000E+00  0.15799892461E+04  0.15799892462E+04  0.50400001928E-02 0.  1.
       -1   -1    0    0    0  501  0.00000000000E+00  0.00000000000E+00 -0.15843557808E+03  0.15843557816E+03  0.50400001928E-02 0. -1.
    10030    2    1    2    0    0  0.00000000000E+00  0.00000000000E+00  0.14215536681E+04  0.17384248243E+04  0.10006528062E+04 0.  0.
        4    1    3    3  502    0  0.44812920455E+03 -0.58780000206E+02  0.33796694010E+03  0.56435639263E+03  0.12699999809E+01 0.  1.
       -4    1    3    3    0  502 -0.44812920455E+03  0.58780000206E+02  0.10835867280E+04  0.11740684317E+04  0.12699999809E+01 0. -1.
</event>
<event>
 5   0  0.8907355E-03  0.9865617E+03  0.7818609E-02  0.9323408E-01
        2   -1    0    0  501    0  0.00000000000E+00  0.00000000000E+00  0.66684356750E+03  0.66684356751E+03  0.25500000920E-02 0. -1.
       -2   -1    0    0    0  501  0.00000000000E+00  0.00000000000E+00 -0.36489220573E+03  0.36489220574E+03  0.25500000920E-02 0.  1.
    10030    2    1    2    0    0  0.00000000000E+00  0.00000000000E+00  0.30195136177E+03  0.10317357732E+04  0.98656174714E+03 0.  0.
        5    1    3    3  502    0  0.32253662726E+03  0.92433226750E+02  0.52909781593E+03  0.62653041917E+03  0.46999998093E+01 0. -1.
       -5    1    3    3    0  502 -0.32253662726E+03 -0.92433226750E+02 -0.22714645416E+03  0.40520535407E+03  0.46999998093E+01 0.  1.
</event>
<event>
 5   0  0.3513625E-03  0.1019799E+04  0.7818609E-02  0.9287092E-01
       -3   -1    0    0    0  501  0.00000000000E+00  0.00000000000E+00  0.78988578698E+03  0.78988579344E+03  0.10100000352E+00 0. -1.
        3   -1    0    0  501    0  0.00000000000E+00  0.00000000000E+00 -0.32915823921E+03  0.32915825471E+03  0.10100000352E+00 0.  1.
    10030    2    1    2    0    0  0.00000000000E+00  0.00000000000E+00  0.46072754776E+03  0.11190440481E+04  0.10197988568E+04 0.  0.
        3    1    3    3  502    0  0.36394009323E+03  0.20942188443E+03  0.54780472921E+03  0.69021731989E+03  0.10100000352E+00 0. -1.
       -3    1    3    3    0  502 -0.36394009323E+03 -0.20942188443E+03 -0.87077181443E+02  0.42882672825E+03  0.10100000352E+00 0.  1.
</event>
<event>
 5   0  0.5189877E-03  0.1013241E+04  0.7818609E-02  0.9294140E-01
        1   -1    0    0  501    0  0.00000000000E+00  0.00000000000E+00  0.72730353732E+03  0.72730353734E+03  0.50400001928E-02 0. -1.
       -1   -1    0    0    0  501  0.00000000000E+00  0.00000000000E+00 -0.35289857712E+03  0.35289857715E+03  0.50400001928E-02 0.  1.
    10030    2    1    2    0    0  0.00000000000E+00  0.00000000000E+00  0.37440496021E+03  0.10802021145E+04  0.10132411036E+04 0.  0.
        3    1    3    3  502    0 -0.90001820340E+02 -0.31903056421E+03  0.59564496484E+03  0.68166983423E+03  0.10100000352E+00 0. -1.
       -3    1    3    3    0  502  0.90001820340E+02  0.31903056421E+03 -0.22124000463E+03  0.39853228026E+03  0.10100000352E+00 0.  1.
</event>
<event>
 5   0  0.8968798E-03  0.9955673E+03  0.7818609E-02  0.9313420E-01
       -2   -1    0    0    0  501  0.00000000000E+00  0.00000000000E+00  0.34300364882E+03  0.34300364883E+03  0.25500000920E-02 0.  1.
        2   -1    0    0  501    0  0.00000000000E+00  0.00000000000E+00 -0.72240799059E+03  0.72240799060E+03  0.25500000920E-02 0. -1.
    10030    2    1    2    0    0  0.00000000000E+00  0.00000000000E+00 -0.37940434177E+03  0.10654116394E+04  0.99556732915E+03 0.  0.
        2    1    3    3  502    0  0.76642711284E+02  0.16077625741E+03  0.30773642717E+03  0.35556267908E+03  0.25500000920E-02 0.  1.
       -2    1    3    3    0  502 -0.76642711284E+02 -0.16077625741E+03 -0.68714076895E+03  0.70984896034E+03  0.25500000920E-02 0. -1.
</event>
<event>
 5   0  0.9243773E-03  0.9932114E+03  0.7818609E-02  0.9316022E-01
       -2   -1    0    0    0  501  0.00000000000E+00  0.00000000000E+00  0.32770616276E+03  0.32770616277E+03  0.25500000920E-02 0. -1.
        2   -1    0    0  501    0  0.00000000000E+00  0.00000000000E+00 -0.75255599707E+03  0.75255599708E+03  0.25500000920E-02 0.  1.
    10030    2    1    2    0    0  0.00000000000E+00  0.00000000000E+00 -0.42484983432E+03  0.10802621598E+04  0.99321143383E+03 0.  0.
        3    1    3    3  502    0  0.11273560123E+03 -0.42147749383E+03  0.45566467404E+02  0.43866719360E+03  0.10100000352E+00 0. -1.
       -3    1    3    3    0  502 -0.11273560123E+03  0.42147749383E+03 -0.47041630172E+03  0.64159496625E+03  0.10100000352E+00 0.  1.
</event>
<event>
 5   0  0.9040674E-03  0.9914607E+03  0.7818609E-02  0.9317960E-01
       -2   -1    0    0    0  501  0.00000000000E+00  0.00000000000E+00  0.24056003597E+03  0.24056003598E+03  0.25500000920E-02 0. -1.
        2   -1    0    0  501    0  0.00000000000E+00  0.00000000000E+00 -0.10215686181E+04  0.10215686181E+04  0.25500000920E-02 0.  1.
    10030    2    1    2    0    0  0.00000000000E+00  0.00000000000E+00 -0.78100858213E+03  0.12621286541E+04  0.99146070728E+03 0.  0.
        1    1    3    3  502    0  0.36266121095E+02  0.37410059775E+03 -0.80198459773E+03  0.88568943982E+03  0.50400001928E-02 0.  1.
       -1    1    3    3    0  502 -0.36266121095E+02 -0.37410059775E+03  0.20976015601E+02  0.37643921426E+03  0.50400001928E-02 0. -1.
</event>
<event>
 5   0  0.5310275E-03  0.1007879E+04  0.7818609E-02  0.9299945E-01
       -1   -1    0    0    0  501  0.00000000000E+00  0.00000000000E+00  0.22800703172E+03  0.22800703178E+03  0.50400001928E-02 0. -1.
        1   -1    0    0  501    0  0.00000000000E+00  0.00000000000E+00 -0.11138034814E+04  0.11138034814E+04  0.50400001928E-02 0.  1.
    10030    2    1    2    0    0  0.00000000000E+00  0.00000000000E+00 -0.88579644971E+03  0.13418105132E+04  0.10078790121E+04 0.  0.
        1    1    3    3  502    0  0.32725341114E+03  0.13226970006E+03  0.35942536934E+02  0.35479844228E+03  0.50400001928E-02 0. -1.
       -1    1    3    3    0  502 -0.32725341114E+03 -0.13226970006E+03 -0.92173898665E+03  0.98701207094E+03  0.50400001928E-02 0.  1.
</event>
<event>
 5   0  0.9243773E-03  0.1044213E+04  0.7818609E-02  0.9261339E-01
        2   -1    0    0  501    0  0.00000000000E+00  0.00000000000E+00  0.25170278600E+04  0.25170278600E+04  0.25500000920E-02 0.  1.
       -2   -1    0    0    0  501  0.00000000000E+00  0.00000000000E+00 -0.10830049818E+03  0.10830049821E+03  0.25500000920E-02 0. -1.
    10030    2    1    2    0    0  0.00000000000E+00  0.00000000000E+00  0.24087273619E+04  0.26253283583E+04  0.10442133330E+04 0.  0.
        3    1    3    3  502    0  0.30405736976E+03 -0.63342561513E+02  0.22595126319E+04  0.22807587571E+04  0.10100000352E+00 0.  1.
       -3    1    3    3    0  502 -0.30405736976E+03  0.63342561513E+02  0.14921472999E+03  0.34456960117E+03  0.10100000352E+00 0. -1.
</event>
<event>
 5   0  0.5349685E-03  0.9830958E+03  0.7818609E-02  0.9327282E-01
       -1   -1    0    0    0  501  0.00000000000E+00  0.00000000000E+00  0.12575043534E+03  0.12575043544E+03  0.50400001928E-02 0.  1.
        1   -1    0    0  501    0  0.00000000000E+00  0.00000000000E+00 -0.19214196719E+04  0.19214196719E+04  0.50400001928E-02 0. -1.
    10030    2    1    2    0    0  0.00000000000E+00  0.00000000000E+00 -0.17956692365E+04  0.20471701073E+04  0.98309584542E+03 0.  0.
        4    1    3    3  502    0  0.21207767177E+03  0.43708562315E+03 -0.10536227712E+04  0.11602341736E+04  0.12699999809E+01 0. -1.
       -4    1    3    3    0  502 -0.21207767177E+03 -0.43708562315E+03 -0.74204646538E+03  0.88693593371E+03  0.12699999809E+01 0.  1.
</event>
<event>
 5   0  0.8907355E-03  0.1000291E+04  0.7818609E-02  0.9308226E-01
       -2   -1    0    0    0  501  0.00000000000E+00  0.00000000000E+00  0.25816091368E+03  0.25816091370E+03  0.25500000920E-02 0. -1.
        2   -1    0    0  501    0  0.00000000000E+00  0.00000000000E+00 -0.96895205418E+03  0.96895205418E+03  0.25500000920E-02 0.  1.
    10030    2    1    2    0    0  0.00000000000E+00  0.00000000000E+00 -0.71079114049E+03  0.12271129679E+04  0.10002910529E+04 0.  0.
        5    1    3    3  502    0 -0.33496237134E+03 -0.27340791439E+03 -0.66372836380E+03  0.79215472527E+03  0.46999998093E+01 0.  1.
       -5    1    3    3    0  502  0.33496237134E+03  0.27340791439E+03 -0.47062776694E+02  0.43495824261E+03  0.46999998093E+01 0. -1.
</event>
<event>
 5   0  0.5349685E-03  0.1094771E+04  0.7818609E-02  0.9210304E-01
       -1   -1    0    0    0  501  0.00000000000E+00  0.00000000000E+00  0.72000800691E+03  0.72000800693E+03  0.50400001928E-02 0. -1.
        1   -1    0    0  501    0  0.00000000000E+00  0.00000000000E+00 -0.41614908113E+03  0.41614908116E+03  0.50400001928E-02 0.  1.
    10030    2    1    2    0    0  0.00000000000E+00  0.00000000000E+00  0.30385892578E+03  0.11361570881E+04  0.10947706070E+04 0.  0.
        4    1    3    3  502    0 -0.46525605907E+02 -0.43354825938E+03  0.49534739773E+03  0.65992377026E+03  0.12699999809E+01 0. -1.
       -4    1    3    3    0  502  0.46525605907E+02  0.43354825938E+03 -0.19148847195E+03  0.47623331783E+03  0.12699999809E+01 0.  1.
</event>
<event>
 5   0  0.5189877E-03  0.9803877E+03  0.7818609E-02  0.9330321E-01
        1   -1    0    0  501    0  0.00000000000E+00  0.00000000000E+00  0.39177367344E+03  0.39177367347E+03  0.50400001928E-02 0. -1.
       -1   -1    0    0    0  501  0.00000000000E+00  0.00000000000E+00 -0.61333889450E+03  0.61333889452E+03  0.50400001928E-02 0.  1.
    10030    2    1    2    0    0  0.00000000000E+00  0.00000000000E+00 -0.22156522106E+03  0.10051125680E+04  0.98038774327E+03 0.  0.
        3    1    3    3  502    0  0.18053735946E+03  0.39652593297E+03 -0.34108867634E+03  0.55332454221E+03  0.10100000352E+00 0.  1.
       -3    1    3    3    0  502 -0.18053735946E+03 -0.39652593297E+03  0.11952345527E+03  0.45178802579E+03  0.10100000352E+00 0. -1.
</event>
<event>
 5   0  0.9040674E-03  0.1007475E+04  0.7818609E-02  0.9300384E-01
       -2   -1    0    0    0  501  0.00000000000E+00  0.00000000000E+00  0.26565773770E+03  0.26565773772E+03  0.25500000920E-02 0. -1.
        2   -1    0    0  501    0  0.00000000000E+00  0.00000000000E+00 -0.95518240417E+03  0.95518240417E+03  0.25500000920E-02 0.  1.
    10030    2    1    2    0    0  0.00000000000E+00  0.00000000000E+00 -0.68952466647E+03  0.12208401419E+04  0.10074752535E+04 0.  0.
        1    1    3    3  502    0  0.17411354578E+03  0.33077411383E+03 -0.75395100975E+03  0.84152787615E+03  0.50400001928E-02 0.  1.
       -1    1    3    3    0  502 -0.17411354578E+03 -0.33077411383E+03  0.64426343282E+02  0.37931226574E+03  0.50400001928E-02 0. -1.
</event>
<event>
 5   0  0.8875655E-03  0.1018979E+04  0.7818609E-02  0.9287971E-01
       -2   -1    0    0    0  501  0.00000000000E+00  0.00000000000E+00  0.58965719367E+03  0.58965719368E+03  0.25500000920E-02 0.  1.
        2   -1    0    0  501    0  0.00000000000E+00  0.00000000000E+00 -0.44022088765E+03  0.44022088765E+03  0.25500000920E-02 0. -1.
    10030    2    1    2    0    0  0.00000000000E+00  0.00000000000E+00  0.14943630603E+03  0.10298780813E+04  0.10189787303E+04 0.  0.
        4    1    3    3  502    0  0.43020280261E+03 -0.90120551193E+02 -0.18568405928E+03  0.47715442772E+03  0.12699999809E+01 0.  1.
       -4    1    3    3    0  502 -0.43020280261E+03  0.90120551193E+02  0.33512036530E+03  0.55272365361E+03  0.12699999809E+01 0. -1.
</event>
<event>
 5   0  0.9243773E-03  0.9881384E+03  0.7818609E-02  0.9321651E-01
       -2   -1    0    0    0  501  0.00000000000E+00  0.00000000000E+00  0.43763449133E+03  0.43763449133E+03  0.25500000920E-02 0. -1.
        2   -1    0    0  501    0  0.00000000000E+00  0.00000000000E+00 -0.55778137199E+03  0.55778137200E+03  0.25500000920E-02 0.  1.
    10030    2    1    2    0    0  0.00000000000E+00  0.00000000000E+00 -0.12014688067E+03  0.99541586333E+03  0.98813838507E+03 0.  0.
        3    1    3    3  502    0  0.17185565905E+03 -0.33622921996E+02  0.40532419573E+03  0.44153435005E+03  0.10100000352E+00 0. -1.
       -3    1    3    3    0  502 -0.17185565905E+03  0.33622921996E+02 -0.52547107639E+03  0.55388151328E+03  0.10100000352E+00 0.  1.
</event>
<event>
 5   0  0.5201968E-03  0.1005484E+04  0.7818609E-02  0.9302551E-01
       -1   -1    0    0    0  501  0.00000000000E+00  0.00000000000E+00  0.82772821907E+03  0.82772821909E+03  0.50400001928E-02 0.  1.
        1   -1    0    0  501    0  0.00000000000E+00  0.00000000000E+00 -0.30535301183E+03  0.30535301188E+03  0.50400001928E-02 0. -1.
    10030    2    1    2    0    0  0.00000000000E+00  0.00000000000E+00  0.52237520724E+03  0.11330812310E+04  0.10054835746E+04 0.  0.
        2    1    3    3  502    0  0.27124567731E+03  0.16802238338E+03  0.69900535698E+03  0.76838416685E+03  0.25500000920E-02 0.  1.
       -2    1    3    3    0  502 -0.27124567731E+03 -0.16802238338E+03 -0.17663014974E+03  0.36469706412E+03  0.25500000920E-02 0. -1.
</event>
<event>
 5   0  0.5201968E-03  0.9989526E+03  0.7818609E-02  0.9309694E-01
       -1   -1    0    0    0  501  0.00000000000E+00  0.00000000000E+00  0.15787995848E+03  0.15787995856E+03  0.50400001928E-02 0. -1.
        1   -1    0    0  501    0  0.00000000000E+00  0.00000000000E+00 -0.15801660978E+04  0.15801660978E+04  0.50400001928E-02 0.  1.
    10030    2    1    2    0    0  0.00000000000E+00  0.00000000000E+00 -0.14222861393E+04  0.17380460564E+04  0.99895256741E+03 0.  0.
        2    1    3    3  502    0 -0.31896329882E+03  0.17342051966E+03 -0.13079567400E+04  0.13574104377E+04  0.25500000920E-02 0.  1.
       -2    1    3    3    0  502  0.31896329882E+03 -0.17342051966E+03 -0.11432939929E+03  0.38063561864E+03  0.25500000920E-02 0. -1.
</event>
<event>
 5   0  0.8907355E-03  0.1006540E+04  0.7818609E-02  0.9301401E-01
        2   -1    0    0  501    0  0.00000000000E+00  0.00000000000E+00  0.30888593415E+04  0.30888593415E+04  0.25500000920E-02 0. -1.
       -2   -1    0    0    0  501  0.00000000000E+00  0.00000000000E+00 -0.81998113555E+02  0.81998113595E+02  0.25500000920E-02 0.  1.
    10030    2    1    2    0    0  0.00000000000E+00  0.00000000000E+00  0.30068612279E+04  0.31708574551E+04  0.10065398931E+04 0.  0.
        5    1    3    3  502    0  0.41915689317E+03 -0.16143713032E+03  0.22183657344E+04  0.22633875209E+04  0.46999998093E+01 0. -1.
       -5    1    3    3    0  502 -0.41915689317E+03  0.16143713032E+03  0.78849549347E+03  0.90746993413E+03  0.46999998093E+01 0.  1.
</event>
<event>
 5   0  0.5310275E-03  0.9890072E+03  0.7818609E-02  0.9320684E-01
        1   -1    0    0  501    0  0.00000000000E+00  0.00000000000E+00  0.79404317483E+03  0.79404317485E+03  0.50400001928E-02 0.  1.
       -1   -1    0    0    0  501  0.00000000000E+00  0.00000000000E+00 -0.30796032589E+03  0.30796032593E+03  0.50400001928E-02 0. -1.
    10030    2    1    2    0    0  0.00000000000E+00  0.00000000000E+00  0.48608284894E+03  0.11020035008E+04  0.98900716868E+03 0.  0.
        1    1    3    3  502    0  0.20840694113E+02 -0.23127559327E+03 -0.24343027839E+03  0.33642389189E+03  0.50400001928E-02 0. -1.
       -1    1    3    3    0  502 -0.20840694113E+02  0.23127559327E+03  0.72951312733E+03  0.76557960889E+03  0.50400001928E-02 0.  1.
</event>
<event>
 5   0  0.9243773E-03  0.1002993E+04  0.7818609E-02  0.9305268E-01
        2   -1    0    0  501    0  0.00000000000E+00  0.00000000000E+00  0.10142787727E+04  0.10142787727E+04  0.25500000920E-02 0. -1.
       -2   -1    0    0    0  501  0.00000000000E+00  0.00000000000E+00 -0.24795818130E+03  0.24795818131E+03  0.25500000920E-02 0.  1.
    10030    2    1    2    0    0  0.00000000000E+00  0.00000000000E+00  0.76632059141E+03  0.12622369540E+04  0.10029929607E+04 0.  0.
        3    1    3    3  502    0  0.36544496770E+03 -0.31868709782E+03  0.22206026136E+03  0.53331253558E+03  0.10100000352E+00 0.  1.
       -3    1    3    3    0  502 -0.36544496770E+03  0.31868709782E+03  0.54426033005E+03  0.72892441844E+03  0.10100000352E+00 0. -1.
</event>
<event>
 5   0  0.3513625E-03  0.9902086E+03  0.7818609E-02  0.9319349E-01
       -4   -1    0    0    0  501  0.00000000000E+00  0.00000000000E+00  0.76055636764E+03  0.76055742798E+03  0.12699999809E+01 0. -1.
        4   -1    0    0  501    0  0.00000000000E+00  0.00000000000E+00 -0.32229871210E+03  0.32230121427E+03  0.12699999809E+01 0.  1.
    10030    2    1    2    0    0  0.00000000000E+00  0.00000000000E+00  0.43825765554E+03  0.10828586423E+04  0.99020859745E+03 0.  0.
        5    1    3    3  502    0  0.51125899795E+02  0.46457816026E+03  0.40574375773E+02  0.46916425119E+03  0.46999998093E+01 0.  1.
       -5    1    3    3    0  502 -0.51125899795E+02 -0.46457816026E+03  0.39768327977E+03  0.61369439107E+03  0.46999998093E+01 0. -1.
</event>
<event>
 5   0  0.5349685E-03  0.1004906E+04  0.7818609E-02  0.9303180E-01
       -1   -1    0    0    0  501  0.00000000000E+00  0.00000000000E+00  0.11118620635E+04  0.11118620635E+04  0.50400001928E-02 0. -1.
        1   -1    0    0  501    0  0.00000000000E+00  0.00000000000E+00 -0.22705962313E+03  0.22705962319E+03  0.50400001928E-02 0.  1.
    10030    2    1    2    0    0  0.00000000000E+00  0.00000000000E+00  0.88480244037E+03  0.13389216867E+04  0.10049059283E+04 0.  0.
        4    1    3    3  502    0 -0.34692688105E+03 -0.30484288349E+03  0.17870364802E+03  0.49520102092E+03  0.12699999809E+01 0.  1.
       -4    1    3    3    0  502  0.34692688105E+03  0.30484288349E+03  0.70609879235E+03  0.84372066578E+03  0.12699999809E+01 0. -1.
</event>
<event>
 5   0  0.5072205E-03  0.1010077E+04  0.7818609E-02  0.9297561E-01
        1   -1    0    0  501    0  0.00000000000E+00  0.00000000000E+00  0.82279986780E+03  0.82279986782E+03  0.50400001928E-02 0. -1.
       -1   -1    0    0    0  501  0.00000000000E+00  0.00000000000E+00 -0.30999521563E+03  0.30999521567E+03  0.50400001928E-02 0.  1.
    10030    2    1    2    0    0  0.00000000000E+00  0.00000000000E+00  0.51280465217E+03  0.11327950835E+04  0.10100772693E+04 0.  0.
        5    1    3    3  502    0  0.44675827395E+03  0.60368266190E+02  0.11432883588E+01  0.45084440776E+03  0.46999998093E+01 0.  1.
       -5    1    3    3    0  502 -0.44675827395E+03 -0.60368266190E+02  0.51166136382E+03  0.68195067573E+03  0.46999998093E+01 0. -1.
</event>
<event>
 5   0  0.8875655E-03  0.1004514E+04  0.7818609E-02  0.9303607E-01
        2   -1    0    0  501    0  0.00000000000E+00  0.00000000000E+00  0.27125264528E+03  0.27125264529E+03  0.25500000920E-02 0. -1.
       -2   -1    0    0    0  501  0.00000000000E+00  0.00000000000E+00 -0.92998988349E+03  0.92998988349E+03  0.25500000920E-02 0.  1.
    10030    2    1    2    0    0  0.00000000000E+00  0.00000000000E+00 -0.65873723821E+03  0.12012425288E+04  0.10045142428E+04 0.  0.
        4    1    3    3  502    0 -0.24154715691E+03 -0.43488896387E+03 -0.41210827615E+03  0.64599402790E+03  0.12699999809E+01 0.  1.
       -4    1    3    3    0  502  0.24154715691E+03  0.43488896387E+03 -0.24662896206E+03  0.55524850088E+03  0.12699999809E+01 0. -1.
</event>
<event>
 5   0  0.5072205E-03  0.9559324E+03  0.7818609E-02  0.9358243E-01
        1   -1    0    0  501    0  0.00000000000E+00  0.00000000000E+00  0.99235373395E+03  0.99235373396E+03  0.50400001928E-02 0. -1.
       -1   -1    0    0    0  501  0.00000000000E+00  0.00000000000E+00 -0.23021194509E+03  0.23021194514E+03  0.50400001928E-02 0.  1.
    10030    2    1    2    0    0  0.00000000000E+00  0.00000000000E+00  0.76214178886E+03  0.12225656791E+04  0.95593238955E+03 0.  0.
        5    1    3    3  502    0 -0.12590762407E+03  0.93597302309E+02  0.95845469533E+03  0.97122123010E+03  0.46999998093E+01 0. -1.
       -5    1    3    3    0  502  0.12590762407E+03 -0.93597302309E+02 -0.19631290647E+03  0.25134444900E+03  0.46999998093E+01 0.  1.
</event>
<event>
 5   0  0.8968798E-03  0.1001381E+04  0.7818609E-02  0.9307031E-01
        2   -1    0    0  501    0  0.00000000000E+00  0.00000000000E+00  0.12744945707E+04  0.12744945707E+04  0.25500000920E-02 0.  1.
       -2   -1    0    0    0  501  0.00000000000E+00  0.00000000000E+00 -0.19669833431E+03  0.19669833433E+03  0.25500000920E-02 0. -1.
    10030    2    1    2    0    0  0.00000000000E+00  0.00000000000E+00  0.10777962364E+04  0.14711929050E+04  0.10013809648E+04 0.  0.
        2    1    3    3  502    0  0.42020727607E+02 -0.31676928087E+03  0.11052078614E+04  0.11504750913E+04  0.25500000920E-02 0.  1.
       -2    1    3    3    0  502 -0.42020727607E+02  0.31676928087E+03 -0.27411624988E+02  0.32071781373E+03  0.25500000920E-02 0. -1.
</event>
<event>
 5   0  0.5201968E-03  0.9800725E+03  0.7818609E-02  0.9330675E-01
       -1   -1    0    0    0  501  0.00000000000E+00  0.00000000000E+00  0.42994390315E+03  0.42994390318E+03  0.50400001928E-02 0.  1.
        1   -1    0    0  501    0  0.00000000000E+00  0.00000000000E+00 -0.55852761684E+03  0.55852761686E+03  0.50400001928E-02 0. -1.
    10030    2    1    2    0    0  0.00000000000E+00  0.00000000000E+00 -0.12858371369E+03  0.98847152005E+03  0.98007253533E+03 0.  0.
        2    1    3    3  502    0 -0.14896629813E+03  0.21178422089E+02  0.40606950474E+03  0.43304956556E+03  0.25500000920E-02 0.  1.
       -2    1    3    3    0  502  0.14896629813E+03 -0.21178422089E+02 -0.53465321843E+03  0.55542195449E+03  0.25500000920E-02 0. -1.
</event>
<event>
 5   0  0.5310275E-03  0.9970797E+03  0.7818609E-02  0.9311754E-01
        1   -1    0    0  501    0  0.00000000000E+00  0.00000000000E+00  0.10540646870E+04  0.10540646870E+04  0.50400001928E-02 0. -1.
       -1   -1    0    0    0  501  0.00000000000E+00  0.00000000000E+00 -0.23579383992E+03  0.23579383997E+03  0.50400001928E-02 0.  1.
    10030    2    1    2    0    0  0.00000000000E+00  0.00000000000E+00  0.81827084708E+03  0.12898585270E+04  0.99707965602E+03 0.  0.
        1    1    3    3  502    0  0.41854421666E+02 -0.23069274727E+03  0.97829283748E+03  0.10059959305E+04  0.50400001928E-02 0. -1.
       -1    1    3    3    0  502 -0.41854421666E+02  0.23069274727E+03 -0.16002199040E+03  0.28386259650E+03  0.50400001928E-02 0.  1.
</event>
<event>
 5   0  0.8968798E-03  0.1008157E+04  0.7818609E-02  0.9299643E-01
        2   -1    0    0  501    0  0.00000000000E+00  0.00000000000E+00  0.17240318972E+04  0.17240318972E+04  0.25500000920E-02 0. -1.
       -2   -1    0    0    0  501  0.00000000000E+00  0.00000000000E+00 -0.14738431344E+03  0.14738431346E+03  0.25500000920E-02 0.  1.
    10030    2    1    2    0    0  0.00000000000E+00  0.00000000000E+00  0.15766475838E+04  0.18714162107E+04  0.10081572448E+04 0.  0.
        2    1    3    3  502    0  0.40256553785E+03 -0.29935077828E+03  0.69690616743E+03  0.85868976175E+03  0.25500000920E-02 0.  1.
       -2    1    3    3    0  502 -0.40256553785E+03  0.29935077828E+03  0.87974141634E+03  0.10127264489E+04  0.25500000920E-02 0. -1.
</event>
<event>
 5   0  0.8875655E-03  0.1009117E+04  0.7818609E-02  0.9298601E-01
        2   -1    0    0  501    0  0.00000000000E+00  0.00000000000E+00  0.12626437324E+04  0.12626437324E+04  0.25500000920E-02 0.  1.
       -2   -1    0    0    0  501  0.00000000000E+00  0.00000000000E+00 -0.20162407591E+03  0.20162407592E+03  0.25500000920E-02 0. -1.
    10030    2    1    2    0    0  0.00000000000E+00  0.00000000000E+00  0.10610196565E+04  0.14642678083E+04  0.10091171899E+04 0.  0.
        4    1    3    3  502    0  0.32826762124E+03 -0.93892092489E+02 -0.85317192896E+01  0.34154027481E+03  0.12699999809E+01 0. -1.
       -4    1    3    3    0  502 -0.32826762124E+03  0.93892092489E+02  0.10695513758E+04  0.11227275335E+04  0.12699999809E+01 0.  1.
</event>
<event>
 5   0  0.5201968E-03  0.1009079E+04  0.7818609E-02  0.9298643E-01
        1   -1    0    0  501    0  0.00000000000E+00  0.00000000000E+00  0.26440739020E+03  0.26440739025E+03  0.50400001928E-02 0. -1.
       -1   -1    0    0    0  501  0.00000000000E+00  0.00000000000E+00 -0.96275711321E+03  0.96275711322E+03  0.50400001928E-02 0.  1.
    10030    2    1    2    0    0  0.00000000000E+00  0.00000000000E+00 -0.69834972300E+03  0.12271645035E+04  0.10090789776E+04 0.  0.
        2    1    3    3  502    0  0.22913460449E+03 -0.16901396736E+03 -0.85571864145E+03  0.90184410043E+03  0.25500000920E-02 0.  1.
       -2    1    3    3    0  502 -0.22913460449E+03  0.16901396736E+03  0.15736891845E+03  0.32532040304E+03  0.25500000920E-02 0. -1.
</event>
<event>
 5   0  0.5310275E-03  0.1016804E+04  0.7818609E-02  0.9290304E-01
       -1   -1    0    0    0  501  0.00000000000E+00  0.00000000000E+00  0.41488158345E+03  0.41488158348E+03  0.50400001928E-02 0.  1.
        1   -1    0    0  501    0  0.00000000000E+00  0.00000000000E+00 -0.62300310222E+03  0.62300310224E+03  0.50400001928E-02 0. -1.
    10030    2    1    2    0    0  0.00000000000E+00  0.00000000000E+00 -0.20812151876E+03  0.10378846857E+04  0.10168038426E+04 0.  0.
        1    1    3    3  502    0  0.12266355604E+03  0.45068169826E+03 -0.30900231411E+03  0.56003818734E+03  0.50400001928E-02 0. -1.
       -1    1    3    3    0  502 -0.12266355604E+03 -0.45068169826E+03  0.10088079534E+03  0.47784649839E+03  0.50400001928E-02 0.  1.
</event>
<event>
 5   0  0.5349685E-03  0.1004101E+04  0.7818609E-02  0.9304058E-01
       -1   -1    0    0    0  501  0.00000000000E+00  0.00000000000E+00  0.52801510713E+03  0.52801510715E+03  0.50400001928E-02 0.  1.
        1   -1    0    0  501    0  0.00000000000E+00  0.00000000000E+00 -0.47736275105E+03  0.47736275107E+03  0.50400001928E-02 0. -1.
    10030    2    1    2    0    0  0.00000000000E+00  0.00000000000E+00  0.50652356082E+02  0.10053778582E+04  0.10041010789E+04 0.  0.
        4    1    3    3  502    0 -0.14342691339E+03 -0.19645555626E+03 -0.41442137996E+03  0.48053382622E+03  0.12699999809E+01 0. -1.
       -4    1    3    3    0  502  0.14342691339E+03  0.19645555626E+03  0.46507373605E+03  0.52484403200E+03  0.12699999809E+01 0.  1.
</event>
<event>
 5   0  0.8875655E-03  0.9999256E+03  0.7818609E-02  0.9308626E-01
        2   -1    0    0  501    0  0.00000000000E+00  0.00000000000E+00  0.13275217218E+04  0.13275217218E+04  0.25500000920E-02 0. -1.
       -2   -1    0    0    0  501  0.00000000000E+00  0.00000000000E+00 -0.18829283089E+03  0.18829283091E+03  0.25500000920E-02 0.  1.
    10030    2    1    2    0    0  0.00000000000E+00  0.00000000000E+00  0.11392288909E+04  0.15158145527E+04  0.99992564340E+03 0.  0.
        4    1    3    3  502    0 -0.23096498933E+03  0.11058074446E+03  0.12205605404E+04  0.12471337431E+04  0.12699999809E+01 0. -1.
       -4    1    3    3    0  502  0.23096498933E+03 -0.11058074446E+03 -0.81331649541E+02  0.26868080962E+03  0.12699999809E+01 0.  1.
</event>
<event>
 5   0  0.5189877E-03  0.1001902E+04  0.7818609E-02  0.9306461E-01
       -1   -1    0    0    0  501  0.00000000000E+00  0.00000000000E+00  0.27141727984E+03  0.27141727989E+03  0.50400001928E-02 0. -1.
        1   -1    0    0  501    0  0.00000000000E+00  0.00000000000E+00 -0.92459896335E+03  0.92459896337E+03  0.50400001928E-02 0.  1.
    10030    2    1    2    0    0  0.00000000000E+00  0.00000000000E+00 -0.65318168351E+03  0.11960162433E+04  0.10019024616E+04 0.  0.
        3    1    3    3  502    0  0.18430410731E+03  0.29063117360E+03  0.10796789386E+03  0.36068207517E+03  0.10100000352E+00 0. -1.
       -3    1    3    3    0  502 -0.18430410731E+03 -0.29063117360E+03 -0.76114957737E+03  0.83533416809E+03  0.10100000352E+00 0.  1.
</event>
<event>
 5   0  0.5310275E-03  0.9972740E+03  0.7818609E-02  0.9311540E-01
        1   -1    0    0  501    0  0.00000000000E+00  0.00000000000E+00  0.61686775933E+03  0.61686775935E+03  0.50400001928E-02 0.  1.
       -1   -1    0    0    0  501  0.00000000000E+00  0.00000000000E+00 -0.40306666999E+03  0.40306667002E+03  0.50400001928E-02 0. -1.
    10030    2    1    2    0    0  0.00000000000E+00  0.00000000000E+00  0.21380108934E+03  0.10199344294E+04  0.99727395153E+03 0.  0.
        1    1    3    3  502    0  0.10111553323E+03 -0.30664346329E+03 -0.28171280535E+03  0.42850515676E+03  0.50400001928E-02 0. -1.
       -1    1    3    3    0  502 -0.10111553323E+03  0.30664346329E+03  0.49551389469E+03  0.59142927261E+03  0.50400001928E-02 0.  1.
</event>
<event>
 5   0  0.5310275E-03  0.1010016E+04  0.7818609E-02  0.9297627E-01
        1   -1    0    0  501    0  0.00000000000E+00  0.00000000000E+00  0.78159806351E+03  0.78159806352E+03  0.50400001928E-02 0. -1.
       -1   -1    0    0    0  501  0.00000000000E+00  0.00000000000E+00 -0.32629711394E+03  0.32629711398E+03  0.50400001928E-02 0.  1.
    10030    2    1    2    0    0  0.00000000000E+00  0.00000000000E+00  0.45530094956E+03  0.11078951775E+04  0.10100162225E+04 0.  0.
        1    1    3    3  502    0 -0.35664733757E+03  0.27424002224E+03 -0.23989659142E+02  0.45053348041E+03  0.50400001928E-02 0.  1.
       -1    1    3    3    0  502  0.35664733757E+03 -0.27424002224E+03  0.47929060871E+03  0.65736169710E+03  0.50400001928E-02 0. -1.
</event>
<event>
 5   0  0.8875655E-03  0.9942899E+03  0.7818609E-02  0.9314830E-01
       -2   -1    0    0    0  501  0.00000000000E+00  0.00000000000E+00  0.21879136287E+03  0.21879136288E+03  0.25500000920E-02 0. -1.
        2   -1    0    0  501    0  0.00000000000E+00  0.00000000000E+00 -0.11296291056E+04  0.11296291056E+04  0.25500000920E-02 0.  1.
    10030    2    1    2    0    0  0.00000000000E+00  0.00000000000E+00 -0.91083774277E+03  0.13484204685E+04  0.99428988041E+03 0.  0.
        4    1    3    3  502    0  0.20589031131E+03 -0.18508894083E+03  0.10456820114E+03  0.29594739042E+03  0.12699999809E+01 0. -1.
       -4    1    3    3    0  502 -0.20589031131E+03  0.18508894083E+03 -0.10154059439E+04  0.10524730781E+04  0.12699999809E+01 0.  1.
</event>
<event>
 5   0  0.9243773E-03  0.1002517E+04  0.7818609E-02  0.9305789E-01
       -2   -1    0    0    0  501  0.00000000000E+00  0.00000000000E+00  0.34141164658E+03  0.34141164659E+03  0.25500000920E-02 0.  1.
        2   -1    0    0  501    0  0.00000000000E+00  0.00000000000E+00 -0.73594415916E+03  0.73594415917E+03  0.25500000920E-02 0. -1.
    10030    2    1    2    0    0  0.00000000000E+00  0.00000000000E+00 -0.39453251258E+03  0.10773558058E+04  0.10025166476E+04 0.  0.
        3    1    3    3  502    0 -0.29439754367E+03 -0.22899303246E+03 -0.55715760930E+03  0.67047172531E+03  0.10100000352E+00 0. -1.
       -3    1    3    3    0  502  0.29439754367E+03  0.22899303246E+03  0.16262509672E+03  0.40688408044E+03  0.10100000352E+00 0.  1.
</event>
<event>
 5   0  0.3513625E-03  0.1046869E+04  0.7818609E-02  0.9258582E-01
       -3   -1    0    0    0  501  0.00000000000E+00  0.00000000000E+00  0.18594236899E+03  0.18594239642E+03  0.10100000352E+00 0. -1.
        3   -1    0    0  501    0  0.00000000000E+00  0.00000000000E+00 -0.14734873654E+04  0.14734873689E+04  0.10100000352E+00 0.  1.
    10030    2    1    2    0    0  0.00000000000E+00  0.00000000000E+00 -0.12875449964E+04  0.16594297653E+04  0.10468691552E+04 0.  0.
        3    1    3    3  502    0 -0.28348913757E+03 -0.38840462658E+03 -0.97155275400E+03  0.10840382876E+04  0.10100000352E+00 0.  1.
       -3    1    3    3    0  502  0.28348913757E+03  0.38840462658E+03 -0.31599224241E+03  0.57539147763E+03  0.10100000352E+00 0. -1.
</event>
<event>
 5   0  0.8907355E-03  0.1004235E+04  0.7818609E-02  0.9303913E-01
        2   -1    0    0  501    0  0.00000000000E+00  0.00000000000E+00  0.10382623134E+04  0.10382623134E+04  0.25500000920E-02 0. -1.
       -2   -1    0    0    0  501  0.00000000000E+00  0.00000000000E+00 -0.24283049185E+03  0.24283049187E+03  0.25500000920E-02 0.  1.
    10030    2    1    2    0    0  0.00000000000E+00  0.00000000000E+00  0.79543182157E+03  0.12810928053E+04  0.10042345309E+04 0.  0.
        5    1    3    3  502    0  0.24689893509E+03  0.34690002311E+03  0.58274379343E+02  0.42978681165E+03  0.46999998093E+01 0. -1.
       -5    1    3    3    0  502 -0.24689893509E+03 -0.34690002311E+03  0.73715744223E+03  0.85130599364E+03  0.46999998093E+01 0.  1.
</event>
<event>
 5   0  0.9243773E-03  0.9842010E+03  0.7818609E-02  0.9326045E-01
        2   -1    0    0  501    0  0.00000000000E+00  0.00000000000E+00  0.14609857923E+04  0.14609857923E+04  0.25500000920E-02 0. -1.
       -2   -1    0    0    0  501  0.00000000000E+00  0.00000000000E+00 -0.16575306809E+03  0.16575306811E+03  0.25500000920E-02 0.  1.
    10030    2    1    2    0    0  0.00000000000E+00  0.00000000000E+00  0.12952327242E+04  0.16267388604E+04  0.98420095006E+03 0.  0.
        3    1    3    3  502    0 -0.32016197438E+03 -0.28025631375E+03  0.23900539730E+03  0.48802754162E+03  0.10100000352E+00 0.  1.
       -3    1    3    3    0  502  0.32016197438E+03  0.28025631375E+03  0.10562273269E+04  0.11387113188E+04  0.10100000352E+00 0. -1.
</event>
<event>
 5   0  0.5189877E-03  0.9918255E+03  0.7818609E-02  0.9317556E-01
       -1   -1    0    0    0  501  0.00000000000E+00  0.00000000000E+00  0.47096350828E+03  0.47096350831E+03  0.50400001928E-02 0.  1.
        1   -1    0    0  501    0  0.00000000000E+00  0.00000000000E+00 -0.52218369994E+03  0.52218369997E+03  0.50400001928E-02 0. -1.
    10030    2    1    2    0    0  0.00000000000E+00  0.00000000000E+00 -0.51220191659E+02  0.99314720828E+03  0.99182552360E+03 0.  0.
        3    1    3    3  502    0 -0.13886539465E+03  0.33944914720E+02  0.44988436051E+03  0.47205063616E+03  0.10100000352E+00 0.  1.
       -3    1    3    3    0  502  0.13886539465E+03 -0.33944914720E+02 -0.50110455217E+03  0.52109657212E+03  0.10100000352E+00 0. -1.
</event>
<event>
 5   0  0.8907355E-03  0.1009071E+04  0.7818609E-02  0.9298652E-01
        2   -1    0    0  501    0  0.00000000000E+00  0.00000000000E+00  0.77398882351E+03  0.77398882352E+03  0.25500000920E-02 0. -1.
       -2   -1    0    0    0  501  0.00000000000E+00  0.00000000000E+00 -0.32888842684E+03  0.32888842685E+03  0.25500000920E-02 0.  1.
    10030    2    1    2    0    0  0.00000000000E+00  0.00000000000E+00  0.44510039667E+03  0.11028772504E+04  0.10090707935E+04 0.  0.
        5    1    3    3  502    0 -0.14800830324E+03 -0.18137656529E+03  0.71100811194E+03  0.74857099965E+03  0.46999998093E+01 0. -1.
       -5    1    3    3    0  502  0.14800830324E+03  0.18137656529E+03 -0.26590771527E+03  0.35430625073E+03  0.46999998093E+01 0.  1.
</event>
<event>
 5   0  0.8968798E-03  0.1047885E+04  0.7818609E-02  0.9257531E-01
        2   -1    0    0  501    0  0.00000000000E+00  0.00000000000E+00  0.12341118556E+04  0.12341118556E+04  0.25500000920E-02 0. -1.
       -2   -1    0    0    0  501  0.00000000000E+00  0.00000000000E+00 -0.22243974837E+03  0.22243974838E+03  0.25500000920E-02 0.  1.
    10030    2    1    2    0    0  0.00000000000E+00  0.00000000000E+00  0.10116721072E+04  0.14565516040E+04  0.10478845941E+04 0.  0.
        2    1    3    3  502    0 -0.16213153925E+03 -0.47971082874E+03  0.31879856604E+03  0.59836580864E+03  0.25500000920E-02 0.  1.
       -2    1    3    3    0  502  0.16213153925E+03  0.47971082874E+03  0.69287354120E+03  0.85818579535E+03  0.25500000920E-02 0. -1.
</event>
<event>
 5   0  0.8907355E-03  0.9996088E+03  0.7818609E-02  0.9308974E-01
        2   -1    0    0  501    0  0.00000000000E+00  0.00000000000E+00  0.69857321642E+03  0.69857321643E+03  0.25500000920E-02 0.  1.
       -2   -1    0    0    0  501  0.00000000000E+00  0.00000000000E+00 -0.35759233697E+03  0.35759233698E+03  0.25500000920E-02 0. -1.
    10030    2    1    2    0    0  0.00000000000E+00  0.00000000000E+00  0.34098087945E+03  0.10561655534E+04  0.99960878150E+03 0.  0.
        5    1    3    3  502    0  0.25133115545E+03  0.42661758973E+03  0.98733083798E+02  0.50491606174E+03  0.46999998093E+01 0. -1.
       -5    1    3    3    0  502 -0.25133115545E+03 -0.42661758973E+03  0.24224779565E+03  0.55124949167E+03  0.46999998093E+01 0.  1.
</event>
<event>
 5   0  0.5310275E-03  0.9996376E+03  0.7818609E-02  0.9308942E-01
       -1   -1    0    0    0  501  0.00000000000E+00  0.00000000000E+00  0.57145790302E+03  0.57145790304E+03  0.50400001928E-02 0.  1.
        1   -1    0    0  501    0  0.00000000000E+00  0.00000000000E+00 -0.43716054133E+03  0.43716054136E+03  0.50400001928E-02 0. -1.
    10030    2    1    2    0    0  0.00000000000E+00  0.00000000000E+00  0.13429736169E+03  0.10086184444E+04  0.99963762686E+03 0.  0.
        1    1    3    3  502    0 -0.22332130158E+03 -0.16269150397E+03  0.48739741152E+03  0.56026526395E+03  0.50400001928E-02 0.  1.
       -1    1    3    3    0  502  0.22332130158E+03  0.16269150397E+03 -0.35310004983E+03  0.44835318045E+03  0.50400001928E-02 0. -1.
</event>
<event>
 5   0  0.8968798E-03  0.9540381E+03  0.7818609E-02  0.9360443E-01
        2   -1    0    0  501    0  0.00000000000E+00  0.00000000000E+00  0.21287232480E+03  0.21287232482E+03  0.25500000920E-02 0.  1.
       -2   -1    0    0    0  501  0.00000000000E+00  0.00000000000E+00 -0.10689372435E+04  0.10689372435E+04  0.25500000920E-02 0. -1.
    10030    2    1    2    0    0  0.00000000000E+00  0.00000000000E+00 -0.85606491868E+03  0.12818095683E+04  0.95403806234E+03 0.  0.
        2    1    3    3  502    0  0.32508406961E+03  0.12422553657E+03  0.10297444574E+02  0.34816328586E+03  0.25500000920E-02 0.  1.
       -2    1    3    3    0  502 -0.32508406961E+03 -0.12422553657E+03 -0.86636236326E+03  0.93364628244E+03  0.25500000920E-02 0. -1.
</event>
<event>
 5   0  0.5072205E-03  0.9890178E+03  0.7818609E-02  0.9320673E-01
        1   -1    0    0  501    0  0.00000000000E+00  0.00000000000E+00  0.69858258641E+03  0.69858258643E+03  0.50400001928E-02 0.  1.
       -1   -1    0    0    0  501  0.00000000000E+00  0.00000000000E+00 -0.35005032027E+03  0.35005032031E+03  0.50400001928E-02 0. -1.
    10030    2    1    2    0    0  0.00000000000E+00  0.00000000000E+00  0.34853226614E+03  0.10486329067E+04  0.98901781205E+03 0.  0.
        5    1    3    3  502    0 -0.44289821819E+03  0.19926951313E+03  0.75655819148E+02  0.49154151759E+03  0.46999998093E+01 0. -1.
       -5    1    3    3    0  502  0.44289821819E+03 -0.19926951313E+03  0.27287644699E+03  0.55709138915E+03  0.46999998093E+01 0.  1.
</event>
<event>
 5   0  0.5189877E-03  0.9873571E+03  0.7818609E-02  0.9322521E-01
       -1   -1    0    0    0  501  0.00000000000E+00  0.00000000000E+00  0.52164835193E+03  0.52164835196E+03  0.50400001928E-02 0.  1.
        1   -1    0    0  501    0  0.00000000000E+00  0.00000000000E+00 -0.46720840762E+03  0.46720840764E+03  0.50400001928E-02 0. -1.
    10030    2    1    2    0    0  0.00000000000E+00  0.00000000000E+00  0.54439944317E+02  0.98885675960E+03  0.98735706989E+03 0.  0.
        3    1    3    3  502    0  0.39790656138E+03 -0.12832337450E+03 -0.23570871554E+03  0.47995325691E+03  0.10100000352E+00 0. -1.
       -3    1    3    3    0  502 -0.39790656138E+03  0.12832337450E+03  0.29014865986E+03  0.50890350269E+03  0.10100000352E+00 0.  1.
</event>
<event>
 5   0  0.8875655E-03  0.9992340E+03  0.7818609E-02  0.9309385E-01
        2   -1    0    0  501    0  0.00000000000E+00  0.00000000000E+00  0.26070325300E+04  0.26070325300E+04  0.25500000920E-02 0.  1.
       -2   -1    0    0    0  501  0.00000000000E+00  0.00000000000E+00 -0.95747624052E+02  0.95747624086E+02  0.25500000920E-02 0. -1.
    10030    2    1    2    0    0  0.00000000000E+00  0.00000000000E+00  0.25112849060E+04  0.27027801541E+04  0.99923404791E+03 0.  0.
        4    1    3    3  502    0 -0.63481180728E+02 -0.88718826382E+02 -0.63134919938E+02  0.12604967861E+03  0.12699999809E+01 0. -1.
       -4    1    3    3    0  502  0.63481180728E+02  0.88718826382E+02  0.25744198259E+04  0.25767304755E+04  0.12699999809E+01 0.  1.
</event>
<event>
 5   0  0.5189877E-03  0.1009590E+04  0.7818609E-02  0.9298089E-01
        1   -1    0    0  501    0  0.00000000000E+00  0.00000000000E+00  0.59488175667E+03  0.59488175669E+03  0.50400001928E-02 0. -1.
       -1   -1    0    0    0  501  0.00000000000E+00  0.00000000000E+00 -0.42835055557E+03  0.42835055560E+03  0.50400001928E-02 0.  1.
    10030    2    1    2    0    0  0.00000000000E+00  0.00000000000E+00  0.16653120110E+03  0.10232323123E+04  0.10095898791E+04 0.  0.
        3    1    3    3  502    0  0.61665901586E+02  0.28452168807E+03  0.50122464189E+03  0.57963904824E+03  0.10100000352E+00 0. -1.
       -3    1    3    3    0  502 -0.61665901586E+02 -0.28452168807E+03 -0.33469344079E+03  0.44359326405E+03  0.10100000352E+00 0.  1.
</event>
<event>
 5   0  0.5349685E-03  0.1007646E+04  0.7818609E-02  0.9300199E-01
       -1   -1    0    0    0  501  0.00000000000E+00  0.00000000000E+00  0.42970731864E+03  0.42970731867E+03  0.50400001928E-02 0.  1.
        1   -1    0    0  501    0  0.00000000000E+00  0.00000000000E+00 -0.59072184223E+03  0.59072184225E+03  0.50400001928E-02 0. -1.
    10030    2    1    2    0    0  0.00000000000E+00  0.00000000000E+00 -0.16101452359E+03  0.10204291609E+04  0.10076457689E+04 0.  0.
        4    1    3    3  502    0 -0.15493401114E+01  0.44503516569E+03  0.15866085212E+03  0.47247600791E+03  0.12699999809E+01 0.  1.
       -4    1    3    3    0  502  0.15493401114E+01 -0.44503516569E+03 -0.31967537570E+03  0.54795315301E+03  0.12699999809E+01 0. -1.
</event>
<event>
 5   0  0.5189877E-03  0.9926588E+03  0.7818609E-02  0.9316633E-01
        1   -1    0    0  501    0  0.00000000000E+00  0.00000000000E+00  0.66194518129E+03  0.66194518131E+03  0.50400001928E-02 0.  1.
       -1   -1    0    0    0  501  0.00000000000E+00  0.00000000000E+00 -0.37214998671E+03  0.37214998675E+03  0.50400001928E-02 0. -1.
    10030    2    1    2    0    0  0.00000000000E+00  0.00000000000E+00  0.28979519458E+03  0.10340951681E+04  0.99265883454E+03 0.  0.
        3    1    3    3  502    0  0.16863461758E+03 -0.46638737126E+03  0.12437590113E+03  0.51129657666E+03  0.10100000352E+00 0.  1.
       -3    1    3    3    0  502 -0.16863461758E+03  0.46638737126E+03  0.16541929344E+03  0.52279859140E+03  0.10100000352E+00 0. -1.
</event>
<event>
 5   0  0.8907355E-03  0.9929158E+03  0.7818609E-02  0.9316349E-01
        2   -1    0    0  501    0  0.00000000000E+00  0.00000000000E+00  0.91851986171E+03  0.91851986171E+03  0.25500000920E-02 0.  1.
       -2   -1    0    0    0  501  0.00000000000E+00  0.00000000000E+00 -0.26833438016E+03  0.26833438017E+03  0.25500000920E-02 0. -1.
    10030    2    1    2    0    0  0.00000000000E+00  0.00000000000E+00  0.65018548155E+03  0.11868542419E+04  0.99291582274E+03 0.  0.
        5    1    3    3  502    0 -0.14593863383E+03 -0.46064422509E+03  0.46115579471E+03  0.66796552602E+03  0.46999998093E+01 0. -1.
       -5    1    3    3    0  502  0.14593863383E+03  0.46064422509E+03  0.18902968684E+03  0.51888871587E+03  0.46999998093E+01 0.  1.
</event>
<event>
 5   0  0.5349685E-03  0.1180287E+04  0.7818609E-02  0.9130288E-01
        1   -1    0    0  501    0  0.00000000000E+00  0.00000000000E+00  0.84151518368E+03  0.84151518370E+03  0.50400001928E-02 0. -1.
       -1   -1    0    0    0  501  0.00000000000E+00  0.00000000000E+00 -0.41385992470E+03  0.41385992473E+03  0.50400001928E-02 0.  1.
    10030    2    1    2    0    0  0.00000000000E+00  0.00000000000E+00  0.42765525898E+03  0.12553751084E+04  0.11802871017E+04 0.  0.
        4    1    3    3  502    0 -0.40538334454E+03 -0.20502802219E+03 -0.18682721255E+03  0.49120073917E+03  0.12699999809E+01 0.  1.
       -4    1    3    3    0  502  0.40538334454E+03  0.20502802219E+03  0.61448247153E+03  0.76417436926E+03  0.12699999809E+01 0. -1.
</event>
<event>
 5   0  0.5072205E-03  0.9201610E+03  0.7818609E-02  0.9400724E-01
        1   -1    0    0  501    0  0.00000000000E+00  0.00000000000E+00  0.40050704666E+03  0.40050704670E+03  0.50400001928E-02 0.  1.
       -1   -1    0    0    0  501  0.00000000000E+00  0.00000000000E+00 -0.52851517077E+03  0.52851517079E+03  0.50400001928E-02 0. -1.
    10030    2    1    2    0    0  0.00000000000E+00  0.00000000000E+00 -0.12800812410E+03  0.92902221749E+03  0.92016096459E+03 0.  0.
        5    1    3    3  502    0 -0.35815088292E+03 -0.90499368245E+02 -0.34085224137E+03  0.50265746889E+03  0.46999998093E+01 0. -1.
       -5    1    3    3    0  502  0.35815088292E+03  0.90499368245E+02  0.21284411726E+03  0.42636474859E+03  0.46999998093E+01 0.  1.
</event>
<event>
 5   0  0.8907355E-03  0.9915515E+03  0.7818609E-02  0.9317860E-01
       -2   -1    0    0    0  501  0.00000000000E+00  0.00000000000E+00  0.25799964670E+03  0.25799964672E+03  0.25500000920E-02 0.  1.
        2   -1    0    0  501    0  0.00000000000E+00  0.00000000000E+00 -0.95268960850E+03  0.95268960850E+03  0.25500000920E-02 0. -1.
    10030    2    1    2    0    0  0.00000000000E+00  0.00000000000E+00 -0.69468996180E+03  0.12106892552E+04  0.99155147606E+03 0.  0.
        5    1    3    3  502    0 -0.21462400929E+03  0.21203647815E+03 -0.82766504609E+03  0.88095087942E+03  0.46999998093E+01 0. -1.
       -5    1    3    3    0  502  0.21462400929E+03 -0.21203647815E+03  0.13297508430E+03  0.32973837580E+03  0.46999998093E+01 0.  1.
</event>
<event>
 5   0  0.5072205E-03  0.9974053E+03  0.7818609E-02  0.9311395E-01
        1   -1    0    0  501    0  0.00000000000E+00  0.00000000000E+00  0.10563940288E+04  0.10563940288E+04  0.50400001928E-02 0. -1.
       -1   -1    0    0    0  501  0.00000000000E+00  0.00000000000E+00 -0.23542763195E+03  0.23542763201E+03  0.50400001928E-02 0.  1.
    10030    2    1    2    0    0  0.00000000000E+00  0.00000000000E+00  0.82096639683E+03  0.12918216608E+04  0.99740532313E+03 0.  0.
        5    1    3    3  502    0 -0.47082304238E+03 -0.12727529372E+03  0.54513803962E+03  0.73148541330E+03  0.46999998093E+01 0. -1.
       -5    1    3    3    0  502  0.47082304238E+03  0.12727529372E+03  0.27582835721E+03  0.56033624751E+03  0.46999998093E+01 0.  1.
</event>
<event>
 5   0  0.8875655E-03  0.9581929E+03  0.7818609E-02  0.9355625E-01
       -2   -1    0    0    0  501  0.00000000000E+00  0.00000000000E+00  0.12294414446E+04  0.12294414446E+04  0.25500000920E-02 0. -1.
        2   -1    0    0  501    0  0.00000000000E+00  0.00000000000E+00 -0.18669728938E+03  0.18669728940E+03  0.25500000920E-02 0.  1.
    10030    2    1    2    0    0  0.00000000000E+00  0.00000000000E+00  0.10427441552E+04  0.14161387340E+04  0.95819285150E+03 0.  0.
        4    1    3    3  502    0 -0.15792019238E+03  0.35606906375E+03  0.10911847219E+03  0.40451504199E+03  0.12699999809E+01 0.  1.
       -4    1    3    3    0  502  0.15792019238E+03 -0.35606906375E+03  0.93362568299E+03  0.10116236920E+04  0.12699999809E+01 0. -1.
</event>
<event>
 5   0  0.5201968E-03  0.1018220E+04  0.7818609E-02  0.9288784E-01
       -1   -1    0    0    0  501  0.00000000000E+00  0.00000000000E+00  0.58976200194E+03  0.58976200196E+03  0.50400001928E-02 0. -1.
        1   -1    0    0  501    0  0.00000000000E+00  0.00000000000E+00 -0.43948731503E+03  0.43948731506E+03  0.50400001928E-02 0.  1.
    10030    2    1    2    0    0  0.00000000000E+00  0.00000000000E+00  0.15027468691E+03  0.10292493170E+04  0.10182198560E+04 0.  0.
        2    1    3    3  502    0  0.21628908207E+03  0.28593075737E+03  0.44051582205E+03  0.56797143812E+03  0.25500000920E-02 0. -1.
       -2    1    3    3    0  502 -0.21628908207E+03 -0.28593075737E+03 -0.29024113514E+03  0.46127787890E+03  0.25500000920E-02 0.  1.
</event>
<event>
 5   0  0.5201968E-03  0.1004262E+04  0.7818609E-02  0.9303883E-01
       -1   -1    0    0    0  501  0.00000000000E+00  0.00000000000E+00  0.34241770045E+03  0.34241770049E+03  0.50400001928E-02 0. -1.
        1   -1    0    0  501    0  0.00000000000E+00  0.00000000000E+00 -0.73633915512E+03  0.73633915514E+03  0.50400001928E-02 0.  1.
    10030    2    1    2    0    0  0.00000000000E+00  0.00000000000E+00 -0.39392145467E+03  0.10787568556E+04  0.10042620381E+04 0.  0.
        2    1    3    3  502    0  0.17744743241E+02 -0.54032447890E+02 -0.73286842999E+03  0.73507177678E+03  0.25500000920E-02 0.  1.
       -2    1    3    3    0  502 -0.17744743241E+02  0.54032447890E+02  0.33894697532E+03  0.34368507885E+03  0.25500000920E-02 0. -1.
</event>
<event>
 5   0  0.5310275E-03  0.1009522E+04  0.7818609E-02  0.9298163E-01
        1   -1    0    0  501    0  0.00000000000E+00  0.00000000000E+00  0.72013343624E+03  0.72013343626E+03  0.50400001928E-02 0. -1.
       -1   -1    0    0    0  501  0.00000000000E+00  0.00000000000E+00 -0.35380044093E+03  0.35380044097E+03  0.50400001928E-02 0.  1.
    10030    2    1    2    0    0  0.00000000000E+00  0.00000000000E+00  0.36633299531E+03  0.10739338772E+04  0.10095217230E+04 0.  0.
        1    1    3    3  502    0 -0.32980313843E+03 -0.11618013097E+02  0.58947641928E+03  0.67556460628E+03  0.50400001928E-02 0. -1.
       -1    1    3    3    0  502  0.32980313843E+03  0.11618013097E+02 -0.22314342397E+03  0.39836927095E+03  0.50400001928E-02 0.  1.
</event>
<event>
 5   0  0.9243773E-03  0.1007176E+04  0.7818609E-02  0.9300710E-01
        2   -1    0    0  501    0  0.00000000000E+00  0.00000000000E+00  0.64107240151E+03  0.64107240152E+03  0.25500000920E-02 0.  1.
       -2   -1    0    0    0  501  0.00000000000E+00  0.00000000000E+00 -0.39558819464E+03  0.39558819465E+03  0.25500000920E-02 0. -1.
    10030    2    1    2    0    0  0.00000000000E+00  0.00000000000E+00  0.24548420687E+03  0.10366605962E+04  0.10071756033E+04 0.  0.
        3    1    3    3  502    0  0.24533583286E+02  0.26025867679E+03 -0.32028177287E+03  0.41342097163E+03  0.10100000352E+00 0. -1.
       -3    1    3    3    0  502 -0.24533583286E+02 -0.26025867679E+03  0.56576597974E+03  0.62323962453E+03  0.10100000352E+00 0.  1.
</event>
<event>
 5   0  0.5201968E-03  0.1020308E+04  0.7818609E-02  0.9286547E-01
       -1   -1    0    0    0  501  0.00000000000E+00  0.00000000000E+00  0.38579630138E+03  0.38579630142E+03  0.50400001928E-02 0. -1.
        1   -1    0    0  501    0  0.00000000000E+00  0.00000000000E+00 -0.67459773203E+03  0.67459773205E+03  0.50400001928E-02 0.  1.
    10030    2    1    2    0    0  0.00000000000E+00  0.00000000000E+00 -0.28880143065E+03  0.10603940335E+04  0.10203084043E+04 0.  0.
        2    1    3    3  502    0  0.24374033788E+03  0.44353437341E+03 -0.77649492721E+02  0.51201712513E+03  0.25500000920E-02 0.  1.
       -2    1    3    3    0  502 -0.24374033788E+03 -0.44353437341E+03 -0.21115193793E+03  0.54837690834E+03  0.25500000920E-02 0. -1.
</event>
<event>
 5   0  0.3513625E-03  0.9918411E+03  0.7818609E-02  0.9317539E-01
        3   -1    0    0  501    0  0.00000000000E+00  0.00000000000E+00  0.75934520156E+03  0.75934520828E+03  0.10100000352E+00 0. -1.
       -3   -1    0    0    0  501  0.00000000000E+00  0.00000000000E+00 -0.32388057392E+03  0.32388058966E+03  0.10100000352E+00 0.  1.
    10030    2    1    2    0    0  0.00000000000E+00  0.00000000000E+00  0.43546462764E+03  0.10832257979E+04  0.99184105954E+03 0.  0.
        1    1    3    3  502    0  0.88540996533E+02 -0.48674185497E+03  0.18021571102E+03  0.52653095253E+03  0.50400001928E-02 0. -1.
       -1    1    3    3    0  502 -0.88540996533E+02  0.48674185497E+03  0.25524891662E+03  0.55669484541E+03  0.50400001928E-02 0.  1.
</event>
<event>
 5   0  0.5201968E-03  0.1006308E+04  0.7818609E-02  0.9301653E-01
        1   -1    0    0  501    0  0.00000000000E+00  0.00000000000E+00  0.48981080597E+03  0.48981080599E+03  0.50400001928E-02 0. -1.
       -1   -1    0    0    0  501  0.00000000000E+00  0.00000000000E+00 -0.51686054553E+03  0.51686054556E+03  0.50400001928E-02 0.  1.
    10030    2    1    2    0    0  0.00000000000E+00  0.00000000000E+00 -0.27049739565E+02  0.10066713515E+04  0.10063078662E+04 0.  0.
        2    1    3    3  502    0  0.21032645762E+03  0.26967684134E+03 -0.38271245646E+03  0.51325592239E+03  0.25500000920E-02 0.  1.
       -2    1    3    3    0  502 -0.21032645762E+03 -0.26967684134E+03  0.35566271690E+03  0.49341542916E+03  0.25500000920E-02 0. -1.
</event>
<event>
 5   0  0.8907355E-03  0.1000125E+04  0.7818609E-02  0.9308407E-01
       -2   -1    0    0    0  501  0.00000000000E+00  0.00000000000E+00  0.41305278781E+03  0.41305278782E+03  0.25500000920E-02 0. -1.
        2   -1    0    0  501    0  0.00000000000E+00  0.00000000000E+00 -0.60540111518E+03  0.60540111519E+03  0.25500000920E-02 0.  1.
    10030    2    1    2    0    0  0.00000000000E+00  0.00000000000E+00 -0.19234832737E+03  0.10184539030E+04  0.10001252289E+04 0.  0.
        5    1    3    3  502    0  0.33052203284E+03 -0.23136812170E+03  0.20464521672E+03  0.45241328081E+03  0.46999998093E+01 0. -1.
       -5    1    3    3    0  502 -0.33052203284E+03  0.23136812170E+03 -0.39699354409E+03  0.56604062220E+03  0.46999998093E+01 0.  1.
</event>
<event>
 5   0  0.8875655E-03  0.9472547E+03  0.7818609E-02  0.9368365E-01
        2   -1    0    0  501    0  0.00000000000E+00  0.00000000000E+00  0.53902161970E+03  0.53902161971E+03  0.25500000920E-02 0. -1.
       -2   -1    0    0    0  501  0.00000000000E+00  0.00000000000E+00 -0.41616674481E+03  0.41616674482E+03  0.25500000920E-02 0.  1.
    10030    2    1    2    0    0  0.00000000000E+00  0.00000000000E+00  0.12285487489E+03  0.95518836453E+03  0.94725471308E+03 0.  0.
        4    1    3    3  502    0  0.14463667208E+03 -0.21608875170E+03  0.46060548274E+03  0.52893585542E+03  0.12699999809E+01 0. -1.
       -4    1    3    3    0  502 -0.14463667208E+03  0.21608875170E+03 -0.33775060784E+03  0.42625250911E+03  0.12699999809E+01 0.  1.
</event>
<event>
 5   0  0.5201968E-03  0.9847780E+03  0.7818609E-02  0.9325399E-01
        1   -1    0    0  501    0  0.00000000000E+00  0.00000000000E+00  0.39872868681E+03  0.39872868684E+03  0.50400001928E-02 0. -1.
       -1   -1    0    0    0  501  0.00000000000E+00  0.00000000000E+00 -0.60804986324E+03  0.60804986326E+03  0.50400001928E-02 0.  1.
    10030    2    1    2    0    0  0.00000000000E+00  0.00000000000E+00 -0.20932117643E+03  0.10067785501E+04  0.98477799226E+03 0.  0.
        2    1    3    3  502    0 -0.66668313896E+01  0.13715945152E+03  0.37875603038E+03  0.40288123850E+03  0.25500000920E-02 0. -1.
       -2    1    3    3    0  502  0.66668313896E+01 -0.13715945152E+03 -0.58807720681E+03  0.60389731160E+03  0.25500000920E-02 0.  1.
</event>
<event>
 5   0  0.5310275E-03  0.1002518E+04  0.7818609E-02  0.9305788E-01
        1   -1    0    0  501    0  0.00000000000E+00  0.00000000000E+00  0.28943801538E+04  0.28943801538E+04  0.50400001928E-02 0. -1.
       -1   -1    0    0    0  501  0.00000000000E+00  0.00000000000E+00 -0.86809776819E+02  0.86809776965E+02  0.50400001928E-02 0.  1.
    10030    2    1    2    0    0  0.00000000000E+00  0.00000000000E+00  0.28075703770E+04  0.29811899308E+04  0.10025178211E+04 0.  0.
        1    1    3    3  502    0  0.14035562303E+03  0.51055807094E+02 -0.19106215723E+02  0.15057039503E+03  0.50400001928E-02 0.  1.
       -1    1    3    3    0  502 -0.14035562303E+03 -0.51055807094E+02  0.28266765927E+04  0.28306195357E+04  0.50400001928E-02 0. -1.
</event>
<event>
 5   0  0.5189877E-03  0.9951667E+03  0.7818609E-02  0.9313862E-01
        1   -1    0    0  501    0  0.00000000000E+00  0.00000000000E+00  0.94618059739E+03  0.94618059740E+03  0.50400001928E-02 0. -1.
       -1   -1    0    0    0  501  0.00000000000E+00  0.00000000000E+00 -0.26167223994E+03  0.26167223999E+03  0.50400001928E-02 0.  1.
    10030    2    1    2    0    0  0.00000000000E+00  0.00000000000E+00  0.68450835744E+03  0.12078528374E+04  0.99516671236E+03 0.  0.
        3    1    3    3  502    0  0.33666971811E+03 -0.36539381090E+03  0.37504818602E+03  0.62251127554E+03  0.10100000352E+00 0.  1.
       -3    1    3    3    0  502 -0.33666971811E+03  0.36539381090E+03  0.30946017143E+03  0.58534156186E+03  0.10100000352E+00 0. -1.
</event>
<event>
 5   0  0.8968798E-03  0.1001579E+04  0.7818609E-02  0.9306815E-01
        2   -1    0    0  501    0  0.00000000000E+00  0.00000000000E+00  0.97738446372E+03  0.97738446373E+03  0.25500000920E-02 0.  1.
       -2   -1    0    0    0  501  0.00000000000E+00  0.00000000000E+00 -0.25659290368E+03  0.25659290369E+03  0.25500000920E-02 0. -1.
    10030    2    1    2    0    0  0.00000000000E+00  0.00000000000E+00  0.72079156005E+03  0.12339773674E+04  0.10015785892E+04 0.  0.
        2    1    3    3  502    0  0.49681434100E+03  0.55932068245E+02  0.32475122803E+03  0.59616796777E+03  0.25500000920E-02 0.  1.
       -2    1    3    3    0  502 -0.49681434100E+03 -0.55932068245E+02  0.39604033201E+03  0.63780939964E+03  0.25500000920E-02 0. -1.
</event>
<event>
 5   0  0.5310275E-03  0.9924101E+03  0.7818609E-02  0.9316909E-01
        1   -1    0    0  501    0  0.00000000000E+00  0.00000000000E+00  0.78718114425E+03  0.78718114427E+03  0.50400001928E-02 0.  1.
       -1   -1    0    0    0  501  0.00000000000E+00  0.00000000000E+00 -0.31278627168E+03  0.31278627172E+03  0.50400001928E-02 0. -1.
    10030    2    1    2    0    0  0.00000000000E+00  0.00000000000E+00  0.47439487257E+03  0.10999674160E+04  0.99241010732E+03 0.  0.
        1    1    3    3  502    0 -0.29196398552E+03 -0.35273866795E+03  0.25291203750E+02  0.45859260975E+03  0.50400001928E-02 0. -1.
       -1    1    3    3    0  502  0.29196398552E+03  0.35273866795E+03  0.44910366882E+03  0.64137480624E+03  0.50400001928E-02 0.  1.
</event>
<event>
 5   0  0.8907355E-03  0.1098209E+04  0.7818609E-02  0.9206940E-01
        2   -1    0    0  501    0  0.00000000000E+00  0.00000000000E+00  0.73907893801E+03  0.73907893802E+03  0.25500000920E-02 0. -1.
       -2   -1    0    0    0  501  0.00000000000E+00  0.00000000000E+00 -0.40796121265E+03  0.40796121266E+03  0.25500000920E-02 0.  1.
    10030    2    1    2    0    0  0.00000000000E+00  0.00000000000E+00  0.33111772536E+03  0.11470401507E+04  0.10982086137E+04 0.  0.
        5    1    3    3  502    0  0.54602662736E+02  0.40481386762E+03  0.54880445375E+03  0.68415212976E+03  0.46999998093E+01 0. -1.
       -5    1    3    3    0  502 -0.54602662736E+02 -0.40481386762E+03 -0.21768672839E+03  0.46288802092E+03  0.46999998093E+01 0.  1.
</event>
<event>
 5   0  0.5310275E-03  0.9875566E+03  0.7818609E-02  0.9322299E-01
       -1   -1    0    0    0  501  0.00000000000E+00  0.00000000000E+00  0.51740458948E+03  0.51740458950E+03  0.50400001928E-02 0.  1.
        1   -1    0    0  501    0  0.00000000000E+00  0.00000000000E+00 -0.47123081908E+03  0.47123081911E+03  0.50400001928E-02 0. -1.
    10030    2    1    2    0    0  0.00000000000E+00  0.00000000000E+00  0.46173770400E+02  0.98863540861E+03  0.98755655741E+03 0.  0.
        1    1    3    3  502    0  0.33452420199E+03 -0.39133776515E+02 -0.33838802940E+03  0.47743518162E+03  0.50400001928E-02 0. -1.
       -1    1    3    3    0  502 -0.33452420199E+03  0.39133776515E+02  0.38456179980E+03  0.51120022699E+03  0.50400001928E-02 0.  1.
</event>
<event>
 5   0  0.8968798E-03  0.1000363E+04  0.7818609E-02  0.9308146E-01
       -2   -1    0    0    0  501  0.00000000000E+00  0.00000000000E+00  0.70662740191E+03  0.70662740192E+03  0.25500000920E-02 0. -1.
        2   -1    0    0  501    0  0.00000000000E+00  0.00000000000E+00 -0.35405036588E+03  0.35405036589E+03  0.25500000920E-02 0.  1.
    10030    2    1    2    0    0  0.00000000000E+00  0.00000000000E+00  0.35257703603E+03  0.10606777678E+04  0.10003633144E+04 0.  0.
        2    1    3    3  502    0  0.30072025659E+03 -0.84538990301E+01  0.59997795637E+03  0.67117634737E+03  0.25500000920E-02 0. -1.
       -2    1    3    3    0  502 -0.30072025659E+03  0.84538990301E+01 -0.24740092034E+03  0.38950142044E+03  0.25500000920E-02 0.  1.
</event>
<event>
 5   0  0.5072205E-03  0.9945067E+03  0.7818609E-02  0.9314590E-01
       -1   -1    0    0    0  501  0.00000000000E+00  0.00000000000E+00  0.36160451425E+03  0.36160451429E+03  0.50400001928E-02 0. -1.
        1   -1    0    0  501    0  0.00000000000E+00  0.00000000000E+00 -0.68378813008E+03  0.68378813010E+03  0.50400001928E-02 0.  1.
    10030    2    1    2    0    0  0.00000000000E+00  0.00000000000E+00 -0.32218361583E+03  0.10453926444E+04  0.99450666093E+03 0.  0.
        5    1    3    3  502    0 -0.30975488355E+02 -0.23168810568E+03 -0.62240917119E+03  0.66487151057E+03  0.46999998093E+01 0.  1.
       -5    1    3    3    0  502  0.30975488355E+02  0.23168810568E+03  0.30022555536E+03  0.38052113382E+03  0.46999998093E+01 0. -1.
</event>
<event>
 5   0  0.8907355E-03  0.1036898E+04  0.7818609E-02  0.9268976E-01
        2   -1    0    0  501    0  0.00000000000E+00  0.00000000000E+00  0.17797858150E+04  0.17797858150E+04  0.25500000920E-02 0. -1.
       -2   -1    0    0    0  501  0.00000000000E+00  0.00000000000E+00 -0.15102344831E+03  0.15102344834E+03  0.25500000920E-02 0.  1.
    10030    2    1    2    0    0  0.00000000000E+00  0.00000000000E+00  0.16287623667E+04  0.19308092633E+04  0.10368980491E+04 0.  0.
        5    1    3    3  502    0 -0.74329295209E+02  0.33918292877E+03  0.97538915213E+02  0.36070186203E+03  0.46999998093E+01 0.  1.
       -5    1    3    3    0  502  0.74329295209E+02 -0.33918292877E+03  0.15312234515E+04  0.15701074013E+04  0.46999998093E+01 0. -1.
</event>
<event>
 5   0  0.5310275E-03  0.9982261E+03  0.7818609E-02  0.9310492E-01
        1   -1    0    0  501    0  0.00000000000E+00  0.00000000000E+00  0.59961923798E+03  0.59961923800E+03  0.50400001928E-02 0.  1.
       -1   -1    0    0    0  501  0.00000000000E+00  0.00000000000E+00 -0.41545340769E+03  0.41545340772E+03  0.50400001928E-02 0. -1.
    10030    2    1    2    0    0  0.00000000000E+00  0.00000000000E+00  0.18416583029E+03  0.10150726457E+04  0.99822613824E+03 0.  0.
        1    1    3    3  502    0  0.38281824937E+03 -0.28292490914E+03  0.24467382176E+03  0.53522107147E+03  0.50400001928E-02 0.  1.
       -1    1    3    3    0  502 -0.38281824937E+03  0.28292490914E+03 -0.60507991476E+02  0.47985157426E+03  0.50400001928E-02 0. -1.
</event>
<event>
 5   0  0.5201968E-03  0.1023471E+04  0.7818609E-02  0.9283171E-01
        1   -1    0    0  501    0  0.00000000000E+00  0.00000000000E+00  0.70638250983E+03  0.70638250984E+03  0.50400001928E-02 0.  1.
       -1   -1    0    0    0  501  0.00000000000E+00  0.00000000000E+00 -0.37072416523E+03  0.37072416527E+03  0.50400001928E-02 0. -1.
    10030    2    1    2    0    0  0.00000000000E+00  0.00000000000E+00  0.33565834459E+03  0.10771066751E+04  0.10234706959E+04 0.  0.
        2    1    3    3  502    0  0.32022019075E+03  0.15436132788E+03 -0.21957156802E+03  0.41782779180E+03  0.25500000920E-02 0. -1.
       -2    1    3    3    0  502 -0.32022019075E+03 -0.15436132788E+03  0.55522991261E+03  0.65927888331E+03  0.25500000920E-02 0.  1.
</event>
<event>
 5   0  0.9243773E-03  0.9899492E+03  0.7818609E-02  0.9319638E-01
       -2   -1    0    0    0  501  0.00000000000E+00  0.00000000000E+00  0.44749370024E+03  0.44749370024E+03  0.25500000920E-02 0. -1.
        2   -1    0    0  501    0  0.00000000000E+00  0.00000000000E+00 -0.54749338187E+03  0.54749338187E+03  0.25500000920E-02 0.  1.
    10030    2    1    2    0    0  0.00000000000E+00  0.00000000000E+00 -0.99999681632E+02  0.99498708212E+03  0.98994916903E+03 0.  0.
        3    1    3    3  502    0  0.40934899910E+03 -0.20782637301E+03 -0.23598592909E+03  0.51618579340E+03  0.10100000352E+00 0.  1.
       -3    1    3    3    0  502 -0.40934899910E+03  0.20782637301E+03  0.13598624746E+03  0.47880128872E+03  0.10100000352E+00 0. -1.
</event>
<event>
 5   0  0.5189877E-03  0.9757871E+03  0.7818609E-02  0.9335507E-01
        1   -1    0    0  501    0  0.00000000000E+00  0.00000000000E+00  0.96606621221E+03  0.96606621222E+03  0.50400001928E-02 0. -1.
       -1   -1    0    0    0  501  0.00000000000E+00  0.00000000000E+00 -0.24640143687E+03  0.24640143692E+03  0.50400001928E-02 0.  1.
    10030    2    1    2    0    0  0.00000000000E+00  0.00000000000E+00  0.71966477534E+03  0.12124676491E+04  0.97578707276E+03 0.  0.
        3    1    3    3  502    0  0.33939505849E+03 -0.34532392808E+03  0.43441118621E+03  0.65050035353E+03  0.10100000352E+00 0. -1.
       -3    1    3    3    0  502 -0.33939505849E+03  0.34532392808E+03  0.28525358912E+03  0.56196729561E+03  0.10100000352E+00 0.  1.
</event>
<event>
 5   0  0.9040674E-03  0.9902979E+03  0.7818609E-02  0.9319250E-01
       -2   -1    0    0    0  501  0.00000000000E+00  0.00000000000E+00  0.28691164403E+03  0.28691164404E+03  0.25500000920E-02 0.  1.
        2   -1    0    0  501    0  0.00000000000E+00  0.00000000000E+00 -0.85452263837E+03  0.85452263838E+03  0.25500000920E-02 0. -1.
    10030    2    1    2    0    0  0.00000000000E+00  0.00000000000E+00 -0.56761099434E+03  0.11414342824E+04  0.99029792497E+03 0.  0.
        1    1    3    3  502    0  0.25444099178E+03 -0.23055074716E+03 -0.69501466509E+03  0.77520271544E+03  0.50400001928E-02 0. -1.
       -1    1    3    3    0  502 -0.25444099178E+03  0.23055074716E+03  0.12740367075E+03  0.36623156698E+03  0.50400001928E-02 0.  1.
</event>
<event>
 5   0  0.5310275E-03  0.9880076E+03  0.7818609E-02  0.9321797E-01
        1   -1    0    0  501    0  0.00000000000E+00  0.00000000000E+00  0.21691395038E+04  0.21691395038E+04  0.50400001928E-02 0. -1.
       -1   -1    0    0    0  501  0.00000000000E+00  0.00000000000E+00 -0.11250532715E+03  0.11250532726E+03  0.50400001928E-02 0.  1.
    10030    2    1    2    0    0  0.00000000000E+00  0.00000000000E+00  0.20566341767E+04  0.22816448311E+04  0.98800759034E+03 0.  0.
        1    1    3    3  502    0  0.35468477460E+03 -0.21028045715E+03  0.40002147062E+03  0.57448789106E+03  0.50400001928E-02 0.  1.
       -1    1    3    3    0  502 -0.35468477460E+03  0.21028045715E+03  0.16566127061E+04  0.17071569400E+04  0.50400001928E-02 0. -1.
</event>
<event>
 5   0  0.8968798E-03  0.9962468E+03  0.7818609E-02  0.9312671E-01
       -2   -1    0    0    0  501  0.00000000000E+00  0.00000000000E+00  0.18517075789E+03  0.18517075791E+03  0.25500000920E-02 0.  1.
        2   -1    0    0  501    0  0.00000000000E+00  0.00000000000E+00 -0.13399898653E+04  0.13399898653E+04  0.25500000920E-02 0. -1.
    10030    2    1    2    0    0  0.00000000000E+00  0.00000000000E+00 -0.11548191074E+04  0.15251606232E+04  0.99624683474E+03 0.  0.
        2    1    3    3  502    0  0.10464755605E+03  0.43790775227E+03 -0.25116974851E+03  0.51555848655E+03  0.25500000920E-02 0.  1.
       -2    1    3    3    0  502 -0.10464755605E+03 -0.43790775227E+03 -0.90364935887E+03  0.10096021366E+04  0.25500000920E-02 0. -1.
</event>
<event>
 5   0  0.5189877E-03  0.7902082E+03  0.7818609E-02  0.9574300E-01
       -1   -1    0    0    0  501  0.00000000000E+00  0.00000000000E+00  0.19355374921E+03  0.19355374928E+03  0.50400001928E-02 0.  1.
        1   -1    0    0  501    0  0.00000000000E+00  0.00000000000E+00 -0.80653169386E+03  0.80653169388E+03  0.50400001928E-02 0. -1.
    10030    2    1    2    0    0  0.00000000000E+00  0.00000000000E+00 -0.61297794465E+03  0.10000854432E+04  0.79020815801E+03 0.  0.
        3    1    3    3  502    0 -0.24930151875E+03  0.11245607242E+01 -0.69442032235E+03  0.73781576710E+03  0.10100000352E+00 0. -1.
       -3    1    3    3    0  502  0.24930151875E+03 -0.11245607242E+01  0.81442377705E+02  0.26226967605E+03  0.10100000352E+00 0.  1.
</event>
<event>
 5   0  0.8875655E-03  0.9866769E+03  0.7818609E-02  0.9323279E-01
        2   -1    0    0  501    0  0.00000000000E+00  0.00000000000E+00  0.93520332147E+03  0.93520332148E+03  0.25500000920E-02 0. -1.
       -2   -1    0    0    0  501  0.00000000000E+00  0.00000000000E+00 -0.26024592076E+03  0.26024592077E+03  0.25500000920E-02 0.  1.
    10030    2    1    2    0    0  0.00000000000E+00  0.00000000000E+00  0.67495740072E+03  0.11954492422E+04  0.98667694713E+03 0.  0.
        4    1    3    3  502    0  0.15577511630E+03  0.46376411587E+03  0.26048595958E+03  0.55425408439E+03  0.12699999809E+01 0.  1.
       -4    1    3    3    0  502 -0.15577511630E+03 -0.46376411587E+03  0.41447144114E+03  0.64119515785E+03  0.12699999809E+01 0. -1.
</event>
<event>
 5   0  0.9040674E-03  0.9995973E+03  0.7818609E-02  0.9308987E-01
        2   -1    0    0  501    0  0.00000000000E+00  0.00000000000E+00  0.20021715754E+04  0.20021715754E+04  0.25500000920E-02 0. -1.
       -2   -1    0    0    0  501  0.00000000000E+00  0.00000000000E+00 -0.12476387388E+03  0.12476387391E+03  0.25500000920E-02 0.  1.
    10030    2    1    2    0    0  0.00000000000E+00  0.00000000000E+00  0.18774077015E+04  0.21269354493E+04  0.99959728279E+03 0.  0.
        1    1    3    3  502    0 -0.92472791080E+02 -0.43113719483E+03  0.14393828583E+04  0.15054080877E+04  0.50400001928E-02 0. -1.
       -1    1    3    3    0  502  0.92472791080E+02  0.43113719483E+03  0.43802484318E+03  0.62152736153E+03  0.50400001928E-02 0.  1.
</event>
<event>
 5   0  0.5189877E-03  0.9755624E+03  0.7818609E-02  0.9335761E-01
        1   -1    0    0  501    0  0.00000000000E+00  0.00000000000E+00  0.11225861275E+04  0.11225861275E+04  0.50400001928E-02 0.  1.
       -1   -1    0    0    0  501  0.00000000000E+00  0.00000000000E+00 -0.21194855955E+03  0.21194855961E+03  0.50400001928E-02 0. -1.
    10030    2    1    2    0    0  0.00000000000E+00  0.00000000000E+00  0.91063756794E+03  0.13345346871E+04  0.97556242802E+03 0.  0.
        3    1    3    3  502    0  0.47429901853E+03 -0.91050195845E+01  0.61061764654E+03  0.77323759662E+03  0.10100000352E+00 0. -1.
       -3    1    3    3    0  502 -0.47429901853E+03  0.91050195845E+01  0.30001992140E+03  0.56129709049E+03  0.10100000352E+00 0.  1.
</event>
<event>
 5   0  0.5072205E-03  0.1000930E+04  0.7818609E-02  0.9307526E-01
       -1   -1    0    0    0  501  0.00000000000E+00  0.00000000000E+00  0.67376104174E+03  0.67376104176E+03  0.50400001928E-02 0.  1.
        1   -1    0    0  501    0  0.00000000000E+00  0.00000000000E+00 -0.37174172618E+03  0.37174172622E+03  0.50400001928E-02 0. -1.
    10030    2    1    2    0    0  0.00000000000E+00  0.00000000000E+00  0.30201931556E+03  0.10455027680E+04  0.10009297532E+04 0.  0.
        5    1    3    3  502    0  0.21988756736E+03  0.34469286710E+03 -0.15042285168E+03  0.43567515332E+03  0.46999998093E+01 0. -1.
       -5    1    3    3    0  502 -0.21988756736E+03 -0.34469286710E+03  0.45244216724E+03  0.60982761466E+03  0.46999998093E+01 0.  1.
</event>
<event>
 5   0  0.5189877E-03  0.1008808E+04  0.7818609E-02  0.9298937E-01
       -1   -1    0    0    0  501  0.00000000000E+00  0.00000000000E+00  0.46969205750E+03  0.46969205752E+03  0.50400001928E-02 0.  1.
        1   -1    0    0  501    0  0.00000000000E+00  0.00000000000E+00 -0.54168129618E+03  0.54168129620E+03  0.50400001928E-02 0. -1.
    10030    2    1    2    0    0  0.00000000000E+00  0.00000000000E+00 -0.71989238685E+02  0.10113733537E+04  0.10088080145E+04 0.  0.
        3    1    3    3  502    0  0.28550930510E+03  0.39629891791E+03 -0.16223144387E+03  0.51467217451E+03  0.10100000352E+00 0. -1.
       -3    1    3    3    0  502 -0.28550930510E+03 -0.39629891791E+03  0.90242205187E+02  0.49670117921E+03  0.10100000352E+00 0.  1.
</event>
<event>
 5   0  0.5072205E-03  0.9721936E+03  0.7818609E-02  0.9339579E-01
        1   -1    0    0  501    0  0.00000000000E+00  0.00000000000E+00  0.87924261717E+03  0.87924261718E+03  0.50400001928E-02 0. -1.
       -1   -1    0    0    0  501  0.00000000000E+00  0.00000000000E+00 -0.26874279390E+03  0.26874279394E+03  0.50400001928E-02 0.  1.
    10030    2    1    2    0    0  0.00000000000E+00  0.00000000000E+00  0.61049982327E+03  0.11479854111E+04  0.97219363809E+03 0.  0.
        5    1    3    3  502    0 -0.36740764479E+03  0.14051566476E+03  0.64242511384E+03  0.75330282515E+03  0.46999998093E+01 0. -1.
       -5    1    3    3    0  502  0.36740764479E+03 -0.14051566476E+03 -0.31925290565E+02  0.39468258597E+03  0.46999998093E+01 0.  1.
</event>
<event>
 5   0  0.8968798E-03  0.9895397E+03  0.7818609E-02  0.9320092E-01
        2   -1    0    0  501    0  0.00000000000E+00  0.00000000000E+00  0.21114507704E+04  0.21114507704E+04  0.25500000920E-02 0. -1.
       -2   -1    0    0    0  501  0.00000000000E+00  0.00000000000E+00 -0.11593791626E+03  0.11593791629E+03  0.25500000920E-02 0.  1.
    10030    2    1    2    0    0  0.00000000000E+00  0.00000000000E+00  0.19955128541E+04  0.22273886867E+04  0.98953969630E+03 0.  0.
        2    1    3    3  502    0 -0.98379292338E+02  0.11696048606E+03 -0.61472437764E+02  0.16473342427E+03  0.25500000920E-02 0.  1.
       -2    1    3    3    0  502  0.98379292338E+02 -0.11696048606E+03  0.20569852919E+04  0.20626552624E+04  0.25500000920E-02 0. -1.
</event>
<event>
 5   0  0.5189877E-03  0.1013386E+04  0.7818609E-02  0.9293984E-01
       -1   -1    0    0    0  501  0.00000000000E+00  0.00000000000E+00  0.32450470440E+03  0.32450470444E+03  0.50400001928E-02 0. -1.
        1   -1    0    0  501    0  0.00000000000E+00  0.00000000000E+00 -0.79116810791E+03  0.79116810792E+03  0.50400001928E-02 0.  1.
    10030    2    1    2    0    0  0.00000000000E+00  0.00000000000E+00 -0.46666340351E+03  0.11156728124E+04  0.10133859542E+04 0.  0.
        3    1    3    3  502    0 -0.34472249976E+02  0.48657595640E+03 -0.38425736514E+03  0.62096556284E+03  0.10100000352E+00 0. -1.
       -3    1    3    3    0  502  0.34472249976E+02 -0.48657595640E+03 -0.82406038362E+02  0.49470724952E+03  0.10100000352E+00 0.  1.
</event>
<event>
 5   0  0.9040674E-03  0.1003237E+04  0.7818609E-02  0.9305002E-01
        2   -1    0    0  501    0  0.00000000000E+00  0.00000000000E+00  0.45058713668E+03  0.45058713669E+03  0.25500000920E-02 0. -1.
       -2   -1    0    0    0  501  0.00000000000E+00  0.00000000000E+00 -0.55842891396E+03  0.55842891397E+03  0.25500000920E-02 0.  1.
    10030    2    1    2    0    0  0.00000000000E+00  0.00000000000E+00 -0.10784177728E+03  0.10090160507E+04  0.10032365332E+04 0.  0.
        1    1    3    3  502    0  0.14875455579E+03 -0.23421046497E+02 -0.53515872933E+03  0.55594183949E+03  0.50400001928E-02 0.  1.
       -1    1    3    3    0  502 -0.14875455579E+03  0.23421046497E+02  0.42731695206E+03  0.45307421117E+03  0.50400001928E-02 0. -1.
</event>
<event>
 5   0  0.8875655E-03  0.1001757E+04  0.7818609E-02  0.9306620E-01
       -2   -1    0    0    0  501  0.00000000000E+00  0.00000000000E+00  0.26131084853E+03  0.26131084854E+03  0.25500000920E-02 0.  1.
        2   -1    0    0  501    0  0.00000000000E+00  0.00000000000E+00 -0.96007960338E+03  0.96007960339E+03  0.25500000920E-02 0. -1.
    10030    2    1    2    0    0  0.00000000000E+00  0.00000000000E+00 -0.69876875486E+03  0.12213904519E+04  0.10017568883E+04 0.  0.
        4    1    3    3  502    0  0.46295804690E+03  0.25175393096E+02 -0.58044287868E+03  0.74288592793E+03  0.12699999809E+01 0. -1.
       -4    1    3    3    0  502 -0.46295804690E+03 -0.25175393096E+02 -0.11832587618E+03  0.47850452399E+03  0.12699999809E+01 0.  1.
</event>
<event>
 5   0  0.5189877E-03  0.9911191E+03  0.7818609E-02  0.9318339E-01
        1   -1    0    0  501    0  0.00000000000E+00  0.00000000000E+00  0.91680881913E+03  0.91680881914E+03  0.50400001928E-02 0.  1.
       -1   -1    0    0    0  501  0.00000000000E+00  0.00000000000E+00 -0.26786309547E+03  0.26786309552E+03  0.50400001928E-02 0. -1.
    10030    2    1    2    0    0  0.00000000000E+00  0.00000000000E+00  0.64894572366E+03  0.11846719147E+04  0.99111906103E+03 0.  0.
        3    1    3    3  502    0  0.40766523891E+02 -0.33819775425E+03  0.75467597891E+03  0.82799485131E+03  0.10100000352E+00 0.  1.
       -3    1    3    3    0  502 -0.40766523891E+02  0.33819775425E+03 -0.10573025525E+03  0.35667706335E+03  0.10100000352E+00 0. -1.
</event>
<event>
 5   0  0.9243773E-03  0.9867873E+03  0.7818609E-02  0.9323156E-01
        2   -1    0    0  501    0  0.00000000000E+00  0.00000000000E+00  0.12828013815E+04  0.12828013815E+04  0.25500000920E-02 0. -1.
       -2   -1    0    0    0  501  0.00000000000E+00  0.00000000000E+00 -0.18977006231E+03  0.18977006233E+03  0.25500000920E-02 0.  1.
    10030    2    1    2    0    0  0.00000000000E+00  0.00000000000E+00  0.10930313192E+04  0.14725714439E+04  0.98678730863E+03 0.  0.
        3    1    3    3  502    0  0.40742467037E+03 -0.75750864511E+02  0.94611541588E+03  0.10328927562E+04  0.10100000352E+00 0. -1.
       -3    1    3    3    0  502 -0.40742467037E+03  0.75750864511E+02  0.14691590335E+03  0.43967868764E+03  0.10100000352E+00 0.  1.
</event>
<event>
 5   0  0.9243773E-03  0.1008196E+04  0.7818609E-02  0.9299601E-01
        2   -1    0    0  501    0  0.00000000000E+00  0.00000000000E+00  0.12923772842E+04  0.12923772842E+04  0.25500000920E-02 0. -1.
       -2   -1    0    0    0  501  0.00000000000E+00  0.00000000000E+00 -0.19662586487E+03  0.19662586488E+03  0.25500000920E-02 0.  1.
    10030    2    1    2    0    0  0.00000000000E+00  0.00000000000E+00  0.10957514194E+04  0.14890031491E+04  0.10081960152E+04 0.  0.
        3    1    3    3  502    0  0.17185983976E+03 -0.34294039898E+03  0.64835368778E+02  0.38903413349E+03  0.10100000352E+00 0.  1.
       -3    1    3    3    0  502 -0.17185983976E+03  0.34294039898E+03  0.10309160506E+04  0.10999690156E+04  0.10100000352E+00 0. -1.
</event>
<event>
 5   0  0.5201968E-03  0.9997707E+03  0.7818609E-02  0.9308796E-01
        1   -1    0    0  501    0  0.00000000000E+00  0.00000000000E+00  0.97651697445E+03  0.97651697447E+03  0.50400001928E-02 0.  1.
       -1   -1    0    0    0  501  0.00000000000E+00  0.00000000000E+00 -0.25589454074E+03  0.25589454079E+03  0.50400001928E-02 0. -1.
    10030    2    1    2    0    0  0.00000000000E+00  0.00000000000E+00  0.72062243371E+03  0.12324115153E+04  0.99977069920E+03 0.  0.
        2    1    3    3  502    0 -0.29288057120E+03 -0.40459074746E+03  0.33527019990E+03  0.60156363659E+03  0.25500000920E-02 0. -1.
       -2    1    3    3    0  502  0.29288057120E+03  0.40459074746E+03  0.38535223381E+03  0.63084787867E+03  0.25500000920E-02 0.  1.
</event>
<event>
 5   0  0.5072205E-03  0.9590261E+03  0.7818609E-02  0.9354662E-01
        1   -1    0    0  501    0  0.00000000000E+00  0.00000000000E+00  0.58500648140E+03  0.58500648143E+03  0.50400001928E-02 0.  1.
       -1   -1    0    0    0  501  0.00000000000E+00  0.00000000000E+00 -0.39304309437E+03  0.39304309440E+03  0.50400001928E-02 0. -1.
    10030    2    1    2    0    0  0.00000000000E+00  0.00000000000E+00  0.19196338704E+03  0.97804957583E+03  0.95902608453E+03 0.  0.
        5    1    3    3  502    0  0.42813722062E+03  0.49467621300E+02 -0.11833476127E+03  0.44696054743E+03  0.46999998093E+01 0. -1.
       -5    1    3    3    0  502 -0.42813722062E+03 -0.49467621300E+02  0.31029814831E+03  0.53108902839E+03  0.46999998093E+01 0.  1.
</event>
<event>
 5   0  0.5310275E-03  0.1001758E+04  0.7818609E-02  0.9306619E-01
        1   -1    0    0  501    0  0.00000000000E+00  0.00000000000E+00  0.80220518954E+03  0.80220518956E+03  0.50400001928E-02 0. -1.
       -1   -1    0    0    0  501  0.00000000000E+00  0.00000000000E+00 -0.31273750305E+03  0.31273750309E+03  0.50400001928E-02 0.  1.
    10030    2    1    2    0    0  0.00000000000E+00  0.00000000000E+00  0.48946768649E+03  0.11149426926E+04  0.10017577510E+04 0.  0.
        1    1    3    3  502    0  0.23411843541E+03 -0.23832987276E+03  0.66008370062E+03  0.73981285599E+03  0.50400001928E-02 0. -1.
       -1    1    3    3    0  502 -0.23411843541E+03  0.23832987276E+03 -0.17061601413E+03  0.37512983666E+03  0.50400001928E-02 0.  1.
</event>
<event>
 5   0  0.8907355E-03  0.9738677E+03  0.7818609E-02  0.9337680E-01
        2   -1    0    0  501    0  0.00000000000E+00  0.00000000000E+00  0.11110485150E+04  0.11110485150E+04  0.25500000920E-02 0. -1.
       -2   -1    0    0    0  501  0.00000000000E+00  0.00000000000E+00 -0.21340615033E+03  0.21340615034E+03  0.25500000920E-02 0.  1.
    10030    2    1    2    0    0  0.00000000000E+00  0.00000000000E+00  0.89764236466E+03  0.13244546653E+04  0.97386772494E+03 0.  0.
        5    1    3    3  502    0  0.46561694017E+03 -0.14953309300E+02  0.25620179788E+03  0.53168053159E+03  0.46999998093E+01 0.  1.
       -5    1    3    3    0  502 -0.46561694017E+03  0.14953309300E+02  0.64144056677E+03  0.79277413374E+03  0.46999998093E+01 0. -1.
</event>
<event>
 5   0  0.9243773E-03  0.9476851E+03  0.7818609E-02  0.9367860E-01
       -2   -1    0    0    0  501  0.00000000000E+00  0.00000000000E+00  0.34445007109E+03  0.34445007110E+03  0.25500000920E-02 0.  1.
        2   -1    0    0  501    0  0.00000000000E+00  0.00000000000E+00 -0.65184125070E+03  0.65184125070E+03  0.25500000920E-02 0. -1.
    10030    2    1    2    0    0  0.00000000000E+00  0.00000000000E+00 -0.30739117961E+03  0.99629132180E+03  0.94768510624E+03 0.  0.
        3    1    3    3  502    0 -0.58359175394E+02  0.75785240758E+02  0.33419508480E+03  0.34761409778E+03  0.10100000352E+00 0.  1.
       -3    1    3    3    0  502  0.58359175394E+02 -0.75785240758E+02 -0.64158626442E+03  0.64867722402E+03  0.10100000352E+00 0. -1.
</event>
<event>
 5   0  0.8875655E-03  0.9917731E+03  0.7818609E-02  0.9317614E-01
        2   -1    0    0  501    0  0.00000000000E+00  0.00000000000E+00  0.20693261954E+04  0.20693261954E+04  0.25500000920E-02 0.  1.
       -2   -1    0    0    0  501  0.00000000000E+00  0.00000000000E+00 -0.11883263058E+03  0.11883263060E+03  0.25500000920E-02 0. -1.
    10030    2    1    2    0    0  0.00000000000E+00  0.00000000000E+00  0.19504935648E+04  0.21881588260E+04  0.99177310985E+03 0.  0.
        4    1    3    3  502    0 -0.26279298202E+03 -0.14864470770E+03  0.10733241665E+03  0.32043292760E+03  0.12699999809E+01 0.  1.
       -4    1    3    3    0  502  0.26279298202E+03  0.14864470770E+03  0.18431611482E+04  0.18677258984E+04  0.12699999809E+01 0. -1.
</event>
<event>
 5   0  0.9243773E-03  0.9420183E+03  0.7818609E-02  0.9374529E-01
       -2   -1    0    0    0  501  0.00000000000E+00  0.00000000000E+00  0.11002978295E+03  0.11002978298E+03  0.25500000920E-02 0. -1.
        2   -1    0    0  501    0  0.00000000000E+00  0.00000000000E+00 -0.20162688536E+04  0.20162688536E+04  0.25500000920E-02 0.  1.
    10030    2    1    2    0    0  0.00000000000E+00  0.00000000000E+00 -0.19062390707E+04  0.21262986366E+04  0.94201831056E+03 0.  0.
        3    1    3    3  502    0  0.27127684395E+03 -0.26441191677E+03 -0.15849056509E+04  0.16295492383E+04  0.10100000352E+00 0.  1.
       -3    1    3    3    0  502 -0.27127684395E+03  0.26441191677E+03 -0.32133341981E+03  0.49674939827E+03  0.10100000352E+00 0. -1.
</event>
<event>
 5   0  0.5072205E-03  0.1009266E+04  0.7818609E-02  0.9298440E-01
       -1   -1    0    0    0  501  0.00000000000E+00  0.00000000000E+00  0.85159356535E+03  0.85159356537E+03  0.50400001928E-02 0.  1.
        1   -1    0    0  501    0  0.00000000000E+00  0.00000000000E+00 -0.29903287357E+03  0.29903287361E+03  0.50400001928E-02 0. -1.
    10030    2    1    2    0    0  0.00000000000E+00  0.00000000000E+00  0.55256069178E+03  0.11506264390E+04  0.10092660125E+04 0.  0.
        5    1    3    3  502    0  0.64238580829E+02 -0.15271495318E+03 -0.26711698818E+03  0.31435971047E+03  0.46999998093E+01 0. -1.
       -5    1    3    3    0  502 -0.64238580829E+02  0.15271495318E+03  0.81967767996E+03  0.83626672851E+03  0.46999998093E+01 0.  1.
</event>
<event>
 5   0  0.5349685E-03  0.9837476E+03  0.7818609E-02  0.9326552E-01
       -1   -1    0    0    0  501  0.00000000000E+00  0.00000000000E+00  0.35416999516E+03  0.35416999519E+03  0.50400001928E-02 0.  1.
        1   -1    0    0  501    0  0.00000000000E+00  0.00000000000E+00 -0.68311785801E+03  0.68311785803E+03  0.50400001928E-02 0. -1.
    10030    2    1    2    0    0  0.00000000000E+00  0.00000000000E+00 -0.32894786286E+03  0.10372878532E+04  0.98374762717E+03 0.  0.
        4    1    3    3  502    0  0.15078656603E+03 -0.41781099056E+03  0.58295910221E+02  0.44799848033E+03  0.12699999809E+01 0. -1.
       -4    1    3    3    0  502 -0.15078656603E+03  0.41781099056E+03 -0.38724377308E+03  0.58928937290E+03  0.12699999809E+01 0.  1.
</event>
<event>
 5   0  0.5072205E-03  0.9994460E+03  0.7818609E-02  0.9309153E-01
        1   -1    0    0  501    0  0.00000000000E+00  0.00000000000E+00  0.84183189986E+03  0.84183189987E+03  0.50400001928E-02 0. -1.
       -1   -1    0    0    0  501  0.00000000000E+00  0.00000000000E+00 -0.29664242597E+03  0.29664242601E+03  0.50400001928E-02 0.  1.
    10030    2    1    2    0    0  0.00000000000E+00  0.00000000000E+00  0.54518947389E+03  0.11384743259E+04  0.99944596065E+03 0.  0.
        5    1    3    3  502    0 -0.35546217603E+03  0.25493193164E+03 -0.25819191182E+01  0.43746131790E+03  0.46999998093E+01 0. -1.
       -5    1    3    3    0  502  0.35546217603E+03 -0.25493193164E+03  0.54777139301E+03  0.70101300798E+03  0.46999998093E+01 0.  1.
</event>
<event>
 5   0  0.5349685E-03  0.9932043E+03  0.7818609E-02  0.9316030E-01
       -1   -1    0    0    0  501  0.00000000000E+00  0.00000000000E+00  0.36536744992E+03  0.36536744996E+03  0.50400001928E-02 0.  1.
        1   -1    0    0  501    0  0.00000000000E+00  0.00000000000E+00 -0.67497452011E+03  0.67497452013E+03  0.50400001928E-02 0. -1.
    10030    2    1    2    0    0  0.00000000000E+00  0.00000000000E+00 -0.30960707019E+03  0.10403419701E+04  0.99320434796E+03 0.  0.
        4    1    3    3  502    0  0.11948751770E+03 -0.64760228674E+02  0.34550640586E+03  0.37127812149E+03  0.12699999809E+01 0.  1.
       -4    1    3    3    0  502 -0.11948751770E+03  0.64760228674E+02 -0.65511347605E+03  0.66906384860E+03  0.12699999809E+01 0. -1.
</event>
<event>
 5   0  0.9243773E-03  0.9918103E+03  0.7818609E-02  0.9317573E-01
        2   -1    0    0  501    0  0.00000000000E+00  0.00000000000E+00  0.17834225170E+04  0.17834225170E+04  0.25500000920E-02 0. -1.
       -2   -1    0    0    0  501  0.00000000000E+00  0.00000000000E+00 -0.13789323592E+03  0.13789323594E+03  0.25500000920E-02 0.  1.
    10030    2    1    2    0    0  0.00000000000E+00  0.00000000000E+00  0.16455292811E+04  0.19213157529E+04  0.99181026795E+03 0.  0.
        3    1    3    3  502    0 -0.97784350490E+02  0.11088315780E+02 -0.11878723228E+03  0.15425675577E+03  0.10100000352E+00 0.  1.
       -3    1    3    3    0  502  0.97784350490E+02 -0.11088315780E+02  0.17643165134E+04  0.17670589972E+04  0.10100000352E+00 0. -1.
</event>
<event>
 5   0  0.5189877E-03  0.9866575E+03  0.7818609E-02  0.9323301E-01
       -1   -1    0    0    0  501  0.00000000000E+00  0.00000000000E+00  0.38586157812E+03  0.38586157816E+03  0.50400001928E-02 0. -1.
        1   -1    0    0  501    0  0.00000000000E+00  0.00000000000E+00 -0.63072678740E+03  0.63072678742E+03  0.50400001928E-02 0.  1.
    10030    2    1    2    0    0  0.00000000000E+00  0.00000000000E+00 -0.24486520928E+03  0.10165883656E+04  0.98665745541E+03 0.  0.
        3    1    3    3  502    0 -0.56898445190E+02 -0.14966453940E+03  0.35834493259E+03  0.39248950092E+03  0.10100000352E+00 0. -1.
       -3    1    3    3    0  502  0.56898445190E+02  0.14966453940E+03 -0.60321014187E+03  0.62409886466E+03  0.10100000352E+00 0.  1.
</event>
<event>
 5   0  0.8907355E-03  0.8720584E+03  0.7818609E-02  0.9461200E-01
       -2   -1    0    0    0  501  0.00000000000E+00  0.00000000000E+00  0.17758442949E+03  0.17758442951E+03  0.25500000920E-02 0.  1.
        2   -1    0    0  501    0  0.00000000000E+00  0.00000000000E+00 -0.10705976076E+04  0.10705976076E+04  0.25500000920E-02 0. -1.
    10030    2    1    2    0    0  0.00000000000E+00  0.00000000000E+00 -0.89301317814E+03  0.12481820371E+04  0.87205840488E+03 0.  0.
        5    1    3    3  502    0  0.38130834124E+03 -0.15523313980E+03 -0.24104569770E+03  0.47709380332E+03  0.46999998093E+01 0.  1.
       -5    1    3    3    0  502 -0.38130834124E+03  0.15523313980E+03 -0.65196748044E+03  0.77108823383E+03  0.46999998093E+01 0. -1.
</event>
<event>
 5   0  0.9243773E-03  0.8555544E+03  0.7818609E-02  0.9482912E-01
       -2   -1    0    0    0  501  0.00000000000E+00  0.00000000000E+00  0.21674559740E+03  0.21674559741E+03  0.25500000920E-02 0.  1.
        2   -1    0    0  501    0  0.00000000000E+00  0.00000000000E+00 -0.84427708986E+03  0.84427708986E+03  0.25500000920E-02 0. -1.
    10030    2    1    2    0    0  0.00000000000E+00  0.00000000000E+00 -0.62753149246E+03  0.10610226873E+04  0.85555442193E+03 0.  0.
        3    1    3    3  502    0 -0.24516170500E+03 -0.29053626013E+03 -0.55703200462E+03  0.67438879322E+03  0.10100000352E+00 0. -1.
       -3    1    3    3    0  502  0.24516170500E+03  0.29053626013E+03 -0.70499487846E+02  0.38663389406E+03  0.10100000352E+00 0.  1.
</event>
<event>
 5   0  0.5189877E-03  0.9967177E+03  0.7818609E-02  0.9312152E-01
       -1   -1    0    0    0  501  0.00000000000E+00  0.00000000000E+00  0.38439187050E+03  0.38439187054E+03  0.50400001928E-02 0. -1.
        1   -1    0    0  501    0  0.00000000000E+00  0.00000000000E+00 -0.64611543460E+03  0.64611543462E+03  0.50400001928E-02 0.  1.
    10030    2    1    2    0    0  0.00000000000E+00  0.00000000000E+00 -0.26172356410E+03  0.10305073052E+04  0.99671765409E+03 0.  0.
        3    1    3    3  502    0  0.37424743411E+03  0.65734344177E+02  0.20252816740E+03  0.43058078770E+03  0.10100000352E+00 0. -1.
       -3    1    3    3    0  502 -0.37424743411E+03 -0.65734344177E+02 -0.46425173150E+03  0.59992651745E+03  0.10100000352E+00 0.  1.
</event>
<event>
 5   0  0.8875655E-03  0.9922078E+03  0.7818609E-02  0.9317133E-01
        2   -1    0    0  501    0  0.00000000000E+00  0.00000000000E+00  0.30593354431E+03  0.30593354432E+03  0.25500000920E-02 0.  1.
       -2   -1    0    0    0  501  0.00000000000E+00  0.00000000000E+00 -0.80448538958E+03  0.80448538958E+03  0.25500000920E-02 0. -1.
    10030    2    1    2    0    0  0.00000000000E+00  0.00000000000E+00 -0.49855184527E+03  0.11104189339E+04  0.99220777377E+03 0.  0.
        4    1    3    3  502    0 -0.41029092813E+03 -0.26688441411E+03 -0.33986069249E+03  0.59587988672E+03  0.12699999809E+01 0. -1.
       -4    1    3    3    0  502  0.41029092813E+03  0.26688441411E+03 -0.15869115278E+03  0.51453904718E+03  0.12699999809E+01 0.  1.
</event>
<event>
 5   0  0.3513625E-03  0.1000079E+04  0.7818609E-02  0.9308459E-01
       -4   -1    0    0    0  501  0.00000000000E+00  0.00000000000E+00  0.72702563333E+03  0.72702674257E+03  0.12699999809E+01 0. -1.
        4   -1    0    0  501    0  0.00000000000E+00  0.00000000000E+00 -0.34391836043E+03  0.34392070531E+03  0.12699999809E+01 0.  1.
    10030    2    1    2    0    0  0.00000000000E+00  0.00000000000E+00  0.38310727290E+03  0.10709474479E+04  0.10000786237E+04 0.  0.
        2    1    3    3  502    0 -0.35112987779E+03  0.16956941207E+03  0.52677546355E+03  0.65539176497E+03  0.25500000920E-02 0. -1.
       -2    1    3    3    0  502  0.35112987779E+03 -0.16956941207E+03 -0.14366819065E+03  0.41555568291E+03  0.25500000920E-02 0.  1.
</event>
<event>
 5   0  0.5201968E-03  0.9932592E+03  0.7818609E-02  0.9315969E-01
        1   -1    0    0  501    0  0.00000000000E+00  0.00000000000E+00  0.28314172639E+03  0.28314172643E+03  0.50400001928E-02 0. -1.
       -1   -1    0    0    0  501  0.00000000000E+00  0.00000000000E+00 -0.87108662634E+03  0.87108662636E+03  0.50400001928E-02 0.  1.
    10030    2    1    2    0    0  0.00000000000E+00  0.00000000000E+00 -0.58794489995E+03  0.11542283528E+04  0.99325922346E+03 0.  0.
        2    1    3    3  502    0 -0.30070040647E+03 -0.38029049535E+03 -0.41912694256E+03  0.64086581223E+03  0.25500000920E-02 0.  1.
       -2    1    3    3    0  502  0.30070040647E+03  0.38029049535E+03 -0.16881795739E+03  0.51336254055E+03  0.25500000920E-02 0. -1.
</event>
<event>
 5   0  0.5349685E-03  0.1003421E+04  0.7818609E-02  0.9304800E-01
       -1   -1    0    0    0  501  0.00000000000E+00  0.00000000000E+00  0.43577852276E+03  0.43577852279E+03  0.50400001928E-02 0.  1.
        1   -1    0    0  501    0  0.00000000000E+00  0.00000000000E+00 -0.57761829643E+03  0.57761829646E+03  0.50400001928E-02 0. -1.
    10030    2    1    2    0    0  0.00000000000E+00  0.00000000000E+00 -0.14183977367E+03  0.10133968192E+04  0.10034214428E+04 0.  0.
        4    1    3    3  502    0  0.42872932077E+03 -0.17911648077E+03  0.12022466590E+03  0.47994492117E+03  0.12699999809E+01 0.  1.
       -4    1    3    3    0  502 -0.42872932077E+03  0.17911648077E+03 -0.26206443957E+03  0.53345189807E+03  0.12699999809E+01 0. -1.
</event>
<event>
 5   0  0.5189877E-03  0.1002100E+04  0.7818609E-02  0.9306245E-01
        1   -1    0    0  501    0  0.00000000000E+00  0.00000000000E+00  0.11088768691E+04  0.11088768691E+04  0.50400001928E-02 0. -1.
       -1   -1    0    0    0  501  0.00000000000E+00  0.00000000000E+00 -0.22640122878E+03  0.22640122884E+03  0.50400001928E-02 0.  1.
    10030    2    1    2    0    0  0.00000000000E+00  0.00000000000E+00  0.88247564033E+03  0.13352780980E+04  0.10020999666E+04 0.  0.
        3    1    3    3  502    0  0.30218006312E+03  0.36787320682E+03  0.23306543593E+03  0.53005942541E+03  0.10100000352E+00 0.  1.
       -3    1    3    3    0  502 -0.30218006312E+03 -0.36787320682E+03  0.64941020440E+03  0.80521867255E+03  0.10100000352E+00 0. -1.
</event>
<event>
 5   0  0.5072205E-03  0.1026153E+04  0.7818609E-02  0.9280316E-01
       -1   -1    0    0    0  501  0.00000000000E+00  0.00000000000E+00  0.31840292236E+03  0.31840292240E+03  0.50400001928E-02 0. -1.
        1   -1    0    0  501    0  0.00000000000E+00  0.00000000000E+00 -0.82677543755E+03  0.82677543756E+03  0.50400001928E-02 0.  1.
    10030    2    1    2    0    0  0.00000000000E+00  0.00000000000E+00 -0.50837251518E+03  0.11451783600E+04  0.10261534300E+04 0.  0.
        5    1    3    3  502    0  0.13282253710E+03  0.27271316794E+03 -0.71595770781E+03  0.77758075317E+03  0.46999998093E+01 0.  1.
       -5    1    3    3    0  502 -0.13282253710E+03 -0.27271316794E+03  0.20758519263E+03  0.36759760680E+03  0.46999998093E+01 0. -1.
</event>
<event>
 5   0  0.9040674E-03  0.9952963E+03  0.7818609E-02  0.9313719E-01
       -2   -1    0    0    0  501  0.00000000000E+00  0.00000000000E+00  0.40146909727E+03  0.40146909728E+03  0.25500000920E-02 0.  1.
        2   -1    0    0  501    0  0.00000000000E+00  0.00000000000E+00 -0.61686856446E+03  0.61686856447E+03  0.25500000920E-02 0. -1.
    10030    2    1    2    0    0  0.00000000000E+00  0.00000000000E+00 -0.21539946719E+03  0.10183376617E+04  0.99529626889E+03 0.  0.
        1    1    3    3  502    0 -0.31287793646E+03  0.16175388583E+03  0.25200234131E+03  0.43308440604E+03  0.50400001928E-02 0.  1.
       -1    1    3    3    0  502  0.31287793646E+03 -0.16175388583E+03 -0.46740180850E+03  0.58525325571E+03  0.50400001928E-02 0. -1.
</event>
<event>
 5   0  0.5310275E-03  0.1000834E+04  0.7818609E-02  0.9307631E-01
        1   -1    0    0  501    0  0.00000000000E+00  0.00000000000E+00  0.46337063508E+03  0.46337063511E+03  0.50400001928E-02 0. -1.
       -1   -1    0    0    0  501  0.00000000000E+00  0.00000000000E+00 -0.54042488896E+03  0.54042488899E+03  0.50400001928E-02 0.  1.
    10030    2    1    2    0    0  0.00000000000E+00  0.00000000000E+00 -0.77054253881E+02  0.10037955241E+04  0.10008337006E+04 0.  0.
        1    1    3    3  502    0 -0.43690253054E+03  0.24169849206E+03 -0.72018187504E+02  0.50446863293E+03  0.50400001928E-02 0. -1.
       -1    1    3    3    0  502  0.43690253054E+03 -0.24169849206E+03 -0.50360663767E+01  0.49932689117E+03  0.50400001928E-02 0.  1.
</event>
<event>
 5   0  0.9040674E-03  0.1269773E+04  0.7818609E-02  0.9053885E-01
       -2   -1    0    0    0  501  0.00000000000E+00  0.00000000000E+00  0.55977816531E+03  0.55977816532E+03  0.25500000920E-02 0.  1.
        2   -1    0    0  501    0  0.00000000000E+00  0.00000000000E+00 -0.72007216813E+03  0.72007216813E+03  0.25500000920E-02 0. -1.
    10030    2    1    2    0    0  0.00000000000E+00  0.00000000000E+00 -0.16029400282E+03  0.12798503335E+04  0.12697726996E+04 0.  0.
        1    1    3    3  502    0 -0.48089873851E+03  0.25896885350E+03  0.24607616937E+03  0.59906756292E+03  0.50400001928E-02 0. -1.
       -1    1    3    3    0  502  0.48089873851E+03 -0.25896885350E+03 -0.40637017219E+03  0.68078277053E+03  0.50400001928E-02 0.  1.
</event>
<event>
 5   0  0.5189877E-03  0.9988149E+03  0.7818609E-02  0.9309846E-01
        1   -1    0    0  501    0  0.00000000000E+00  0.00000000000E+00  0.28433797965E+03  0.28433797969E+03  0.50400001928E-02 0. -1.
       -1   -1    0    0    0  501  0.00000000000E+00  0.00000000000E+00 -0.87715265296E+03  0.87715265298E+03  0.50400001928E-02 0.  1.
    10030    2    1    2    0    0  0.00000000000E+00  0.00000000000E+00 -0.59281467331E+03  0.11614906327E+04  0.99881492424E+03 0.  0.
        3    1    3    3  502    0 -0.22183602460E+03 -0.44701904760E+03 -0.27402242199E+03  0.56932025142E+03  0.10100000352E+00 0. -1.
       -3    1    3    3    0  502  0.22183602460E+03  0.44701904760E+03 -0.31879225132E+03  0.59217038125E+03  0.10100000352E+00 0.  1.
</event>
<event>
 5   0  0.5201968E-03  0.1018190E+04  0.7818609E-02  0.9288816E-01
        1   -1    0    0  501    0  0.00000000000E+00  0.00000000000E+00  0.15501135747E+04  0.15501135747E+04  0.50400001928E-02 0.  1.
       -1   -1    0    0    0  501  0.00000000000E+00  0.00000000000E+00 -0.16719912838E+03  0.16719912846E+03  0.50400001928E-02 0. -1.
    10030    2    1    2    0    0  0.00000000000E+00  0.00000000000E+00  0.13829144464E+04  0.17173127032E+04  0.10181898422E+04 0.  0.
        2    1    3    3  502    0  0.68158604809E+02  0.16248715197E+03 -0.11412855927E+03  0.20993569971E+03  0.25500000920E-02 0. -1.
       -2    1    3    3    0  502 -0.68158604809E+02 -0.16248715197E+03  0.14970430056E+04  0.15073770035E+04  0.25500000920E-02 0.  1.
</event>
<event>
 5   0  0.5072205E-03  0.1020037E+04  0.7818609E-02  0.9286837E-01
        1   -1    0    0  501    0  0.00000000000E+00  0.00000000000E+00  0.66682514275E+03  0.66682514276E+03  0.50400001928E-02 0.  1.
       -1   -1    0    0    0  501  0.00000000000E+00  0.00000000000E+00 -0.39008583025E+03  0.39008583028E+03  0.50400001928E-02 0. -1.
    10030    2    1    2    0    0  0.00000000000E+00  0.00000000000E+00  0.27673931249E+03  0.10569109730E+04  0.10200373316E+04 0.  0.
        5    1    3    3  502    0 -0.90850062940E+01  0.32520918968E+03 -0.26857908186E+03  0.42190089784E+03  0.46999998093E+01 0. -1.
       -5    1    3    3    0  502  0.90850062940E+01 -0.32520918968E+03  0.54531839436E+03  0.63501007520E+03  0.46999998093E+01 0.  1.
</event>
<event>
 5   0  0.8907355E-03  0.9984077E+03  0.7818609E-02  0.9310293E-01
        2   -1    0    0  501    0  0.00000000000E+00  0.00000000000E+00  0.14281998089E+04  0.14281998089E+04  0.25500000920E-02 0. -1.
       -2   -1    0    0    0  501  0.00000000000E+00  0.00000000000E+00 -0.17448853402E+03  0.17448853404E+03  0.25500000920E-02 0.  1.
    10030    2    1    2    0    0  0.00000000000E+00  0.00000000000E+00  0.12537112749E+04  0.16026883429E+04  0.99840771423E+03 0.  0.
        5    1    3    3  502    0  0.23601582716E+02  0.45887093075E+03  0.31367729783E+03  0.55635878979E+03  0.46999998093E+01 0.  1.
       -5    1    3    3    0  502 -0.23601582716E+02 -0.45887093075E+03  0.94003397705E+03  0.10463295532E+04  0.46999998093E+01 0. -1.
</event>
<event>
 5   0  0.8907355E-03  0.1023734E+04  0.7818609E-02  0.9282890E-01
        2   -1    0    0  501    0  0.00000000000E+00  0.00000000000E+00  0.56441375395E+03  0.56441375395E+03  0.25500000920E-02 0. -1.
       -2   -1    0    0    0  501  0.00000000000E+00  0.00000000000E+00 -0.46421213756E+03  0.46421213756E+03  0.25500000920E-02 0.  1.
    10030    2    1    2    0    0  0.00000000000E+00  0.00000000000E+00  0.10020161639E+03  0.10286258915E+04  0.10237337841E+04 0.  0.
        5    1    3    3  502    0 -0.48977985334E+03 -0.13974947024E+03  0.10105216399E+03  0.51927627426E+03  0.46999998093E+01 0.  1.
       -5    1    3    3    0  502  0.48977985334E+03  0.13974947024E+03 -0.85054759804E+00  0.50934961725E+03  0.46999998093E+01 0. -1.
</event>
<event>
 5   0  0.8907355E-03  0.9898159E+03  0.7818609E-02  0.9319786E-01
        2   -1    0    0  501    0  0.00000000000E+00  0.00000000000E+00  0.51735107341E+03  0.51735107342E+03  0.25500000920E-02 0. -1.
       -2   -1    0    0    0  501  0.00000000000E+00  0.00000000000E+00 -0.47343841865E+03  0.47343841866E+03  0.25500000920E-02 0.  1.
    10030    2    1    2    0    0  0.00000000000E+00  0.00000000000E+00  0.43912654757E+02  0.99078949207E+03  0.98981589013E+03 0.  0.
        5    1    3    3  502    0 -0.59553976206E+01 -0.32267482171E+03 -0.35358903084E+03  0.47875024810E+03  0.46999998093E+01 0.  1.
       -5    1    3    3    0  502  0.59553976206E+01  0.32267482171E+03  0.39750168559E+03  0.51203924398E+03  0.46999998093E+01 0. -1.
</event>
<event>
 5   0  0.5349685E-03  0.9151804E+03  0.7818609E-02  0.9406802E-01
        1   -1    0    0  501    0  0.00000000000E+00  0.00000000000E+00  0.19851311361E+04  0.19851311361E+04  0.50400001928E-02 0. -1.
       -1   -1    0    0    0  501  0.00000000000E+00  0.00000000000E+00 -0.10547857163E+03  0.10547857175E+03  0.50400001928E-02 0.  1.
    10030    2    1    2    0    0  0.00000000000E+00  0.00000000000E+00  0.18796525645E+04  0.20906097079E+04  0.91518041251E+03 0.  0.
        4    1    3    3  502    0 -0.52028547847E+02  0.45012887040E+03  0.10854575201E+04  0.11762408812E+04  0.12699999809E+01 0.  1.
       -4    1    3    3    0  502  0.52028547847E+02 -0.45012887040E+03  0.79419504436E+03  0.91436882665E+03  0.12699999809E+01 0. -1.
</event>
<event>
 5   0  0.8968798E-03  0.1013741E+04  0.7818609E-02  0.9293601E-01
        2   -1    0    0  501    0  0.00000000000E+00  0.00000000000E+00  0.10112578288E+04  0.10112578288E+04  0.25500000920E-02 0.  1.
       -2   -1    0    0    0  501  0.00000000000E+00  0.00000000000E+00 -0.25405748454E+03  0.25405748455E+03  0.25500000920E-02 0. -1.
    10030    2    1    2    0    0  0.00000000000E+00  0.00000000000E+00  0.75720034427E+03  0.12653153134E+04  0.10137408352E+04 0.  0.
        2    1    3    3  502    0 -0.48335608279E+03  0.78714980432E+02  0.54176381926E+03  0.73029938161E+03  0.25500000920E-02 0. -1.
       -2    1    3    3    0  502  0.48335608279E+03 -0.78714980432E+02  0.21543652501E+03  0.53501593175E+03  0.25500000920E-02 0.  1.
</event>
<event>
 5   0  0.9243773E-03  0.9859891E+03  0.7818609E-02  0.9324047E-01
        2   -1    0    0  501    0  0.00000000000E+00  0.00000000000E+00  0.14466458703E+04  0.14466458703E+04  0.25500000920E-02 0. -1.
       -2   -1    0    0    0  501  0.00000000000E+00  0.00000000000E+00 -0.16800491399E+03  0.16800491401E+03  0.25500000920E-02 0.  1.
    10030    2    1    2    0    0  0.00000000000E+00  0.00000000000E+00  0.12786409563E+04  0.16146507843E+04  0.98598907706E+03 0.  0.
        3    1    3    3  502    0 -0.70785510887E+02 -0.45667812554E+03  0.92048226298E+03  0.10299772355E+04  0.10100000352E+00 0. -1.
       -3    1    3    3    0  502  0.70785510887E+02  0.45667812554E+03  0.35815869329E+03  0.58467354881E+03  0.10100000352E+00 0.  1.
</event>
<event>
 5   0  0.5310275E-03  0.9957653E+03  0.7818609E-02  0.9313202E-01
       -1   -1    0    0    0  501  0.00000000000E+00  0.00000000000E+00  0.34060663752E+03  0.34060663756E+03  0.50400001928E-02 0. -1.
        1   -1    0    0  501    0  0.00000000000E+00  0.00000000000E+00 -0.72778122253E+03  0.72778122254E+03  0.50400001928E-02 0.  1.
    10030    2    1    2    0    0  0.00000000000E+00  0.00000000000E+00 -0.38717458500E+03  0.10683878601E+04  0.99576526368E+03 0.  0.
        1    1    3    3  502    0 -0.21992458027E+03 -0.17915202931E+03  0.24543030055E+03  0.37509772469E+03  0.50400001928E-02 0. -1.
       -1    1    3    3    0  502  0.21992458027E+03  0.17915202931E+03 -0.63260488555E+03  0.69329013542E+03  0.50400001928E-02 0.  1.
</event>
<event>
 5   0  0.9243773E-03  0.9758222E+03  0.7818609E-02  0.9335467E-01
       -2   -1    0    0    0  501  0.00000000000E+00  0.00000000000E+00  0.82477291735E+03  0.82477291736E+03  0.25500000920E-02 0.  1.
        2   -1    0    0  501    0  0.00000000000E+00  0.00000000000E+00 -0.28863367791E+03  0.28863367792E+03  0.25500000920E-02 0. -1.
    10030    2    1    2    0    0  0.00000000000E+00  0.00000000000E+00  0.53613923944E+03  0.11134065953E+04  0.97582219812E+03 0.  0.
        3    1    3    3  502    0  0.36744309236E+03  0.11493905507E+03  0.61004763732E+03  0.72137614495E+03  0.10100000352E+00 0.  1.
       -3    1    3    3    0  502 -0.36744309236E+03 -0.11493905507E+03 -0.73908397878E+02  0.39203045033E+03  0.10100000352E+00 0. -1.
</event>
<event>
 5   0  0.5349685E-03  0.9985903E+03  0.7818609E-02  0.9310092E-01
       -1   -1    0    0    0  501  0.00000000000E+00  0.00000000000E+00  0.13890306009E+03  0.13890306018E+03  0.50400001928E-02 0. -1.
        1   -1    0    0  501    0  0.00000000000E+00  0.00000000000E+00 -0.17947456778E+04  0.17947456778E+04  0.50400001928E-02 0.  1.
    10030    2    1    2    0    0  0.00000000000E+00  0.00000000000E+00 -0.16558426177E+04  0.19336487380E+04  0.99859034008E+03 0.  0.
        4    1    3    3  502    0 -0.17361769215E+03 -0.63277990781E+02 -0.17260895947E+04  0.17359533718E+04  0.12699999809E+01 0.  1.
       -4    1    3    3    0  502  0.17361769215E+03  0.63277990781E+02  0.70246976987E+02  0.19769536621E+03  0.12699999809E+01 0. -1.
</event>
<event>
 5   0  0.8907355E-03  0.9642593E+03  0.7818609E-02  0.9348637E-01
        2   -1    0    0  501    0  0.00000000000E+00  0.00000000000E+00  0.34822982478E+03  0.34822982479E+03  0.25500000920E-02 0. -1.
       -2   -1    0    0    0  501  0.00000000000E+00  0.00000000000E+00 -0.66751599371E+03  0.66751599372E+03  0.25500000920E-02 0.  1.
    10030    2    1    2    0    0  0.00000000000E+00  0.00000000000E+00 -0.31928616894E+03  0.10157458185E+04  0.96425925463E+03 0.  0.
        5    1    3    3  502    0  0.45651431841E+03 -0.14193041560E+03 -0.94050136772E+02  0.48725463980E+03  0.46999998093E+01 0.  1.
       -5    1    3    3    0  502 -0.45651431841E+03  0.14193041560E+03 -0.22523603216E+03  0.52849117870E+03  0.46999998093E+01 0. -1.
</event>
<event>
 5   0  0.5189877E-03  0.1000768E+04  0.7818609E-02  0.9307703E-01
        1   -1    0    0  501    0  0.00000000000E+00  0.00000000000E+00  0.21550354415E+04  0.21550354415E+04  0.50400001928E-02 0. -1.
       -1   -1    0    0    0  501  0.00000000000E+00  0.00000000000E+00 -0.11618557982E+03  0.11618557993E+03  0.50400001928E-02 0.  1.
    10030    2    1    2    0    0  0.00000000000E+00  0.00000000000E+00  0.20388498617E+04  0.22712210215E+04  0.10007677901E+04 0.  0.
        3    1    3    3  502    0 -0.11224141953E+03  0.22288052236E+03  0.20037356545E+04  0.20192153048E+04  0.10100000352E+00 0. -1.
       -3    1    3    3    0  502  0.11224141953E+03 -0.22288052236E+03  0.35114207160E+02  0.25200571670E+03  0.10100000352E+00 0.  1.
</event>
<event>
 5   0  0.8968798E-03  0.9887619E+03  0.7818609E-02  0.9320957E-01
        2   -1    0    0  501    0  0.00000000000E+00  0.00000000000E+00  0.14284878358E+04  0.14284878358E+04  0.25500000920E-02 0.  1.
       -2   -1    0    0    0  501  0.00000000000E+00  0.00000000000E+00 -0.17109878683E+03  0.17109878685E+03  0.25500000920E-02 0. -1.
    10030    2    1    2    0    0  0.00000000000E+00  0.00000000000E+00  0.12573890490E+04  0.15995866227E+04  0.98876192429E+03 0.  0.
        2    1    3    3  502    0  0.27866665840E+03  0.32032252690E+03  0.10384430819E+04  0.11218848703E+04  0.25500000920E-02 0.  1.
       -2    1    3    3    0  502 -0.27866665840E+03 -0.32032252690E+03  0.21894596706E+03  0.47770175240E+03  0.25500000920E-02 0. -1.
</event>
<event>
 5   0  0.5072205E-03  0.9887243E+03  0.7818609E-02  0.9320999E-01
        1   -1    0    0  501    0  0.00000000000E+00  0.00000000000E+00  0.81230550550E+03  0.81230550552E+03  0.50400001928E-02 0.  1.
       -1   -1    0    0    0  501  0.00000000000E+00  0.00000000000E+00 -0.30086458009E+03  0.30086458014E+03  0.50400001928E-02 0. -1.
    10030    2    1    2    0    0  0.00000000000E+00  0.00000000000E+00  0.51144092541E+03  0.11131700857E+04  0.98872433944E+03 0.  0.
        5    1    3    3  502    0  0.51380644926E+02 -0.30836479429E+03  0.68685919545E+03  0.75466976977E+03  0.46999998093E+01 0.  1.
       -5    1    3    3    0  502 -0.51380644926E+02  0.30836479429E+03 -0.17541827004E+03  0.35850031589E+03  0.46999998093E+01 0. -1.
</event>
<event>
 5   0  0.5201968E-03  0.9976282E+03  0.7818609E-02  0.9311150E-01
        1   -1    0    0  501    0  0.00000000000E+00  0.00000000000E+00  0.15073643713E+04  0.15073643714E+04  0.50400001928E-02 0. -1.
       -1   -1    0    0    0  501  0.00000000000E+00  0.00000000000E+00 -0.16506658634E+03  0.16506658642E+03  0.50400001928E-02 0.  1.
    10030    2    1    2    0    0  0.00000000000E+00  0.00000000000E+00  0.13422977850E+04  0.16724309578E+04  0.99762816966E+03 0.  0.
        2    1    3    3  502    0 -0.33521049343E+02  0.16752214337E+03  0.14567887494E+04  0.14667722351E+04  0.25500000920E-02 0. -1.
       -2    1    3    3    0  502  0.33521049343E+02 -0.16752214337E+03 -0.11449096441E+03  0.20565872266E+03  0.25500000920E-02 0.  1.
</event>
<event>
 5   0  0.5072205E-03  0.1017528E+04  0.7818609E-02  0.9289526E-01
       -1   -1    0    0    0  501  0.00000000000E+00  0.00000000000E+00  0.29092142991E+03  0.29092142995E+03  0.50400001928E-02 0. -1.
        1   -1    0    0  501    0  0.00000000000E+00  0.00000000000E+00 -0.88972773449E+03  0.88972773450E+03  0.50400001928E-02 0.  1.
    10030    2    1    2    0    0  0.00000000000E+00  0.00000000000E+00 -0.59880630458E+03  0.11806491645E+04  0.10175281122E+04 0.  0.
        5    1    3    3  502    0  0.41311580901E+02  0.35729520226E+03  0.11807069737E+03  0.37858854691E+03  0.46999998093E+01 0. -1.
       -5    1    3    3    0  502 -0.41311580901E+02 -0.35729520226E+03 -0.71687700196E+03  0.80206061754E+03  0.46999998093E+01 0.  1.
</event>
<event>
 5   0  0.8907355E-03  0.9915101E+03  0.7818609E-02  0.9317906E-01
       -2   -1    0    0    0  501  0.00000000000E+00  0.00000000000E+00  0.30810703446E+03  0.30810703447E+03  0.25500000920E-02 0. -1.
        2   -1    0    0  501    0  0.00000000000E+00  0.00000000000E+00 -0.79768729232E+03  0.79768729233E+03  0.25500000920E-02 0.  1.
    10030    2    1    2    0    0  0.00000000000E+00  0.00000000000E+00 -0.48958025786E+03  0.11057943268E+04  0.99151009289E+03 0.  0.
        5    1    3    3  502    0 -0.85735701259E+02 -0.40454200015E+03  0.60119816793E+02  0.41790109204E+03  0.46999998093E+01 0. -1.
       -5    1    3    3    0  502  0.85735701259E+02  0.40454200015E+03 -0.54970007466E+03  0.68789323476E+03  0.46999998093E+01 0.  1.
</event>
<event>
 5   0  0.5072205E-03  0.9965581E+03  0.7818609E-02  0.9312328E-01
       -1   -1    0    0    0  501  0.00000000000E+00  0.00000000000E+00  0.47961549417E+03  0.47961549419E+03  0.50400001928E-02 0. -1.
        1   -1    0    0  501    0  0.00000000000E+00  0.00000000000E+00 -0.51766891744E+03  0.51766891747E+03  0.50400001928E-02 0.  1.
    10030    2    1    2    0    0  0.00000000000E+00  0.00000000000E+00 -0.38053423275E+02  0.99728441166E+03  0.99655814417E+03 0.  0.
        5    1    3    3  502    0  0.31021226486E+03  0.33273218509E+03 -0.22244212866E+03  0.50640393646E+03  0.46999998093E+01 0. -1.
       -5    1    3    3    0  502 -0.31021226486E+03 -0.33273218509E+03  0.18438870538E+03  0.49088047520E+03  0.46999998093E+01 0.  1.
</event>
<event>
 5   0  0.9040674E-03  0.1000951E+04  0.7818609E-02  0.9307503E-01
       -2   -1    0    0    0  501  0.00000000000E+00  0.00000000000E+00  0.11610267668E+03  0.11610267671E+03  0.25500000920E-02 0. -1.
        2   -1    0    0  501    0  0.00000000000E+00  0.00000000000E+00 -0.21573618091E+04  0.21573618091E+04  0.25500000920E-02 0.  1.
    10030    2    1    2    0    0  0.00000000000E+00  0.00000000000E+00 -0.20412591324E+04  0.22734644858E+04  0.10009505095E+04 0.  0.
        1    1    3    3  502    0 -0.29626418375E+03 -0.98864638781E+02 -0.13241026583E+03  0.33923319693E+03  0.50400001928E-02 0. -1.
       -1    1    3    3    0  502  0.29626418375E+03  0.98864638781E+02 -0.19088488666E+04  0.19342312889E+04  0.50400001928E-02 0.  1.
</event>
<event>
 5   0  0.8907355E-03  0.1006429E+04  0.7818609E-02  0.9301522E-01
        2   -1    0    0  501    0  0.00000000000E+00  0.00000000000E+00  0.13957069967E+04  0.13957069967E+04  0.25500000920E-02 0. -1.
       -2   -1    0    0    0  501  0.00000000000E+00  0.00000000000E+00 -0.18143111796E+03  0.18143111798E+03  0.25500000920E-02 0.  1.
    10030    2    1    2    0    0  0.00000000000E+00  0.00000000000E+00  0.12142758788E+04  0.15771381147E+04  0.10064286975E+04 0.  0.
        5    1    3    3  502    0  0.41028486932E+03  0.28163426176E+03  0.72389271477E+03  0.87846131610E+03  0.46999998093E+01 0.  1.
       -5    1    3    3    0  502 -0.41028486932E+03 -0.28163426176E+03  0.49038316401E+03  0.69867679862E+03  0.46999998093E+01 0. -1.
</event>
<event>
 5   0  0.8907355E-03  0.1016339E+04  0.7818609E-02  0.9290804E-01
       -2   -1    0    0    0  501  0.00000000000E+00  0.00000000000E+00  0.27426802882E+03  0.27426802883E+03  0.25500000920E-02 0. -1.
        2   -1    0    0  501    0  0.00000000000E+00  0.00000000000E+00 -0.94154737652E+03  0.94154737652E+03  0.25500000920E-02 0.  1.
    10030    2    1    2    0    0  0.00000000000E+00  0.00000000000E+00 -0.66727934770E+03  0.12158154053E+04  0.10163392013E+04 0.  0.
        5    1    3    3  502    0  0.25583627948E+03  0.34379602331E+03 -0.69763369237E+01  0.42862415566E+03  0.46999998093E+01 0. -1.
       -5    1    3    3    0  502 -0.25583627948E+03 -0.34379602331E+03 -0.66030301078E+03  0.78719124969E+03  0.46999998093E+01 0.  1.
</event>
<event>
 5   0  0.5189877E-03  0.1023419E+04  0.7818609E-02  0.9283226E-01
       -1   -1    0    0    0  501  0.00000000000E+00  0.00000000000E+00  0.16535737047E+03  0.16535737055E+03  0.50400001928E-02 0. -1.
        1   -1    0    0  501    0  0.00000000000E+00  0.00000000000E+00 -0.15835190552E+04  0.15835190552E+04  0.50400001928E-02 0.  1.
    10030    2    1    2    0    0  0.00000000000E+00  0.00000000000E+00 -0.14181616847E+04  0.17488764257E+04  0.10234188725E+04 0.  0.
        3    1    3    3  502    0 -0.10681887908E+03 -0.70946034267E+02 -0.15556171099E+04  0.15608934030E+04  0.10100000352E+00 0.  1.
       -3    1    3    3    0  502  0.10681887908E+03  0.70946034267E+02  0.13745542522E+03  0.18798302271E+03  0.10100000352E+00 0. -1.
</event>
<event>
 5   0  0.5072205E-03  0.1004714E+04  0.7818609E-02  0.9303390E-01
       -1   -1    0    0    0  501  0.00000000000E+00  0.00000000000E+00  0.24793106304E+03  0.24793106310E+03  0.50400001928E-02 0. -1.
        1   -1    0    0  501    0  0.00000000000E+00  0.00000000000E+00 -0.10178733622E+04  0.10178733622E+04  0.50400001928E-02 0.  1.
    10030    2    1    2    0    0  0.00000000000E+00  0.00000000000E+00 -0.76994229915E+03  0.12658044253E+04  0.10047137399E+04 0.  0.
        5    1    3    3  502    0 -0.12843041395E+03 -0.37580195481E+03 -0.77250809405E+03  0.86862668957E+03  0.46999998093E+01 0.  1.
       -5    1    3    3    0  502  0.12843041395E+03  0.37580195481E+03  0.25657948946E+01  0.39717773574E+03  0.46999998093E+01 0. -1.
</event>
<event>
 5   0  0.8907355E-03  0.9271028E+03  0.7818609E-02  0.9392322E-01
       -2   -1    0    0    0  501  0.00000000000E+00  0.00000000000E+00  0.41421411630E+03  0.41421411631E+03  0.25500000920E-02 0. -1.
        2   -1    0    0  501    0  0.00000000000E+00  0.00000000000E+00 -0.51876529105E+03  0.51876529105E+03  0.25500000920E-02 0.  1.
    10030    2    1    2    0    0  0.00000000000E+00  0.00000000000E+00 -0.10455117475E+03  0.93297940736E+03  0.92710281329E+03 0.  0.
        5    1    3    3  502    0 -0.77690120211E+02  0.37076935838E+03  0.21653580787E+03  0.43636626587E+03  0.46999998093E+01 0. -1.
       -5    1    3    3    0  502  0.77690120211E+02 -0.37076935838E+03 -0.32108698263E+03  0.49661314149E+03  0.46999998093E+01 0.  1.
</event>
<event>
 5   0  0.5201968E-03  0.1015792E+04  0.7818609E-02  0.9291392E-01
       -1   -1    0    0    0  501  0.00000000000E+00  0.00000000000E+00  0.81996911643E+03  0.81996911645E+03  0.50400001928E-02 0. -1.
        1   -1    0    0  501    0  0.00000000000E+00  0.00000000000E+00 -0.31459546697E+03  0.31459546701E+03  0.50400001928E-02 0.  1.
    10030    2    1    2    0    0  0.00000000000E+00  0.00000000000E+00  0.50537364946E+03  0.11345645835E+04  0.10157924338E+04 0.  0.
        2    1    3    3  502    0 -0.26922529597E+03  0.42229750202E+03  0.34707283410E+03  0.60932503016E+03  0.25500000920E-02 0. -1.
       -2    1    3    3    0  502  0.26922529597E+03 -0.42229750202E+03  0.15830081536E+03  0.52523955330E+03  0.25500000920E-02 0.  1.
</event>
<event>
 5   0  0.9040674E-03  0.9636883E+03  0.7818609E-02  0.9349293E-01
       -2   -1    0    0    0  501  0.00000000000E+00  0.00000000000E+00  0.10994543071E+03  0.10994543074E+03  0.25500000920E-02 0.  1.
        2   -1    0    0  501    0  0.00000000000E+00  0.00000000000E+00 -0.21117185568E+04  0.21117185568E+04  0.25500000920E-02 0. -1.
    10030    2    1    2    0    0  0.00000000000E+00  0.00000000000E+00 -0.20017731261E+04  0.22216639876E+04  0.96368834445E+03 0.  0.
        1    1    3    3  502    0 -0.18115071147E+03 -0.15509507673E+03 -0.19661311254E+04  0.19805407508E+04  0.50400001928E-02 0. -1.
       -1    1    3    3    0  502  0.18115071147E+03  0.15509507673E+03 -0.35642000704E+02  0.24112323681E+03  0.50400001928E-02 0.  1.
</event>
<event>
 5   0  0.5072205E-03  0.9633006E+03  0.7818609E-02  0.9349738E-01
       -1   -1    0    0    0  501  0.00000000000E+00  0.00000000000E+00  0.62742440960E+03  0.62742440962E+03  0.50400001928E-02 0.  1.
        1   -1    0    0  501    0  0.00000000000E+00  0.00000000000E+00 -0.36974497647E+03  0.36974497651E+03  0.50400001928E-02 0. -1.
    10030    2    1    2    0    0  0.00000000000E+00  0.00000000000E+00  0.25767943313E+03  0.99716938612E+03  0.96330062512E+03 0.  0.
        5    1    3    3  502    0  0.42310453702E+03 -0.67727134284E+02 -0.98802378576E+02  0.43975949561E+03  0.46999998093E+01 0.  1.
       -5    1    3    3    0  502 -0.42310453702E+03  0.67727134284E+02  0.35648181170E+03  0.55740989051E+03  0.46999998093E+01 0. -1.
</event>
<event>
 5   0  0.5310275E-03  0.1000892E+04  0.7818609E-02  0.9307567E-01
        1   -1    0    0  501    0  0.00000000000E+00  0.00000000000E+00  0.19666056822E+04  0.19666056822E+04  0.50400001928E-02 0.  1.
       -1   -1    0    0    0  501  0.00000000000E+00  0.00000000000E+00 -0.12734948246E+03  0.12734948256E+03  0.50400001928E-02 0. -1.
    10030    2    1    2    0    0  0.00000000000E+00  0.00000000000E+00  0.18392561997E+04  0.20939551647E+04  0.10008920340E+04 0.  0.
        1    1    3    3  502    0 -0.58066086449E+02  0.24881912146E+02 -0.11897435914E+03  0.13470589484E+03  0.50400001928E-02 0. -1.
       -1    1    3    3    0  502  0.58066086449E+02 -0.24881912146E+02  0.19582305589E+04  0.19592492699E+04  0.50400001928E-02 0.  1.
</event>
<event>
 5   0  0.5310275E-03  0.9601714E+03  0.7818609E-02  0.9353340E-01
        1   -1    0    0  501    0  0.00000000000E+00  0.00000000000E+00  0.19224363631E+03  0.19224363637E+03  0.50400001928E-02 0.  1.
       -1   -1    0    0    0  501  0.00000000000E+00  0.00000000000E+00 -0.11989072411E+04  0.11989072411E+04  0.50400001928E-02 0. -1.
    10030    2    1    2    0    0  0.00000000000E+00  0.00000000000E+00 -0.10066636048E+04  0.13911508774E+04  0.96017141734E+03 0.  0.
        1    1    3    3  502    0 -0.10826227804E+03 -0.44678307842E+03 -0.30285248980E+03  0.55050474168E+03  0.50400001928E-02 0.  1.
       -1    1    3    3    0  502  0.10826227804E+03  0.44678307842E+03 -0.70381111496E+03  0.84064613576E+03  0.50400001928E-02 0. -1.
</event>
<event>
 5   0  0.5349685E-03  0.1010352E+04  0.7818609E-02  0.9297263E-01
       -1   -1    0    0    0  501  0.00000000000E+00  0.00000000000E+00  0.34648638185E+03  0.34648638189E+03  0.50400001928E-02 0.  1.
        1   -1    0    0  501    0  0.00000000000E+00  0.00000000000E+00 -0.73654486665E+03  0.73654486667E+03  0.50400001928E-02 0. -1.
    10030    2    1    2    0    0  0.00000000000E+00  0.00000000000E+00 -0.39005848480E+03  0.10830312486E+04  0.10103519505E+04 0.  0.
        4    1    3    3  502    0 -0.19176668416E+03 -0.42186953373E+03  0.20567668879E+02  0.46386744501E+03  0.12699999809E+01 0.  1.
       -4    1    3    3    0  502  0.19176668416E+03  0.42186953373E+03 -0.41062615368E+03  0.61916380355E+03  0.12699999809E+01 0. -1.
</event>
<event>
 5   0  0.8875655E-03  0.9926123E+03  0.7818609E-02  0.9316685E-01
       -2   -1    0    0    0  501  0.00000000000E+00  0.00000000000E+00  0.38351384901E+03  0.38351384902E+03  0.25500000920E-02 0. -1.
        2   -1    0    0  501    0  0.00000000000E+00  0.00000000000E+00 -0.64227090252E+03  0.64227090252E+03  0.25500000920E-02 0.  1.
    10030    2    1    2    0    0  0.00000000000E+00  0.00000000000E+00 -0.25875705350E+03  0.10257847515E+04  0.99261228270E+03 0.  0.
        4    1    3    3  502    0  0.37016058129E+03 -0.29713736720E+03  0.20409191651E+02  0.47510800765E+03  0.12699999809E+01 0. -1.
       -4    1    3    3    0  502 -0.37016058129E+03  0.29713736720E+03 -0.27916624515E+03  0.55067674389E+03  0.12699999809E+01 0.  1.
</event>
<event>
 5   0  0.9040674E-03  0.9575630E+03  0.7818609E-02  0.9356354E-01
        2   -1    0    0  501    0  0.00000000000E+00  0.00000000000E+00  0.96663853815E+03  0.96663853815E+03  0.25500000920E-02 0. -1.
       -2   -1    0    0    0  501  0.00000000000E+00  0.00000000000E+00 -0.23714317134E+03  0.23714317135E+03  0.25500000920E-02 0.  1.
    10030    2    1    2    0    0  0.00000000000E+00  0.00000000000E+00  0.72949536681E+03  0.12037817095E+04  0.95756300782E+03 0.  0.
        1    1    3    3  502    0  0.18778299724E+03 -0.14037682009E+03  0.88953550638E+03  0.91991386706E+03  0.50400001928E-02 0. -1.
       -1    1    3    3    0  502 -0.18778299724E+03  0.14037682009E+03 -0.16004013957E+03  0.28386784244E+03  0.50400001928E-02 0.  1.
</event>
<event>
 5   0  0.5349685E-03  0.9843428E+03  0.7818609E-02  0.9325886E-01
       -1   -1    0    0    0  501  0.00000000000E+00  0.00000000000E+00  0.40501561240E+03  0.40501561243E+03  0.50400001928E-02 0. -1.
        1   -1    0    0  501    0  0.00000000000E+00  0.00000000000E+00 -0.59808232081E+03  0.59808232083E+03  0.50400001928E-02 0.  1.
    10030    2    1    2    0    0  0.00000000000E+00  0.00000000000E+00 -0.19306670841E+03  0.10030979333E+04  0.98434278065E+03 0.  0.
        4    1    3    3  502    0  0.25384540528E+03  0.19492908951E+03 -0.47755065577E+03  0.57488353729E+03  0.12699999809E+01 0.  1.
       -4    1    3    3    0  502 -0.25384540528E+03 -0.19492908951E+03  0.28448394736E+03  0.42821439598E+03  0.12699999809E+01 0. -1.
</event>
<event>
 5   0  0.8907355E-03  0.9943649E+03  0.7818609E-02  0.9314747E-01
       -2   -1    0    0    0  501  0.00000000000E+00  0.00000000000E+00  0.30456851120E+03  0.30456851121E+03  0.25500000920E-02 0. -1.
        2   -1    0    0  501    0  0.00000000000E+00  0.00000000000E+00 -0.81160844299E+03  0.81160844299E+03  0.25500000920E-02 0.  1.
    10030    2    1    2    0    0  0.00000000000E+00  0.00000000000E+00 -0.50703993179E+03  0.11161769542E+04  0.99436487300E+03 0.  0.
        5    1    3    3  502    0 -0.47677420262E+03 -0.40419806669E+02 -0.10199925463E+03  0.48925794730E+03  0.46999998093E+01 0.  1.
       -5    1    3    3    0  502  0.47677420262E+03  0.40419806669E+02 -0.40504067716E+03  0.62691900690E+03  0.46999998093E+01 0. -1.
</event>
<event>
 5   0  0.9243773E-03  0.9782548E+03  0.7818609E-02  0.9332721E-01
        2   -1    0    0  501    0  0.00000000000E+00  0.00000000000E+00  0.10639444276E+04  0.10639444276E+04  0.25500000920E-02 0. -1.
       -2   -1    0    0    0  501  0.00000000000E+00  0.00000000000E+00 -0.22486663923E+03  0.22486663924E+03  0.25500000920E-02 0.  1.
    10030    2    1    2    0    0  0.00000000000E+00  0.00000000000E+00  0.83907778833E+03  0.12888110668E+04  0.97825478841E+03 0.  0.
        3    1    3    3  502    0  0.48131033798E+03  0.51141478005E+02  0.51242217493E+03  0.70487700188E+03  0.10100000352E+00 0. -1.
       -3    1    3    3    0  502 -0.48131033798E+03 -0.51141478005E+02  0.32665561339E+03  0.58393406492E+03  0.10100000352E+00 0.  1.
</event>
<event>
 5   0  0.8875655E-03  0.9690049E+03  0.7818609E-02  0.9343209E-01
       -2   -1    0    0    0  501  0.00000000000E+00  0.00000000000E+00  0.66538920431E+03  0.66538920431E+03  0.25500000920E-02 0.  1.
        2   -1    0    0  501    0  0.00000000000E+00  0.00000000000E+00 -0.35278995794E+03  0.35278995795E+03  0.25500000920E-02 0. -1.
    10030    2    1    2    0    0  0.00000000000E+00  0.00000000000E+00  0.31259924637E+03  0.10181791623E+04  0.96900491104E+03 0.  0.
        4    1    3    3  502    0 -0.41260637806E+03  0.11437056591E+03 -0.81959160129E+02  0.43593986557E+03  0.12699999809E+01 0. -1.
       -4    1    3    3    0  502  0.41260637806E+03 -0.11437056591E+03  0.39455840650E+03  0.58223929668E+03  0.12699999809E+01 0.  1.
</event>
<event>
 5   0  0.8968798E-03  0.1000000E+04  0.7818609E-02  0.9308545E-01
       -2   -1    0    0    0  501  0.00000000000E+00  0.00000000000E+00  0.63535168470E+03  0.63535168470E+03  0.25500000920E-02 0. -1.
        2   -1    0    0  501    0  0.00000000000E+00  0.00000000000E+00 -0.39348294011E+03  0.39348294011E+03  0.25500000920E-02 0.  1.
    10030    2    1    2    0    0  0.00000000000E+00  0.00000000000E+00  0.24186874459E+03  0.10288346248E+04  0.10000000978E+04 0.  0.
        2    1    3    3  502    0  0.23087829525E+03  0.38078799820E+03 -0.11298866827E+03  0.45942434193E+03  0.25500000920E-02 0.  1.
       -2    1    3    3    0  502 -0.23087829525E+03 -0.38078799820E+03  0.35485741287E+03  0.56941028289E+03  0.25500000920E-02 0. -1.
</event>
<event>
 5   0  0.8968798E-03  0.9872523E+03  0.7818609E-02  0.9322638E-01
        2   -1    0    0  501    0  0.00000000000E+00  0.00000000000E+00  0.12468997887E+04  0.12468997887E+04  0.25500000920E-02 0.  1.
       -2   -1    0    0    0  501  0.00000000000E+00  0.00000000000E+00 -0.19541807297E+03  0.19541807299E+03  0.25500000920E-02 0. -1.
    10030    2    1    2    0    0  0.00000000000E+00  0.00000000000E+00  0.10514817158E+04  0.14423178617E+04  0.98725225533E+03 0.  0.
        2    1    3    3  502    0 -0.29962346097E+03  0.33107399160E+03  0.21830880397E+03  0.49703414387E+03  0.25500000920E-02 0. -1.
       -2    1    3    3    0  502  0.29962346097E+03 -0.33107399160E+03  0.83317291179E+03  0.94528371785E+03  0.25500000920E-02 0.  1.
</event>
<event>
 5   0  0.8968798E-03  0.1000878E+04  0.7818609E-02  0.9307583E-01
        2   -1    0    0  501    0  0.00000000000E+00  0.00000000000E+00  0.53636670212E+03  0.53636670212E+03  0.25500000920E-02 0. -1.
       -2   -1    0    0    0  501  0.00000000000E+00  0.00000000000E+00 -0.46691765020E+03  0.46691765021E+03  0.25500000920E-02 0.  1.
    10030    2    1    2    0    0  0.00000000000E+00  0.00000000000E+00  0.69449051919E+02  0.10032843523E+04  0.10008777752E+04 0.  0.
        2    1    3    3  502    0  0.22353052389E+03 -0.20311530472E+03 -0.36525540381E+03  0.47395488408E+03  0.25500000920E-02 0.  1.
       -2    1    3    3    0  502 -0.22353052389E+03  0.20311530472E+03  0.43470445573E+03  0.52932946825E+03  0.25500000920E-02 0. -1.
</event>
<event>
 5   0  0.9243773E-03  0.1001277E+04  0.7818609E-02  0.9307145E-01
        2   -1    0    0  501    0  0.00000000000E+00  0.00000000000E+00  0.41054037908E+03  0.41054037909E+03  0.25500000920E-02 0.  1.
       -2   -1    0    0    0  501  0.00000000000E+00  0.00000000000E+00 -0.61051012052E+03  0.61051012053E+03  0.25500000920E-02 0. -1.
    10030    2    1    2    0    0  0.00000000000E+00  0.00000000000E+00 -0.19996974144E+03  0.10210504996E+04  0.10012772969E+04 0.  0.
        3    1    3    3  502    0  0.22463165225E+02  0.17571673667E+03 -0.57748188165E+03  0.60404163695E+03  0.10100000352E+00 0. -1.
       -3    1    3    3    0  502 -0.22463165225E+02 -0.17571673667E+03  0.37751214021E+03  0.41700886266E+03  0.10100000352E+00 0.  1.
</event>
<event>
 5   0  0.8875655E-03  0.9968798E+03  0.7818609E-02  0.9311974E-01
       -2   -1    0    0    0  501  0.00000000000E+00  0.00000000000E+00  0.14447954436E+03  0.14447954439E+03  0.25500000920E-02 0. -1.
        2   -1    0    0  501    0  0.00000000000E+00  0.00000000000E+00 -0.17195676322E+04  0.17195676322E+04  0.25500000920E-02 0.  1.
    10030    2    1    2    0    0  0.00000000000E+00  0.00000000000E+00 -0.15750880879E+04  0.18640471766E+04  0.99687982833E+03 0.  0.
        4    1    3    3  502    0  0.11628776401E+03  0.41430743348E+03 -0.12578749757E+04  0.13294452079E+04  0.12699999809E+01 0.  1.
       -4    1    3    3    0  502 -0.11628776401E+03 -0.41430743348E+03 -0.31721311215E+03  0.53460196868E+03  0.12699999809E+01 0. -1.
</event>
<event>
 5   0  0.9040674E-03  0.9998976E+03  0.7818609E-02  0.9308657E-01
       -2   -1    0    0    0  501  0.00000000000E+00  0.00000000000E+00  0.14916063377E+03  0.14916063379E+03  0.25500000920E-02 0.  1.
        2   -1    0    0  501    0  0.00000000000E+00  0.00000000000E+00 -0.16757020788E+04  0.16757020788E+04  0.25500000920E-02 0. -1.
    10030    2    1    2    0    0  0.00000000000E+00  0.00000000000E+00 -0.15265414451E+04  0.18248627126E+04  0.99989756297E+03 0.  0.
        1    1    3    3  502    0 -0.20641936351E+03  0.18535918699E+03 -0.42128371258E+01  0.27746122225E+03  0.50400001928E-02 0.  1.
       -1    1    3    3    0  502  0.20641936351E+03 -0.18535918699E+03 -0.15223286079E+04  0.15474014904E+04  0.50400001928E-02 0. -1.
</event>
<event>
 5   0  0.5310275E-03  0.9873328E+03  0.7818609E-02  0.9322548E-01
       -1   -1    0    0    0  501  0.00000000000E+00  0.00000000000E+00  0.41915719071E+03  0.41915719074E+03  0.50400001928E-02 0.  1.
        1   -1    0    0  501    0  0.00000000000E+00  0.00000000000E+00 -0.58142028092E+03  0.58142028094E+03  0.50400001928E-02 0. -1.
    10030    2    1    2    0    0  0.00000000000E+00  0.00000000000E+00 -0.16226309021E+03  0.10005774717E+04  0.98733275363E+03 0.  0.
        1    1    3    3  502    0 -0.18756117007E+02 -0.45706476672E+02 -0.57890862281E+03  0.58101296675E+03  0.50400001928E-02 0. -1.
       -1    1    3    3    0  502  0.18756117007E+02  0.45706476672E+02  0.41664553260E+03  0.41956450493E+03  0.50400001928E-02 0.  1.
</event>
<event>
 5   0  0.5189877E-03  0.1004338E+04  0.7818609E-02  0.9303800E-01
        1   -1    0    0  501    0  0.00000000000E+00  0.00000000000E+00  0.57153674022E+03  0.57153674024E+03  0.50400001928E-02 0. -1.
       -1   -1    0    0    0  501  0.00000000000E+00  0.00000000000E+00 -0.44122051466E+03  0.44122051469E+03  0.50400001928E-02 0.  1.
    10030    2    1    2    0    0  0.00000000000E+00  0.00000000000E+00  0.13031622556E+03  0.10127572549E+04  0.10043380600E+04 0.  0.
        3    1    3    3  502    0 -0.36200730189E+03 -0.15404518655E+03 -0.24953895709E+03  0.46588507963E+03  0.10100000352E+00 0. -1.
       -3    1    3    3    0  502  0.36200730189E+03  0.15404518655E+03  0.37985518265E+03  0.54687217529E+03  0.10100000352E+00 0.  1.
</event>
<event>
 5   0  0.5310275E-03  0.1017960E+04  0.7818609E-02  0.9289063E-01
        1   -1    0    0  501    0  0.00000000000E+00  0.00000000000E+00  0.39501714511E+03  0.39501714515E+03  0.50400001928E-02 0. -1.
       -1   -1    0    0    0  501  0.00000000000E+00  0.00000000000E+00 -0.65582136778E+03  0.65582136779E+03  0.50400001928E-02 0.  1.
    10030    2    1    2    0    0  0.00000000000E+00  0.00000000000E+00 -0.26080422266E+03  0.10508385129E+04  0.10179600865E+04 0.  0.
        1    1    3    3  502    0 -0.96088990797E+01 -0.67915130693E+02  0.39022422004E+03  0.39620668577E+03  0.50400001928E-02 0. -1.
       -1    1    3    3    0  502  0.96088990797E+01  0.67915130693E+02 -0.65102844270E+03  0.65463182717E+03  0.50400001928E-02 0.  1.
</event>
<event>
 5   0  0.8875655E-03  0.1000420E+04  0.7818609E-02  0.9308084E-01
       -2   -1    0    0    0  501  0.00000000000E+00  0.00000000000E+00  0.28765236600E+03  0.28765236602E+03  0.25500000920E-02 0. -1.
        2   -1    0    0  501    0  0.00000000000E+00  0.00000000000E+00 -0.86983541737E+03  0.86983541738E+03  0.25500000920E-02 0.  1.
    10030    2    1    2    0    0  0.00000000000E+00  0.00000000000E+00 -0.58218305137E+03  0.11574877834E+04  0.10004203434E+04 0.  0.
        4    1    3    3  502    0 -0.40546094736E+03 -0.27361727160E+03 -0.17005561533E+03  0.51786631128E+03  0.12699999809E+01 0.  1.
       -4    1    3    3    0  502  0.40546094736E+03  0.27361727160E+03 -0.41212743604E+03  0.63962147212E+03  0.12699999809E+01 0. -1.
</event>
<event>
 5   0  0.8968798E-03  0.9940861E+03  0.7818609E-02  0.9315055E-01
        2   -1    0    0  501    0  0.00000000000E+00  0.00000000000E+00  0.40700799484E+03  0.40700799484E+03  0.25500000920E-02 0. -1.
       -2   -1    0    0    0  501  0.00000000000E+00  0.00000000000E+00 -0.60699488449E+03  0.60699488450E+03  0.25500000920E-02 0.  1.
    10030    2    1    2    0    0  0.00000000000E+00  0.00000000000E+00 -0.19998688966E+03  0.10140028793E+04  0.99408605426E+03 0.  0.
        2    1    3    3  502    0  0.86628322668E+02  0.40044891639E+03 -0.38703502461E+03  0.56361326387E+03  0.25500000920E-02 0.  1.
       -2    1    3    3    0  502 -0.86628322668E+02 -0.40044891639E+03  0.18704813495E+03  0.45038961547E+03  0.25500000920E-02 0. -1.
</event>
<event>
 5   0  0.8968798E-03  0.9819017E+03  0.7818609E-02  0.9328620E-01
       -2   -1    0    0    0  501  0.00000000000E+00  0.00000000000E+00  0.18542264520E+03  0.18542264522E+03  0.25500000920E-02 0. -1.
        2   -1    0    0  501    0  0.00000000000E+00  0.00000000000E+00 -0.12999100158E+04  0.12999100158E+04  0.25500000920E-02 0.  1.
    10030    2    1    2    0    0  0.00000000000E+00  0.00000000000E+00 -0.11144873706E+04  0.14853326610E+04  0.98190173370E+03 0.  0.
        2    1    3    3  502    0  0.22846550247E+03  0.43202091068E+03 -0.62810249711E+03  0.79583371377E+03  0.25500000920E-02 0.  1.
       -2    1    3    3    0  502 -0.22846550247E+03 -0.43202091068E+03 -0.48638487345E+03  0.68949894722E+03  0.25500000920E-02 0. -1.
</event>
<event>
 5   0  0.9040674E-03  0.1002719E+04  0.7818609E-02  0.9305568E-01
        2   -1    0    0  501    0  0.00000000000E+00  0.00000000000E+00  0.42260109679E+03  0.42260109680E+03  0.25500000920E-02 0.  1.
       -2   -1    0    0    0  501  0.00000000000E+00  0.00000000000E+00 -0.59479567528E+03  0.59479567529E+03  0.25500000920E-02 0. -1.
    10030    2    1    2    0    0  0.00000000000E+00  0.00000000000E+00 -0.17219457850E+03  0.10173967721E+04  0.10027189132E+04 0.  0.
        1    1    3    3  502    0  0.45207441666E+03 -0.10171470806E+03  0.10813142864E+03  0.47582514217E+03  0.50400001928E-02 0.  1.
       -1    1    3    3    0  502 -0.45207441666E+03  0.10171470806E+03 -0.28032600713E+03  0.54157162992E+03  0.50400001928E-02 0. -1.
</event>
<event>
 5   0  0.8907355E-03  0.7619157E+03  0.7818609E-02  0.9616840E-01
        2   -1    0    0  501    0  0.00000000000E+00  0.00000000000E+00  0.77071367078E+03  0.77071367078E+03  0.25500000920E-02 0.  1.
       -2   -1    0    0    0  501  0.00000000000E+00  0.00000000000E+00 -0.18830453473E+03  0.18830453475E+03  0.25500000920E-02 0. -1.
    10030    2    1    2    0    0  0.00000000000E+00  0.00000000000E+00  0.58240913605E+03  0.95901820553E+03  0.76191568877E+03 0.  0.
        5    1    3    3  502    0 -0.29351924955E+03 -0.16593225697E+03  0.51431564275E+03  0.61500384887E+03  0.46999998093E+01 0.  1.
       -5    1    3    3    0  502  0.29351924955E+03  0.16593225697E+03  0.68093493299E+02  0.34401435666E+03  0.46999998093E+01 0. -1.
</event>
<event>
 5   0  0.5201968E-03  0.9927439E+03  0.7818609E-02  0.9316539E-01
        1   -1    0    0  501    0  0.00000000000E+00  0.00000000000E+00  0.53593428640E+03  0.53593428642E+03  0.50400001928E-02 0. -1.
       -1   -1    0    0    0  501  0.00000000000E+00  0.00000000000E+00 -0.45973004888E+03  0.45973004891E+03  0.50400001928E-02 0.  1.
    10030    2    1    2    0    0  0.00000000000E+00  0.00000000000E+00  0.76204237521E+02  0.99566433533E+03  0.99274386567E+03 0.  0.
        2    1    3    3  502    0  0.14010055005E+03 -0.13423498424E+02  0.51550320404E+03  0.53437057163E+03  0.25500000920E-02 0. -1.
       -2    1    3    3    0  502 -0.14010055005E+03  0.13423498424E+02 -0.43929896652E+03  0.46129376370E+03  0.25500000920E-02 0.  1.
</event>
<event>
 5   0  0.5189877E-03  0.1010057E+04  0.7818609E-02  0.9297583E-01
       -1   -1    0    0    0  501  0.00000000000E+00  0.00000000000E+00  0.10351014853E+03  0.10351014865E+03  0.50400001928E-02 0.  1.
        1   -1    0    0  501    0  0.00000000000E+00  0.00000000000E+00 -0.24640470123E+04  0.24640470123E+04  0.50400001928E-02 0. -1.
    10030    2    1    2    0    0  0.00000000000E+00  0.00000000000E+00 -0.23605368637E+04  0.25675571609E+04  0.10100571714E+04 0.  0.
        3    1    3    3  502    0 -0.25658540583E+03  0.52026769550E+02 -0.82460415153E+02  0.27448603881E+03  0.10100000352E+00 0.  1.
       -3    1    3    3    0  502  0.25658540583E+03 -0.52026769550E+02 -0.22780764486E+04  0.22930711221E+04  0.10100000352E+00 0. -1.
</event>
<event>
 5   0  0.5310275E-03  0.1009143E+04  0.7818609E-02  0.9298574E-01
       -1   -1    0    0    0  501  0.00000000000E+00  0.00000000000E+00  0.42591766012E+03  0.42591766015E+03  0.50400001928E-02 0. -1.
        1   -1    0    0  501    0  0.00000000000E+00  0.00000000000E+00 -0.59774988188E+03  0.59774988190E+03  0.50400001928E-02 0.  1.
    10030    2    1    2    0    0  0.00000000000E+00  0.00000000000E+00 -0.17183222177E+03  0.10236675421E+04  0.10091426679E+04 0.  0.
        1    1    3    3  502    0 -0.41926889550E+02 -0.27563836875E+03  0.34068162161E+03  0.44022533063E+03  0.50400001928E-02 0. -1.
       -1    1    3    3    0  502  0.41926889550E+02  0.27563836875E+03 -0.51251384338E+03  0.58344221143E+03  0.50400001928E-02 0.  1.
</event>
<event>
 5   0  0.5201968E-03  0.1007138E+04  0.7818609E-02  0.9300750E-01
       -1   -1    0    0    0  501  0.00000000000E+00  0.00000000000E+00  0.35036085477E+03  0.35036085480E+03  0.50400001928E-02 0. -1.
        1   -1    0    0  501    0  0.00000000000E+00  0.00000000000E+00 -0.72377367191E+03  0.72377367193E+03  0.50400001928E-02 0.  1.
    10030    2    1    2    0    0  0.00000000000E+00  0.00000000000E+00 -0.37341281714E+03  0.10741345267E+04  0.10071384460E+04 0.  0.
        2    1    3    3  502    0 -0.16827331183E+03  0.20258229117E+03 -0.64447450033E+03  0.69620605696E+03  0.25500000920E-02 0.  1.
       -2    1    3    3    0  502  0.16827331183E+03 -0.20258229117E+03  0.27106168318E+03  0.37792846977E+03  0.25500000920E-02 0. -1.
</event>
<event>
 5   0  0.9243773E-03  0.9991152E+03  0.7818609E-02  0.9309516E-01
        2   -1    0    0  501    0  0.00000000000E+00  0.00000000000E+00  0.64376409690E+03  0.64376409690E+03  0.25500000920E-02 0. -1.
       -2   -1    0    0    0  501  0.00000000000E+00  0.00000000000E+00 -0.38765412385E+03  0.38765412386E+03  0.25500000920E-02 0.  1.
    10030    2    1    2    0    0  0.00000000000E+00  0.00000000000E+00  0.25610997305E+03  0.10314182208E+04  0.99911522249E+03 0.  0.
        3    1    3    3  502    0 -0.43238367174E+03 -0.24131972357E+03  0.19627444110E+03  0.53264858490E+03  0.10100000352E+00 0. -1.
       -3    1    3    3    0  502  0.43238367174E+03  0.24131972357E+03  0.59835531949E+02  0.49876963586E+03  0.10100000352E+00 0.  1.
</event>
<event>
 5   0  0.5201968E-03  0.9937322E+03  0.7818609E-02  0.9315446E-01
       -1   -1    0    0    0  501  0.00000000000E+00  0.00000000000E+00  0.22155674476E+03  0.22155674481E+03  0.50400001928E-02 0.  1.
        1   -1    0    0  501    0  0.00000000000E+00  0.00000000000E+00 -0.11142784517E+04  0.11142784517E+04  0.50400001928E-02 0. -1.
    10030    2    1    2    0    0  0.00000000000E+00  0.00000000000E+00 -0.89272170691E+03  0.13358351965E+04  0.99373217025E+03 0.  0.
        2    1    3    3  502    0  0.42449192796E+03 -0.18208328822E+03 -0.69250446001E+03  0.83241224636E+03  0.25500000920E-02 0. -1.
       -2    1    3    3    0  502 -0.42449192796E+03  0.18208328822E+03 -0.20021724689E+03  0.50342295012E+03  0.25500000920E-02 0.  1.
</event>
<event>
 5   0  0.8907355E-03  0.9970487E+03  0.7818609E-02  0.9311788E-01
       -2   -1    0    0    0  501  0.00000000000E+00  0.00000000000E+00  0.17225951694E+03  0.17225951696E+03  0.25500000920E-02 0. -1.
        2   -1    0    0  501    0  0.00000000000E+00  0.00000000000E+00 -0.14427448216E+04  0.14427448216E+04  0.25500000920E-02 0.  1.
    10030    2    1    2    0    0  0.00000000000E+00  0.00000000000E+00 -0.12704853047E+04  0.16150043386E+04  0.99704869700E+03 0.  0.
        5    1    3    3  502    0 -0.35955160820E+02 -0.85464393345E+02 -0.14286189754E+04  0.14316323561E+04  0.46999998093E+01 0.  1.
       -5    1    3    3    0  502  0.35955160820E+02  0.85464393345E+02  0.15813367076E+03  0.18337198245E+03  0.46999998093E+01 0. -1.
</event>
<event>
 5   0  0.8875655E-03  0.1003966E+04  0.7818609E-02  0.9304206E-01
       -2   -1    0    0    0  501  0.00000000000E+00  0.00000000000E+00  0.23489156408E+03  0.23489156409E+03  0.25500000920E-02 0. -1.
        2   -1    0    0  501    0  0.00000000000E+00  0.00000000000E+00 -0.10727797054E+04  0.10727797054E+04  0.25500000920E-02 0.  1.
    10030    2    1    2    0    0  0.00000000000E+00  0.00000000000E+00 -0.83788814130E+03  0.13076712695E+04  0.10039659415E+04 0.  0.
        4    1    3    3  502    0 -0.34856660158E+03 -0.25567936549E+03 -0.75131194923E+03  0.86679978752E+03  0.12699999809E+01 0. -1.
       -4    1    3    3    0  502  0.34856660158E+03  0.25567936549E+03 -0.86576192070E+02  0.44087148197E+03  0.12699999809E+01 0.  1.
</event>
<event>
 5   0  0.5072205E-03  0.9720766E+03  0.7818609E-02  0.9339712E-01
       -1   -1    0    0    0  501  0.00000000000E+00  0.00000000000E+00  0.58878352475E+03  0.58878352477E+03  0.50400001928E-02 0.  1.
        1   -1    0    0  501    0  0.00000000000E+00  0.00000000000E+00 -0.40122257725E+03  0.40122257728E+03  0.50400001928E-02 0. -1.
    10030    2    1    2    0    0  0.00000000000E+00  0.00000000000E+00  0.18756094750E+03  0.99000610205E+03  0.97207662922E+03 0.  0.
        5    1    3    3  502    0 -0.25178013536E+03 -0.36275282671E+03 -0.11301217754E+03  0.45582528684E+03  0.46999998093E+01 0. -1.
       -5    1    3    3    0  502  0.25178013536E+03  0.36275282671E+03  0.30057312504E+03  0.53418081521E+03  0.46999998093E+01 0.  1.
</event>
<event>
 5   0  0.5189877E-03  0.9950289E+03  0.7818609E-02  0.9314014E-01
       -1   -1    0    0    0  501  0.00000000000E+00  0.00000000000E+00  0.14444428052E+04  0.14444428052E+04  0.50400001928E-02 0. -1.
        1   -1    0    0  501    0  0.00000000000E+00  0.00000000000E+00 -0.17136064188E+03  0.17136064195E+03  0.50400001928E-02 0.  1.
    10030    2    1    2    0    0  0.00000000000E+00  0.00000000000E+00  0.12730821633E+04  0.16158034471E+04  0.99502893690E+03 0.  0.
        3    1    3    3  502    0  0.20629926928E+03  0.20510901162E+03 -0.18852351175E+02  0.29152103955E+03  0.10100000352E+00 0.  1.
       -3    1    3    3    0  502 -0.20629926928E+03 -0.20510901162E+03  0.12919345145E+04  0.13242824076E+04  0.10100000352E+00 0. -1.
</event>
<event>
 5   0  0.5349685E-03  0.8871418E+03  0.7818609E-02  0.9441799E-01
        1   -1    0    0  501    0  0.00000000000E+00  0.00000000000E+00  0.97135878295E+03  0.97135878297E+03  0.50400001928E-02 0. -1.
       -1   -1    0    0    0  501  0.00000000000E+00  0.00000000000E+00 -0.20255662219E+03  0.20255662225E+03  0.50400001928E-02 0.  1.
    10030    2    1    2    0    0  0.00000000000E+00  0.00000000000E+00  0.76880216076E+03  0.11739154052E+04  0.88714182419E+03 0.  0.
        4    1    3    3  502    0  0.15714482545E+03 -0.40749172353E+03  0.48698147639E+03  0.65413803754E+03  0.12699999809E+01 0. -1.
       -4    1    3    3    0  502 -0.15714482545E+03  0.40749172353E+03  0.28182068437E+03  0.51977736768E+03  0.12699999809E+01 0.  1.
</event>
<event>
 5   0  0.5072205E-03  0.9222047E+03  0.7818609E-02  0.9398242E-01
        1   -1    0    0  501    0  0.00000000000E+00  0.00000000000E+00  0.13378763205E+04  0.13378763205E+04  0.50400001928E-02 0. -1.
       -1   -1    0    0    0  501  0.00000000000E+00  0.00000000000E+00 -0.15892006986E+03  0.15892006994E+03  0.50400001928E-02 0.  1.
    10030    2    1    2    0    0  0.00000000000E+00  0.00000000000E+00  0.11789562506E+04  0.14967963905E+04  0.92220474601E+03 0.  0.
        5    1    3    3  502    0  0.82208837509E+02  0.84461144274E+02  0.13129735048E+04  0.13182615416E+04  0.46999998093E+01 0. -1.
       -5    1    3    3    0  502 -0.82208837509E+02 -0.84461144274E+02 -0.13401725412E+03  0.17853484886E+03  0.46999998093E+01 0.  1.
</event>
<event>
 5   0  0.8968798E-03  0.9941010E+03  0.7818609E-02  0.9315039E-01
       -2   -1    0    0    0  501  0.00000000000E+00  0.00000000000E+00  0.63475876229E+03  0.63475876229E+03  0.25500000920E-02 0.  1.
        2   -1    0    0  501    0  0.00000000000E+00  0.00000000000E+00 -0.38921744670E+03  0.38921744671E+03  0.25500000920E-02 0. -1.
    10030    2    1    2    0    0  0.00000000000E+00  0.00000000000E+00  0.24554131558E+03  0.10239762090E+04  0.99410097020E+03 0.  0.
        2    1    3    3  502    0 -0.14592569884E+03  0.27955025010E+03 -0.27298476003E+03  0.41708911653E+03  0.25500000920E-02 0. -1.
       -2    1    3    3    0  502  0.14592569884E+03 -0.27955025010E+03  0.51852607561E+03  0.60688709247E+03  0.25500000920E-02 0.  1.
</event>
<event>
 5   0  0.5201968E-03  0.9967367E+03  0.7818609E-02  0.9312131E-01
       -1   -1    0    0    0  501  0.00000000000E+00  0.00000000000E+00  0.13126401460E+04  0.13126401460E+04  0.50400001928E-02 0.  1.
        1   -1    0    0  501    0  0.00000000000E+00  0.00000000000E+00 -0.18921484145E+03  0.18921484152E+03  0.50400001928E-02 0. -1.
    10030    2    1    2    0    0  0.00000000000E+00  0.00000000000E+00  0.11234253045E+04  0.15018549875E+04  0.99673666967E+03 0.  0.
        2    1    3    3  502    0 -0.46130417540E+03 -0.52749302947E+02  0.28887884723E+03  0.54684094542E+03  0.25500000920E-02 0. -1.
       -2    1    3    3    0  502  0.46130417540E+03  0.52749302947E+02  0.83454645731E+03  0.95501404211E+03  0.25500000920E-02 0.  1.
</event>
<event>
 5   0  0.8907355E-03  0.1026377E+04  0.7818609E-02  0.9280079E-01
        2   -1    0    0  501    0  0.00000000000E+00  0.00000000000E+00  0.13013506378E+04  0.13013506378E+04  0.25500000920E-02 0.  1.
       -2   -1    0    0    0  501  0.00000000000E+00  0.00000000000E+00 -0.20237604648E+03  0.20237604649E+03  0.25500000920E-02 0. -1.
    10030    2    1    2    0    0  0.00000000000E+00  0.00000000000E+00  0.10989745913E+04  0.15037266843E+04  0.10263765336E+04 0.  0.
        5    1    3    3  502    0 -0.38556430881E+03 -0.33733482975E+03  0.59308387821E+03  0.78372520706E+03  0.46999998093E+01 0. -1.
       -5    1    3    3    0  502  0.38556430881E+03  0.33733482975E+03  0.50589071307E+03  0.72000147720E+03  0.46999998093E+01 0.  1.
</event>
<event>
 5   0  0.5310275E-03  0.9831331E+03  0.7818609E-02  0.9327240E-01
        1   -1    0    0  501    0  0.00000000000E+00  0.00000000000E+00  0.10075819338E+04  0.10075819339E+04  0.50400001928E-02 0.  1.
       -1   -1    0    0    0  501  0.00000000000E+00  0.00000000000E+00 -0.23981935837E+03  0.23981935842E+03  0.50400001928E-02 0. -1.
    10030    2    1    2    0    0  0.00000000000E+00  0.00000000000E+00  0.76776257548E+03  0.12474012923E+04  0.98313305898E+03 0.  0.
        1    1    3    3  502    0 -0.14247637139E+02 -0.18779037213E+03 -0.19222952825E+03  0.26911040594E+03  0.50400001928E-02 0. -1.
       -1    1    3    3    0  502  0.14247637139E+02  0.18779037213E+03  0.95999210373E+03  0.97829088633E+03  0.50400001928E-02 0.  1.
</event>
<event>
 5   0  0.9243773E-03  0.1002156E+04  0.7818609E-02  0.9306183E-01
       -2   -1    0    0    0  501  0.00000000000E+00  0.00000000000E+00  0.33584615842E+03  0.33584615843E+03  0.25500000920E-02 0.  1.
        2   -1    0    0  501    0  0.00000000000E+00  0.00000000000E+00 -0.74760144816E+03  0.74760144817E+03  0.25500000920E-02 0. -1.
    10030    2    1    2    0    0  0.00000000000E+00  0.00000000000E+00 -0.41175528974E+03  0.10834476066E+04  0.10021558250E+04 0.  0.
        3    1    3    3  502    0 -0.82878939433E+02  0.44173446070E+03 -0.44539033476E+03  0.63274861744E+03  0.10100000352E+00 0. -1.
       -3    1    3    3    0  502  0.82878939433E+02 -0.44173446070E+03  0.33635045018E+02  0.45069898916E+03  0.10100000352E+00 0.  1.
</event>
<event>
 5   0  0.8907355E-03  0.1013393E+04  0.7818609E-02  0.9293976E-01
       -2   -1    0    0    0  501  0.00000000000E+00  0.00000000000E+00  0.16049333149E+03  0.16049333151E+03  0.25500000920E-02 0.  1.
        2   -1    0    0  501    0  0.00000000000E+00  0.00000000000E+00 -0.15997015628E+04  0.15997015628E+04  0.25500000920E-02 0. -1.
    10030    2    1    2    0    0  0.00000000000E+00  0.00000000000E+00 -0.14392082314E+04  0.17601948944E+04  0.10133931778E+04 0.  0.
        5    1    3    3  502    0 -0.31535737174E+02  0.17768939071E+03 -0.15419479336E+04  0.15524798041E+04  0.46999998093E+01 0. -1.
       -5    1    3    3    0  502  0.31535737174E+02 -0.17768939071E+03  0.10273970225E+03  0.20771509022E+03  0.46999998093E+01 0.  1.
</event>
<event>
 5   0  0.8907355E-03  0.8742145E+03  0.7818609E-02  0.9458401E-01
        2   -1    0    0  501    0  0.00000000000E+00  0.00000000000E+00  0.50939004591E+03  0.50939004592E+03  0.25500000920E-02 0. -1.
       -2   -1    0    0    0  501  0.00000000000E+00  0.00000000000E+00 -0.37508140280E+03  0.37508140281E+03  0.25500000920E-02 0.  1.
    10030    2    1    2    0    0  0.00000000000E+00  0.00000000000E+00  0.13430864312E+03  0.88447144873E+03  0.87421446568E+03 0.  0.
        5    1    3    3  502    0  0.18668494964E+03 -0.19361778377E+03  0.41572751200E+03  0.49516721503E+03  0.46999998093E+01 0. -1.
       -5    1    3    3    0  502 -0.18668494964E+03  0.19361778377E+03 -0.28141886888E+03  0.38930423370E+03  0.46999998093E+01 0.  1.
</event>
<event>
 5   0  0.9243773E-03  0.1001902E+04  0.7818609E-02  0.9306461E-01
       -2   -1    0    0    0  501  0.00000000000E+00  0.00000000000E+00  0.16468650047E+03  0.16468650049E+03  0.25500000920E-02 0.  1.
        2   -1    0    0  501    0  0.00000000000E+00  0.00000000000E+00 -0.15238169298E+04  0.15238169298E+04  0.25500000920E-02 0. -1.
    10030    2    1    2    0    0  0.00000000000E+00  0.00000000000E+00 -0.13591304293E+04  0.16885034303E+04  0.10019023456E+04 0.  0.
        3    1    3    3  502    0  0.34961904201E+03  0.26768256583E+03 -0.27697790362E+03  0.52019630898E+03  0.10100000352E+00 0.  1.
       -3    1    3    3    0  502 -0.34961904201E+03 -0.26768256583E+03 -0.10821525257E+04  0.11683071213E+04  0.10100000352E+00 0. -1.
</event>
<event>
 5   0  0.5310275E-03  0.9993505E+03  0.7818609E-02  0.9309257E-01
        1   -1    0    0  501    0  0.00000000000E+00  0.00000000000E+00  0.64812304244E+03  0.64812304246E+03  0.50400001928E-02 0. -1.
       -1   -1    0    0    0  501  0.00000000000E+00  0.00000000000E+00 -0.38522832093E+03  0.38522832097E+03  0.50400001928E-02 0.  1.
    10030    2    1    2    0    0  0.00000000000E+00  0.00000000000E+00  0.26289472150E+03  0.10333513634E+04  0.99935049192E+03 0.  0.
        1    1    3    3  502    0 -0.18127596172E+02 -0.17698074008E+03 -0.35137001911E+03  0.39384220502E+03  0.50400001928E-02 0.  1.
       -1    1    3    3    0  502  0.18127596172E+02  0.17698074008E+03  0.61426474061E+03  0.63950915840E+03  0.50400001928E-02 0. -1.
</event>
<event>
 5   0  0.5201968E-03  0.1005756E+04  0.7818609E-02  0.9302254E-01
        1   -1    0    0  501    0  0.00000000000E+00  0.00000000000E+00  0.60101056727E+03  0.60101056729E+03  0.50400001928E-02 0.  1.
       -1   -1    0    0    0  501  0.00000000000E+00  0.00000000000E+00 -0.42076881832E+03  0.42076881835E+03  0.50400001928E-02 0. -1.
    10030    2    1    2    0    0  0.00000000000E+00  0.00000000000E+00  0.18024174895E+03  0.10217793856E+04  0.10057564441E+04 0.  0.
        2    1    3    3  502    0  0.44168012139E+03 -0.64188091875E+02 -0.14527077712E+03  0.46936663650E+03  0.25500000920E-02 0. -1.
       -2    1    3    3    0  502 -0.44168012139E+03  0.64188091875E+02  0.32551252607E+03  0.55241274914E+03  0.25500000920E-02 0.  1.
</event>
<event>
 5   0  0.5072205E-03  0.1034141E+04  0.7818609E-02  0.9271872E-01
       -1   -1    0    0    0  501  0.00000000000E+00  0.00000000000E+00  0.11197664347E+03  0.11197664358E+03  0.50400001928E-02 0. -1.
        1   -1    0    0  501    0  0.00000000000E+00  0.00000000000E+00 -0.23876578339E+04  0.23876578339E+04  0.50400001928E-02 0.  1.
    10030    2    1    2    0    0  0.00000000000E+00  0.00000000000E+00 -0.22756811905E+04  0.24996344775E+04  0.10341410158E+04 0.  0.
        5    1    3    3  502    0 -0.30986594327E+03  0.19765900268E+03 -0.20168648967E+04  0.20500858728E+04  0.46999998093E+01 0.  1.
       -5    1    3    3    0  502  0.30986594327E+03 -0.19765900268E+03 -0.25881629377E+03  0.44954860478E+03  0.46999998093E+01 0. -1.
</event>
<event>
 5   0  0.8968798E-03  0.9919130E+03  0.7818609E-02  0.9317459E-01
        2   -1    0    0  501    0  0.00000000000E+00  0.00000000000E+00  0.66476835640E+03  0.66476835640E+03  0.25500000920E-02 0. -1.
       -2   -1    0    0    0  501  0.00000000000E+00  0.00000000000E+00 -0.37001290989E+03  0.37001290990E+03  0.25500000920E-02 0.  1.
    10030    2    1    2    0    0  0.00000000000E+00  0.00000000000E+00  0.29475544651E+03  0.10347812663E+04  0.99191304852E+03 0.  0.
        2    1    3    3  502    0  0.54635851138E+01  0.14916143175E+03 -0.34602553790E+03  0.37684566651E+03  0.25500000920E-02 0.  1.
       -2    1    3    3    0  502 -0.54635851138E+01 -0.14916143175E+03  0.64078098441E+03  0.65793559979E+03  0.25500000920E-02 0. -1.
</event>
<event>
 5   0  0.5189877E-03  0.1000599E+04  0.7818609E-02  0.9307889E-01
       -1   -1    0    0    0  501  0.00000000000E+00  0.00000000000E+00  0.14359379435E+03  0.14359379444E+03  0.50400001928E-02 0.  1.
        1   -1    0    0  501    0  0.00000000000E+00  0.00000000000E+00 -0.17431070445E+04  0.17431070445E+04  0.50400001928E-02 0. -1.
    10030    2    1    2    0    0  0.00000000000E+00  0.00000000000E+00 -0.15995132501E+04  0.18867008389E+04  0.10005985300E+04 0.  0.
        3    1    3    3  502    0  0.35316584223E+03  0.29921394064E+03 -0.11577386155E+04  0.12468415322E+04  0.10100000352E+00 0.  1.
       -3    1    3    3    0  502 -0.35316584223E+03 -0.29921394064E+03 -0.44177463458E+03  0.63985930669E+03  0.10100000352E+00 0. -1.
</event>
<event>
 5   0  0.5349685E-03  0.9994967E+03  0.7818609E-02  0.9309097E-01
       -1   -1    0    0    0  501  0.00000000000E+00  0.00000000000E+00  0.64394515326E+03  0.64394515328E+03  0.50400001928E-02 0.  1.
        1   -1    0    0  501    0  0.00000000000E+00  0.00000000000E+00 -0.38784112467E+03  0.38784112470E+03  0.50400001928E-02 0. -1.
    10030    2    1    2    0    0  0.00000000000E+00  0.00000000000E+00  0.25610402859E+03  0.10317862780E+04  0.99949669832E+03 0.  0.
        4    1    3    3  502    0  0.26480777664E+03 -0.37455486873E+03 -0.76678702790E+02  0.46507606326E+03  0.12699999809E+01 0. -1.
       -4    1    3    3    0  502 -0.26480777664E+03  0.37455486873E+03  0.33278273138E+03  0.56671021472E+03  0.12699999809E+01 0.  1.
</event>
<event>
 5   0  0.8875655E-03  0.1008555E+04  0.7818609E-02  0.9299212E-01
        2   -1    0    0  501    0  0.00000000000E+00  0.00000000000E+00  0.44737015566E+03  0.44737015567E+03  0.25500000920E-02 0. -1.
       -2   -1    0    0    0  501  0.00000000000E+00  0.00000000000E+00 -0.56842321724E+03  0.56842321724E+03  0.25500000920E-02 0.  1.
    10030    2    1    2    0    0  0.00000000000E+00  0.00000000000E+00 -0.12105306157E+03  0.10157933729E+04  0.10085545760E+04 0.  0.
        4    1    3    3  502    0  0.48747135029E+03 -0.11159403008E+03  0.48425053830E+01  0.50010659630E+03  0.12699999809E+01 0. -1.
       -4    1    3    3    0  502 -0.48747135029E+03  0.11159403008E+03 -0.12589556695E+03  0.51568677662E+03  0.12699999809E+01 0.  1.
</event>
<event>
 5   0  0.3513625E-03  0.9777875E+03  0.7818609E-02  0.9333248E-01
       -3   -1    0    0    0  501  0.00000000000E+00  0.00000000000E+00  0.62858962835E+03  0.62858963646E+03  0.10100000352E+00 0.  1.
        3   -1    0    0  501    0  0.00000000000E+00  0.00000000000E+00 -0.38024348558E+03  0.38024349900E+03  0.10100000352E+00 0. -1.
    10030    2    1    2    0    0  0.00000000000E+00  0.00000000000E+00  0.24834614277E+03  0.10088331355E+04  0.97778754777E+03 0.  0.
        1    1    3    3  502    0 -0.14189317908E+03 -0.30791658834E+03  0.48759377659E+03  0.59388045147E+03  0.50400001928E-02 0.  1.
       -1    1    3    3    0  502  0.14189317908E+03  0.30791658834E+03 -0.23924763382E+03  0.41495268400E+03  0.50400001928E-02 0. -1.
</event>
<event>
 5   0  0.5349685E-03  0.1011083E+04  0.7818609E-02  0.9296472E-01
       -1   -1    0    0    0  501  0.00000000000E+00  0.00000000000E+00  0.65664876681E+03  0.65664876683E+03  0.50400001928E-02 0.  1.
        1   -1    0    0  501    0  0.00000000000E+00  0.00000000000E+00 -0.38920698637E+03  0.38920698640E+03  0.50400001928E-02 0. -1.
    10030    2    1    2    0    0  0.00000000000E+00  0.00000000000E+00  0.26744178044E+03  0.10458557532E+04  0.10110831571E+04 0.  0.
        4    1    3    3  502    0 -0.59556742646E+02 -0.20852209229E+03 -0.33864866143E+03  0.40213554600E+03  0.12699999809E+01 0. -1.
       -4    1    3    3    0  502  0.59556742646E+02  0.20852209229E+03  0.60609044187E+03  0.64372020723E+03  0.12699999809E+01 0.  1.
</event>
<event>
 5   0  0.5349685E-03  0.8869549E+03  0.7818609E-02  0.9442037E-01
        1   -1    0    0  501    0  0.00000000000E+00  0.00000000000E+00  0.41836417033E+03  0.41836417036E+03  0.50400001928E-02 0.  1.
       -1   -1    0    0    0  501  0.00000000000E+00  0.00000000000E+00 -0.47009816935E+03  0.47009816937E+03  0.50400001928E-02 0. -1.
    10030    2    1    2    0    0  0.00000000000E+00  0.00000000000E+00 -0.51733999012E+02  0.88846233974E+03  0.88695485932E+03 0.  0.
        4    1    3    3  502    0 -0.35285627889E+03  0.25650536667E+03  0.54068761684E+02  0.43957661513E+03  0.12699999809E+01 0.  1.
       -4    1    3    3    0  502  0.35285627889E+03 -0.25650536667E+03 -0.10580276070E+03  0.44888572460E+03  0.12699999809E+01 0. -1.
</event>
<event>
 5   0  0.5310275E-03  0.9921409E+03  0.7818609E-02  0.9317207E-01
        1   -1    0    0  501    0  0.00000000000E+00  0.00000000000E+00  0.98500616347E+03  0.98500616349E+03  0.50400001928E-02 0. -1.
       -1   -1    0    0    0  501  0.00000000000E+00  0.00000000000E+00 -0.24983180623E+03  0.24983180628E+03  0.50400001928E-02 0.  1.
    10030    2    1    2    0    0  0.00000000000E+00  0.00000000000E+00  0.73517435724E+03  0.12348379698E+04  0.99214085494E+03 0.  0.
        1    1    3    3  502    0  0.12693878674E+02 -0.49014309290E+03  0.46142590918E+03  0.67328690450E+03  0.50400001928E-02 0. -1.
       -1    1    3    3    0  502 -0.12693878674E+02  0.49014309290E+03  0.27374844805E+03  0.56155106527E+03  0.50400001928E-02 0.  1.
</event>
<event>
 5   0  0.9040674E-03  0.9922593E+03  0.7818609E-02  0.9317076E-01
       -2   -1    0    0    0  501  0.00000000000E+00  0.00000000000E+00  0.47991866161E+03  0.47991866162E+03  0.25500000920E-02 0.  1.
        2   -1    0    0  501    0  0.00000000000E+00  0.00000000000E+00 -0.51288822816E+03  0.51288822817E+03  0.25500000920E-02 0. -1.
    10030    2    1    2    0    0  0.00000000000E+00  0.00000000000E+00 -0.32969566548E+02  0.99280688979E+03  0.99225930486E+03 0.  0.
        1    1    3    3  502    0  0.12450472478E+03 -0.37987035145E+03  0.27751699291E+03  0.48664010499E+03  0.50400001928E-02 0.  1.
       -1    1    3    3    0  502 -0.12450472478E+03  0.37987035145E+03 -0.31048655946E+03  0.50616678480E+03  0.50400001928E-02 0. -1.
</event>
<event>
 5   0  0.5189877E-03  0.1001393E+04  0.7818609E-02  0.9307018E-01
        1   -1    0    0  501    0  0.00000000000E+00  0.00000000000E+00  0.74709231551E+03  0.74709231552E+03  0.50400001928E-02 0. -1.
       -1   -1    0    0    0  501  0.00000000000E+00  0.00000000000E+00 -0.33556383510E+03  0.33556383514E+03  0.50400001928E-02 0.  1.
    10030    2    1    2    0    0  0.00000000000E+00  0.00000000000E+00  0.41152848041E+03  0.10826561507E+04  0.10013933545E+04 0.  0.
        3    1    3    3  502    0  0.25109925715E+03  0.36107783097E+03 -0.52965337766E+02  0.44298236327E+03  0.10100000352E+00 0.  1.
       -3    1    3    3    0  502 -0.25109925715E+03 -0.36107783097E+03  0.46449381817E+03  0.63967378739E+03  0.10100000352E+00 0. -1.
</event>
<event>
 5   0  0.8968798E-03  0.1009283E+04  0.7818609E-02  0.9298422E-01
        2   -1    0    0  501    0  0.00000000000E+00  0.00000000000E+00  0.17473885054E+04  0.17473885054E+04  0.25500000920E-02 0. -1.
       -2   -1    0    0    0  501  0.00000000000E+00  0.00000000000E+00 -0.14573910263E+03  0.14573910265E+03  0.25500000920E-02 0.  1.
    10030    2    1    2    0    0  0.00000000000E+00  0.00000000000E+00  0.16016494028E+04  0.18931276081E+04  0.10092825823E+04 0.  0.
        2    1    3    3  502    0  0.33542693224E+03 -0.10996965299E+03  0.14772753472E+04  0.15188637210E+04  0.25500000920E-02 0. -1.
       -2    1    3    3    0  502 -0.33542693224E+03  0.10996965299E+03  0.12437405556E+03  0.37426388706E+03  0.25500000920E-02 0.  1.
</event>
<event>
 5   0  0.9243773E-03  0.9704453E+03  0.7818609E-02  0.9341567E-01
       -2   -1    0    0    0  501  0.00000000000E+00  0.00000000000E+00  0.28474678245E+03  0.28474678247E+03  0.25500000920E-02 0.  1.
        2   -1    0    0  501    0  0.00000000000E+00  0.00000000000E+00 -0.82684344147E+03  0.82684344148E+03  0.25500000920E-02 0. -1.
    10030    2    1    2    0    0  0.00000000000E+00  0.00000000000E+00 -0.54209665902E+03  0.11115902239E+04  0.97044527834E+03 0.  0.
        3    1    3    3  502    0  0.11195343444E+03  0.39787675839E+03 -0.56218372705E+03  0.69777506369E+03  0.10100000352E+00 0. -1.
       -3    1    3    3    0  502 -0.11195343444E+03 -0.39787675839E+03  0.20087068032E+02  0.41381516025E+03  0.10100000352E+00 0.  1.
</event>
<event>
 5   0  0.3513625E-03  0.1005886E+04  0.7818609E-02  0.9302113E-01
        3   -1    0    0  501    0  0.00000000000E+00  0.00000000000E+00  0.22623787245E+04  0.22623787267E+04  0.10100000352E+00 0. -1.
       -3   -1    0    0    0  501  0.00000000000E+00  0.00000000000E+00 -0.11180774087E+03  0.11180778649E+03  0.10100000352E+00 0.  1.
    10030    2    1    2    0    0  0.00000000000E+00  0.00000000000E+00  0.21505709836E+04  0.23741865132E+04  0.10058857013E+04 0.  0.
        2    1    3    3  502    0 -0.29084307023E+03  0.19564594460E+03  0.19265782678E+04  0.19582060282E+04  0.25500000920E-02 0. -1.
       -2    1    3    3    0  502  0.29084307023E+03 -0.19564594460E+03  0.22399271585E+03  0.41598048500E+03  0.25500000920E-02 0.  1.
</event>
<event>
 5   0  0.5072205E-03  0.1009563E+04  0.7818609E-02  0.9298118E-01
       -1   -1    0    0    0  501  0.00000000000E+00  0.00000000000E+00  0.51809600097E+03  0.51809600100E+03  0.50400001928E-02 0. -1.
        1   -1    0    0  501    0  0.00000000000E+00  0.00000000000E+00 -0.49180959165E+03  0.49180959167E+03  0.50400001928E-02 0.  1.
    10030    2    1    2    0    0  0.00000000000E+00  0.00000000000E+00  0.26286409327E+02  0.10099055927E+04  0.10095634357E+04 0.  0.
        5    1    3    3  502    0 -0.21893272715E+03  0.17353300430E+03  0.43368698178E+03  0.51589895402E+03  0.46999998093E+01 0. -1.
       -5    1    3    3    0  502  0.21893272715E+03 -0.17353300430E+03 -0.40740057245E+03  0.49400663865E+03  0.46999998093E+01 0.  1.
</event>
<event>
 5   0  0.8875655E-03  0.9903224E+03  0.7818609E-02  0.9319223E-01
        2   -1    0    0  501    0  0.00000000000E+00  0.00000000000E+00  0.15521543451E+04  0.15521543451E+04  0.25500000920E-02 0.  1.
       -2   -1    0    0    0  501  0.00000000000E+00  0.00000000000E+00 -0.15796406943E+03  0.15796406945E+03  0.25500000920E-02 0. -1.
    10030    2    1    2    0    0  0.00000000000E+00  0.00000000000E+00  0.13941902756E+04  0.17101184145E+04  0.99032240559E+03 0.  0.
        4    1    3    3  502    0  0.35225687081E+03  0.22002958744E+03  0.11626514501E+04  0.12346084114E+04  0.12699999809E+01 0.  1.
       -4    1    3    3    0  502 -0.35225687081E+03 -0.22002958744E+03  0.23153882557E+03  0.47551000307E+03  0.12699999809E+01 0. -1.
</event>
<event>
 5   0  0.8875655E-03  0.9655471E+03  0.7818609E-02  0.9347161E-01
        2   -1    0    0  501    0  0.00000000000E+00  0.00000000000E+00  0.10455852145E+04  0.10455852145E+04  0.25500000920E-02 0.  1.
       -2   -1    0    0    0  501  0.00000000000E+00  0.00000000000E+00 -0.22290897048E+03  0.22290897049E+03  0.25500000920E-02 0. -1.
    10030    2    1    2    0    0  0.00000000000E+00  0.00000000000E+00  0.82267624399E+03  0.12684941850E+04  0.96554714792E+03 0.  0.
        4    1    3    3  502    0 -0.17353989977E+03 -0.12064293845E+03 -0.15889576037E+03  0.26442445230E+03  0.12699999809E+01 0. -1.
       -4    1    3    3    0  502  0.17353989977E+03  0.12064293845E+03  0.98157200436E+03  0.10040697327E+04  0.12699999809E+01 0.  1.
</event>
<event>
 5   0  0.8968798E-03  0.9907674E+03  0.7818609E-02  0.9318729E-01
       -2   -1    0    0    0  501  0.00000000000E+00  0.00000000000E+00  0.48417921752E+03  0.48417921753E+03  0.25500000920E-02 0. -1.
        2   -1    0    0  501    0  0.00000000000E+00  0.00000000000E+00 -0.50684748171E+03  0.50684748172E+03  0.25500000920E-02 0.  1.
    10030    2    1    2    0    0  0.00000000000E+00  0.00000000000E+00 -0.22668264192E+02  0.99102669925E+03  0.99076741389E+03 0.  0.
        2    1    3    3  502    0  0.19220328849E+03  0.95469230931E+01  0.44526289587E+03  0.48506937060E+03  0.25500000920E-02 0. -1.
       -2    1    3    3    0  502 -0.19220328849E+03 -0.95469230931E+01 -0.46793116006E+03  0.50595732865E+03  0.25500000920E-02 0.  1.
</event>
<event>
 5   0  0.5189877E-03  0.9996989E+03  0.7818609E-02  0.9308875E-01
        1   -1    0    0  501    0  0.00000000000E+00  0.00000000000E+00  0.82810309342E+03  0.82810309343E+03  0.50400001928E-02 0. -1.
       -1   -1    0    0    0  501  0.00000000000E+00  0.00000000000E+00 -0.30171301587E+03  0.30171301591E+03  0.50400001928E-02 0.  1.
    10030    2    1    2    0    0  0.00000000000E+00  0.00000000000E+00  0.52639007755E+03  0.11298161093E+04  0.99969891827E+03 0.  0.
        3    1    3    3  502    0 -0.40436791802E+03  0.48577302269E+02 -0.64309195437E+02  0.41232129492E+03  0.10100000352E+00 0.  1.
       -3    1    3    3    0  502  0.40436791802E+03 -0.48577302269E+02  0.59069927299E+03  0.71749481443E+03  0.10100000352E+00 0. -1.
</event>
<event>
 5   0  0.9243773E-03  0.9858641E+03  0.7818609E-02  0.9324186E-01
        2   -1    0    0  501    0  0.00000000000E+00  0.00000000000E+00  0.37016654954E+03  0.37016654955E+03  0.25500000920E-02 0. -1.
       -2   -1    0    0    0  501  0.00000000000E+00  0.00000000000E+00 -0.65641263893E+03  0.65641263893E+03  0.25500000920E-02 0.  1.
    10030    2    1    2    0    0  0.00000000000E+00  0.00000000000E+00 -0.28624608939E+03  0.10265791885E+04  0.98586409131E+03 0.  0.
        3    1    3    3  502    0 -0.22698226799E+03 -0.24044422745E+02  0.31182198818E+03  0.38643504857E+03  0.10100000352E+00 0. -1.
       -3    1    3    3    0  502  0.22698226799E+03  0.24044422745E+02 -0.59806807758E+03  0.64014413991E+03  0.10100000352E+00 0.  1.
</event>
<event>
 5   0  0.5072205E-03  0.9908753E+03  0.7818609E-02  0.9318610E-01
       -1   -1    0    0    0  501  0.00000000000E+00  0.00000000000E+00  0.59744423114E+03  0.59744423116E+03  0.50400001928E-02 0.  1.
        1   -1    0    0  501    0  0.00000000000E+00  0.00000000000E+00 -0.41084746339E+03  0.41084746342E+03  0.50400001928E-02 0. -1.
    10030    2    1    2    0    0  0.00000000000E+00  0.00000000000E+00  0.18659676775E+03  0.10082916946E+04  0.99087526341E+03 0.  0.
        5    1    3    3  502    0  0.49161002819E+03 -0.28916794771E+02  0.14828291022E+03  0.51432140953E+03  0.46999998093E+01 0.  1.
       -5    1    3    3    0  502 -0.49161002819E+03  0.28916794771E+02  0.38313857539E+02  0.49397028505E+03  0.46999998093E+01 0. -1.
</event>
<event>
 5   0  0.5189877E-03  0.1000350E+04  0.7818609E-02  0.9308161E-01
       -1   -1    0    0    0  501  0.00000000000E+00  0.00000000000E+00  0.62093038355E+03  0.62093038357E+03  0.50400001928E-02 0. -1.
        1   -1    0    0  501    0  0.00000000000E+00  0.00000000000E+00 -0.40290348397E+03  0.40290348400E+03  0.50400001928E-02 0.  1.
    10030    2    1    2    0    0  0.00000000000E+00  0.00000000000E+00  0.21802689958E+03  0.10238338676E+04  0.10003499685E+04 0.  0.
        3    1    3    3  502    0  0.24011901298E+03  0.64769839916E+02  0.55316266780E+03  0.60649915070E+03  0.10100000352E+00 0. -1.
       -3    1    3    3    0  502 -0.24011901298E+03 -0.64769839916E+02 -0.33513576822E+03  0.41733471686E+03  0.10100000352E+00 0.  1.
</event>
<event>
 5   0  0.5072205E-03  0.1046958E+04  0.7818609E-02  0.9258491E-01
        1   -1    0    0  501    0  0.00000000000E+00  0.00000000000E+00  0.67206718804E+03  0.67206718806E+03  0.50400001928E-02 0.  1.
       -1   -1    0    0    0  501  0.00000000000E+00  0.00000000000E+00 -0.40774204434E+03  0.40774204438E+03  0.50400001928E-02 0. -1.
    10030    2    1    2    0    0  0.00000000000E+00  0.00000000000E+00  0.26432514370E+03  0.10798092324E+04  0.10469575908E+04 0.  0.
        5    1    3    3  502    0  0.44004290250E+03 -0.28310674150E+03  0.11683780164E+03  0.53615328500E+03  0.46999998093E+01 0.  1.
       -5    1    3    3    0  502 -0.44004290250E+03  0.28310674150E+03  0.14748734205E+03  0.54365594744E+03  0.46999998093E+01 0. -1.
</event>
<event>
 5   0  0.8875655E-03  0.9927996E+03  0.7818609E-02  0.9316477E-01
        2   -1    0    0  501    0  0.00000000000E+00  0.00000000000E+00  0.50888393110E+03  0.50888393110E+03  0.25500000920E-02 0.  1.
       -2   -1    0    0    0  501  0.00000000000E+00  0.00000000000E+00 -0.48422198050E+03  0.48422198051E+03  0.25500000920E-02 0. -1.
    10030    2    1    2    0    0  0.00000000000E+00  0.00000000000E+00  0.24661950596E+02  0.99310591161E+03  0.99279964739E+03 0.  0.
        4    1    3    3  502    0  0.14382040669E+03 -0.24736916645E+03 -0.39342373798E+03  0.48647678711E+03  0.12699999809E+01 0. -1.
       -4    1    3    3    0  502 -0.14382040669E+03  0.24736916645E+03  0.41808568858E+03  0.50662912449E+03  0.12699999809E+01 0.  1.
</event>
<event>
 5   0  0.5349685E-03  0.9876496E+03  0.7818609E-02  0.9322195E-01
       -1   -1    0    0    0  501  0.00000000000E+00  0.00000000000E+00  0.14300147077E+03  0.14300147086E+03  0.50400001928E-02 0. -1.
        1   -1    0    0  501    0  0.00000000000E+00  0.00000000000E+00 -0.17053176075E+04  0.17053176075E+04  0.50400001928E-02 0.  1.
    10030    2    1    2    0    0  0.00000000000E+00  0.00000000000E+00 -0.15623161367E+04  0.18483190784E+04  0.98764958580E+03 0.  0.
        4    1    3    3  502    0  0.16353909630E+03  0.44247318406E+03 -0.10545009372E+04  0.11552062128E+04  0.12699999809E+01 0.  1.
       -4    1    3    3    0  502 -0.16353909630E+03 -0.44247318406E+03 -0.50781519950E+03  0.69311286554E+03  0.12699999809E+01 0. -1.
</event>
<event>
 5   0  0.5189877E-03  0.1008928E+04  0.7818609E-02  0.9298807E-01
       -1   -1    0    0    0  501  0.00000000000E+00  0.00000000000E+00  0.39568208291E+03  0.39568208295E+03  0.50400001928E-02 0. -1.
        1   -1    0    0  501    0  0.00000000000E+00  0.00000000000E+00 -0.64315219556E+03  0.64315219558E+03  0.50400001928E-02 0.  1.
    10030    2    1    2    0    0  0.00000000000E+00  0.00000000000E+00 -0.24747011264E+03  0.10388342785E+04  0.10089277484E+04 0.  0.
        3    1    3    3  502    0  0.43014830698E+03 -0.93899364142E+02 -0.37728452156E+03  0.57981745144E+03  0.10100000352E+00 0.  1.
       -3    1    3    3    0  502 -0.43014830698E+03  0.93899364142E+02  0.12981440892E+03  0.45901682708E+03  0.10100000352E+00 0. -1.
</event>
<event>
 5   0  0.8968798E-03  0.1002792E+04  0.7818609E-02  0.9305488E-01
        2   -1    0    0  501    0  0.00000000000E+00  0.00000000000E+00  0.70779735111E+03  0.70779735111E+03  0.25500000920E-02 0. -1.
       -2   -1    0    0    0  501  0.00000000000E+00  0.00000000000E+00 -0.35518373497E+03  0.35518373498E+03  0.25500000920E-02 0.  1.
    10030    2    1    2    0    0  0.00000000000E+00  0.00000000000E+00  0.35261361614E+03  0.10629810861E+04  0.10027923150E+04 0.  0.
        2    1    3    3  502    0 -0.32829893567E+03 -0.21965147807E+03  0.50366486603E+03  0.64008222930E+03  0.25500000920E-02 0. -1.
       -2    1    3    3    0  502  0.32829893567E+03  0.21965147807E+03 -0.15105124989E+03  0.42289885680E+03  0.25500000920E-02 0.  1.
</event>
<event>
 5   0  0.5189877E-03  0.9751782E+03  0.7818609E-02  0.9336196E-01
       -1   -1    0    0    0  501  0.00000000000E+00  0.00000000000E+00  0.20876414891E+03  0.20876414898E+03  0.50400001928E-02 0. -1.
        1   -1    0    0  501    0  0.00000000000E+00  0.00000000000E+00 -0.11388120191E+04  0.11388120191E+04  0.50400001928E-02 0.  1.
    10030    2    1    2    0    0  0.00000000000E+00  0.00000000000E+00 -0.93004787019E+03  0.13475761681E+04  0.97517818267E+03 0.  0.
        3    1    3    3  502    0 -0.21234219140E+03  0.36993794665E+03 -0.13859717913E+03  0.44850025517E+03  0.10100000352E+00 0. -1.
       -3    1    3    3    0  502  0.21234219140E+03 -0.36993794665E+03 -0.79145069106E+03  0.89907591292E+03  0.10100000352E+00 0.  1.
</event>
<event>
 5   0  0.8875655E-03  0.1022175E+04  0.7818609E-02  0.9284553E-01
       -2   -1    0    0    0  501  0.00000000000E+00  0.00000000000E+00  0.31397294159E+03  0.31397294160E+03  0.25500000920E-02 0.  1.
        2   -1    0    0  501    0  0.00000000000E+00  0.00000000000E+00 -0.83195183620E+03  0.83195183621E+03  0.25500000920E-02 0. -1.
    10030    2    1    2    0    0  0.00000000000E+00  0.00000000000E+00 -0.51797889462E+03  0.11459247778E+04  0.10221748682E+04 0.  0.
        4    1    3    3  502    0 -0.31844892506E+03  0.39971799620E+03 -0.26454500424E+03  0.57547360194E+03  0.12699999809E+01 0. -1.
       -4    1    3    3    0  502  0.31844892506E+03 -0.39971799620E+03 -0.25343389038E+03  0.57045117587E+03  0.12699999809E+01 0.  1.
</event>
<event>
 5   0  0.9040674E-03  0.1001792E+04  0.7818609E-02  0.9306582E-01
        2   -1    0    0  501    0  0.00000000000E+00  0.00000000000E+00  0.16302229141E+04  0.16302229141E+04  0.25500000920E-02 0.  1.
       -2   -1    0    0    0  501  0.00000000000E+00  0.00000000000E+00 -0.15390322793E+03  0.15390322795E+03  0.25500000920E-02 0. -1.
    10030    2    1    2    0    0  0.00000000000E+00  0.00000000000E+00  0.14763196862E+04  0.17841261420E+04  0.10017915327E+04 0.  0.
        1    1    3    3  502    0 -0.45770907266E+03  0.46206133576E+02  0.38526502048E+03  0.60005144614E+03  0.50400001928E-02 0. -1.
       -1    1    3    3    0  502  0.45770907266E+03 -0.46206133576E+02  0.10910546657E+04  0.11840746959E+04  0.50400001928E-02 0.  1.
</event>
<event>
 5   0  0.9040674E-03  0.8485263E+03  0.7818609E-02  0.9492317E-01
       -2   -1    0    0    0  501  0.00000000000E+00  0.00000000000E+00  0.22971381685E+03  0.22971381687E+03  0.25500000920E-02 0. -1.
        2   -1    0    0  501    0  0.00000000000E+00  0.00000000000E+00 -0.78358027077E+03  0.78358027077E+03  0.25500000920E-02 0.  1.
    10030    2    1    2    0    0  0.00000000000E+00  0.00000000000E+00 -0.55386645391E+03  0.10132940876E+04  0.84852628673E+03 0.  0.
        1    1    3    3  502    0 -0.69461476491E+01  0.20855570701E+03  0.16419586809E+03  0.26552592156E+03  0.50400001928E-02 0. -1.
       -1    1    3    3    0  502  0.69461476491E+01 -0.20855570701E+03 -0.71806232201E+03  0.74776816608E+03  0.50400001928E-02 0.  1.
</event>
<event>
 5   0  0.9243773E-03  0.9964616E+03  0.7818609E-02  0.9312434E-01
       -2   -1    0    0    0  501  0.00000000000E+00  0.00000000000E+00  0.54899321308E+03  0.54899321308E+03  0.25500000920E-02 0.  1.
        2   -1    0    0  501    0  0.00000000000E+00  0.00000000000E+00 -0.45216214992E+03  0.45216214993E+03  0.25500000920E-02 0. -1.
    10030    2    1    2    0    0  0.00000000000E+00  0.00000000000E+00  0.96831063152E+02  0.10011553630E+04  0.99646164306E+03 0.  0.
        3    1    3    3  502    0  0.45105608867E+03  0.96379203925E+02  0.23769986272E+03  0.51888513278E+03  0.10100000352E+00 0.  1.
       -3    1    3    3    0  502 -0.45105608867E+03 -0.96379203925E+02 -0.14086879957E+03  0.48227023024E+03  0.10100000352E+00 0. -1.
</event>
<event>
 5   0  0.8907355E-03  0.9819686E+03  0.7818609E-02  0.9328545E-01
       -2   -1    0    0    0  501  0.00000000000E+00  0.00000000000E+00  0.21309678630E+03  0.21309678632E+03  0.25500000920E-02 0. -1.
        2   -1    0    0  501    0  0.00000000000E+00  0.00000000000E+00 -0.11312491639E+04  0.11312491639E+04  0.25500000920E-02 0.  1.
    10030    2    1    2    0    0  0.00000000000E+00  0.00000000000E+00 -0.91815237762E+03  0.13443459502E+04  0.98196855622E+03 0.  0.
        5    1    3    3  502    0  0.27895422888E+03 -0.14586390663E+03  0.56726743979E+02  0.31989334871E+03  0.46999998093E+01 0. -1.
       -5    1    3    3    0  502 -0.27895422888E+03  0.14586390663E+03 -0.97487912160E+03  0.10244526015E+04  0.46999998093E+01 0.  1.
</event>
<event>
 5   0  0.5189877E-03  0.9979427E+03  0.7818609E-02  0.9310804E-01
        1   -1    0    0  501    0  0.00000000000E+00  0.00000000000E+00  0.11561762685E+04  0.11561762685E+04  0.50400001928E-02 0. -1.
       -1   -1    0    0    0  501  0.00000000000E+00  0.00000000000E+00 -0.21534120202E+03  0.21534120207E+03  0.50400001928E-02 0.  1.
    10030    2    1    2    0    0  0.00000000000E+00  0.00000000000E+00  0.94083506644E+03  0.13715174705E+04  0.99794265855E+03 0.  0.
        3    1    3    3  502    0  0.18828148385E+03  0.21731173832E+03 -0.90035674235E+02  0.30129842616E+03  0.10100000352E+00 0.  1.
       -3    1    3    3    0  502 -0.18828148385E+03 -0.21731173832E+03  0.10308707407E+04  0.10702190444E+04  0.10100000352E+00 0. -1.
</event>
<event>
 5   0  0.5349685E-03  0.9818872E+03  0.7818609E-02  0.9328637E-01
       -1   -1    0    0    0  501  0.00000000000E+00  0.00000000000E+00  0.26865970779E+03  0.26865970783E+03  0.50400001928E-02 0. -1.
        1   -1    0    0  501    0  0.00000000000E+00  0.00000000000E+00 -0.89714084683E+03  0.89714084684E+03  0.50400001928E-02 0.  1.
    10030    2    1    2    0    0  0.00000000000E+00  0.00000000000E+00 -0.62848113904E+03  0.11658005547E+04  0.98188715805E+03 0.  0.
        4    1    3    3  502    0 -0.46761342875E+03  0.14948403725E+03 -0.30946341518E+03  0.58032492138E+03  0.12699999809E+01 0. -1.
       -4    1    3    3    0  502  0.46761342875E+03 -0.14948403725E+03 -0.31901772386E+03  0.58547563329E+03  0.12699999809E+01 0.  1.
</event>
<event>
 5   0  0.8875655E-03  0.9992897E+03  0.7818609E-02  0.9309324E-01
       -2   -1    0    0    0  501  0.00000000000E+00  0.00000000000E+00  0.26238924314E+03  0.26238924315E+03  0.25500000920E-02 0.  1.
        2   -1    0    0  501    0  0.00000000000E+00  0.00000000000E+00 -0.95142984959E+03  0.95142984960E+03  0.25500000920E-02 0. -1.
    10030    2    1    2    0    0  0.00000000000E+00  0.00000000000E+00 -0.68904060646E+03  0.12138190927E+04  0.99928966400E+03 0.  0.
        4    1    3    3  502    0  0.15725120918E+02  0.13618993739E+03  0.23909406069E+03  0.27561306434E+03  0.12699999809E+01 0.  1.
       -4    1    3    3    0  502 -0.15725120918E+02 -0.13618993739E+03 -0.92813466715E+03  0.93820602841E+03  0.12699999809E+01 0. -1.
</event>
<event>
 5   0  0.5189877E-03  0.9955362E+03  0.7818609E-02  0.9313454E-01
        1   -1    0    0  501    0  0.00000000000E+00  0.00000000000E+00  0.38097339042E+03  0.38097339046E+03  0.50400001928E-02 0. -1.
       -1   -1    0    0    0  501  0.00000000000E+00  0.00000000000E+00 -0.65036852520E+03  0.65036852522E+03  0.50400001928E-02 0.  1.
    10030    2    1    2    0    0  0.00000000000E+00  0.00000000000E+00 -0.26939513477E+03  0.10313419157E+04  0.99553624163E+03 0.  0.
        3    1    3    3  502    0  0.14667591483E+03  0.18081801410E+03  0.32108532021E+03  0.39661665532E+03  0.10100000352E+00 0. -1.
       -3    1    3    3    0  502 -0.14667591483E+03 -0.18081801410E+03 -0.59048045499E+03  0.63472526036E+03  0.10100000352E+00 0.  1.
</event>
<event>
 5   0  0.5201968E-03  0.9978319E+03  0.7818609E-02  0.9310926E-01
        1   -1    0    0  501    0  0.00000000000E+00  0.00000000000E+00  0.68975939466E+03  0.68975939468E+03  0.50400001928E-02 0.  1.
       -1   -1    0    0    0  501  0.00000000000E+00  0.00000000000E+00 -0.36087526885E+03  0.36087526889E+03  0.50400001928E-02 0. -1.
    10030    2    1    2    0    0  0.00000000000E+00  0.00000000000E+00  0.32888412581E+03  0.10506346636E+04  0.99783186363E+03 0.  0.
        2    1    3    3  502    0  0.37665883435E+03 -0.85811056750E+02  0.49687347773E+03  0.62937958962E+03  0.25500000920E-02 0.  1.
       -2    1    3    3    0  502 -0.37665883435E+03  0.85811056750E+02 -0.16798935193E+03  0.42125507394E+03  0.25500000920E-02 0. -1.
</event>
<event>
 5   0  0.5189877E-03  0.1001682E+04  0.7818609E-02  0.9306702E-01
        1   -1    0    0  501    0  0.00000000000E+00  0.00000000000E+00  0.53559535405E+03  0.53559535407E+03  0.50400001928E-02 0.  1.
       -1   -1    0    0    0  501  0.00000000000E+00  0.00000000000E+00 -0.46834149500E+03  0.46834149502E+03  0.50400001928E-02 0. -1.
    10030    2    1    2    0    0  0.00000000000E+00  0.00000000000E+00  0.67253859049E+02  0.10039368491E+04  0.10016816437E+04 0.  0.
        3    1    3    3  502    0 -0.56697996410E+02  0.13128354341E+03  0.51469872311E+03  0.53419548607E+03  0.10100000352E+00 0.  1.
       -3    1    3    3    0  502  0.56697996410E+02 -0.13128354341E+03 -0.44744486406E+03  0.46974136303E+03  0.10100000352E+00 0. -1.
</event>
<event>
 5   0  0.5189877E-03  0.1004782E+04  0.7818609E-02  0.9303316E-01
       -1   -1    0    0    0  501  0.00000000000E+00  0.00000000000E+00  0.36405920534E+03  0.36405920537E+03  0.50400001928E-02 0.  1.
        1   -1    0    0  501    0  0.00000000000E+00  0.00000000000E+00 -0.69328452763E+03  0.69328452765E+03  0.50400001928E-02 0. -1.
    10030    2    1    2    0    0  0.00000000000E+00  0.00000000000E+00 -0.32922532229E+03  0.10573437330E+04  0.10047817957E+04 0.  0.
        3    1    3    3  502    0  0.13348548135E+03 -0.10988901616E+03  0.33176475744E+03  0.37411473385E+03  0.10100000352E+00 0.  1.
       -3    1    3    3    0  502 -0.13348548135E+03  0.10988901616E+03 -0.66099007973E+03  0.68322899917E+03  0.10100000352E+00 0. -1.
</event>
<event>
 5   0  0.5072205E-03  0.9961658E+03  0.7818609E-02  0.9312760E-01
       -1   -1    0    0    0  501  0.00000000000E+00  0.00000000000E+00  0.12608806912E+03  0.12608806922E+03  0.50400001928E-02 0.  1.
        1   -1    0    0  501    0  0.00000000000E+00  0.00000000000E+00 -0.19675660126E+04  0.19675660126E+04  0.50400001928E-02 0. -1.
    10030    2    1    2    0    0  0.00000000000E+00  0.00000000000E+00 -0.18414779435E+04  0.20936540819E+04  0.99616584866E+03 0.  0.
        5    1    3    3  502    0  0.27844253177E+03  0.31133653300E+03 -0.14909340757E+04  0.15483433690E+04  0.46999998093E+01 0. -1.
       -5    1    3    3    0  502 -0.27844253177E+03 -0.31133653300E+03 -0.35054386780E+03  0.54531071283E+03  0.46999998093E+01 0.  1.
</event>
<event>
 5   0  0.5201968E-03  0.1025306E+04  0.7818609E-02  0.9281216E-01
       -1   -1    0    0    0  501  0.00000000000E+00  0.00000000000E+00  0.24596530160E+03  0.24596530165E+03  0.50400001928E-02 0. -1.
        1   -1    0    0  501    0  0.00000000000E+00  0.00000000000E+00 -0.10684975631E+04  0.10684975631E+04  0.50400001928E-02 0.  1.
    10030    2    1    2    0    0  0.00000000000E+00  0.00000000000E+00 -0.82253226149E+03  0.13144628647E+04  0.10253064428E+04 0.  0.
        2    1    3    3  502    0 -0.55028358157E+02  0.16413449819E+03 -0.10298921181E+04  0.10443399967E+04  0.25500000920E-02 0.  1.
       -2    1    3    3    0  502  0.55028358157E+02 -0.16413449819E+03  0.20735985664E+03  0.27012286806E+03  0.25500000920E-02 0. -1.
</event>
<event>
 5   0  0.3513625E-03  0.1021643E+04  0.7818609E-02  0.9285121E-01
        3   -1    0    0  501    0  0.00000000000E+00  0.00000000000E+00  0.22838012587E+03  0.22838014820E+03  0.10100000352E+00 0.  1.
       -3   -1    0    0    0  501  0.00000000000E+00  0.00000000000E+00 -0.11425618791E+04  0.11425618836E+04  0.10100000352E+00 0. -1.
    10030    2    1    2    0    0  0.00000000000E+00  0.00000000000E+00 -0.91418175323E+03  0.13709420318E+04  0.10216426853E+04 0.  0.
        4    1    3    3  502    0  0.31267481093E+03  0.29605326288E+03 -0.82586620779E+03  0.93138052262E+03  0.12699999809E+01 0. -1.
       -4    1    3    3    0  502 -0.31267481093E+03 -0.29605326288E+03 -0.88315545440E+02  0.43956150914E+03  0.12699999809E+01 0.  1.
</event>
<event>
 5   0  0.3513625E-03  0.9881899E+03  0.7818609E-02  0.9321594E-01
        4   -1    0    0  501    0  0.00000000000E+00  0.00000000000E+00  0.11424515326E+04  0.11424522385E+04  0.12699999809E+01 0. -1.
       -4   -1    0    0    0  501  0.00000000000E+00  0.00000000000E+00 -0.21368677019E+03  0.21369054414E+03  0.12699999809E+01 0.  1.
    10030    2    1    2    0    0  0.00000000000E+00  0.00000000000E+00  0.92876476244E+03  0.13561427827E+04  0.98818989218E+03 0.  0.
        3    1    3    3  502    0  0.47774943010E+03 -0.45123752807E+02  0.62588379429E+03  0.78867686994E+03  0.10100000352E+00 0. -1.
       -3    1    3    3    0  502 -0.47774943010E+03  0.45123752807E+02  0.30288096815E+03  0.56746591271E+03  0.10100000352E+00 0.  1.
</event>
<event>
 5   0  0.8907355E-03  0.9680569E+03  0.7818609E-02  0.9344290E-01
       -2   -1    0    0    0  501  0.00000000000E+00  0.00000000000E+00  0.28479433195E+03  0.28479433196E+03  0.25500000920E-02 0.  1.
        2   -1    0    0  501    0  0.00000000000E+00  0.00000000000E+00 -0.82264112401E+03  0.82264112402E+03  0.25500000920E-02 0. -1.
    10030    2    1    2    0    0  0.00000000000E+00  0.00000000000E+00 -0.53784679207E+03  0.11074354560E+04  0.96805687716E+03 0.  0.
        5    1    3    3  502    0  0.30954497882E+03  0.36079076680E+03 -0.16486941005E+03  0.50318195883E+03  0.46999998093E+01 0. -1.
       -5    1    3    3    0  502 -0.30954497882E+03 -0.36079076680E+03 -0.37297738202E+03  0.60425349715E+03  0.46999998093E+01 0.  1.
</event>
<event>
 5   0  0.5310275E-03  0.9552612E+03  0.7818609E-02  0.9359022E-01
        1   -1    0    0  501    0  0.00000000000E+00  0.00000000000E+00  0.11744312484E+04  0.11744312484E+04  0.50400001928E-02 0.  1.
       -1   -1    0    0    0  501  0.00000000000E+00  0.00000000000E+00 -0.19424804579E+03  0.19424804585E+03  0.50400001928E-02 0. -1.
    10030    2    1    2    0    0  0.00000000000E+00  0.00000000000E+00  0.98018320260E+03  0.13686792943E+04  0.95526116840E+03 0.  0.
        1    1    3    3  502    0 -0.44083098332E+03  0.17332636339E+03  0.40227034586E+03  0.62144622880E+03  0.50400001928E-02 0. -1.
       -1    1    3    3    0  502  0.44083098332E+03 -0.17332636339E+03  0.57791285673E+03  0.74723306545E+03  0.50400001928E-02 0.  1.
</event>
<event>
 5   0  0.8907355E-03  0.9995175E+03  0.7818609E-02  0.9309074E-01
        2   -1    0    0  501    0  0.00000000000E+00  0.00000000000E+00  0.15752314602E+04  0.15752314602E+04  0.25500000920E-02 0. -1.
       -2   -1    0    0    0  501  0.00000000000E+00  0.00000000000E+00 -0.15855373468E+03  0.15855373470E+03  0.25500000920E-02 0.  1.
    10030    2    1    2    0    0  0.00000000000E+00  0.00000000000E+00  0.14166777255E+04  0.17337851949E+04  0.99951754565E+03 0.  0.
        5    1    3    3  502    0 -0.44146379557E+02  0.48698039536E+03  0.88724839802E+03  0.10130797689E+04  0.46999998093E+01 0.  1.
       -5    1    3    3    0  502  0.44146379557E+02 -0.48698039536E+03  0.52942932749E+03  0.72070542603E+03  0.46999998093E+01 0. -1.
</event>
<event>
 5   0  0.5189877E-03  0.1002966E+04  0.7818609E-02  0.9305298E-01
       -1   -1    0    0    0  501  0.00000000000E+00  0.00000000000E+00  0.30244990121E+03  0.30244990125E+03  0.50400001928E-02 0. -1.
        1   -1    0    0  501    0  0.00000000000E+00  0.00000000000E+00 -0.83149380326E+03  0.83149380327E+03  0.50400001928E-02 0.  1.
    10030    2    1    2    0    0  0.00000000000E+00  0.00000000000E+00 -0.52904390205E+03  0.11339437045E+04  0.10029660387E+04 0.  0.
        3    1    3    3  502    0 -0.41339425457E+03 -0.16578148487E+03 -0.52506574571E+03  0.68852912644E+03  0.10100000352E+00 0.  1.
       -3    1    3    3    0  502  0.41339425457E+03  0.16578148487E+03 -0.39781563350E+01  0.44541457808E+03  0.10100000352E+00 0. -1.
</event>
<event>
 5   0  0.8875655E-03  0.9814194E+03  0.7818609E-02  0.9329162E-01
        2   -1    0    0  501    0  0.00000000000E+00  0.00000000000E+00  0.55826031065E+03  0.55826031065E+03  0.25500000920E-02 0.  1.
       -2   -1    0    0    0  501  0.00000000000E+00  0.00000000000E+00 -0.43133286549E+03  0.43133286549E+03  0.25500000920E-02 0. -1.
    10030    2    1    2    0    0  0.00000000000E+00  0.00000000000E+00  0.12692744516E+03  0.98959317615E+03  0.98141941999E+03 0.  0.
        4    1    3    3  502    0  0.12801791593E+03 -0.45640477996E+03 -0.64480794819E+02  0.47838613668E+03  0.12699999809E+01 0. -1.
       -4    1    3    3    0  502 -0.12801791593E+03  0.45640477996E+03  0.19140823998E+03  0.51120703947E+03  0.12699999809E+01 0.  1.
</event>
<event>
 5   0  0.5349685E-03  0.9847905E+03  0.7818609E-02  0.9325385E-01
        1   -1    0    0  501    0  0.00000000000E+00  0.00000000000E+00  0.26289424566E+03  0.26289424570E+03  0.50400001928E-02 0.  1.
       -1   -1    0    0    0  501  0.00000000000E+00  0.00000000000E+00 -0.92224566744E+03  0.92224566745E+03  0.50400001928E-02 0. -1.
    10030    2    1    2    0    0  0.00000000000E+00  0.00000000000E+00 -0.65935142178E+03  0.11851399132E+04  0.98479049363E+03 0.  0.
        4    1    3    3  502    0 -0.37327176876E+03 -0.32089755629E+03 -0.31521378220E+03  0.58452407681E+03  0.12699999809E+01 0. -1.
       -4    1    3    3    0  502  0.37327176876E+03  0.32089755629E+03 -0.34413763958E+03  0.60061583634E+03  0.12699999809E+01 0.  1.
</event>
<event>
 5   0  0.8875655E-03  0.9721511E+03  0.7818609E-02  0.9339628E-01
        2   -1    0    0  501    0  0.00000000000E+00  0.00000000000E+00  0.11767785026E+04  0.11767785026E+04  0.25500000920E-02 0.  1.
       -2   -1    0    0    0  501  0.00000000000E+00  0.00000000000E+00 -0.20077647339E+03  0.20077647341E+03  0.25500000920E-02 0. -1.
    10030    2    1    2    0    0  0.00000000000E+00  0.00000000000E+00  0.97600202920E+03  0.13775549760E+04  0.97215109468E+03 0.  0.
        4    1    3    3  502    0 -0.33622284810E+03 -0.49160116575E+02  0.98051455172E+03  0.10377248767E+04  0.12699999809E+01 0.  1.
       -4    1    3    3    0  502  0.33622284810E+03  0.49160116575E+02 -0.45125225184E+01  0.33983009932E+03  0.12699999809E+01 0. -1.
</event>
<event>
 5   0  0.8968798E-03  0.9849186E+03  0.7818609E-02  0.9325242E-01
        2   -1    0    0  501    0  0.00000000000E+00  0.00000000000E+00  0.30074210571E+03  0.30074210572E+03  0.25500000920E-02 0.  1.
       -2   -1    0    0    0  501  0.00000000000E+00  0.00000000000E+00 -0.80639238296E+03  0.80639238296E+03  0.25500000920E-02 0. -1.
    10030    2    1    2    0    0  0.00000000000E+00  0.00000000000E+00 -0.50565027725E+03  0.11071344887E+04  0.98491856167E+03 0.  0.
        2    1    3    3  502    0 -0.13335030596E+03  0.10478660548E+02 -0.78558092035E+03  0.79688737526E+03  0.25500000920E-02 0. -1.
       -2    1    3    3    0  502  0.13335030596E+03 -0.10478660548E+02  0.27993064310E+03  0.31024711341E+03  0.25500000920E-02 0.  1.
</event>
<event>
 5   0  0.5310275E-03  0.1010243E+04  0.7818609E-02  0.9297381E-01
        1   -1    0    0  501    0  0.00000000000E+00  0.00000000000E+00  0.43902571628E+03  0.43902571631E+03  0.50400001928E-02 0. -1.
       -1   -1    0    0    0  501  0.00000000000E+00  0.00000000000E+00 -0.58116849827E+03  0.58116849829E+03  0.50400001928E-02 0.  1.
    10030    2    1    2    0    0  0.00000000000E+00  0.00000000000E+00 -0.14214278199E+03  0.10201942146E+04  0.10102433692E+04 0.  0.
        1    1    3    3  502    0 -0.48132305792E+03 -0.13938704517E+03 -0.68265040899E+01  0.50114592249E+03  0.50400001928E-02 0. -1.
       -1    1    3    3    0  502  0.48132305792E+03  0.13938704517E+03 -0.13531627790E+03  0.51904829211E+03  0.50400001928E-02 0.  1.
</event>
<event>
 5   0  0.5072205E-03  0.1013585E+04  0.7818609E-02  0.9293769E-01
       -1   -1    0    0    0  501  0.00000000000E+00  0.00000000000E+00  0.20143935137E+03  0.20143935144E+03  0.50400001928E-02 0. -1.
        1   -1    0    0  501    0  0.00000000000E+00  0.00000000000E+00 -0.12750179383E+04  0.12750179383E+04  0.50400001928E-02 0.  1.
    10030    2    1    2    0    0  0.00000000000E+00  0.00000000000E+00 -0.10735785869E+04  0.14764572898E+04  0.10135852930E+04 0.  0.
        5    1    3    3  502    0  0.25223316748E+03 -0.43953836287E+03 -0.53835365460E+03  0.73936614112E+03  0.46999998093E+01 0.  1.
       -5    1    3    3    0  502 -0.25223316748E+03  0.43953836287E+03 -0.53522493233E+03  0.73709114864E+03  0.46999998093E+01 0. -1.
</event>
<event>
 5   0  0.5310275E-03  0.8815477E+03  0.7818609E-02  0.9448946E-01
       -1   -1    0    0    0  501  0.00000000000E+00  0.00000000000E+00  0.22593162207E+03  0.22593162213E+03  0.50400001928E-02 0.  1.
        1   -1    0    0  501    0  0.00000000000E+00  0.00000000000E+00 -0.85991323201E+03  0.85991323202E+03  0.50400001928E-02 0. -1.
    10030    2    1    2    0    0  0.00000000000E+00  0.00000000000E+00 -0.63398160993E+03  0.10858448541E+04  0.88154771031E+03 0.  0.
        1    1    3    3  502    0 -0.22071353539E+03  0.49040076546E+02  0.14906308146E+03  0.27081210477E+03  0.50400001928E-02 0.  1.
       -1    1    3    3    0  502  0.22071353539E+03 -0.49040076546E+02 -0.78304469139E+03  0.81503274938E+03  0.50400001928E-02 0. -1.
</event>
<event>
 5   0  0.8907355E-03  0.1017486E+04  0.7818609E-02  0.9289571E-01
        2   -1    0    0  501    0  0.00000000000E+00  0.00000000000E+00  0.53784682300E+03  0.53784682300E+03  0.25500000920E-02 0. -1.
       -2   -1    0    0    0  501  0.00000000000E+00  0.00000000000E+00 -0.48121440212E+03  0.48121440212E+03  0.25500000920E-02 0.  1.
    10030    2    1    2    0    0  0.00000000000E+00  0.00000000000E+00  0.56632420882E+02  0.10190612251E+04  0.10174863878E+04 0.  0.
        5    1    3    3  502    0  0.45484412588E+03  0.24810957671E+02  0.25515911968E+03  0.52213698281E+03  0.46999998093E+01 0. -1.
       -5    1    3    3    0  502 -0.45484412588E+03 -0.24810957671E+02 -0.19852669880E+03  0.49692424231E+03  0.46999998093E+01 0.  1.
</event>
<event>
 5   0  0.9243773E-03  0.9965032E+03  0.7818609E-02  0.9312388E-01
        2   -1    0    0  501    0  0.00000000000E+00  0.00000000000E+00  0.18385902978E+04  0.18385902978E+04  0.25500000920E-02 0.  1.
       -2   -1    0    0    0  501  0.00000000000E+00  0.00000000000E+00 -0.13502446595E+03  0.13502446597E+03  0.25500000920E-02 0. -1.
    10030    2    1    2    0    0  0.00000000000E+00  0.00000000000E+00  0.17035658319E+04  0.19736147638E+04  0.99650323247E+03 0.  0.
        3    1    3    3  502    0 -0.36292405140E+03  0.24547032516E+03  0.38190995574E+03  0.58122695405E+03  0.10100000352E+00 0. -1.
       -3    1    3    3    0  502  0.36292405140E+03 -0.24547032516E+03  0.13216558761E+04  0.13923878097E+04  0.10100000352E+00 0.  1.
</event>
<event>
 5   0  0.8907355E-03  0.9727884E+03  0.7818609E-02  0.9338904E-01
       -2   -1    0    0    0  501  0.00000000000E+00  0.00000000000E+00  0.17533324094E+03  0.17533324096E+03  0.25500000920E-02 0.  1.
        2   -1    0    0  501    0  0.00000000000E+00  0.00000000000E+00 -0.13493124825E+04  0.13493124825E+04  0.25500000920E-02 0. -1.
    10030    2    1    2    0    0  0.00000000000E+00  0.00000000000E+00 -0.11739792416E+04  0.15246457235E+04  0.97278842635E+03 0.  0.
        5    1    3    3  502    0  0.37400622820E+03  0.14475744445E+03 -0.15570775912E+03  0.43023525275E+03  0.46999998093E+01 0.  1.
       -5    1    3    3    0  502 -0.37400622820E+03 -0.14475744445E+03 -0.10182714825E+04  0.10944104707E+04  0.46999998093E+01 0. -1.
</event>
<event>
 5   0  0.5201968E-03  0.9997068E+03  0.7818609E-02  0.9308866E-01
       -1   -1    0    0    0  501  0.00000000000E+00  0.00000000000E+00  0.72524597094E+03  0.72524597096E+03  0.50400001928E-02 0. -1.
        1   -1    0    0  501    0  0.00000000000E+00  0.00000000000E+00 -0.34450849426E+03  0.34450849429E+03  0.50400001928E-02 0.  1.
    10030    2    1    2    0    0  0.00000000000E+00  0.00000000000E+00  0.38073747669E+03  0.10697544653E+04  0.99970675189E+03 0.  0.
        2    1    3    3  502    0 -0.94392587567E+02  0.26589673488E+03 -0.25114609846E+03  0.37773720625E+03  0.25500000920E-02 0.  1.
       -2    1    3    3    0  502  0.94392587567E+02 -0.26589673488E+03  0.63188357515E+03  0.69201725900E+03  0.25500000920E-02 0. -1.
</event>
<event>
 5   0  0.8875655E-03  0.9869188E+03  0.7818609E-02  0.9323010E-01
       -2   -1    0    0    0  501  0.00000000000E+00  0.00000000000E+00  0.52725865402E+03  0.52725865402E+03  0.25500000920E-02 0.  1.
        2   -1    0    0  501    0  0.00000000000E+00  0.00000000000E+00 -0.46182678887E+03  0.46182678887E+03  0.25500000920E-02 0. -1.
    10030    2    1    2    0    0  0.00000000000E+00  0.00000000000E+00  0.65431865151E+02  0.98908544290E+03  0.98691878307E+03 0.  0.
        4    1    3    3  502    0  0.35798526374E+03 -0.80608752750E+02 -0.29793160429E+03  0.47266909546E+03  0.12699999809E+01 0. -1.
       -4    1    3    3    0  502 -0.35798526374E+03  0.80608752750E+02  0.36336346944E+03  0.51641634743E+03  0.12699999809E+01 0.  1.
</event>
<event>
 5   0  0.5310275E-03  0.1024663E+04  0.7818609E-02  0.9281901E-01
        1   -1    0    0  501    0  0.00000000000E+00  0.00000000000E+00  0.10002749158E+04  0.10002749159E+04  0.50400001928E-02 0.  1.
       -1   -1    0    0    0  501  0.00000000000E+00  0.00000000000E+00 -0.26241125918E+03  0.26241125923E+03  0.50400001928E-02 0. -1.
    10030    2    1    2    0    0  0.00000000000E+00  0.00000000000E+00  0.73786365666E+03  0.12626861751E+04  0.10246626767E+04 0.  0.
        1    1    3    3  502    0  0.31916451259E+03  0.39860337830E+03  0.31763578938E+03  0.60136771946E+03  0.50400001928E-02 0. -1.
       -1    1    3    3    0  502 -0.31916451259E+03 -0.39860337830E+03  0.42022786728E+03  0.66131845562E+03  0.50400001928E-02 0.  1.
</event>
<event>
 5   0  0.9243773E-03  0.1003252E+04  0.7818609E-02  0.9304985E-01
       -2   -1    0    0    0  501  0.00000000000E+00  0.00000000000E+00  0.43245443525E+03  0.43245443525E+03  0.25500000920E-02 0. -1.
        2   -1    0    0  501    0  0.00000000000E+00  0.00000000000E+00 -0.58186208711E+03  0.58186208712E+03  0.25500000920E-02 0.  1.
    10030    2    1    2    0    0  0.00000000000E+00  0.00000000000E+00 -0.14940765186E+03  0.10143165224E+04  0.10032523915E+04 0.  0.
        3    1    3    3  502    0  0.13992570027E+03  0.23681098347E+03 -0.49881805512E+03  0.56962979715E+03  0.10100000352E+00 0.  1.
       -3    1    3    3    0  502 -0.13992570027E+03 -0.23681098347E+03  0.34941040325E+03  0.44468672522E+03  0.10100000352E+00 0. -1.
</event>
<event>
 5   0  0.5310275E-03  0.1009329E+04  0.7818609E-02  0.9298372E-01
        1   -1    0    0  501    0  0.00000000000E+00  0.00000000000E+00  0.84709888139E+03  0.84709888141E+03  0.50400001928E-02 0. -1.
       -1   -1    0    0    0  501  0.00000000000E+00  0.00000000000E+00 -0.30065713895E+03  0.30065713899E+03  0.50400001928E-02 0.  1.
    10030    2    1    2    0    0  0.00000000000E+00  0.00000000000E+00  0.54644174244E+03  0.11477560204E+04  0.10093291358E+04 0.  0.
        1    1    3    3  502    0  0.43591316210E+03  0.16225865960E+03  0.49587587052E+03  0.67988310502E+03  0.50400001928E-02 0. -1.
       -1    1    3    3    0  502 -0.43591316210E+03 -0.16225865960E+03  0.50565871926E+02  0.46787291537E+03  0.50400001928E-02 0.  1.
</event>
<event>
 5   0  0.8907355E-03  0.1196621E+04  0.7818609E-02  0.9115820E-01
       -2   -1    0    0    0  501  0.00000000000E+00  0.00000000000E+00  0.24948240380E+03  0.24948240381E+03  0.25500000920E-02 0.  1.
        2   -1    0    0  501    0  0.00000000000E+00  0.00000000000E+00 -0.14348719532E+04  0.14348719532E+04  0.25500000920E-02 0. -1.
    10030    2    1    2    0    0  0.00000000000E+00  0.00000000000E+00 -0.11853895494E+04  0.16843543570E+04  0.11966207487E+04 0.  0.
        5    1    3    3  502    0 -0.90522357863E+01 -0.59560041111E+03 -0.51392716071E+03  0.78674329307E+03  0.46999998093E+01 0.  1.
       -5    1    3    3    0  502  0.90522357863E+01  0.59560041111E+03 -0.67146238869E+03  0.89761106394E+03  0.46999998093E+01 0. -1.
</event>
<event>
 5   0  0.3513625E-03  0.9409194E+03  0.7818609E-02  0.9375828E-01
        3   -1    0    0  501    0  0.00000000000E+00  0.00000000000E+00  0.10767330443E+03  0.10767335180E+03  0.10100000352E+00 0.  1.
       -3   -1    0    0    0  501  0.00000000000E+00  0.00000000000E+00 -0.20555911016E+04  0.20555911040E+04  0.10100000352E+00 0. -1.
    10030    2    1    2    0    0  0.00000000000E+00  0.00000000000E+00 -0.19479177971E+04  0.21632644558E+04  0.94091942352E+03 0.  0.
        2    1    3    3  502    0 -0.39764934358E+03 -0.11875344152E+03 -0.46448743690E+03  0.62287716234E+03  0.25500000920E-02 0.  1.
       -2    1    3    3    0  502  0.39764934358E+03  0.11875344152E+03 -0.14834303602E+04  0.15403872935E+04  0.25500000920E-02 0. -1.
</event>
<event>
 5   0  0.5349685E-03  0.1015424E+04  0.7818609E-02  0.9291788E-01
       -1   -1    0    0    0  501  0.00000000000E+00  0.00000000000E+00  0.38103297467E+03  0.38103297470E+03  0.50400001928E-02 0. -1.
        1   -1    0    0  501    0  0.00000000000E+00  0.00000000000E+00 -0.67650657445E+03  0.67650657447E+03  0.50400001928E-02 0.  1.
    10030    2    1    2    0    0  0.00000000000E+00  0.00000000000E+00 -0.29547359978E+03  0.10575395492E+04  0.10154236800E+04 0.  0.
        4    1    3    3  502    0  0.29069914990E+03 -0.31570984967E+03  0.13479131201E+03  0.44983220830E+03  0.12699999809E+01 0. -1.
       -4    1    3    3    0  502 -0.29069914990E+03  0.31570984967E+03 -0.43026491179E+03  0.60770734087E+03  0.12699999809E+01 0.  1.
</event>
<event>
 5   0  0.8968798E-03  0.1000556E+04  0.7818609E-02  0.9307935E-01
        2   -1    0    0  501    0  0.00000000000E+00  0.00000000000E+00  0.64169636933E+03  0.64169636933E+03  0.25500000920E-02 0.  1.
       -2   -1    0    0    0  501  0.00000000000E+00  0.00000000000E+00 -0.39002573963E+03  0.39002573964E+03  0.25500000920E-02 0. -1.
    10030    2    1    2    0    0  0.00000000000E+00  0.00000000000E+00  0.25167062969E+03  0.10317221090E+04  0.10005560476E+04 0.  0.
        2    1    3    3  502    0 -0.35631791882E+03 -0.23645785806E+03 -0.14187306786E+03  0.45055825961E+03  0.25500000920E-02 0. -1.
       -2    1    3    3    0  502  0.35631791882E+03  0.23645785806E+03  0.39354369756E+03  0.58116384936E+03  0.25500000920E-02 0.  1.
</event>
<event>
 5   0  0.9243773E-03  0.1012334E+04  0.7818609E-02  0.9295120E-01
        2   -1    0    0  501    0  0.00000000000E+00  0.00000000000E+00  0.16741588660E+04  0.16741588660E+04  0.25500000920E-02 0.  1.
       -2   -1    0    0    0  501  0.00000000000E+00  0.00000000000E+00 -0.15303498491E+03  0.15303498493E+03  0.25500000920E-02 0. -1.
    10030    2    1    2    0    0  0.00000000000E+00  0.00000000000E+00  0.15211238811E+04  0.18271938509E+04  0.10123336936E+04 0.  0.
        3    1    3    3  502    0 -0.37400133540E+03  0.25420434472E+03  0.11709926823E+04  0.12552771487E+04  0.10100000352E+00 0.  1.
       -3    1    3    3    0  502  0.37400133540E+03 -0.25420434472E+03  0.35013119878E+03  0.57191670226E+03  0.10100000352E+00 0. -1.
</event>
<event>
 5   0  0.5189877E-03  0.9981144E+03  0.7818609E-02  0.9310615E-01
        1   -1    0    0  501    0  0.00000000000E+00  0.00000000000E+00  0.21223975447E+03  0.21223975453E+03  0.50400001928E-02 0.  1.
       -1   -1    0    0    0  501  0.00000000000E+00  0.00000000000E+00 -0.11734751046E+04  0.11734751047E+04  0.50400001928E-02 0. -1.
    10030    2    1    2    0    0  0.00000000000E+00  0.00000000000E+00 -0.96123535017E+03  0.13857148592E+04  0.99811435845E+03 0.  0.
        3    1    3    3  502    0 -0.11994495347E+03  0.12026687575E+03 -0.11321099548E+04  0.11447811464E+04  0.10100000352E+00 0. -1.
       -3    1    3    3    0  502  0.11994495347E+03 -0.12026687575E+03  0.17087460458E+03  0.24093371279E+03  0.10100000352E+00 0.  1.
</event>
<event>
 5   0  0.3513625E-03  0.9671275E+03  0.7818609E-02  0.9345352E-01
        4   -1    0    0  501    0  0.00000000000E+00  0.00000000000E+00  0.83485579927E+03  0.83485676525E+03  0.12699999809E+01 0. -1.
       -4   -1    0    0    0  501  0.00000000000E+00  0.00000000000E+00 -0.28008639724E+03  0.28008927651E+03  0.12699999809E+01 0.  1.
    10030    2    1    2    0    0  0.00000000000E+00  0.00000000000E+00  0.55476940203E+03  0.11149460418E+04  0.96712749243E+03 0.  0.
        2    1    3    3  502    0 -0.16442780255E+03 -0.40498281202E+03  0.51584856121E+03  0.67612670292E+03  0.25500000920E-02 0. -1.
       -2    1    3    3    0  502  0.16442780255E+03  0.40498281202E+03  0.38920840821E+02  0.43881933884E+03  0.25500000920E-02 0.  1.
</event>
<event>
 5   0  0.8875655E-03  0.9758937E+03  0.7818609E-02  0.9335387E-01
        2   -1    0    0  501    0  0.00000000000E+00  0.00000000000E+00  0.25263320698E+03  0.25263320699E+03  0.25500000920E-02 0. -1.
       -2   -1    0    0    0  501  0.00000000000E+00  0.00000000000E+00 -0.94244193190E+03  0.94244193191E+03  0.25500000920E-02 0.  1.
    10030    2    1    2    0    0  0.00000000000E+00  0.00000000000E+00 -0.68980872493E+03  0.11950751389E+04  0.97589369842E+03 0.  0.
        4    1    3    3  502    0  0.44844105762E+03 -0.17764144781E+03 -0.25462708923E+03  0.54542866959E+03  0.12699999809E+01 0.  1.
       -4    1    3    3    0  502 -0.44844105762E+03  0.17764144781E+03 -0.43518163570E+03  0.64964646931E+03  0.12699999809E+01 0. -1.
</event>
<event>
 5   0  0.8968798E-03  0.1006869E+04  0.7818609E-02  0.9301043E-01
        2   -1    0    0  501    0  0.00000000000E+00  0.00000000000E+00  0.16550070662E+03  0.16550070664E+03  0.25500000920E-02 0. -1.
       -2   -1    0    0    0  501  0.00000000000E+00  0.00000000000E+00 -0.15313919235E+04  0.15313919235E+04  0.25500000920E-02 0.  1.
    10030    2    1    2    0    0  0.00000000000E+00  0.00000000000E+00 -0.13658912169E+04  0.16968926302E+04  0.10068692973E+04 0.  0.
        2    1    3    3  502    0 -0.38099176510E+03  0.19552691018E+03 -0.23685891409E+03  0.48937474687E+03  0.25500000920E-02 0. -1.
       -2    1    3    3    0  502  0.38099176510E+03 -0.19552691018E+03 -0.11290323028E+04  0.12075178833E+04  0.25500000920E-02 0.  1.
</event>
<event>
 5   0  0.5201968E-03  0.1017425E+04  0.7818609E-02  0.9289637E-01
        1   -1    0    0  501    0  0.00000000000E+00  0.00000000000E+00  0.14892105239E+04  0.14892105239E+04  0.50400001928E-02 0.  1.
       -1   -1    0    0    0  501  0.00000000000E+00  0.00000000000E+00 -0.17377564219E+03  0.17377564226E+03  0.50400001928E-02 0. -1.
    10030    2    1    2    0    0  0.00000000000E+00  0.00000000000E+00  0.13154348817E+04  0.16629861662E+04  0.10174252114E+04 0.  0.
        2    1    3    3  502    0  0.20881451551E+03 -0.31888778918E+03  0.12083674328E+04  0.12670614731E+04  0.25500000920E-02 0.  1.
       -2    1    3    3    0  502 -0.20881451551E+03  0.31888778918E+03  0.10706744894E+03  0.39592469310E+03  0.25500000920E-02 0. -1.
</event>
<event>
 5   0  0.8968798E-03  0.1006380E+04  0.7818609E-02  0.9301574E-01
        2   -1    0    0  501    0  0.00000000000E+00  0.00000000000E+00  0.11821462139E+04  0.11821462139E+04  0.25500000920E-02 0.  1.
       -2   -1    0    0    0  501  0.00000000000E+00  0.00000000000E+00 -0.21418703840E+03  0.21418703842E+03  0.25500000920E-02 0. -1.
    10030    2    1    2    0    0  0.00000000000E+00  0.00000000000E+00  0.96795917552E+03  0.13963332523E+04  0.10063804381E+04 0.  0.
        2    1    3    3  502    0  0.19134461810E+03  0.20700759832E+03 -0.94344342423E+02  0.29726379462E+03  0.25500000920E-02 0. -1.
       -2    1    3    3    0  502 -0.19134461810E+03 -0.20700759832E+03  0.10623035179E+04  0.10990694577E+04  0.25500000920E-02 0.  1.
</event>
<event>
 5   0  0.8907355E-03  0.9988625E+03  0.7818609E-02  0.9309793E-01
       -2   -1    0    0    0  501  0.00000000000E+00  0.00000000000E+00  0.25174445470E+03  0.25174445472E+03  0.25500000920E-02 0.  1.
        2   -1    0    0  501    0  0.00000000000E+00  0.00000000000E+00 -0.99081267864E+03  0.99081267864E+03  0.25500000920E-02 0. -1.
    10030    2    1    2    0    0  0.00000000000E+00  0.00000000000E+00 -0.73906822394E+03  0.12425571334E+04  0.99886254812E+03 0.  0.
        5    1    3    3  502    0  0.16124156397E+02 -0.49244906405E+03 -0.26814131731E+03  0.56097052075E+03  0.46999998093E+01 0.  1.
       -5    1    3    3    0  502 -0.16124156397E+02  0.49244906405E+03 -0.47092690663E+03  0.68158661261E+03  0.46999998093E+01 0. -1.
</event>
<event>
 5   0  0.8875655E-03  0.1001441E+04  0.7818609E-02  0.9306965E-01
       -2   -1    0    0    0  501  0.00000000000E+00  0.00000000000E+00  0.13478952012E+03  0.13478952015E+03  0.25500000920E-02 0.  1.
        2   -1    0    0  501    0  0.00000000000E+00  0.00000000000E+00 -0.18600941331E+04  0.18600941331E+04  0.25500000920E-02 0. -1.
    10030    2    1    2    0    0  0.00000000000E+00  0.00000000000E+00 -0.17253046130E+04  0.19948836533E+04  0.10014413525E+04 0.  0.
        4    1    3    3  502    0  0.49724250376E+03 -0.49293149860E+02 -0.79842231988E+03  0.94189157335E+03  0.12699999809E+01 0.  1.
       -4    1    3    3    0  502 -0.49724250376E+03  0.49293149860E+02 -0.92688229312E+03  0.10529920799E+04  0.12699999809E+01 0. -1.
</event>
<event>
 5   0  0.8968798E-03  0.1002260E+04  0.7818609E-02  0.9306069E-01
        2   -1    0    0  501    0  0.00000000000E+00  0.00000000000E+00  0.21201960557E+04  0.21201960557E+04  0.25500000920E-02 0. -1.
       -2   -1    0    0    0  501  0.00000000000E+00  0.00000000000E+00 -0.11844729450E+03  0.11844729453E+03  0.25500000920E-02 0.  1.
    10030    2    1    2    0    0  0.00000000000E+00  0.00000000000E+00  0.20017487612E+04  0.22386433502E+04  0.10022604185E+04 0.  0.
        2    1    3    3  502    0 -0.16184892976E+03  0.93891088932E+02 -0.37496947035E+02  0.19083142742E+03  0.25500000920E-02 0.  1.
       -2    1    3    3    0  502  0.16184892976E+03 -0.93891088932E+02  0.20392457082E+04  0.20478119228E+04  0.25500000920E-02 0. -1.
</event>
<event>
 5   0  0.8907355E-03  0.8723290E+03  0.7818609E-02  0.9460848E-01
        2   -1    0    0  501    0  0.00000000000E+00  0.00000000000E+00  0.15180365433E+04  0.15180365433E+04  0.25500000920E-02 0. -1.
       -2   -1    0    0    0  501  0.00000000000E+00  0.00000000000E+00 -0.12531943104E+03  0.12531943107E+03  0.25500000920E-02 0.  1.
    10030    2    1    2    0    0  0.00000000000E+00  0.00000000000E+00  0.13927171123E+04  0.16433559744E+04  0.87232901117E+03 0.  0.
        5    1    3    3  502    0 -0.35957353356E+03  0.51712797190E+02  0.11510318754E+04  0.12070061341E+04  0.46999998093E+01 0. -1.
       -5    1    3    3    0  502  0.35957353356E+03 -0.51712797190E+02  0.24168523684E+03  0.43634984031E+03  0.46999998093E+01 0.  1.
</event>
<event>
 5   0  0.5310275E-03  0.1002322E+04  0.7818609E-02  0.9306002E-01
       -1   -1    0    0    0  501  0.00000000000E+00  0.00000000000E+00  0.26531750543E+03  0.26531750548E+03  0.50400001928E-02 0. -1.
        1   -1    0    0  501    0  0.00000000000E+00  0.00000000000E+00 -0.94664785427E+03  0.94664785429E+03  0.50400001928E-02 0.  1.
    10030    2    1    2    0    0  0.00000000000E+00  0.00000000000E+00 -0.68133034884E+03  0.12119653598E+04  0.10023217991E+04 0.  0.
        1    1    3    3  502    0 -0.20344787925E+02 -0.83446921780E+02  0.25635151944E+03  0.27035791221E+03  0.50400001928E-02 0. -1.
       -1    1    3    3    0  502  0.20344787925E+02  0.83446921780E+02 -0.93768186828E+03  0.94160744755E+03  0.50400001928E-02 0.  1.
</event>
<event>
 5   0  0.9243773E-03  0.1003398E+04  0.7818609E-02  0.9304826E-01
        2   -1    0    0  501    0  0.00000000000E+00  0.00000000000E+00  0.16341272027E+04  0.16341272027E+04  0.25500000920E-02 0.  1.
       -2   -1    0    0    0  501  0.00000000000E+00  0.00000000000E+00 -0.15402820925E+03  0.15402820927E+03  0.25500000920E-02 0. -1.
    10030    2    1    2    0    0  0.00000000000E+00  0.00000000000E+00  0.14800989934E+04  0.17881554119E+04  0.10033976016E+04 0.  0.
        3    1    3    3  502    0  0.10196852189E+03 -0.42139884056E+03  0.29017193855E+03  0.52170329346E+03  0.10100000352E+00 0. -1.
       -3    1    3    3    0  502 -0.10196852189E+03  0.42139884056E+03  0.11899270549E+04  0.12664521185E+04  0.10100000352E+00 0.  1.
</event>
<event>
 5   0  0.5310275E-03  0.1031205E+04  0.7818609E-02  0.9274966E-01
       -1   -1    0    0    0  501  0.00000000000E+00  0.00000000000E+00  0.46640589905E+03  0.46640589908E+03  0.50400001928E-02 0.  1.
        1   -1    0    0  501    0  0.00000000000E+00  0.00000000000E+00 -0.56998880103E+03  0.56998880105E+03  0.50400001928E-02 0. -1.
    10030    2    1    2    0    0  0.00000000000E+00  0.00000000000E+00 -0.10358290198E+03  0.10363947001E+04  0.10312053902E+04 0.  0.
        1    1    3    3  502    0 -0.46602124552E+03  0.72835214830E+02 -0.26108292374E+03  0.53911507388E+03  0.50400001928E-02 0. -1.
       -1    1    3    3    0  502  0.46602124552E+03 -0.72835214830E+02  0.15750002176E+03  0.49727962624E+03  0.50400001928E-02 0.  1.
</event>
<event>
 5   0  0.8968798E-03  0.9994789E+03  0.7818609E-02  0.9309117E-01
       -2   -1    0    0    0  501  0.00000000000E+00  0.00000000000E+00  0.45427874434E+03  0.45427874435E+03  0.25500000920E-02 0. -1.
        2   -1    0    0  501    0  0.00000000000E+00  0.00000000000E+00 -0.54974947467E+03  0.54974947468E+03  0.25500000920E-02 0.  1.
    10030    2    1    2    0    0  0.00000000000E+00  0.00000000000E+00 -0.95470730332E+02  0.10040282190E+04  0.99947886634E+03 0.  0.
        2    1    3    3  502    0  0.16137683693E+03  0.43834046807E+03 -0.22618020691E+03  0.51898201843E+03  0.25500000920E-02 0.  1.
       -2    1    3    3    0  502 -0.16137683693E+03 -0.43834046807E+03  0.13070947658E+03  0.48504620060E+03  0.25500000920E-02 0. -1.
</event>
<event>
 5   0  0.8907355E-03  0.1004310E+04  0.7818609E-02  0.9303830E-01
        2   -1    0    0  501    0  0.00000000000E+00  0.00000000000E+00  0.80176838979E+03  0.80176838979E+03  0.25500000920E-02 0. -1.
       -2   -1    0    0    0  501  0.00000000000E+00  0.00000000000E+00 -0.31450440364E+03  0.31450440365E+03  0.25500000920E-02 0.  1.
    10030    2    1    2    0    0  0.00000000000E+00  0.00000000000E+00  0.48726398615E+03  0.11162727934E+04  0.10043100902E+04 0.  0.
        5    1    3    3  502    0  0.78778152516E+02 -0.16654886077E+03  0.76281802444E+03  0.78476617457E+03  0.46999998093E+01 0. -1.
       -5    1    3    3    0  502 -0.78778152516E+02  0.16654886077E+03 -0.27555403829E+03  0.33150661887E+03  0.46999998093E+01 0.  1.
</event>
<event>
 5   0  0.5310275E-03  0.9784020E+03  0.7818609E-02  0.9332555E-01
        1   -1    0    0  501    0  0.00000000000E+00  0.00000000000E+00  0.81034976073E+03  0.81034976075E+03  0.50400001928E-02 0. -1.
       -1   -1    0    0    0  501  0.00000000000E+00  0.00000000000E+00 -0.29532633278E+03  0.29532633283E+03  0.50400001928E-02 0.  1.
    10030    2    1    2    0    0  0.00000000000E+00  0.00000000000E+00  0.51502342795E+03  0.11056760936E+04  0.97840200969E+03 0.  0.
        1    1    3    3  502    0  0.29448758999E+03 -0.37134161489E+03  0.39452748014E+03  0.61665992915E+03  0.50400001928E-02 0. -1.
       -1    1    3    3    0  502 -0.29448758999E+03  0.37134161489E+03  0.12049594781E+03  0.48901616443E+03  0.50400001928E-02 0.  1.
</event>
<event>
 5   0  0.5349685E-03  0.1001133E+04  0.7818609E-02  0.9307303E-01
       -1   -1    0    0    0  501  0.00000000000E+00  0.00000000000E+00  0.41346794567E+03  0.41346794570E+03  0.50400001928E-02 0.  1.
        1   -1    0    0  501    0  0.00000000000E+00  0.00000000000E+00 -0.60601237577E+03  0.60601237579E+03  0.50400001928E-02 0. -1.
    10030    2    1    2    0    0  0.00000000000E+00  0.00000000000E+00 -0.19254443009E+03  0.10194803215E+04  0.10011327426E+04 0.  0.
        4    1    3    3  502    0 -0.40003911373E+03  0.27830686515E+03  0.20187495124E+02  0.48774496569E+03  0.12699999809E+01 0. -1.
       -4    1    3    3    0  502  0.40003911373E+03 -0.27830686515E+03 -0.21273192522E+03  0.53173535580E+03  0.12699999809E+01 0.  1.
</event>
<event>
 5   0  0.5189877E-03  0.9941575E+03  0.7818609E-02  0.9314976E-01
        1   -1    0    0  501    0  0.00000000000E+00  0.00000000000E+00  0.46223537369E+03  0.46223537372E+03  0.50400001928E-02 0. -1.
       -1   -1    0    0    0  501  0.00000000000E+00  0.00000000000E+00 -0.53454861443E+03  0.53454861445E+03  0.50400001928E-02 0.  1.
    10030    2    1    2    0    0  0.00000000000E+00  0.00000000000E+00 -0.72313240735E+02  0.99678398817E+03  0.99415748968E+03 0.  0.
        3    1    3    3  502    0 -0.90686217272E+02 -0.14584675137E+03 -0.50385657725E+03  0.53232201300E+03  0.10100000352E+00 0.  1.
       -3    1    3    3    0  502  0.90686217272E+02  0.14584675137E+03  0.43154333651E+03  0.46446197517E+03  0.10100000352E+00 0. -1.
</event>
<event>
 5   0  0.3513625E-03  0.9938264E+03  0.7818609E-02  0.9315342E-01
       -3   -1    0    0    0  501  0.00000000000E+00  0.00000000000E+00  0.91152471528E+03  0.91152472088E+03  0.10100000352E+00 0.  1.
        3   -1    0    0  501    0  0.00000000000E+00  0.00000000000E+00 -0.27088976512E+03  0.27088978395E+03  0.10100000352E+00 0. -1.
    10030    2    1    2    0    0  0.00000000000E+00  0.00000000000E+00  0.64063495016E+03  0.11824145048E+04  0.99382640429E+03 0.  0.
        2    1    3    3  502    0  0.46408338367E+03  0.10140030065E+03  0.14681102434E+03  0.49720105072E+03  0.25500000920E-02 0. -1.
       -2    1    3    3    0  502 -0.46408338367E+03 -0.10140030065E+03  0.49382392582E+03  0.68521345411E+03  0.25500000920E-02 0.  1.
</event>
<event>
 5   0  0.5072205E-03  0.9869468E+03  0.7818609E-02  0.9322978E-01
        1   -1    0    0  501    0  0.00000000000E+00  0.00000000000E+00  0.83344752248E+03  0.83344752249E+03  0.50400001928E-02 0. -1.
       -1   -1    0    0    0  501  0.00000000000E+00  0.00000000000E+00 -0.29217917953E+03  0.29217917957E+03  0.50400001928E-02 0.  1.
    10030    2    1    2    0    0  0.00000000000E+00  0.00000000000E+00  0.54126834295E+03  0.11256267021E+04  0.98694683409E+03 0.  0.
        5    1    3    3  502    0  0.16656210374E+03 -0.35088847943E+03 -0.76480036805E+02  0.39590017103E+03  0.46999998093E+01 0.  1.
       -5    1    3    3    0  502 -0.16656210374E+03  0.35088847943E+03  0.61774837976E+03  0.72972653103E+03  0.46999998093E+01 0. -1.
</event>
<event>
 5   0  0.5189877E-03  0.1009616E+04  0.7818609E-02  0.9298060E-01
        1   -1    0    0  501    0  0.00000000000E+00  0.00000000000E+00  0.12059144481E+04  0.12059144481E+04  0.50400001928E-02 0.  1.
       -1   -1    0    0    0  501  0.00000000000E+00  0.00000000000E+00 -0.21131780375E+03  0.21131780381E+03  0.50400001928E-02 0. -1.
    10030    2    1    2    0    0  0.00000000000E+00  0.00000000000E+00  0.99459664431E+03  0.14172322519E+04  0.10096161503E+04 0.  0.
        3    1    3    3  502    0 -0.26877485374E+03 -0.40051174578E+03  0.28823338977E+03  0.56189685681E+03  0.10100000352E+00 0. -1.
       -3    1    3    3    0  502  0.26877485374E+03  0.40051174578E+03  0.70636325454E+03  0.85533539508E+03  0.10100000352E+00 0.  1.
</event>
<event>
 5   0  0.8907355E-03  0.9137335E+03  0.7818609E-02  0.9408575E-01
        2   -1    0    0  501    0  0.00000000000E+00  0.00000000000E+00  0.98099035290E+03  0.98099035291E+03  0.25500000920E-02 0. -1.
       -2   -1    0    0    0  501  0.00000000000E+00  0.00000000000E+00 -0.21277196774E+03  0.21277196776E+03  0.25500000920E-02 0.  1.
    10030    2    1    2    0    0  0.00000000000E+00  0.00000000000E+00  0.76821838516E+03  0.11937623207E+04  0.91373354482E+03 0.  0.
        5    1    3    3  502    0  0.80062138830E+02 -0.94225670613E+02  0.95868233478E+03  0.96663453905E+03  0.46999998093E+01 0. -1.
       -5    1    3    3    0  502 -0.80062138830E+02  0.94225670613E+02 -0.19046394962E+03  0.22712778161E+03  0.46999998093E+01 0.  1.
</event>
<event>
 5   0  0.3513625E-03  0.1044988E+04  0.7818609E-02  0.9260533E-01
       -3   -1    0    0    0  501  0.00000000000E+00  0.00000000000E+00  0.32438443379E+03  0.32438444951E+03  0.10100000352E+00 0. -1.
        3   -1    0    0  501    0  0.00000000000E+00  0.00000000000E+00 -0.84159467479E+03  0.84159468085E+03  0.10100000352E+00 0.  1.
    10030    2    1    2    0    0  0.00000000000E+00  0.00000000000E+00 -0.51721024101E+03  0.11659791304E+04  0.10449884684E+04 0.  0.
        5    1    3    3  502    0  0.37911512631E+03 -0.35078772737E+03 -0.17076377645E+03  0.54402450865E+03  0.46999998093E+01 0. -1.
       -5    1    3    3    0  502 -0.37911512631E+03  0.35078772737E+03 -0.34644646456E+03  0.62195462171E+03  0.46999998093E+01 0.  1.
</event>
<event>
 5   0  0.5072205E-03  0.1007545E+04  0.7818609E-02  0.9300308E-01
        1   -1    0    0  501    0  0.00000000000E+00  0.00000000000E+00  0.81217886914E+03  0.81217886915E+03  0.50400001928E-02 0. -1.
       -1   -1    0    0    0  501  0.00000000000E+00  0.00000000000E+00 -0.31247655592E+03  0.31247655596E+03  0.50400001928E-02 0.  1.
    10030    2    1    2    0    0  0.00000000000E+00  0.00000000000E+00  0.49970231322E+03  0.11246554251E+04  0.10075452463E+04 0.  0.
        5    1    3    3  502    0  0.22543268707E+03 -0.23638611088E+03  0.67791817457E+03  0.75252470473E+03  0.46999998093E+01 0. -1.
       -5    1    3    3    0  502 -0.22543268707E+03  0.23638611088E+03 -0.17821586135E+03  0.37213072038E+03  0.46999998093E+01 0.  1.
</event>
<event>
 5   0  0.8907355E-03  0.9870391E+03  0.7818609E-02  0.9322875E-01
       -2   -1    0    0    0  501  0.00000000000E+00  0.00000000000E+00  0.43903847951E+03  0.43903847951E+03  0.25500000920E-02 0.  1.
        2   -1    0    0  501    0  0.00000000000E+00  0.00000000000E+00 -0.55476132067E+03  0.55476132068E+03  0.25500000920E-02 0. -1.
    10030    2    1    2    0    0  0.00000000000E+00  0.00000000000E+00 -0.11572284116E+03  0.99379980019E+03  0.98703914152E+03 0.  0.
        5    1    3    3  502    0  0.35259594298E+03 -0.27789918581E+03 -0.26417373937E+03  0.52092390140E+03  0.46999998093E+01 0. -1.
       -5    1    3    3    0  502 -0.35259594298E+03  0.27789918581E+03  0.14845089820E+03  0.47287589879E+03  0.46999998093E+01 0.  1.
</event>
<event>
 5   0  0.5349685E-03  0.1012536E+04  0.7818609E-02  0.9294901E-01
        1   -1    0    0  501    0  0.00000000000E+00  0.00000000000E+00  0.11349008661E+04  0.11349008661E+04  0.50400001928E-02 0.  1.
       -1   -1    0    0    0  501  0.00000000000E+00  0.00000000000E+00 -0.22584132222E+03  0.22584132227E+03  0.50400001928E-02 0. -1.
    10030    2    1    2    0    0  0.00000000000E+00  0.00000000000E+00  0.90905954388E+03  0.13607421884E+04  0.10125364433E+04 0.  0.
        4    1    3    3  502    0 -0.14053574624E+03 -0.79785356329E+02  0.10993049631E+04  0.11111206118E+04  0.12699999809E+01 0.  1.
       -4    1    3    3    0  502  0.14053574624E+03  0.79785356329E+02 -0.19024541926E+03  0.24962157660E+03  0.12699999809E+01 0. -1.
</event>
<event>
 5   0  0.5072205E-03  0.1007676E+04  0.7818609E-02  0.9300166E-01
       -1   -1    0    0    0  501  0.00000000000E+00  0.00000000000E+00  0.43965715718E+03  0.43965715721E+03  0.50400001928E-02 0.  1.
        1   -1    0    0  501    0  0.00000000000E+00  0.00000000000E+00 -0.57738758626E+03  0.57738758629E+03  0.50400001928E-02 0. -1.
    10030    2    1    2    0    0  0.00000000000E+00  0.00000000000E+00 -0.13773042908E+03  0.10170447435E+04  0.10076757113E+04 0.  0.
        5    1    3    3  502    0  0.34956585138E+03 -0.15312413378E+03 -0.40084162861E+03  0.55347934562E+03  0.46999998093E+01 0. -1.
       -5    1    3    3    0  502 -0.34956585138E+03  0.15312413378E+03  0.26311119953E+03  0.46356539788E+03  0.46999998093E+01 0.  1.
</event>
<event>
 5   0  0.9243773E-03  0.1005005E+04  0.7818609E-02  0.9303072E-01
       -2   -1    0    0    0  501  0.00000000000E+00  0.00000000000E+00  0.27432659548E+03  0.27432659549E+03  0.25500000920E-02 0. -1.
        2   -1    0    0  501    0  0.00000000000E+00  0.00000000000E+00 -0.92046840391E+03  0.92046840391E+03  0.25500000920E-02 0.  1.
    10030    2    1    2    0    0  0.00000000000E+00  0.00000000000E+00 -0.64614180843E+03  0.11947949994E+04  0.10050054000E+04 0.  0.
        3    1    3    3  502    0  0.32760871211E+02 -0.21559421427E+03 -0.86128375379E+03  0.88846150994E+03  0.10100000352E+00 0.  1.
       -3    1    3    3    0  502 -0.32760871211E+02  0.21559421427E+03  0.21514194536E+03  0.30633348946E+03  0.10100000352E+00 0. -1.
</event>
<event>
 5   0  0.8907355E-03  0.9979060E+03  0.7818609E-02  0.9310844E-01
        2   -1    0    0  501    0  0.00000000000E+00  0.00000000000E+00  0.68298377139E+03  0.68298377140E+03  0.25500000920E-02 0. -1.
       -2   -1    0    0    0  501  0.00000000000E+00  0.00000000000E+00 -0.36450950460E+03  0.36450950461E+03  0.25500000920E-02 0.  1.
    10030    2    1    2    0    0  0.00000000000E+00  0.00000000000E+00  0.31847426679E+03  0.10474932760E+04  0.99790595984E+03 0.  0.
        5    1    3    3  502    0  0.40226524666E+03  0.28425022185E+03  0.24266263138E+03  0.54911088130E+03  0.46999998093E+01 0. -1.
       -5    1    3    3    0  502 -0.40226524666E+03 -0.28425022185E+03  0.75811635406E+02  0.49838239471E+03  0.46999998093E+01 0.  1.
</event>
<event>
 5   0  0.5072205E-03  0.1099853E+04  0.7818609E-02  0.9205335E-01
       -1   -1    0    0    0  501  0.00000000000E+00  0.00000000000E+00  0.38603061763E+03  0.38603061766E+03  0.50400001928E-02 0. -1.
        1   -1    0    0  501    0  0.00000000000E+00  0.00000000000E+00 -0.78340784070E+03  0.78340784072E+03  0.50400001928E-02 0.  1.
    10030    2    1    2    0    0  0.00000000000E+00  0.00000000000E+00 -0.39737722307E+03  0.11694384584E+04  0.10998534678E+04 0.  0.
        5    1    3    3  502    0  0.33343950210E+03  0.39865857714E+03 -0.76352093009E+01  0.51979895066E+03  0.46999998093E+01 0. -1.
       -5    1    3    3    0  502 -0.33343950210E+03 -0.39865857714E+03 -0.38974201377E+03  0.64963950772E+03  0.46999998093E+01 0.  1.
</event>
<event>
 5   0  0.8875655E-03  0.1086227E+04  0.7818609E-02  0.9218721E-01
       -2   -1    0    0    0  501  0.00000000000E+00  0.00000000000E+00  0.15152834795E+03  0.15152834797E+03  0.25500000920E-02 0. -1.
        2   -1    0    0  501    0  0.00000000000E+00  0.00000000000E+00 -0.19466464719E+04  0.19466464719E+04  0.25500000920E-02 0.  1.
    10030    2    1    2    0    0  0.00000000000E+00  0.00000000000E+00 -0.17951181240E+04  0.20981748199E+04  0.10862267239E+04 0.  0.
        4    1    3    3  502    0 -0.59069547425E+02  0.39418967484E+03 -0.18496278563E+03  0.43941729160E+03  0.12699999809E+01 0. -1.
       -4    1    3    3    0  502  0.59069547425E+02 -0.39418967484E+03 -0.16101553383E+04  0.16587575283E+04  0.12699999809E+01 0.  1.
</event>
<event>
 5   0  0.5310275E-03  0.9889967E+03  0.7818609E-02  0.9320696E-01
        1   -1    0    0  501    0  0.00000000000E+00  0.00000000000E+00  0.43265419718E+03  0.43265419721E+03  0.50400001928E-02 0. -1.
       -1   -1    0    0    0  501  0.00000000000E+00  0.00000000000E+00 -0.56518253679E+03  0.56518253681E+03  0.50400001928E-02 0.  1.
    10030    2    1    2    0    0  0.00000000000E+00  0.00000000000E+00 -0.13252833961E+03  0.99783673402E+03  0.98899665670E+03 0.  0.
        1    1    3    3  502    0 -0.43538966100E+03 -0.76301500815E+02  0.15739843550E+03  0.46921247154E+03  0.50400001928E-02 0. -1.
       -1    1    3    3    0  502  0.43538966100E+03  0.76301500815E+02 -0.28992677511E+03  0.52862426248E+03  0.50400001928E-02 0.  1.
</event>
<event>
 5   0  0.5201968E-03  0.9928857E+03  0.7818609E-02  0.9316382E-01
       -1   -1    0    0    0  501  0.00000000000E+00  0.00000000000E+00  0.36125406030E+03  0.36125406034E+03  0.50400001928E-02 0. -1.
        1   -1    0    0  501    0  0.00000000000E+00  0.00000000000E+00 -0.68222205300E+03  0.68222205302E+03  0.50400001928E-02 0.  1.
    10030    2    1    2    0    0  0.00000000000E+00  0.00000000000E+00 -0.32096799270E+03  0.10434761134E+04  0.99288566653E+03 0.  0.
        2    1    3    3  502    0  0.45819017675E+03 -0.33639483776E+02 -0.35817948539E+03  0.58254819260E+03  0.25500000920E-02 0.  1.
       -2    1    3    3    0  502 -0.45819017675E+03  0.33639483776E+02  0.37211492692E+02  0.46092792076E+03  0.25500000920E-02 0. -1.
</event>
<event>
 5   0  0.5349685E-03  0.1009007E+04  0.7818609E-02  0.9298721E-01
       -1   -1    0    0    0  501  0.00000000000E+00  0.00000000000E+00  0.29458263031E+03  0.29458263035E+03  0.50400001928E-02 0.  1.
        1   -1    0    0  501    0  0.00000000000E+00  0.00000000000E+00 -0.86401502775E+03  0.86401502777E+03  0.50400001928E-02 0. -1.
    10030    2    1    2    0    0  0.00000000000E+00  0.00000000000E+00 -0.56943239744E+03  0.11585976581E+04  0.10090070754E+04 0.  0.
        4    1    3    3  502    0  0.23351476815E+03 -0.12187985508E+02 -0.79803190006E+03  0.83158536564E+03  0.12699999809E+01 0. -1.
       -4    1    3    3    0  502 -0.23351476815E+03  0.12187985508E+02  0.22859950262E+03  0.32701229248E+03  0.12699999809E+01 0.  1.
</event>
<event>
 5   0  0.5349685E-03  0.9987250E+03  0.7818609E-02  0.9309944E-01
        1   -1    0    0  501    0  0.00000000000E+00  0.00000000000E+00  0.52248210509E+03  0.52248210512E+03  0.50400001928E-02 0. -1.
       -1   -1    0    0    0  501  0.00000000000E+00  0.00000000000E+00 -0.47726591105E+03  0.47726591108E+03  0.50400001928E-02 0.  1.
    10030    2    1    2    0    0  0.00000000000E+00  0.00000000000E+00  0.45216194045E+02  0.99974801619E+03  0.99872498301E+03 0.  0.
        4    1    3    3  502    0 -0.31333715555E+03  0.35889481176E+03 -0.12712997429E+03  0.49310171590E+03  0.12699999809E+01 0.  1.
       -4    1    3    3    0  502  0.31333715555E+03 -0.35889481176E+03  0.17234616834E+03  0.50664630029E+03  0.12699999809E+01 0. -1.
</event>
<event>
 5   0  0.5310275E-03  0.1001354E+04  0.7818609E-02  0.9307061E-01
       -1   -1    0    0    0  501  0.00000000000E+00  0.00000000000E+00  0.17334794851E+03  0.17334794858E+03  0.50400001928E-02 0. -1.
        1   -1    0    0  501    0  0.00000000000E+00  0.00000000000E+00 -0.14460953134E+04  0.14460953134E+04  0.50400001928E-02 0.  1.
    10030    2    1    2    0    0  0.00000000000E+00  0.00000000000E+00 -0.12727473649E+04  0.16194432620E+04  0.10013543948E+04 0.  0.
        1    1    3    3  502    0 -0.25649548307E+03  0.21597884699E+03 -0.35066843427E+02  0.33714459615E+03  0.50400001928E-02 0.  1.
       -1    1    3    3    0  502  0.25649548307E+03 -0.21597884699E+03 -0.12376805214E+04  0.12822986658E+04  0.50400001928E-02 0. -1.
</event>
<event>
 5   0  0.5072205E-03  0.1027472E+04  0.7818609E-02  0.9278917E-01
       -1   -1    0    0    0  501  0.00000000000E+00  0.00000000000E+00  0.73281349182E+03  0.73281349184E+03  0.50400001928E-02 0. -1.
        1   -1    0    0  501    0  0.00000000000E+00  0.00000000000E+00 -0.36015253148E+03  0.36015253151E+03  0.50400001928E-02 0.  1.
    10030    2    1    2    0    0  0.00000000000E+00  0.00000000000E+00  0.37266096034E+03  0.10929660233E+04  0.10274719154E+04 0.  0.
        5    1    3    3  502    0  0.33669663446E+03  0.37830725503E+03  0.94690759397E+02  0.51523725872E+03  0.46999998093E+01 0. -1.
       -5    1    3    3    0  502 -0.33669663446E+03 -0.37830725503E+03  0.27797020094E+03  0.57772876463E+03  0.46999998093E+01 0.  1.
</event>
<event>
 5   0  0.8875655E-03  0.9911913E+03  0.7818609E-02  0.9318259E-01
       -2   -1    0    0    0  501  0.00000000000E+00  0.00000000000E+00  0.28627928715E+03  0.28627928716E+03  0.25500000920E-02 0.  1.
        2   -1    0    0  501    0  0.00000000000E+00  0.00000000000E+00 -0.85795604318E+03  0.85795604318E+03  0.25500000920E-02 0. -1.
    10030    2    1    2    0    0  0.00000000000E+00  0.00000000000E+00 -0.57167675603E+03  0.11442353303E+04  0.99119129224E+03 0.  0.
        4    1    3    3  502    0  0.41228700110E+03  0.25986641272E+03 -0.38974955033E+03  0.62403321115E+03  0.12699999809E+01 0.  1.
       -4    1    3    3    0  502 -0.41228700110E+03 -0.25986641272E+03 -0.18192720570E+03  0.52020211919E+03  0.12699999809E+01 0. -1.
</event>
<event>
 5   0  0.5072205E-03  0.9956331E+03  0.7818609E-02  0.9313347E-01
       -1   -1    0    0    0  501  0.00000000000E+00  0.00000000000E+00  0.52586168510E+03  0.52586168513E+03  0.50400001928E-02 0.  1.
        1   -1    0    0  501    0  0.00000000000E+00  0.00000000000E+00 -0.47126710063E+03  0.47126710065E+03  0.50400001928E-02 0. -1.
    10030    2    1    2    0    0  0.00000000000E+00  0.00000000000E+00  0.54594584479E+02  0.99712878578E+03  0.99563308843E+03 0.  0.
        5    1    3    3  502    0  0.42544386676E+03  0.24982248471E+03  0.93619612464E+02  0.50219565855E+03  0.46999998093E+01 0.  1.
       -5    1    3    3    0  502 -0.42544386676E+03 -0.24982248471E+03 -0.39025027985E+02  0.49493312723E+03  0.46999998093E+01 0. -1.
</event>
<event>
 5   0  0.8875655E-03  0.1027477E+04  0.7818609E-02  0.9278912E-01
       -2   -1    0    0    0  501  0.00000000000E+00  0.00000000000E+00  0.24018423662E+03  0.24018423663E+03  0.25500000920E-02 0.  1.
        2   -1    0    0  501    0  0.00000000000E+00  0.00000000000E+00 -0.10988527904E+04  0.10988527904E+04  0.25500000920E-02 0. -1.
    10030    2    1    2    0    0  0.00000000000E+00  0.00000000000E+00 -0.85866855377E+03  0.13390370270E+04  0.10274767513E+04 0.  0.
        4    1    3    3  502    0  0.28882772337E+03 -0.74533475988E+02 -0.97443415179E+03  0.10190683107E+04  0.12699999809E+01 0. -1.
       -4    1    3    3    0  502 -0.28882772337E+03  0.74533475988E+02  0.11576559803E+03  0.31996871631E+03  0.12699999809E+01 0.  1.
</event>
<event>
 5   0  0.5310275E-03  0.1063473E+04  0.7818609E-02  0.9241543E-01
       -1   -1    0    0    0  501  0.00000000000E+00  0.00000000000E+00  0.40491956348E+03  0.40491956351E+03  0.50400001928E-02 0.  1.
        1   -1    0    0  501    0  0.00000000000E+00  0.00000000000E+00 -0.69827164834E+03  0.69827164836E+03  0.50400001928E-02 0. -1.
    10030    2    1    2    0    0  0.00000000000E+00  0.00000000000E+00 -0.29335208487E+03  0.11031912119E+04  0.10634732739E+04 0.  0.
        1    1    3    3  502    0  0.25738113569E+03  0.45580624946E+03 -0.24365257164E+03  0.57738285544E+03  0.50400001928E-02 0. -1.
       -1    1    3    3    0  502 -0.25738113569E+03 -0.45580624946E+03 -0.49699513222E+02  0.52580835644E+03  0.50400001928E-02 0.  1.
</event>
<event>
 5   0  0.3513625E-03  0.1032291E+04  0.7818609E-02  0.9273821E-01
       -3   -1    0    0    0  501  0.00000000000E+00  0.00000000000E+00  0.34312987595E+03  0.34312989081E+03  0.10100000352E+00 0.  1.
        3   -1    0    0  501    0  0.00000000000E+00  0.00000000000E+00 -0.77639991060E+03  0.77639991717E+03  0.10100000352E+00 0. -1.
    10030    2    1    2    0    0  0.00000000000E+00  0.00000000000E+00 -0.43327003465E+03  0.11195298080E+04  0.10322906897E+04 0.  0.
        1    1    3    3  502    0 -0.14986091672E+03  0.23257114747E+03 -0.68918585887E+03  0.74264714440E+03  0.50400001928E-02 0. -1.
       -1    1    3    3    0  502  0.14986091672E+03 -0.23257114747E+03  0.25591582422E+03  0.37688266358E+03  0.50400001928E-02 0.  1.
</event>
<event>
 5   0  0.9040674E-03  0.9787233E+03  0.7818609E-02  0.9332194E-01
       -2   -1    0    0    0  501  0.00000000000E+00  0.00000000000E+00  0.25729520767E+03  0.25729520768E+03  0.25500000920E-02 0. -1.
        2   -1    0    0  501    0  0.00000000000E+00  0.00000000000E+00 -0.93073948954E+03  0.93073948954E+03  0.25500000920E-02 0.  1.
    10030    2    1    2    0    0  0.00000000000E+00  0.00000000000E+00 -0.67344428187E+03  0.11880346972E+04  0.97872327092E+03 0.  0.
        1    1    3    3  502    0 -0.26374717943E+03  0.22164827867E+03  0.85143747743E+02  0.35488025009E+03  0.50400001928E-02 0. -1.
       -1    1    3    3    0  502  0.26374717943E+03 -0.22164827867E+03 -0.75858802961E+03  0.83315444714E+03  0.50400001928E-02 0.  1.
</event>
<event>
 5   0  0.5189877E-03  0.1006710E+04  0.7818609E-02  0.9301216E-01
        1   -1    0    0  501    0  0.00000000000E+00  0.00000000000E+00  0.19206518373E+04  0.19206518373E+04  0.50400001928E-02 0.  1.
       -1   -1    0    0    0  501  0.00000000000E+00  0.00000000000E+00 -0.13191685771E+03  0.13191685780E+03  0.50400001928E-02 0. -1.
    10030    2    1    2    0    0  0.00000000000E+00  0.00000000000E+00  0.17887349796E+04  0.20525686951E+04  0.10067101971E+04 0.  0.
        3    1    3    3  502    0 -0.32508412442E+03  0.27587985552E+03  0.14398487877E+04  0.15016504001E+04  0.10100000352E+00 0.  1.
       -3    1    3    3    0  502  0.32508412442E+03 -0.27587985552E+03  0.34888619193E+03  0.55091829499E+03  0.10100000352E+00 0. -1.
</event>
<event>
 5   0  0.8968798E-03  0.1008307E+04  0.7818609E-02  0.9299481E-01
       -2   -1    0    0    0  501  0.00000000000E+00  0.00000000000E+00  0.43010472464E+03  0.43010472465E+03  0.25500000920E-02 0. -1.
        2   -1    0    0  501    0  0.00000000000E+00  0.00000000000E+00 -0.59095034081E+03  0.59095034082E+03  0.25500000920E-02 0.  1.
    10030    2    1    2    0    0  0.00000000000E+00  0.00000000000E+00 -0.16084561617E+03  0.10210550655E+04  0.10083065677E+04 0.  0.
        2    1    3    3  502    0  0.12756629630E+02  0.15655417134E+03 -0.56553990679E+03  0.58694746472E+03  0.25500000920E-02 0.  1.
       -2    1    3    3    0  502 -0.12756629630E+02 -0.15655417134E+03  0.40469429061E+03  0.43410760075E+03  0.25500000920E-02 0. -1.
</event>
<event>
 5   0  0.5310275E-03  0.9916970E+03  0.7818609E-02  0.9317699E-01
       -1   -1    0    0    0  501  0.00000000000E+00  0.00000000000E+00  0.32796950307E+03  0.32796950311E+03  0.50400001928E-02 0. -1.
        1   -1    0    0  501    0  0.00000000000E+00  0.00000000000E+00 -0.74966032865E+03  0.74966032866E+03  0.50400001928E-02 0.  1.
    10030    2    1    2    0    0  0.00000000000E+00  0.00000000000E+00 -0.42169082557E+03  0.10776298318E+04  0.99169698092E+03 0.  0.
        1    1    3    3  502    0 -0.26165521445E+03  0.35072966424E+02  0.24525372933E+03  0.36033728089E+03  0.50400001928E-02 0. -1.
       -1    1    3    3    0  502  0.26165521445E+03 -0.35072966424E+02 -0.66694455490E+03  0.71729255089E+03  0.50400001928E-02 0.  1.
</event>
<event>
 5   0  0.5189877E-03  0.1020771E+04  0.7818609E-02  0.9286052E-01
       -1   -1    0    0    0  501  0.00000000000E+00  0.00000000000E+00  0.35182437688E+03  0.35182437692E+03  0.50400001928E-02 0. -1.
        1   -1    0    0  501    0  0.00000000000E+00  0.00000000000E+00 -0.74040769924E+03  0.74040769925E+03  0.50400001928E-02 0.  1.
    10030    2    1    2    0    0  0.00000000000E+00  0.00000000000E+00 -0.38858332235E+03  0.10922320762E+04  0.10207712328E+04 0.  0.
        3    1    3    3  502    0  0.30627886900E+03 -0.38196449730E+03 -0.34857254717E+03  0.60100453712E+03  0.10100000352E+00 0.  1.
       -3    1    3    3    0  502 -0.30627886900E+03  0.38196449730E+03 -0.40010775178E+02  0.49122753905E+03  0.10100000352E+00 0. -1.
</event>
<event>
 5   0  0.5310275E-03  0.1028608E+04  0.7818609E-02  0.9277712E-01
        1   -1    0    0  501    0  0.00000000000E+00  0.00000000000E+00  0.67373297404E+03  0.67373297406E+03  0.50400001928E-02 0. -1.
       -1   -1    0    0    0  501  0.00000000000E+00  0.00000000000E+00 -0.39260185518E+03  0.39260185521E+03  0.50400001928E-02 0.  1.
    10030    2    1    2    0    0  0.00000000000E+00  0.00000000000E+00  0.28113111886E+03  0.10663348293E+04  0.10286084105E+04 0.  0.
        1    1    3    3  502    0  0.23144132578E+03 -0.45266103136E+03  0.59986205370E+02  0.51192327692E+03  0.50400001928E-02 0. -1.
       -1    1    3    3    0  502 -0.23144132578E+03  0.45266103136E+03  0.22114491349E+03  0.55441155235E+03  0.50400001928E-02 0.  1.
</event>
<event>
 5   0  0.8907355E-03  0.9936934E+03  0.7818609E-02  0.9315489E-01
        2   -1    0    0  501    0  0.00000000000E+00  0.00000000000E+00  0.47497928646E+03  0.47497928646E+03  0.25500000920E-02 0. -1.
       -2   -1    0    0    0  501  0.00000000000E+00  0.00000000000E+00 -0.51972084533E+03  0.51972084534E+03  0.25500000920E-02 0.  1.
    10030    2    1    2    0    0  0.00000000000E+00  0.00000000000E+00 -0.44741558874E+02  0.99470013180E+03  0.99369338586E+03 0.  0.
        5    1    3    3  502    0  0.26604608844E+03 -0.41482409000E+03  0.40740693084E+02  0.49451131523E+03  0.46999998093E+01 0.  1.
       -5    1    3    3    0  502 -0.26604608844E+03  0.41482409000E+03 -0.85482251958E+02  0.50018881657E+03  0.46999998093E+01 0. -1.
</event>
<event>
 5   0  0.9243773E-03  0.9965449E+03  0.7818609E-02  0.9312342E-01
        2   -1    0    0  501    0  0.00000000000E+00  0.00000000000E+00  0.65997532712E+03  0.65997532712E+03  0.25500000920E-02 0.  1.
       -2   -1    0    0    0  501  0.00000000000E+00  0.00000000000E+00 -0.37618898796E+03  0.37618898797E+03  0.25500000920E-02 0. -1.
    10030    2    1    2    0    0  0.00000000000E+00  0.00000000000E+00  0.28378633916E+03  0.10361643151E+04  0.99654493204E+03 0.  0.
        3    1    3    3  502    0  0.25564164882E+03 -0.34094464673E+03 -0.12659677745E+03  0.44454770161E+03  0.10100000352E+00 0. -1.
       -3    1    3    3    0  502 -0.25564164882E+03  0.34094464673E+03  0.41038311661E+03  0.59161661348E+03  0.10100000352E+00 0.  1.
</event>
<event>
 5   0  0.9040674E-03  0.9567343E+03  0.7818609E-02  0.9357314E-01
        2   -1    0    0  501    0  0.00000000000E+00  0.00000000000E+00  0.92229148709E+03  0.92229148709E+03  0.25500000920E-02 0. -1.
       -2   -1    0    0    0  501  0.00000000000E+00  0.00000000000E+00 -0.24811585783E+03  0.24811585784E+03  0.25500000920E-02 0.  1.
    10030    2    1    2    0    0  0.00000000000E+00  0.00000000000E+00  0.67417562926E+03  0.11704073449E+04  0.95673432780E+03 0.  0.
        1    1    3    3  502    0 -0.11238749707E+03  0.15798393361E+03 -0.19789648140E+03  0.27704311966E+03  0.50400001928E-02 0.  1.
       -1    1    3    3    0  502  0.11238749707E+03 -0.15798393361E+03  0.87207211066E+03  0.89336422527E+03  0.50400001928E-02 0. -1.
</event>
<event>
 5   0  0.5201968E-03  0.9867391E+03  0.7818609E-02  0.9323210E-01
        1   -1    0    0  501    0  0.00000000000E+00  0.00000000000E+00  0.67562102309E+03  0.67562102311E+03  0.50400001928E-02 0. -1.
       -1   -1    0    0    0  501  0.00000000000E+00  0.00000000000E+00 -0.36028117462E+03  0.36028117466E+03  0.50400001928E-02 0.  1.
    10030    2    1    2    0    0  0.00000000000E+00  0.00000000000E+00  0.31533984847E+03  0.10359021978E+04  0.98673914654E+03 0.  0.
        2    1    3    3  502    0  0.36881192965E+03 -0.31612466054E+03  0.67016592017E+02  0.49035524272E+03  0.25500000920E-02 0. -1.
       -2    1    3    3    0  502 -0.36881192965E+03  0.31612466054E+03  0.24832325645E+03  0.54554695504E+03  0.25500000920E-02 0.  1.
</event>
<event>
 5   0  0.5310275E-03  0.8392879E+03  0.7818609E-02  0.9504828E-01
       -1   -1    0    0    0  501  0.00000000000E+00  0.00000000000E+00  0.51644707069E+03  0.51644707071E+03  0.50400001928E-02 0.  1.
        1   -1    0    0  501    0  0.00000000000E+00  0.00000000000E+00 -0.34098565835E+03  0.34098565839E+03  0.50400001928E-02 0. -1.
    10030    2    1    2    0    0  0.00000000000E+00  0.00000000000E+00  0.17546141234E+03  0.85743272910E+03  0.83928789919E+03 0.  0.
        1    1    3    3  502    0  0.56959116128E+02  0.20454178855E+03 -0.28206071582E+03  0.35304380976E+03  0.50400001928E-02 0. -1.
       -1    1    3    3    0  502 -0.56959116128E+02 -0.20454178855E+03  0.45752212816E+03  0.50438891934E+03  0.50400001928E-02 0.  1.
</event>
<event>
 5   0  0.8907355E-03  0.1003580E+04  0.7818609E-02  0.9304627E-01
       -2   -1    0    0    0  501  0.00000000000E+00  0.00000000000E+00  0.40305484595E+03  0.40305484596E+03  0.25500000920E-02 0.  1.
        2   -1    0    0  501    0  0.00000000000E+00  0.00000000000E+00 -0.62471195872E+03  0.62471195873E+03  0.25500000920E-02 0. -1.
    10030    2    1    2    0    0  0.00000000000E+00  0.00000000000E+00 -0.22165711277E+03  0.10277668047E+04  0.10035799565E+04 0.  0.
        5    1    3    3  502    0 -0.10251597154E+03 -0.22824380364E+03 -0.55624324125E+03  0.60994540063E+03  0.46999998093E+01 0. -1.
       -5    1    3    3    0  502  0.10251597154E+03  0.22824380364E+03  0.33458612848E+03  0.41782140406E+03  0.46999998093E+01 0.  1.
</event>
<event>
 5   0  0.5189877E-03  0.1015468E+04  0.7818609E-02  0.9291741E-01
        1   -1    0    0  501    0  0.00000000000E+00  0.00000000000E+00  0.10722254380E+04  0.10722254380E+04  0.50400001928E-02 0. -1.
       -1   -1    0    0    0  501  0.00000000000E+00  0.00000000000E+00 -0.24042856882E+03  0.24042856887E+03  0.50400001928E-02 0.  1.
    10030    2    1    2    0    0  0.00000000000E+00  0.00000000000E+00  0.83179686915E+03  0.13126540068E+04  0.10154676313E+04 0.  0.
        3    1    3    3  502    0 -0.10135058803E+02 -0.74617313169E+02 -0.23317009131E+03  0.24502808926E+03  0.10100000352E+00 0.  1.
       -3    1    3    3    0  502  0.10135058803E+02  0.74617313169E+02  0.10649669605E+04  0.10676259176E+04  0.10100000352E+00 0. -1.
</event>
<event>
 5   0  0.5349685E-03  0.1011216E+04  0.7818609E-02  0.9296328E-01
       -1   -1    0    0    0  501  0.00000000000E+00  0.00000000000E+00  0.34114373636E+03  0.34114373639E+03  0.50400001928E-02 0. -1.
        1   -1    0    0  501    0  0.00000000000E+00  0.00000000000E+00 -0.74936056017E+03  0.74936056019E+03  0.50400001928E-02 0.  1.
    10030    2    1    2    0    0  0.00000000000E+00  0.00000000000E+00 -0.40821682382E+03  0.10905042966E+04  0.10112164188E+04 0.  0.
        4    1    3    3  502    0 -0.19994777768E+03  0.46354009175E+03 -0.17380689992E+03  0.53390915128E+03  0.12699999809E+01 0. -1.
       -4    1    3    3    0  502  0.19994777768E+03 -0.46354009175E+03 -0.23440992389E+03  0.55659514531E+03  0.12699999809E+01 0.  1.
</event>
<event>
 5   0  0.8907355E-03  0.9875183E+03  0.7818609E-02  0.9322341E-01
       -2   -1    0    0    0  501  0.00000000000E+00  0.00000000000E+00  0.10633626929E+04  0.10633626929E+04  0.25500000920E-02 0.  1.
        2   -1    0    0  501    0  0.00000000000E+00  0.00000000000E+00 -0.22927088563E+03  0.22927088564E+03  0.25500000920E-02 0. -1.
    10030    2    1    2    0    0  0.00000000000E+00  0.00000000000E+00  0.83409180727E+03  0.12926335785E+04  0.98751831651E+03 0.  0.
        5    1    3    3  502    0  0.20791957769E+01 -0.47626806014E+03  0.58741564551E+03  0.75625050001E+03  0.46999998093E+01 0.  1.
       -5    1    3    3    0  502 -0.20791957769E+01  0.47626806014E+03  0.24667616176E+03  0.53638307854E+03  0.46999998093E+01 0. -1.
</event>
<event>
 5   0  0.5072205E-03  0.9814578E+03  0.7818609E-02  0.9329119E-01
       -1   -1    0    0    0  501  0.00000000000E+00  0.00000000000E+00  0.36305447106E+03  0.36305447110E+03  0.50400001928E-02 0. -1.
        1   -1    0    0  501    0  0.00000000000E+00  0.00000000000E+00 -0.66330228232E+03  0.66330228234E+03  0.50400001928E-02 0.  1.
    10030    2    1    2    0    0  0.00000000000E+00  0.00000000000E+00 -0.30024781126E+03  0.10263567534E+04  0.98145781222E+03 0.  0.
        5    1    3    3  502    0 -0.27142060162E+03 -0.13191612441E+03  0.25451643110E+03  0.39480591505E+03  0.46999998093E+01 0. -1.
       -5    1    3    3    0  502  0.27142060162E+03  0.13191612441E+03 -0.55476424236E+03  0.63155083839E+03  0.46999998093E+01 0.  1.
</event>
<event>
 5   0  0.8907355E-03  0.7606606E+03  0.7818609E-02  0.9618772E-01
        2   -1    0    0  501    0  0.00000000000E+00  0.00000000000E+00  0.95030106209E+03  0.95030106209E+03  0.25500000920E-02 0. -1.
       -2   -1    0    0    0  501  0.00000000000E+00  0.00000000000E+00 -0.15221611706E+03  0.15221611708E+03  0.25500000920E-02 0.  1.
    10030    2    1    2    0    0  0.00000000000E+00  0.00000000000E+00  0.79808494503E+03  0.11025171792E+04  0.76066060164E+03 0.  0.
        5    1    3    3  502    0  0.81007454032E+02  0.22916169890E+02  0.93658350318E+03  0.94037126013E+03  0.46999998093E+01 0. -1.
       -5    1    3    3    0  502 -0.81007454032E+02 -0.22916169890E+02 -0.13849855816E+03  0.16214591904E+03  0.46999998093E+01 0.  1.
</event>
<event>
 5   0  0.8875655E-03  0.9903271E+03  0.7818609E-02  0.9319218E-01
        2   -1    0    0  501    0  0.00000000000E+00  0.00000000000E+00  0.18021552132E+04  0.18021552132E+04  0.25500000920E-02 0. -1.
       -2   -1    0    0    0  501  0.00000000000E+00  0.00000000000E+00 -0.13605207352E+03  0.13605207355E+03  0.25500000920E-02 0.  1.
    10030    2    1    2    0    0  0.00000000000E+00  0.00000000000E+00  0.16661031396E+04  0.19382072867E+04  0.99032712491E+03 0.  0.
        4    1    3    3  502    0 -0.18064632945E+02  0.20690063883E+03 -0.46684087506E+02  0.21287372369E+03  0.12699999809E+01 0.  1.
       -4    1    3    3    0  502  0.18064632945E+02 -0.20690063883E+03  0.17127872271E+04  0.17253335630E+04  0.12699999809E+01 0. -1.
</event>
<event>
 5   0  0.9040674E-03  0.9903050E+03  0.7818609E-02  0.9319242E-01
       -2   -1    0    0    0  501  0.00000000000E+00  0.00000000000E+00  0.10232674311E+03  0.10232674314E+03  0.25500000920E-02 0. -1.
        2   -1    0    0  501    0  0.00000000000E+00  0.00000000000E+00 -0.23960110750E+04  0.23960110750E+04  0.25500000920E-02 0.  1.
    10030    2    1    2    0    0  0.00000000000E+00  0.00000000000E+00 -0.22936843319E+04  0.24983378181E+04  0.99030502331E+03 0.  0.
        1    1    3    3  502    0  0.26589200732E+03  0.33147807290E+03 -0.17880481347E+04  0.18378499406E+04  0.50400001928E-02 0.  1.
       -1    1    3    3    0  502 -0.26589200732E+03 -0.33147807290E+03 -0.50563619720E+03  0.66048787749E+03  0.50400001928E-02 0. -1.
</event>
<event>
 5   0  0.9040674E-03  0.9744304E+03  0.7818609E-02  0.9337042E-01
        2   -1    0    0  501    0  0.00000000000E+00  0.00000000000E+00  0.12916286529E+04  0.12916286529E+04  0.25500000920E-02 0.  1.
       -2   -1    0    0    0  501  0.00000000000E+00  0.00000000000E+00 -0.18378243014E+03  0.18378243015E+03  0.25500000920E-02 0. -1.
    10030    2    1    2    0    0  0.00000000000E+00  0.00000000000E+00  0.11078462227E+04  0.14754110830E+04  0.97443040320E+03 0.  0.
        1    1    3    3  502    0  0.18362366116E+03  0.55620649026E+02  0.12320209040E+04  0.12468708086E+04  0.50400001928E-02 0.  1.
       -1    1    3    3    0  502 -0.18362366116E+03 -0.55620649026E+02 -0.12417468125E+03  0.22854027440E+03  0.50400001928E-02 0. -1.
</event>
<event>
 5   0  0.5201968E-03  0.9373527E+03  0.7818609E-02  0.9380057E-01
       -1   -1    0    0    0  501  0.00000000000E+00  0.00000000000E+00  0.78029283796E+02  0.78029283959E+02  0.50400001928E-02 0. -1.
        1   -1    0    0  501    0  0.00000000000E+00  0.00000000000E+00 -0.28150650154E+04  0.28150650154E+04  0.50400001928E-02 0.  1.
    10030    2    1    2    0    0  0.00000000000E+00  0.00000000000E+00 -0.27370357316E+04  0.28930942994E+04  0.93735267053E+03 0.  0.
        2    1    3    3  502    0 -0.17196361830E+03  0.42967193128E+03 -0.11402861929E+04  0.12306266925E+04  0.25500000920E-02 0. -1.
       -2    1    3    3    0  502  0.17196361830E+03 -0.42967193128E+03 -0.15967495388E+04  0.16624676069E+04  0.25500000920E-02 0.  1.
</event>
<event>
 5   0  0.9040674E-03  0.9887675E+03  0.7818609E-02  0.9320951E-01
        2   -1    0    0  501    0  0.00000000000E+00  0.00000000000E+00  0.21404068438E+03  0.21404068439E+03  0.25500000920E-02 0.  1.
       -2   -1    0    0    0  501  0.00000000000E+00  0.00000000000E+00 -0.11419105223E+04  0.11419105223E+04  0.25500000920E-02 0. -1.
    10030    2    1    2    0    0  0.00000000000E+00  0.00000000000E+00 -0.92786983788E+03  0.13559512067E+04  0.98876753526E+03 0.  0.
        1    1    3    3  502    0  0.19269708175E+03  0.82935187350E+02  0.14997412360E+03  0.25788107413E+03  0.50400001928E-02 0.  1.
       -1    1    3    3    0  502 -0.19269708175E+03 -0.82935187350E+02 -0.10778439615E+04  0.10980701325E+04  0.50400001928E-02 0. -1.
</event>
<event>
 5   0  0.5072205E-03  0.1002659E+04  0.7818609E-02  0.9305633E-01
       -1   -1    0    0    0  501  0.00000000000E+00  0.00000000000E+00  0.43179392723E+03  0.43179392725E+03  0.50400001928E-02 0. -1.
        1   -1    0    0  501    0  0.00000000000E+00  0.00000000000E+00 -0.58206321855E+03  0.58206321857E+03  0.50400001928E-02 0.  1.
    10030    2    1    2    0    0  0.00000000000E+00  0.00000000000E+00 -0.15026929132E+03  0.10138571458E+04  0.10026591905E+04 0.  0.
        5    1    3    3  502    0 -0.10373928800E+03 -0.12771205613E+02  0.42063108579E+03  0.43344843280E+03  0.46999998093E+01 0. -1.
       -5    1    3    3    0  502  0.10373928800E+03  0.12771205613E+02 -0.57090037711E+03  0.58040871302E+03  0.46999998093E+01 0.  1.
</event>
<event>
 5   0  0.5189877E-03  0.7738056E+03  0.7818609E-02  0.9598726E-01
       -1   -1    0    0    0  501  0.00000000000E+00  0.00000000000E+00  0.73011403661E+02  0.73011403835E+02  0.50400001928E-02 0.  1.
        1   -1    0    0  501    0  0.00000000000E+00  0.00000000000E+00 -0.20502793232E+04  0.20502793232E+04  0.50400001928E-02 0. -1.
    10030    2    1    2    0    0  0.00000000000E+00  0.00000000000E+00 -0.19772679195E+04  0.21232907270E+04  0.77380558662E+03 0.  0.
        3    1    3    3  502    0  0.14050632514E+03 -0.25097027365E+03 -0.27855987166E+03  0.40040444299E+03  0.10100000352E+00 0.  1.
       -3    1    3    3    0  502 -0.14050632514E+03  0.25097027365E+03 -0.16987080478E+04  0.17228862840E+04  0.10100000352E+00 0. -1.
</event>
<event>
 5   0  0.8875655E-03  0.9718771E+03  0.7818609E-02  0.9339939E-01
        2   -1    0    0  501    0  0.00000000000E+00  0.00000000000E+00  0.18961042903E+04  0.18961042903E+04  0.25500000920E-02 0.  1.
       -2   -1    0    0    0  501  0.00000000000E+00  0.00000000000E+00 -0.12453760879E+03  0.12453760882E+03  0.25500000920E-02 0. -1.
    10030    2    1    2    0    0  0.00000000000E+00  0.00000000000E+00  0.17715666815E+04  0.20206418991E+04  0.97187714113E+03 0.  0.
        4    1    3    3  502    0  0.14164486080E+03 -0.40849851299E+02 -0.76921412828E+02  0.16628437568E+03  0.12699999809E+01 0. -1.
       -4    1    3    3    0  502 -0.14164486080E+03  0.40849851299E+02  0.18484880943E+04  0.18543575234E+04  0.12699999809E+01 0.  1.
</event>
<event>
 5   0  0.5349685E-03  0.9984613E+03  0.7818609E-02  0.9310234E-01
        1   -1    0    0  501    0  0.00000000000E+00  0.00000000000E+00  0.12768895804E+04  0.12768895804E+04  0.50400001928E-02 0.  1.
       -1   -1    0    0    0  501  0.00000000000E+00  0.00000000000E+00 -0.19518620081E+03  0.19518620088E+03  0.50400001928E-02 0. -1.
    10030    2    1    2    0    0  0.00000000000E+00  0.00000000000E+00  0.10817033796E+04  0.14720757813E+04  0.99846126838E+03 0.  0.
        4    1    3    3  502    0 -0.57764853054E+02  0.19334390827E+03  0.12140815920E+04  0.12307373278E+04  0.12699999809E+01 0.  1.
       -4    1    3    3    0  502  0.57764853054E+02 -0.19334390827E+03 -0.13237821241E+03  0.24133845349E+03  0.12699999809E+01 0. -1.
</event>
<event>
 5   0  0.9243773E-03  0.9981457E+03  0.7818609E-02  0.9310581E-01
        2   -1    0    0  501    0  0.00000000000E+00  0.00000000000E+00  0.62422927327E+03  0.62422927328E+03  0.25500000920E-02 0.  1.
       -2   -1    0    0    0  501  0.00000000000E+00  0.00000000000E+00 -0.39901001131E+03  0.39901001132E+03  0.25500000920E-02 0. -1.
    10030    2    1    2    0    0  0.00000000000E+00  0.00000000000E+00  0.22521926196E+03  0.10232392846E+04  0.99814573965E+03 0.  0.
        3    1    3    3  502    0  0.44098377842E+03  0.21388239071E+03  0.16108328222E+02  0.49037930046E+03  0.10100000352E+00 0. -1.
       -3    1    3    3    0  502 -0.44098377842E+03 -0.21388239071E+03  0.20911093374E+03  0.53285998414E+03  0.10100000352E+00 0.  1.
</event>
<event>
 5   0  0.9243773E-03  0.1146434E+04  0.7818609E-02  0.9161079E-01
        2   -1    0    0  501    0  0.00000000000E+00  0.00000000000E+00  0.98275501887E+03  0.98275501887E+03  0.25500000920E-02 0. -1.
       -2   -1    0    0    0  501  0.00000000000E+00  0.00000000000E+00 -0.33434370712E+03  0.33434370713E+03  0.25500000920E-02 0.  1.
    10030    2    1    2    0    0  0.00000000000E+00  0.00000000000E+00  0.64841131174E+03  0.13170987260E+04  0.11464343962E+04 0.  0.
        3    1    3    3  502    0  0.39781636466E+03 -0.30791409801E+03  0.85101024070E+01  0.50313157701E+03  0.10100000352E+00 0. -1.
       -3    1    3    3    0  502 -0.39781636466E+03  0.30791409801E+03  0.63990120934E+03  0.81396714900E+03  0.10100000352E+00 0.  1.
</event>
<event>
 5   0  0.9243773E-03  0.9760939E+03  0.7818609E-02  0.9335160E-01
       -2   -1    0    0    0  501  0.00000000000E+00  0.00000000000E+00  0.96396538757E+02  0.96396538791E+02  0.25500000920E-02 0.  1.
        2   -1    0    0  501    0  0.00000000000E+00  0.00000000000E+00 -0.24709377202E+04  0.24709377202E+04  0.25500000920E-02 0. -1.
    10030    2    1    2    0    0  0.00000000000E+00  0.00000000000E+00 -0.23745411814E+04  0.25673342590E+04  0.97609393760E+03 0.  0.
        3    1    3    3  502    0  0.34102537221E+03  0.17877934930E+03 -0.39851613482E+03  0.55414391645E+03  0.10100000352E+00 0.  1.
       -3    1    3    3    0  502 -0.34102537221E+03 -0.17877934930E+03 -0.19760250466E+04  0.20131903425E+04  0.10100000352E+00 0. -1.
</event>
<event>
 5   0  0.5201968E-03  0.1013121E+04  0.7818609E-02  0.9294270E-01
        1   -1    0    0  501    0  0.00000000000E+00  0.00000000000E+00  0.59246484966E+03  0.59246484968E+03  0.50400001928E-02 0. -1.
       -1   -1    0    0    0  501  0.00000000000E+00  0.00000000000E+00 -0.43311187087E+03  0.43311187090E+03  0.50400001928E-02 0.  1.
    10030    2    1    2    0    0  0.00000000000E+00  0.00000000000E+00  0.15935297879E+03  0.10255767206E+04  0.10131210381E+04 0.  0.
        2    1    3    3  502    0 -0.22202092449E+02  0.14125477022E+03  0.57161167982E+03  0.58922470717E+03  0.25500000920E-02 0. -1.
       -2    1    3    3    0  502  0.22202092449E+02 -0.14125477022E+03 -0.41225870103E+03  0.43635201341E+03  0.25500000920E-02 0.  1.
</event>
<event>
 5   0  0.8907355E-03  0.9923859E+03  0.7818609E-02  0.9316935E-01
        2   -1    0    0  501    0  0.00000000000E+00  0.00000000000E+00  0.13025438179E+04  0.13025438179E+04  0.25500000920E-02 0.  1.
       -2   -1    0    0    0  501  0.00000000000E+00  0.00000000000E+00 -0.18902047020E+03  0.18902047022E+03  0.25500000920E-02 0. -1.
    10030    2    1    2    0    0  0.00000000000E+00  0.00000000000E+00  0.11135233477E+04  0.14915642881E+04  0.99238590261E+03 0.  0.
        5    1    3    3  502    0 -0.17564938856E+03  0.71313796938E+02 -0.13240819826E+03  0.23128421109E+03  0.46999998093E+01 0. -1.
       -5    1    3    3    0  502  0.17564938856E+03 -0.71313796938E+02  0.12459315459E+04  0.12602800770E+04  0.46999998093E+01 0.  1.
</event>
<event>
 5   0  0.8907355E-03  0.9888072E+03  0.7818609E-02  0.9320907E-01
       -2   -1    0    0    0  501  0.00000000000E+00  0.00000000000E+00  0.10971000507E+03  0.10971000510E+03  0.25500000920E-02 0.  1.
        2   -1    0    0  501    0  0.00000000000E+00  0.00000000000E+00 -0.22280092565E+04  0.22280092565E+04  0.25500000920E-02 0. -1.
    10030    2    1    2    0    0  0.00000000000E+00  0.00000000000E+00 -0.21182992515E+04  0.23377192616E+04  0.98880717407E+03 0.  0.
        5    1    3    3  502    0  0.10728446792E+03  0.29161545228E+03 -0.15005115774E+03  0.34508979846E+03  0.46999998093E+01 0.  1.
       -5    1    3    3    0  502 -0.10728446792E+03 -0.29161545228E+03 -0.19682480937E+04  0.19926294632E+04  0.46999998093E+01 0. -1.
</event>
<event>
 5   0  0.8875655E-03  0.9812659E+03  0.7818609E-02  0.9329334E-01
        2   -1    0    0  501    0  0.00000000000E+00  0.00000000000E+00  0.45031285481E+03  0.45031285482E+03  0.25500000920E-02 0. -1.
       -2   -1    0    0    0  501  0.00000000000E+00  0.00000000000E+00 -0.53456327443E+03  0.53456327443E+03  0.25500000920E-02 0.  1.
    10030    2    1    2    0    0  0.00000000000E+00  0.00000000000E+00 -0.84250419619E+02  0.98487612925E+03  0.98126594599E+03 0.  0.
        4    1    3    3  502    0 -0.63572367344E+02 -0.29484648050E+03 -0.43051557796E+03  0.52566259969E+03  0.12699999809E+01 0.  1.
       -4    1    3    3    0  502  0.63572367344E+02  0.29484648050E+03  0.34626515834E+03  0.45921352956E+03  0.12699999809E+01 0. -1.
</event>
<event>
 5   0  0.8875655E-03  0.1019058E+04  0.7818609E-02  0.9287886E-01
       -2   -1    0    0    0  501  0.00000000000E+00  0.00000000000E+00  0.38831383412E+03  0.38831383413E+03  0.25500000920E-02 0. -1.
        2   -1    0    0  501    0  0.00000000000E+00  0.00000000000E+00 -0.66858217287E+03  0.66858217288E+03  0.25500000920E-02 0.  1.
    10030    2    1    2    0    0  0.00000000000E+00  0.00000000000E+00 -0.28026833876E+03  0.10568960070E+04  0.10190578138E+04 0.  0.
        4    1    3    3  502    0 -0.39791857844E+03  0.63510481746E+02  0.18328650887E+03  0.44268310742E+03  0.12699999809E+01 0. -1.
       -4    1    3    3    0  502  0.39791857844E+03 -0.63510481746E+02 -0.46355484762E+03  0.61421289958E+03  0.12699999809E+01 0.  1.
</event>
<event>
 5   0  0.5201968E-03  0.7380276E+03  0.7818609E-02  0.9654323E-01
       -1   -1    0    0    0  501  0.00000000000E+00  0.00000000000E+00  0.23614680465E+03  0.23614680471E+03  0.50400001928E-02 0.  1.
        1   -1    0    0  501    0  0.00000000000E+00  0.00000000000E+00 -0.57663786536E+03  0.57663786539E+03  0.50400001928E-02 0. -1.
    10030    2    1    2    0    0  0.00000000000E+00  0.00000000000E+00 -0.34049106071E+03  0.81278467009E+03  0.73802761297E+03 0.  0.
        2    1    3    3  502    0 -0.14948523992E+03 -0.30987392716E+03 -0.31719079920E+03  0.46795052173E+03  0.25500000920E-02 0. -1.
       -2    1    3    3    0  502  0.14948523992E+03  0.30987392716E+03 -0.23300261514E+02  0.34483414836E+03  0.25500000920E-02 0.  1.
</event>
<event>
 5   0  0.9243773E-03  0.9875474E+03  0.7818609E-02  0.9322309E-01
        2   -1    0    0  501    0  0.00000000000E+00  0.00000000000E+00  0.13278617673E+04  0.13278617673E+04  0.25500000920E-02 0.  1.
       -2   -1    0    0    0  501  0.00000000000E+00  0.00000000000E+00 -0.18361284740E+03  0.18361284741E+03  0.25500000920E-02 0. -1.
    10030    2    1    2    0    0  0.00000000000E+00  0.00000000000E+00  0.11442489199E+04  0.15114746147E+04  0.98754742682E+03 0.  0.
        3    1    3    3  502    0 -0.45453844025E+03  0.15444718185E+03  0.39526108106E+03  0.62184440019E+03  0.10100000352E+00 0.  1.
       -3    1    3    3    0  502  0.45453844025E+03 -0.15444718185E+03  0.74898783883E+03  0.88963021451E+03  0.10100000352E+00 0. -1.
</event>
<event>
 5   0  0.5349685E-03  0.9860765E+03  0.7818609E-02  0.9323949E-01
        1   -1    0    0  501    0  0.00000000000E+00  0.00000000000E+00  0.50767759471E+03  0.50767759473E+03  0.50400001928E-02 0. -1.
       -1   -1    0    0    0  501  0.00000000000E+00  0.00000000000E+00 -0.47882106324E+03  0.47882106327E+03  0.50400001928E-02 0.  1.
    10030    2    1    2    0    0  0.00000000000E+00  0.00000000000E+00  0.28856531464E+02  0.98649865800E+03  0.98607651976E+03 0.  0.
        4    1    3    3  502    0 -0.14459373947E+03  0.29992172838E+03  0.37821110603E+03  0.50389051020E+03  0.12699999809E+01 0. -1.
       -4    1    3    3    0  502  0.14459373947E+03 -0.29992172838E+03 -0.34935457456E+03  0.48260814780E+03  0.12699999809E+01 0.  1.
</event>
<event>
 5   0  0.9040674E-03  0.9678968E+03  0.7818609E-02  0.9344473E-01
        2   -1    0    0  501    0  0.00000000000E+00  0.00000000000E+00  0.64838753325E+03  0.64838753325E+03  0.25500000920E-02 0.  1.
       -2   -1    0    0    0  501  0.00000000000E+00  0.00000000000E+00 -0.36121309843E+03  0.36121309844E+03  0.25500000920E-02 0. -1.
    10030    2    1    2    0    0  0.00000000000E+00  0.00000000000E+00  0.28717443482E+03  0.10096006317E+04  0.96789683309E+03 0.  0.
        1    1    3    3  502    0  0.17153990390E+03 -0.43583099071E+03  0.16555323854E+02  0.46866690716E+03  0.50400001928E-02 0. -1.
       -1    1    3    3    0  502 -0.17153990390E+03  0.43583099071E+03  0.27061911096E+03  0.54093372453E+03  0.50400001928E-02 0.  1.
</event>
<event>
 5   0  0.8968798E-03  0.9982562E+03  0.7818609E-02  0.9310459E-01
        2   -1    0    0  501    0  0.00000000000E+00  0.00000000000E+00  0.18001036407E+04  0.18001036407E+04  0.25500000920E-02 0. -1.
       -2   -1    0    0    0  501  0.00000000000E+00  0.00000000000E+00 -0.13839696423E+03  0.13839696425E+03  0.25500000920E-02 0.  1.
    10030    2    1    2    0    0  0.00000000000E+00  0.00000000000E+00  0.16617066764E+04  0.19385006049E+04  0.99825623802E+03 0.  0.
        2    1    3    3  502    0  0.36441193493E+03 -0.14865637817E+01  0.14931779791E+04  0.15370031703E+04  0.25500000920E-02 0.  1.
       -2    1    3    3    0  502 -0.36441193493E+03  0.14865637817E+01  0.16852869736E+03  0.40149743465E+03  0.25500000920E-02 0. -1.
</event>
<event>
 5   0  0.5349685E-03  0.9743291E+03  0.7818609E-02  0.9337157E-01
       -1   -1    0    0    0  501  0.00000000000E+00  0.00000000000E+00  0.80640015388E+03  0.80640015389E+03  0.50400001928E-02 0. -1.
        1   -1    0    0  501    0  0.00000000000E+00  0.00000000000E+00 -0.29430710608E+03  0.29430710613E+03  0.50400001928E-02 0.  1.
    10030    2    1    2    0    0  0.00000000000E+00  0.00000000000E+00  0.51209304780E+03  0.11007072600E+04  0.97432909361E+03 0.  0.
        4    1    3    3  502    0 -0.11724887239E+03  0.31046340722E+03 -0.14685371251E+03  0.36290832324E+03  0.12699999809E+01 0.  1.
       -4    1    3    3    0  502  0.11724887239E+03 -0.31046340722E+03  0.65894676031E+03  0.73779893678E+03  0.12699999809E+01 0. -1.
</event>
<event>
 5   0  0.5201968E-03  0.9543010E+03  0.7818609E-02  0.9360137E-01
        1   -1    0    0  501    0  0.00000000000E+00  0.00000000000E+00  0.18978722326E+04  0.18978722326E+04  0.50400001928E-02 0. -1.
       -1   -1    0    0    0  501  0.00000000000E+00  0.00000000000E+00 -0.11996202602E+03  0.11996202612E+03  0.50400001928E-02 0.  1.
    10030    2    1    2    0    0  0.00000000000E+00  0.00000000000E+00  0.17779102066E+04  0.20178342588E+04  0.95430099709E+03 0.  0.
        2    1    3    3  502    0 -0.23056796770E+00 -0.15526124621E+03 -0.65055624498E+02  0.16833995967E+03  0.25500000920E-02 0.  1.
       -2    1    3    3    0  502  0.23056796770E+00  0.15526124621E+03  0.18429658311E+04  0.18494942991E+04  0.25500000920E-02 0. -1.
</event>
<event>
 5   0  0.8875655E-03  0.1012060E+04  0.7818609E-02  0.9295415E-01
        2   -1    0    0  501    0  0.00000000000E+00  0.00000000000E+00  0.12282124196E+04  0.12282124196E+04  0.25500000920E-02 0. -1.
       -2   -1    0    0    0  501  0.00000000000E+00  0.00000000000E+00 -0.20848720693E+03  0.20848720695E+03  0.25500000920E-02 0.  1.
    10030    2    1    2    0    0  0.00000000000E+00  0.00000000000E+00  0.10197252127E+04  0.14366996266E+04  0.10120604269E+04 0.  0.
        4    1    3    3  502    0  0.78132463036E+02  0.46213749125E+03  0.23906431676E+03  0.52614551509E+03  0.12699999809E+01 0.  1.
       -4    1    3    3    0  502 -0.78132463036E+02 -0.46213749125E+03  0.78066089594E+03  0.91055411149E+03  0.12699999809E+01 0. -1.
</event>
<event>
 5   0  0.8875655E-03  0.1004132E+04  0.7818609E-02  0.9304025E-01
        2   -1    0    0  501    0  0.00000000000E+00  0.00000000000E+00  0.95132212920E+03  0.95132212920E+03  0.25500000920E-02 0. -1.
       -2   -1    0    0    0  501  0.00000000000E+00  0.00000000000E+00 -0.26496821862E+03  0.26496821863E+03  0.25500000920E-02 0.  1.
    10030    2    1    2    0    0  0.00000000000E+00  0.00000000000E+00  0.68635391058E+03  0.12162903478E+04  0.10041317243E+04 0.  0.
        4    1    3    3  502    0  0.28841397819E+03  0.20111406139E+03 -0.90928334565E+02  0.36317910654E+03  0.12699999809E+01 0.  1.
       -4    1    3    3    0  502 -0.28841397819E+03 -0.20111406139E+03  0.77728224514E+03  0.85311124129E+03  0.12699999809E+01 0. -1.
</event>
<event>
 5   0  0.5349685E-03  0.9916441E+03  0.7818609E-02  0.9317757E-01
        1   -1    0    0  501    0  0.00000000000E+00  0.00000000000E+00  0.38229576953E+03  0.38229576956E+03  0.50400001928E-02 0. -1.
       -1   -1    0    0    0  501  0.00000000000E+00  0.00000000000E+00 -0.64306104142E+03  0.64306104144E+03  0.50400001928E-02 0.  1.
    10030    2    1    2    0    0  0.00000000000E+00  0.00000000000E+00 -0.26076527189E+03  0.10253568110E+04  0.99164412106E+03 0.  0.
        4    1    3    3  502    0 -0.97146295739E+02  0.10248317131E+03 -0.62182781972E+03  0.63766108040E+03  0.12699999809E+01 0.  1.
       -4    1    3    3    0  502  0.97146295739E+02 -0.10248317131E+03  0.36106254783E+03  0.38769573060E+03  0.12699999809E+01 0. -1.
</event>
<event>
 5   0  0.5201968E-03  0.9638793E+03  0.7818609E-02  0.9349073E-01
       -1   -1    0    0    0  501  0.00000000000E+00  0.00000000000E+00  0.91151264844E+02  0.91151264984E+02  0.50400001928E-02 0.  1.
        1   -1    0    0  501    0  0.00000000000E+00  0.00000000000E+00 -0.25481361629E+04  0.25481361629E+04  0.50400001928E-02 0. -1.
    10030    2    1    2    0    0  0.00000000000E+00  0.00000000000E+00 -0.24569848980E+04  0.26392874279E+04  0.96387931699E+03 0.  0.
        2    1    3    3  502    0  0.14352168830E+03 -0.19769351626E+03 -0.90956606972E+02  0.26068046675E+03  0.25500000920E-02 0.  1.
       -2    1    3    3    0  502 -0.14352168830E+03  0.19769351626E+03 -0.23660282911E+04  0.23786069611E+04  0.25500000920E-02 0. -1.
</event>
<event>
 5   0  0.8907355E-03  0.9919158E+03  0.7818609E-02  0.9317456E-01
       -2   -1    0    0    0  501  0.00000000000E+00  0.00000000000E+00  0.30630123551E+03  0.30630123552E+03  0.25500000920E-02 0.  1.
        2   -1    0    0  501    0  0.00000000000E+00  0.00000000000E+00 -0.80304690672E+03  0.80304690672E+03  0.25500000920E-02 0. -1.
    10030    2    1    2    0    0  0.00000000000E+00  0.00000000000E+00 -0.49674567121E+03  0.11093481422E+04  0.99191584262E+03 0.  0.
        5    1    3    3  502    0 -0.33734742748E+03  0.36345800794E+03 -0.25605311365E+03  0.55811315821E+03  0.46999998093E+01 0. -1.
       -5    1    3    3    0  502  0.33734742748E+03 -0.36345800794E+03 -0.24069255756E+03  0.55123498404E+03  0.46999998093E+01 0.  1.
</event>
<event>
 5   0  0.8907355E-03  0.1003115E+04  0.7818609E-02  0.9305135E-01
       -2   -1    0    0    0  501  0.00000000000E+00  0.00000000000E+00  0.20779639761E+04  0.20779639761E+04  0.25500000920E-02 0. -1.
        2   -1    0    0  501    0  0.00000000000E+00  0.00000000000E+00 -0.12106078590E+03  0.12106078593E+03  0.25500000920E-02 0.  1.
    10030    2    1    2    0    0  0.00000000000E+00  0.00000000000E+00  0.19569031902E+04  0.21990247621E+04  0.10031150523E+04 0.  0.
        5    1    3    3  502    0 -0.61804265341E+02  0.16607362808E+03  0.20070042521E+04  0.20148172064E+04  0.46999998093E+01 0. -1.
       -5    1    3    3    0  502  0.61804265341E+02 -0.16607362808E+03 -0.50101061908E+02  0.18420755565E+03  0.46999998093E+01 0.  1.
</event>
<event>
 5   0  0.5189877E-03  0.1207517E+04  0.7818609E-02  0.9106302E-01
        1   -1    0    0  501    0  0.00000000000E+00  0.00000000000E+00  0.11792733914E+04  0.11792733914E+04  0.50400001928E-02 0.  1.
       -1   -1    0    0    0  501  0.00000000000E+00  0.00000000000E+00 -0.30910951002E+03  0.30910951006E+03  0.50400001928E-02 0. -1.
    10030    2    1    2    0    0  0.00000000000E+00  0.00000000000E+00  0.87016388138E+03  0.14883829015E+04  0.12075174868E+04 0.  0.
        3    1    3    3  502    0  0.13058918432E+03 -0.44356782349E+03  0.91360707842E+03  0.10239550054E+04  0.10100000352E+00 0.  1.
       -3    1    3    3    0  502 -0.13058918432E+03  0.44356782349E+03 -0.43443197040E+02  0.46442789609E+03  0.10100000352E+00 0. -1.
</event>
<event>
 5   0  0.8968798E-03  0.9723033E+03  0.7818609E-02  0.9339455E-01
        2   -1    0    0  501    0  0.00000000000E+00  0.00000000000E+00  0.86763069707E+03  0.86763069707E+03  0.25500000920E-02 0. -1.
       -2   -1    0    0    0  501  0.00000000000E+00  0.00000000000E+00 -0.27240093510E+03  0.27240093512E+03  0.25500000920E-02 0.  1.
    10030    2    1    2    0    0  0.00000000000E+00  0.00000000000E+00  0.59522976196E+03  0.11400316322E+04  0.97230327206E+03 0.  0.
        2    1    3    3  502    0 -0.45881287011E+03 -0.16027682935E+03  0.31175811584E+03  0.57740023779E+03  0.25500000920E-02 0. -1.
       -2    1    3    3    0  502  0.45881287011E+03  0.16027682935E+03  0.28347164612E+03  0.56263139440E+03  0.25500000920E-02 0.  1.
</event>
<event>
 5   0  0.5349685E-03  0.1002550E+04  0.7818609E-02  0.9305752E-01
        1   -1    0    0  501    0  0.00000000000E+00  0.00000000000E+00  0.94139296134E+03  0.94139296135E+03  0.50400001928E-02 0. -1.
       -1   -1    0    0    0  501  0.00000000000E+00  0.00000000000E+00 -0.26692011046E+03  0.26692011051E+03  0.50400001928E-02 0.  1.
    10030    2    1    2    0    0  0.00000000000E+00  0.00000000000E+00  0.67447285088E+03  0.12083130719E+04  0.10025501748E+04 0.  0.
        4    1    3    3  502    0  0.33493660915E+02 -0.18241253872E+03 -0.22404678120E+03  0.29085173658E+03  0.12699999809E+01 0.  1.
       -4    1    3    3    0  502 -0.33493660915E+02  0.18241253872E+03  0.89851963208E+03  0.91746133528E+03  0.12699999809E+01 0. -1.
</event>
<event>
 5   0  0.9243773E-03  0.9780478E+03  0.7818609E-02  0.9332955E-01
       -2   -1    0    0    0  501  0.00000000000E+00  0.00000000000E+00  0.53175067132E+03  0.53175067132E+03  0.25500000920E-02 0. -1.
        2   -1    0    0  501    0  0.00000000000E+00  0.00000000000E+00 -0.44973026996E+03  0.44973026997E+03  0.25500000920E-02 0.  1.
    10030    2    1    2    0    0  0.00000000000E+00  0.00000000000E+00  0.82020401355E+02  0.98148094129E+03  0.97804779632E+03 0.  0.
        3    1    3    3  502    0 -0.31814664476E+03  0.15067153326E+03 -0.29962965479E+03  0.46227387849E+03  0.10100000352E+00 0.  1.
       -3    1    3    3    0  502  0.31814664476E+03 -0.15067153326E+03  0.38165005615E+03  0.51920706280E+03  0.10100000352E+00 0. -1.
</event>
<event>
 5   0  0.3513625E-03  0.9971491E+03  0.7818609E-02  0.9311677E-01
       -4   -1    0    0    0  501  0.00000000000E+00  0.00000000000E+00  0.88111651617E+03  0.88111743143E+03  0.12699999809E+01 0. -1.
        4   -1    0    0  501    0  0.00000000000E+00  0.00000000000E+00 -0.28211297352E+03  0.28211583211E+03  0.12699999809E+01 0.  1.
    10030    2    1    2    0    0  0.00000000000E+00  0.00000000000E+00  0.59900354266E+03  0.11632332635E+04  0.99714912691E+03 0.  0.
        2    1    3    3  502    0  0.38099378942E+03  0.33538246029E+02 -0.73606600049E+02  0.38948557495E+03  0.25500000920E-02 0.  1.
       -2    1    3    3    0  502 -0.38099378942E+03 -0.33538246029E+02  0.67261014271E+03  0.77374768859E+03  0.25500000920E-02 0. -1.
</event>
<event>
 5   0  0.8968798E-03  0.9957774E+03  0.7818609E-02  0.9313188E-01
       -2   -1    0    0    0  501  0.00000000000E+00  0.00000000000E+00  0.15027491626E+03  0.15027491628E+03  0.25500000920E-02 0. -1.
        2   -1    0    0  501    0  0.00000000000E+00  0.00000000000E+00 -0.16495975698E+04  0.16495975698E+04  0.25500000920E-02 0.  1.
    10030    2    1    2    0    0  0.00000000000E+00  0.00000000000E+00 -0.14993226536E+04  0.17998724861E+04  0.99577735801E+03 0.  0.
        2    1    3    3  502    0  0.38207453328E+03 -0.29277336692E+03 -0.51963231426E+03  0.70831838561E+03  0.25500000920E-02 0. -1.
       -2    1    3    3    0  502 -0.38207453328E+03  0.29277336692E+03 -0.97969033931E+03  0.10915541005E+04  0.25500000920E-02 0.  1.
</event>
<event>
 5   0  0.5189877E-03  0.9717556E+03  0.7818609E-02  0.9340077E-01
       -1   -1    0    0    0  501  0.00000000000E+00  0.00000000000E+00  0.35537330841E+03  0.35537330845E+03  0.50400001928E-02 0.  1.
        1   -1    0    0  501    0  0.00000000000E+00  0.00000000000E+00 -0.66430772621E+03  0.66430772623E+03  0.50400001928E-02 0. -1.
    10030    2    1    2    0    0  0.00000000000E+00  0.00000000000E+00 -0.30893441780E+03  0.10196810347E+04  0.97175559581E+03 0.  0.
        3    1    3    3  502    0  0.93210544992E+02 -0.47616797516E+03 -0.18128295155E+03  0.51796492641E+03  0.10100000352E+00 0. -1.
       -3    1    3    3    0  502 -0.93210544992E+02  0.47616797516E+03 -0.12765146625E+03  0.50171610827E+03  0.10100000352E+00 0.  1.
</event>
<event>
 5   0  0.8968798E-03  0.9756836E+03  0.7818609E-02  0.9335624E-01
        2   -1    0    0  501    0  0.00000000000E+00  0.00000000000E+00  0.30866108717E+03  0.30866108718E+03  0.25500000920E-02 0. -1.
       -2   -1    0    0    0  501  0.00000000000E+00  0.00000000000E+00 -0.77103857979E+03  0.77103857979E+03  0.25500000920E-02 0.  1.
    10030    2    1    2    0    0  0.00000000000E+00  0.00000000000E+00 -0.46237749262E+03  0.10796996670E+04  0.97568356815E+03 0.  0.
        2    1    3    3  502    0 -0.99899078991E+02  0.17778371867E+03 -0.72160825308E+03  0.74987022046E+03  0.25500000920E-02 0.  1.
       -2    1    3    3    0  502  0.99899078991E+02 -0.17778371867E+03  0.25923076046E+03  0.32982944651E+03  0.25500000920E-02 0. -1.
</event>
<event>
 5   0  0.5072205E-03  0.1010190E+04  0.7818609E-02  0.9297438E-01
        1   -1    0    0  501    0  0.00000000000E+00  0.00000000000E+00  0.49087148216E+03  0.49087148218E+03  0.50400001928E-02 0.  1.
       -1   -1    0    0    0  501  0.00000000000E+00  0.00000000000E+00 -0.51973085942E+03  0.51973085945E+03  0.50400001928E-02 0. -1.
    10030    2    1    2    0    0  0.00000000000E+00  0.00000000000E+00 -0.28859377265E+02  0.10106023416E+04  0.10101901946E+04 0.  0.
        5    1    3    3  502    0 -0.49164967535E+03  0.15344974275E+02 -0.12912416671E+03  0.50857645633E+03  0.46999998093E+01 0. -1.
       -5    1    3    3    0  502  0.49164967535E+03 -0.15344974275E+02  0.10026478945E+03  0.50202588530E+03  0.46999998093E+01 0.  1.
</event>
<event>
 5   0  0.5349685E-03  0.9841249E+03  0.7818609E-02  0.9326130E-01
        1   -1    0    0  501    0  0.00000000000E+00  0.00000000000E+00  0.12833072204E+04  0.12833072204E+04  0.50400001928E-02 0. -1.
       -1   -1    0    0    0  501  0.00000000000E+00  0.00000000000E+00 -0.18867302532E+03  0.18867302539E+03  0.50400001928E-02 0.  1.
    10030    2    1    2    0    0  0.00000000000E+00  0.00000000000E+00  0.10946341950E+04  0.14719802458E+04  0.98412490212E+03 0.  0.
        4    1    3    3  502    0  0.80198426257E+02  0.17096121900E+03  0.12269497910E+04  0.12413971679E+04  0.12699999809E+01 0. -1.
       -4    1    3    3    0  502 -0.80198426257E+02 -0.17096121900E+03 -0.13231559593E+03  0.23058307788E+03  0.12699999809E+01 0.  1.
</event>
<event>
 5   0  0.9243773E-03  0.1000910E+04  0.7818609E-02  0.9307547E-01
       -2   -1    0    0    0  501  0.00000000000E+00  0.00000000000E+00  0.14902975872E+03  0.14902975874E+03  0.25500000920E-02 0. -1.
        2   -1    0    0  501    0  0.00000000000E+00  0.00000000000E+00 -0.16805718090E+04  0.16805718090E+04  0.25500000920E-02 0.  1.
    10030    2    1    2    0    0  0.00000000000E+00  0.00000000000E+00 -0.15315420503E+04  0.18296015678E+04  0.10009100084E+04 0.  0.
        3    1    3    3  502    0 -0.15852984883E+03  0.18796012566E+03  0.30997156661E+02  0.24783372597E+03  0.10100000352E+00 0. -1.
       -3    1    3    3    0  502  0.15852984883E+03 -0.18796012566E+03 -0.15625392070E+04  0.15817678418E+04  0.10100000352E+00 0.  1.
</event>
<event>
 5   0  0.5189877E-03  0.9958648E+03  0.7818609E-02  0.9313092E-01
        1   -1    0    0  501    0  0.00000000000E+00  0.00000000000E+00  0.14957318084E+03  0.14957318092E+03  0.50400001928E-02 0. -1.
       -1   -1    0    0    0  501  0.00000000000E+00  0.00000000000E+00 -0.16576279992E+04  0.16576279992E+04  0.50400001928E-02 0.  1.
    10030    2    1    2    0    0  0.00000000000E+00  0.00000000000E+00 -0.15080548183E+04  0.18072011801E+04  0.99586483534E+03 0.  0.
        3    1    3    3  502    0 -0.33775228746E+03 -0.75181292856E+02 -0.10425179388E+03  0.36138245836E+03  0.10100000352E+00 0. -1.
       -3    1    3    3    0  502  0.33775228746E+03  0.75181292856E+02 -0.14038030245E+04  0.14458187217E+04  0.10100000352E+00 0.  1.
</event>
<event>
 5   0  0.5201968E-03  0.9996882E+03  0.7818609E-02  0.9308887E-01
       -1   -1    0    0    0  501  0.00000000000E+00  0.00000000000E+00  0.57734186602E+03  0.57734186604E+03  0.50400001928E-02 0.  1.
        1   -1    0    0  501    0  0.00000000000E+00  0.00000000000E+00 -0.43274904010E+03  0.43274904013E+03  0.50400001928E-02 0. -1.
    10030    2    1    2    0    0  0.00000000000E+00  0.00000000000E+00  0.14459282592E+03  0.10100909062E+04  0.99968822811E+03 0.  0.
        2    1    3    3  502    0  0.17021875966E+02 -0.32871334308E+03  0.45237820769E+03  0.55945352709E+03  0.25500000920E-02 0.  1.
       -2    1    3    3    0  502 -0.17021875966E+02  0.32871334308E+03 -0.30778538177E+03  0.45063737907E+03  0.25500000920E-02 0. -1.
</event>
<event>
 5   0  0.5201968E-03  0.1001639E+04  0.7818609E-02  0.9306749E-01
       -1   -1    0    0    0  501  0.00000000000E+00  0.00000000000E+00  0.45166969605E+03  0.45166969608E+03  0.50400001928E-02 0. -1.
        1   -1    0    0  501    0  0.00000000000E+00  0.00000000000E+00 -0.55531729123E+03  0.55531729125E+03  0.50400001928E-02 0.  1.
    10030    2    1    2    0    0  0.00000000000E+00  0.00000000000E+00 -0.10364759518E+03  0.10069869873E+04  0.10016386418E+04 0.  0.
        2    1    3    3  502    0 -0.37162540617E+03  0.33061999446E+03  0.68398905875E+01  0.49745533202E+03  0.25500000920E-02 0. -1.
       -2    1    3    3    0  502  0.37162540617E+03 -0.33061999446E+03 -0.11048748577E+03  0.50953165531E+03  0.25500000920E-02 0.  1.
</event>
<event>
 5   0  0.8875655E-03  0.1016724E+04  0.7818609E-02  0.9290390E-01
       -2   -1    0    0    0  501  0.00000000000E+00  0.00000000000E+00  0.36312442592E+03  0.36312442593E+03  0.25500000920E-02 0.  1.
        2   -1    0    0  501    0  0.00000000000E+00  0.00000000000E+00 -0.71168948925E+03  0.71168948926E+03  0.25500000920E-02 0. -1.
    10030    2    1    2    0    0  0.00000000000E+00  0.00000000000E+00 -0.34856506333E+03  0.10748139152E+04  0.10167238312E+04 0.  0.
        4    1    3    3  502    0 -0.28375488182E+03  0.27204620167E+02 -0.61925118201E+03  0.68171149589E+03  0.12699999809E+01 0. -1.
       -4    1    3    3    0  502  0.28375488182E+03 -0.27204620167E+02  0.27068611867E+03  0.39310241930E+03  0.12699999809E+01 0.  1.
</event>
<event>
 5   0  0.5349685E-03  0.1041882E+04  0.7818609E-02  0.9263766E-01
        1   -1    0    0  501    0  0.00000000000E+00  0.00000000000E+00  0.42011598547E+03  0.42011598550E+03  0.50400001928E-02 0. -1.
       -1   -1    0    0    0  501  0.00000000000E+00  0.00000000000E+00 -0.64596284098E+03  0.64596284100E+03  0.50400001928E-02 0.  1.
    10030    2    1    2    0    0  0.00000000000E+00  0.00000000000E+00 -0.22584685551E+03  0.10660788265E+04  0.10418815970E+04 0.  0.
        4    1    3    3  502    0 -0.88738546587E+02 -0.49197055928E+03  0.36999542684E+02  0.50127850533E+03  0.12699999809E+01 0. -1.
       -4    1    3    3    0  502  0.88738546587E+02  0.49197055928E+03 -0.26284639820E+03  0.56480032117E+03  0.12699999809E+01 0.  1.
</event>
<event>
 5   0  0.5310275E-03  0.9372824E+03  0.7818609E-02  0.9380140E-01
        1   -1    0    0  501    0  0.00000000000E+00  0.00000000000E+00  0.12075883094E+04  0.12075883094E+04  0.50400001928E-02 0.  1.
       -1   -1    0    0    0  501  0.00000000000E+00  0.00000000000E+00 -0.18187040674E+03  0.18187040681E+03  0.50400001928E-02 0. -1.
    10030    2    1    2    0    0  0.00000000000E+00  0.00000000000E+00  0.10257179027E+04  0.13894587162E+04  0.93728240582E+03 0.  0.
        1    1    3    3  502    0 -0.16257901732E+03 -0.15292034923E+03 -0.98018739550E+02  0.24377088302E+03  0.50400001928E-02 0. -1.
       -1    1    3    3    0  502  0.16257901732E+03  0.15292034923E+03  0.11237366422E+04  0.11456878332E+04  0.50400001928E-02 0.  1.
</event>
<event>
 5   0  0.8907355E-03  0.9877991E+03  0.7818609E-02  0.9322029E-01
       -2   -1    0    0    0  501  0.00000000000E+00  0.00000000000E+00  0.13963460039E+04  0.13963460039E+04  0.25500000920E-02 0. -1.
        2   -1    0    0  501    0  0.00000000000E+00  0.00000000000E+00 -0.17469651361E+03  0.17469651363E+03  0.25500000920E-02 0.  1.
    10030    2    1    2    0    0  0.00000000000E+00  0.00000000000E+00  0.12216494903E+04  0.15710425176E+04  0.98779912673E+03 0.  0.
        5    1    3    3  502    0  0.29904418999E+03 -0.25467050855E+03  0.13467180866E+03  0.41526266571E+03  0.46999998093E+01 0.  1.
       -5    1    3    3    0  502 -0.29904418999E+03  0.25467050855E+03  0.10869776817E+04  0.11557798518E+04  0.46999998093E+01 0. -1.
</event>
<event>
 5   0  0.9040674E-03  0.9987611E+03  0.7818609E-02  0.9309905E-01
       -2   -1    0    0    0  501  0.00000000000E+00  0.00000000000E+00  0.14551550730E+03  0.14551550732E+03  0.25500000920E-02 0.  1.
        2   -1    0    0  501    0  0.00000000000E+00  0.00000000000E+00 -0.17137755525E+04  0.17137755525E+04  0.25500000920E-02 0. -1.
    10030    2    1    2    0    0  0.00000000000E+00  0.00000000000E+00 -0.15682600452E+04  0.18592910598E+04  0.99876107042E+03 0.  0.
        1    1    3    3  502    0 -0.27804347533E+03 -0.34937582558E+03 -0.36782556236E+03  0.57850435265E+03  0.50400001928E-02 0.  1.
       -1    1    3    3    0  502  0.27804347533E+03  0.34937582558E+03 -0.12004344829E+04  0.12807867072E+04  0.50400001928E-02 0. -1.
</event>
<event>
 5   0  0.9040674E-03  0.1028706E+04  0.7818609E-02  0.9277609E-01
       -2   -1    0    0    0  501  0.00000000000E+00  0.00000000000E+00  0.17184974093E+03  0.17184974095E+03  0.25500000920E-02 0.  1.
        2   -1    0    0  501    0  0.00000000000E+00  0.00000000000E+00 -0.15394777130E+04  0.15394777130E+04  0.25500000920E-02 0. -1.
    10030    2    1    2    0    0  0.00000000000E+00  0.00000000000E+00 -0.13676279721E+04  0.17113274539E+04  0.10287056842E+04 0.  0.
        1    1    3    3  502    0 -0.35483513352E+03 -0.37104954218E+03 -0.63191925551E+03  0.81419142727E+03  0.50400001928E-02 0.  1.
       -1    1    3    3    0  502  0.35483513352E+03  0.37104954218E+03 -0.73570871654E+03  0.89713602667E+03  0.50400001928E-02 0. -1.
</event>
<event>
 5   0  0.3513625E-03  0.1003776E+04  0.7818609E-02  0.9304413E-01
       -3   -1    0    0    0  501  0.00000000000E+00  0.00000000000E+00  0.67747381697E+03  0.67747382450E+03  0.10100000352E+00 0.  1.
        3   -1    0    0  501    0  0.00000000000E+00  0.00000000000E+00 -0.37181022814E+03  0.37181024185E+03  0.10100000352E+00 0. -1.
    10030    2    1    2    0    0  0.00000000000E+00  0.00000000000E+00  0.30566358883E+03  0.10492840664E+04  0.10037762810E+04 0.  0.
        5    1    3    3  502    0  0.58441162694E+02 -0.48083284626E+03  0.29014151965E+03  0.56464129052E+03  0.46999998093E+01 0.  1.
       -5    1    3    3    0  502 -0.58441162694E+02  0.48083284626E+03  0.15522069188E+02  0.48464277583E+03  0.46999998093E+01 0. -1.
</event>
<event>
 5   0  0.5189877E-03  0.1000587E+04  0.7818609E-02  0.9307901E-01
        1   -1    0    0  501    0  0.00000000000E+00  0.00000000000E+00  0.73403938787E+03  0.73403938789E+03  0.50400001928E-02 0. -1.
       -1   -1    0    0    0  501  0.00000000000E+00  0.00000000000E+00 -0.34098146247E+03  0.34098146251E+03  0.50400001928E-02 0.  1.
    10030    2    1    2    0    0  0.00000000000E+00  0.00000000000E+00  0.39305792540E+03  0.10750208504E+04  0.10005874755E+04 0.  0.
        3    1    3    3  502    0 -0.46497218573E+03  0.13541118384E+03  0.33140013969E+03  0.58682312923E+03  0.10100000352E+00 0. -1.
       -3    1    3    3    0  502  0.46497218573E+03 -0.13541118384E+03  0.61657785703E+02  0.48819772116E+03  0.10100000352E+00 0.  1.
</event>
<event>
 5   0  0.8907355E-03  0.1007818E+04  0.7818609E-02  0.9300012E-01
       -2   -1    0    0    0  501  0.00000000000E+00  0.00000000000E+00  0.66753240847E+03  0.66753240847E+03  0.25500000920E-02 0.  1.
        2   -1    0    0  501    0  0.00000000000E+00  0.00000000000E+00 -0.38039225272E+03  0.38039225273E+03  0.25500000920E-02 0. -1.
    10030    2    1    2    0    0  0.00000000000E+00  0.00000000000E+00  0.28714015574E+03  0.10479246612E+04  0.10078177546E+04 0.  0.
        5    1    3    3  502    0 -0.36307626651E+02  0.44781377136E+03 -0.93646175642E+02  0.45896308543E+03  0.46999998093E+01 0.  1.
       -5    1    3    3    0  502  0.36307626651E+02 -0.44781377136E+03  0.38078633139E+03  0.58896157578E+03  0.46999998093E+01 0. -1.
</event>
<event>
 5   0  0.8968798E-03  0.1000183E+04  0.7818609E-02  0.9308344E-01
       -2   -1    0    0    0  501  0.00000000000E+00  0.00000000000E+00  0.70315216836E+03  0.70315216836E+03  0.25500000920E-02 0.  1.
        2   -1    0    0  501    0  0.00000000000E+00  0.00000000000E+00 -0.35567228500E+03  0.35567228500E+03  0.25500000920E-02 0. -1.
    10030    2    1    2    0    0  0.00000000000E+00  0.00000000000E+00  0.34747988336E+03  0.10588244534E+04  0.10001834600E+04 0.  0.
        2    1    3    3  502    0  0.32929748721E+03  0.37472166881E+03  0.21099672190E+03  0.54163897646E+03  0.25500000920E-02 0.  1.
       -2    1    3    3    0  502 -0.32929748721E+03 -0.37472166881E+03  0.13648316146E+03  0.51718547691E+03  0.25500000920E-02 0. -1.
</event>
<event>
 5   0  0.5072205E-03  0.9924322E+03  0.7818609E-02  0.9316884E-01
        1   -1    0    0  501    0  0.00000000000E+00  0.00000000000E+00  0.86694573766E+03  0.86694573767E+03  0.50400001928E-02 0.  1.
       -1   -1    0    0    0  501  0.00000000000E+00  0.00000000000E+00 -0.28402058352E+03  0.28402058357E+03  0.50400001928E-02 0. -1.
    10030    2    1    2    0    0  0.00000000000E+00  0.00000000000E+00  0.58292515414E+03  0.11509663212E+04  0.99243223310E+03 0.  0.
        5    1    3    3  502    0 -0.31757679253E+03 -0.12111098305E+03  0.71071480739E+03  0.78782010434E+03  0.46999998093E+01 0.  1.
       -5    1    3    3    0  502  0.31757679253E+03  0.12111098305E+03 -0.12778965325E+03  0.36314621690E+03  0.46999998093E+01 0. -1.
</event>
<event>
 5   0  0.9040674E-03  0.9739263E+03  0.7818609E-02  0.9337613E-01
        2   -1    0    0  501    0  0.00000000000E+00  0.00000000000E+00  0.11906289288E+04  0.11906289288E+04  0.25500000920E-02 0.  1.
       -2   -1    0    0    0  501  0.00000000000E+00  0.00000000000E+00 -0.19916626406E+03  0.19916626408E+03  0.25500000920E-02 0. -1.
    10030    2    1    2    0    0  0.00000000000E+00  0.00000000000E+00  0.99146266476E+03  0.13897951929E+04  0.97392631271E+03 0.  0.
        1    1    3    3  502    0 -0.22964635476E+02  0.68066744796E+02 -0.19156354420E+03  0.20458995019E+03  0.50400001928E-02 0. -1.
       -1    1    3    3    0  502  0.22964635476E+02 -0.68066744796E+02  0.11830262090E+04  0.11852052427E+04  0.50400001928E-02 0.  1.
</event>
<event>
 5   0  0.8875655E-03  0.1001254E+04  0.7818609E-02  0.9307171E-01
       -2   -1    0    0    0  501  0.00000000000E+00  0.00000000000E+00  0.26304838262E+03  0.26304838264E+03  0.25500000920E-02 0. -1.
        2   -1    0    0  501    0  0.00000000000E+00  0.00000000000E+00 -0.95278027389E+03  0.95278027389E+03  0.25500000920E-02 0.  1.
    10030    2    1    2    0    0  0.00000000000E+00  0.00000000000E+00 -0.68973189126E+03  0.12158286565E+04  0.10012538341E+04 0.  0.
        4    1    3    3  502    0  0.35904376920E+03 -0.11639960592E+03  0.54499382034E+02  0.38135690895E+03  0.12699999809E+01 0. -1.
       -4    1    3    3    0  502 -0.35904376920E+03  0.11639960592E+03 -0.74423127330E+03  0.83447174758E+03  0.12699999809E+01 0.  1.
</event>
<event>
 5   0  0.9040674E-03  0.9993116E+03  0.7818609E-02  0.9309300E-01
       -2   -1    0    0    0  501  0.00000000000E+00  0.00000000000E+00  0.42301384301E+03  0.42301384302E+03  0.25500000920E-02 0. -1.
        2   -1    0    0  501    0  0.00000000000E+00  0.00000000000E+00 -0.59018379999E+03  0.59018379999E+03  0.25500000920E-02 0.  1.
    10030    2    1    2    0    0  0.00000000000E+00  0.00000000000E+00 -0.16716995698E+03  0.10131976430E+04  0.99931159770E+03 0.  0.
        1    1    3    3  502    0 -0.38686142858E+03 -0.23262649664E+03  0.13358536808E+03  0.47076735492E+03  0.50400001928E-02 0. -1.
       -1    1    3    3    0  502  0.38686142858E+03  0.23262649664E+03 -0.30075532506E+03  0.54243028809E+03  0.50400001928E-02 0.  1.
</event>
<event>
 5   0  0.8968798E-03  0.1000604E+04  0.7818609E-02  0.9307883E-01
       -2   -1    0    0    0  501  0.00000000000E+00  0.00000000000E+00  0.63067279280E+03  0.63067279280E+03  0.25500000920E-02 0.  1.
        2   -1    0    0  501    0  0.00000000000E+00  0.00000000000E+00 -0.39688083221E+03  0.39688083221E+03  0.25500000920E-02 0. -1.
    10030    2    1    2    0    0  0.00000000000E+00  0.00000000000E+00  0.23379196059E+03  0.10275536250E+04  0.10006037035E+04 0.  0.
        2    1    3    3  502    0  0.27908525886E+03  0.20617217240E+01 -0.30950922265E+03  0.41675987249E+03  0.25500000920E-02 0. -1.
       -2    1    3    3    0  502 -0.27908525886E+03 -0.20617217240E+01  0.54330118324E+03  0.61079375253E+03  0.25500000920E-02 0.  1.
</event>
<event>
 5   0  0.5201968E-03  0.9306566E+03  0.7818609E-02  0.9388050E-01
       -1   -1    0    0    0  501  0.00000000000E+00  0.00000000000E+00  0.50044811676E+03  0.50044811679E+03  0.50400001928E-02 0.  1.
        1   -1    0    0  501    0  0.00000000000E+00  0.00000000000E+00 -0.43267306073E+03  0.43267306076E+03  0.50400001928E-02 0. -1.
    10030    2    1    2    0    0  0.00000000000E+00  0.00000000000E+00  0.67775056035E+02  0.93312117755E+03  0.93065658208E+03 0.  0.
        2    1    3    3  502    0  0.80470075344E+02 -0.31433043354E+03  0.36831447556E+03  0.49085090139E+03  0.25500000920E-02 0.  1.
       -2    1    3    3    0  502 -0.80470075344E+02  0.31433043354E+03 -0.30053941953E+03  0.44227027616E+03  0.25500000920E-02 0. -1.
</event>
<event>
 5   0  0.5201968E-03  0.9967326E+03  0.7818609E-02  0.9312136E-01
       -1   -1    0    0    0  501  0.00000000000E+00  0.00000000000E+00  0.71563162649E+03  0.71563162651E+03  0.50400001928E-02 0. -1.
        1   -1    0    0  501    0  0.00000000000E+00  0.00000000000E+00 -0.34706261269E+03  0.34706261273E+03  0.50400001928E-02 0.  1.
    10030    2    1    2    0    0  0.00000000000E+00  0.00000000000E+00  0.36856901380E+03  0.10626942392E+04  0.99673262622E+03 0.  0.
        2    1    3    3  502    0 -0.46518276684E+03  0.55929982415E+02  0.36536473813E+03  0.59415028518E+03  0.25500000920E-02 0. -1.
       -2    1    3    3    0  502  0.46518276684E+03 -0.55929982415E+02  0.32042756713E+01  0.46854395406E+03  0.25500000920E-02 0.  1.
</event>
<event>
 5   0  0.9040674E-03  0.1019204E+04  0.7818609E-02  0.9287730E-01
       -2   -1    0    0    0  501  0.00000000000E+00  0.00000000000E+00  0.75119886450E+03  0.75119886450E+03  0.25500000920E-02 0.  1.
        2   -1    0    0  501    0  0.00000000000E+00  0.00000000000E+00 -0.34570608003E+03  0.34570608003E+03  0.25500000920E-02 0. -1.
    10030    2    1    2    0    0  0.00000000000E+00  0.00000000000E+00  0.40549278447E+03  0.10969049445E+04  0.10192036397E+04 0.  0.
        1    1    3    3  502    0 -0.36289347017E+03  0.19933232980E+03 -0.11700470889E+03  0.43025010206E+03  0.50400001928E-02 0. -1.
       -1    1    3    3    0  502  0.36289347017E+03 -0.19933232980E+03  0.52249749337E+03  0.66665484248E+03  0.50400001928E-02 0.  1.
</event>
<event>
 5   0  0.5310275E-03  0.1006447E+04  0.7818609E-02  0.9301502E-01
        1   -1    0    0  501    0  0.00000000000E+00  0.00000000000E+00  0.32539055196E+03  0.32539055199E+03  0.50400001928E-02 0.  1.
       -1   -1    0    0    0  501  0.00000000000E+00  0.00000000000E+00 -0.77824544191E+03  0.77824544192E+03  0.50400001928E-02 0. -1.
    10030    2    1    2    0    0  0.00000000000E+00  0.00000000000E+00 -0.45285488995E+03  0.11036359939E+04  0.10064466482E+04 0.  0.
        1    1    3    3  502    0  0.35124039752E+03  0.33079572774E+03 -0.38319463846E+03  0.61614426988E+03  0.50400001928E-02 0. -1.
       -1    1    3    3    0  502 -0.35124039752E+03 -0.33079572774E+03 -0.69660251496E+02  0.48749172404E+03  0.50400001928E-02 0.  1.
</event>
<event>
 5   0  0.5072205E-03  0.9966104E+03  0.7818609E-02  0.9312270E-01
        1   -1    0    0  501    0  0.00000000000E+00  0.00000000000E+00  0.10306366396E+04  0.10306366396E+04  0.50400001928E-02 0.  1.
       -1   -1    0    0    0  501  0.00000000000E+00  0.00000000000E+00 -0.24092688370E+03  0.24092688375E+03  0.50400001928E-02 0. -1.
    10030    2    1    2    0    0  0.00000000000E+00  0.00000000000E+00  0.78970975587E+03  0.12715635233E+04  0.99661040300E+03 0.  0.
        5    1    3    3  502    0  0.77219839950E+02  0.93382055224E+02 -0.22181357788E+03  0.25279728094E+03  0.46999998093E+01 0. -1.
       -5    1    3    3    0  502 -0.77219839950E+02 -0.93382055224E+02  0.10115233338E+04  0.10187662424E+04  0.46999998093E+01 0.  1.
</event>
<event>
 5   0  0.9040674E-03  0.9978105E+03  0.7818609E-02  0.9310949E-01
       -2   -1    0    0    0  501  0.00000000000E+00  0.00000000000E+00  0.26780180173E+03  0.26780180175E+03  0.25500000920E-02 0. -1.
        2   -1    0    0  501    0  0.00000000000E+00  0.00000000000E+00 -0.92944286004E+03  0.92944286005E+03  0.25500000920E-02 0.  1.
    10030    2    1    2    0    0  0.00000000000E+00  0.00000000000E+00 -0.66164105831E+03  0.11972446618E+04  0.99781054823E+03 0.  0.
        1    1    3    3  502    0  0.30128709958E+03 -0.39765845565E+03 -0.33015377126E+03  0.59825385617E+03  0.50400001928E-02 0.  1.
       -1    1    3    3    0  502 -0.30128709958E+03  0.39765845565E+03 -0.33148728705E+03  0.59899080562E+03  0.50400001928E-02 0. -1.
</event>
<event>
 5   0  0.5349685E-03  0.9926458E+03  0.7818609E-02  0.9316648E-01
       -1   -1    0    0    0  501  0.00000000000E+00  0.00000000000E+00  0.58176507127E+03  0.58176507129E+03  0.50400001928E-02 0. -1.
        1   -1    0    0  501    0  0.00000000000E+00  0.00000000000E+00 -0.42342939531E+03  0.42342939534E+03  0.50400001928E-02 0.  1.
    10030    2    1    2    0    0  0.00000000000E+00  0.00000000000E+00  0.15833567595E+03  0.10051944666E+04  0.99264582277E+03 0.  0.
        4    1    3    3  502    0  0.20287707594E+03 -0.45198865238E+03  0.49094433966E+02  0.49786014720E+03  0.12699999809E+01 0. -1.
       -4    1    3    3    0  502 -0.20287707594E+03  0.45198865238E+03  0.10924124199E+03  0.50733431943E+03  0.12699999809E+01 0.  1.
</event>
<event>
 5   0  0.8968798E-03  0.1010967E+04  0.7818609E-02  0.9296598E-01
        2   -1    0    0  501    0  0.00000000000E+00  0.00000000000E+00  0.39679366130E+03  0.39679366130E+03  0.25500000920E-02 0.  1.
       -2   -1    0    0    0  501  0.00000000000E+00  0.00000000000E+00 -0.64394569533E+03  0.64394569533E+03  0.25500000920E-02 0. -1.
    10030    2    1    2    0    0  0.00000000000E+00  0.00000000000E+00 -0.24715203403E+03  0.10407393566E+04  0.10109670027E+04 0.  0.
        2    1    3    3  502    0 -0.97767386768E+02 -0.44684624174E+03  0.97895715283E+02  0.46777515619E+03  0.25500000920E-02 0.  1.
       -2    1    3    3    0  502  0.97767386768E+02  0.44684624174E+03 -0.34504774931E+03  0.57296420044E+03  0.25500000920E-02 0. -1.
</event>
<event>
 5   0  0.5349685E-03  0.1003731E+04  0.7818609E-02  0.9304462E-01
        1   -1    0    0  501    0  0.00000000000E+00  0.00000000000E+00  0.13775648484E+04  0.13775648484E+04  0.50400001928E-02 0.  1.
       -1   -1    0    0    0  501  0.00000000000E+00  0.00000000000E+00 -0.18283630284E+03  0.18283630291E+03  0.50400001928E-02 0. -1.
    10030    2    1    2    0    0  0.00000000000E+00  0.00000000000E+00  0.11947285455E+04  0.15604011513E+04  0.10037307684E+04 0.  0.
        4    1    3    3  502    0 -0.21587392297E+03 -0.38424349580E+03  0.97054188941E+03  0.10659257885E+04  0.12699999809E+01 0.  1.
       -4    1    3    3    0  502  0.21587392297E+03  0.38424349580E+03  0.22418665613E+03  0.49447536275E+03  0.12699999809E+01 0. -1.
</event>
<event>
 5   0  0.5310275E-03  0.1008962E+04  0.7818609E-02  0.9298770E-01
        1   -1    0    0  501    0  0.00000000000E+00  0.00000000000E+00  0.46826113365E+03  0.46826113368E+03  0.50400001928E-02 0.  1.
       -1   -1    0    0    0  501  0.00000000000E+00  0.00000000000E+00 -0.54350255495E+03  0.54350255497E+03  0.50400001928E-02 0. -1.
    10030    2    1    2    0    0  0.00000000000E+00  0.00000000000E+00 -0.75241421300E+02  0.10117636886E+04  0.10089620856E+04 0.  0.
        1    1    3    3  502    0 -0.76365077592E+02  0.22880471314E+03 -0.48192877177E+03  0.53892352233E+03  0.50400001928E-02 0. -1.
       -1    1    3    3    0  502  0.76365077592E+02 -0.22880471314E+03  0.40668735047E+03  0.47284016632E+03  0.50400001928E-02 0.  1.
</event>
<event>
 5   0  0.8907355E-03  0.9372546E+03  0.7818609E-02  0.9380173E-01
       -2   -1    0    0    0  501  0.00000000000E+00  0.00000000000E+00  0.22551775435E+03  0.22551775437E+03  0.25500000920E-02 0. -1.
        2   -1    0    0  501    0  0.00000000000E+00  0.00000000000E+00 -0.97381041832E+03  0.97381041832E+03  0.25500000920E-02 0.  1.
    10030    2    1    2    0    0  0.00000000000E+00  0.00000000000E+00 -0.74829266397E+03  0.11993281727E+04  0.93725458380E+03 0.  0.
        5    1    3    3  502    0  0.28516180125E+03 -0.37076989386E+03 -0.33791072051E+03  0.57705572705E+03  0.46999998093E+01 0. -1.
       -5    1    3    3    0  502 -0.28516180125E+03  0.37076989386E+03 -0.41038194346E+03  0.62227244564E+03  0.46999998093E+01 0.  1.
</event>
<event>
 5   0  0.5189877E-03  0.9977771E+03  0.7818609E-02  0.9310986E-01
        1   -1    0    0  501    0  0.00000000000E+00  0.00000000000E+00  0.40027939116E+03  0.40027939119E+03  0.50400001928E-02 0. -1.
       -1   -1    0    0    0  501  0.00000000000E+00  0.00000000000E+00 -0.62179018494E+03  0.62179018496E+03  0.50400001928E-02 0.  1.
    10030    2    1    2    0    0  0.00000000000E+00  0.00000000000E+00 -0.22151079379E+03  0.10220695762E+04  0.99777712278E+03 0.  0.
        3    1    3    3  502    0  0.66922986068E+02 -0.28715043402E+01 -0.61716281178E+03  0.62078730500E+03  0.10100000352E+00 0.  1.
       -3    1    3    3    0  502 -0.66922986068E+02  0.28715043402E+01  0.39565201799E+03  0.40128227116E+03  0.10100000352E+00 0. -1.
</event>
<event>
 5   0  0.5189877E-03  0.1000114E+04  0.7818609E-02  0.9308420E-01
       -1   -1    0    0    0  501  0.00000000000E+00  0.00000000000E+00  0.25496509183E+03  0.25496509188E+03  0.50400001928E-02 0.  1.
        1   -1    0    0  501    0  0.00000000000E+00  0.00000000000E+00 -0.98075027199E+03  0.98075027200E+03  0.50400001928E-02 0. -1.
    10030    2    1    2    0    0  0.00000000000E+00  0.00000000000E+00 -0.72578518015E+03  0.12357153639E+04  0.10001141599E+04 0.  0.
        3    1    3    3  502    0  0.29140176852E+03  0.32051540265E+02  0.13765193916E+03  0.32386781021E+03  0.10100000352E+00 0.  1.
       -3    1    3    3    0  502 -0.29140176852E+03 -0.32051540265E+02 -0.86343711931E+03  0.91184755367E+03  0.10100000352E+00 0. -1.
</event>
<event>
 5   0  0.8968798E-03  0.1009984E+04  0.7818609E-02  0.9297662E-01
       -2   -1    0    0    0  501  0.00000000000E+00  0.00000000000E+00  0.16754981051E+03  0.16754981052E+03  0.25500000920E-02 0. -1.
        2   -1    0    0  501    0  0.00000000000E+00  0.00000000000E+00 -0.15220353325E+04  0.15220353325E+04  0.25500000920E-02 0.  1.
    10030    2    1    2    0    0  0.00000000000E+00  0.00000000000E+00 -0.13544855220E+04  0.16895851431E+04  0.10099836267E+04 0.  0.
        2    1    3    3  502    0 -0.24388984675E+03 -0.41096081347E+03 -0.95031602746E+03  0.10637065383E+04  0.25500000920E-02 0.  1.
       -2    1    3    3    0  502  0.24388984675E+03  0.41096081347E+03 -0.40416949456E+03  0.62587860476E+03  0.25500000920E-02 0. -1.
</event>
<event>
 5   0  0.8875655E-03  0.9998611E+03  0.7818609E-02  0.9308697E-01
        2   -1    0    0  501    0  0.00000000000E+00  0.00000000000E+00  0.21180515849E+04  0.21180515849E+04  0.25500000920E-02 0.  1.
       -2   -1    0    0    0  501  0.00000000000E+00  0.00000000000E+00 -0.11800022942E+03  0.11800022944E+03  0.25500000920E-02 0. -1.
    10030    2    1    2    0    0  0.00000000000E+00  0.00000000000E+00  0.20000513555E+04  0.22360518143E+04  0.99986113629E+03 0.  0.
        4    1    3    3  502    0  0.35922106834E+03 -0.29108141358E+03  0.14252921637E+04  0.14984083322E+04  0.12699999809E+01 0. -1.
       -4    1    3    3    0  502 -0.35922106834E+03  0.29108141358E+03  0.57475919178E+03  0.73764348212E+03  0.12699999809E+01 0.  1.
</event>
<event>
 5   0  0.5189877E-03  0.9978414E+03  0.7818609E-02  0.9310915E-01
       -1   -1    0    0    0  501  0.00000000000E+00  0.00000000000E+00  0.26411885981E+03  0.26411885986E+03  0.50400001928E-02 0.  1.
        1   -1    0    0  501    0  0.00000000000E+00  0.00000000000E+00 -0.94246157922E+03  0.94246157924E+03  0.50400001928E-02 0. -1.
    10030    2    1    2    0    0  0.00000000000E+00  0.00000000000E+00 -0.67834271941E+03  0.12065804391E+04  0.99784142580E+03 0.  0.
        3    1    3    3  502    0 -0.31178575298E+03  0.57792400069E+01  0.13175847794E+03  0.33853221721E+03  0.10100000352E+00 0.  1.
       -3    1    3    3    0  502  0.31178575298E+03 -0.57792400069E+01 -0.81010119735E+03  0.86804822189E+03  0.10100000352E+00 0. -1.
</event>
<event>
 5   0  0.8968798E-03  0.9896570E+03  0.7818609E-02  0.9319962E-01
       -2   -1    0    0    0  501  0.00000000000E+00  0.00000000000E+00  0.26732576652E+03  0.26732576654E+03  0.25500000920E-02 0.  1.
        2   -1    0    0  501    0  0.00000000000E+00  0.00000000000E+00 -0.91594321581E+03  0.91594321582E+03  0.25500000920E-02 0. -1.
    10030    2    1    2    0    0  0.00000000000E+00  0.00000000000E+00 -0.64861744929E+03  0.11832689824E+04  0.98965695525E+03 0.  0.
        2    1    3    3  502    0 -0.29212751195E+02  0.44068904770E+03 -0.57505133813E+02  0.44538417352E+03  0.25500000920E-02 0.  1.
       -2    1    3    3    0  502  0.29212751195E+02 -0.44068904770E+03 -0.59111231548E+03  0.73788480884E+03  0.25500000920E-02 0. -1.
</event>
<event>
 5   0  0.8875655E-03  0.1010927E+04  0.7818609E-02  0.9296641E-01
        2   -1    0    0  501    0  0.00000000000E+00  0.00000000000E+00  0.52454023515E+03  0.52454023515E+03  0.25500000920E-02 0. -1.
       -2   -1    0    0    0  501  0.00000000000E+00  0.00000000000E+00 -0.48708053721E+03  0.48708053722E+03  0.25500000920E-02 0.  1.
    10030    2    1    2    0    0  0.00000000000E+00  0.00000000000E+00  0.37459697933E+02  0.10116207724E+04  0.10109269796E+04 0.  0.
        4    1    3    3  502    0 -0.26422747370E+02  0.20737883256E+03  0.47924953536E+03  0.52286314827E+03  0.12699999809E+01 0. -1.
       -4    1    3    3    0  502  0.26422747370E+02 -0.20737883256E+03 -0.44178983742E+03  0.48875762411E+03  0.12699999809E+01 0.  1.
</event>
<event>
 5   0  0.9243773E-03  0.9786626E+03  0.7818609E-02  0.9332262E-01
       -2   -1    0    0    0  501  0.00000000000E+00  0.00000000000E+00  0.68502730131E+03  0.68502730131E+03  0.25500000920E-02 0.  1.
        2   -1    0    0  501    0  0.00000000000E+00  0.00000000000E+00 -0.34954101283E+03  0.34954101284E+03  0.25500000920E-02 0. -1.
    10030    2    1    2    0    0  0.00000000000E+00  0.00000000000E+00  0.33548628847E+03  0.10345683142E+04  0.97866263181E+03 0.  0.
        3    1    3    3  502    0 -0.32994219992E+03  0.35781964275E+03  0.11437798719E+03  0.49997908575E+03  0.10100000352E+00 0. -1.
       -3    1    3    3    0  502  0.32994219992E+03 -0.35781964275E+03  0.22110830129E+03  0.53458922841E+03  0.10100000352E+00 0.  1.
</event>
<event>
 5   0  0.5189877E-03  0.9866090E+03  0.7818609E-02  0.9323355E-01
       -1   -1    0    0    0  501  0.00000000000E+00  0.00000000000E+00  0.21867632995E+03  0.21867633001E+03  0.50400001928E-02 0. -1.
        1   -1    0    0  501    0  0.00000000000E+00  0.00000000000E+00 -0.11128288130E+04  0.11128288130E+04  0.50400001928E-02 0.  1.
    10030    2    1    2    0    0  0.00000000000E+00  0.00000000000E+00 -0.89415248302E+03  0.13315051430E+04  0.98660898178E+03 0.  0.
        3    1    3    3  502    0  0.12265104183E+03 -0.36899290616E+03 -0.85675748778E+03  0.94086792162E+03  0.10100000352E+00 0.  1.
       -3    1    3    3    0  502 -0.12265104183E+03  0.36899290616E+03 -0.37394995235E+02  0.39063722138E+03  0.10100000352E+00 0. -1.
</event>
<event>
 5   0  0.8968798E-03  0.9872203E+03  0.7818609E-02  0.9322673E-01
       -2   -1    0    0    0  501  0.00000000000E+00  0.00000000000E+00  0.29391944697E+03  0.29391944698E+03  0.25500000920E-02 0.  1.
        2   -1    0    0  501    0  0.00000000000E+00  0.00000000000E+00 -0.82897203325E+03  0.82897203326E+03  0.25500000920E-02 0. -1.
    10030    2    1    2    0    0  0.00000000000E+00  0.00000000000E+00 -0.53505258629E+03  0.11228914802E+04  0.98722034334E+03 0.  0.
        2    1    3    3  502    0 -0.43300227986E+03 -0.10541497565E+03 -0.50893895814E+03  0.67647775616E+03  0.25500000920E-02 0. -1.
       -2    1    3    3    0  502  0.43300227986E+03  0.10541497565E+03 -0.26113628142E+02  0.44641372407E+03  0.25500000920E-02 0.  1.
</event>
<event>
 5   0  0.5072205E-03  0.9910407E+03  0.7818609E-02  0.9318426E-01
        1   -1    0    0  501    0  0.00000000000E+00  0.00000000000E+00  0.42917980275E+03  0.42917980278E+03  0.50400001928E-02 0. -1.
       -1   -1    0    0    0  501  0.00000000000E+00  0.00000000000E+00 -0.57211553767E+03  0.57211553770E+03  0.50400001928E-02 0.  1.
    10030    2    1    2    0    0  0.00000000000E+00  0.00000000000E+00 -0.14293573493E+03  0.10012953405E+04  0.99104073304E+03 0.  0.
        5    1    3    3  502    0  0.12579472602E+03 -0.18724743022E+03  0.37426872962E+03  0.43701840371E+03  0.46999998093E+01 0. -1.
       -5    1    3    3    0  502 -0.12579472602E+03  0.18724743022E+03 -0.51720446454E+03  0.56427693676E+03  0.46999998093E+01 0.  1.
</event>
<event>
 5   0  0.5349685E-03  0.1004875E+04  0.7818609E-02  0.9303214E-01
        1   -1    0    0  501    0  0.00000000000E+00  0.00000000000E+00  0.15016543667E+04  0.15016543667E+04  0.50400001928E-02 0. -1.
       -1   -1    0    0    0  501  0.00000000000E+00  0.00000000000E+00 -0.16811026677E+03  0.16811026685E+03  0.50400001928E-02 0.  1.
    10030    2    1    2    0    0  0.00000000000E+00  0.00000000000E+00  0.13335440999E+04  0.16697646336E+04  0.10048751490E+04 0.  0.
        4    1    3    3  502    0  0.42576541325E+03  0.33535720354E+02  0.22700818235E+03  0.48366843955E+03  0.12699999809E+01 0. -1.
       -4    1    3    3    0  502 -0.42576541325E+03 -0.33535720354E+02  0.11065359176E+04  0.11860961940E+04  0.12699999809E+01 0.  1.
</event>
<event>
 5   0  0.8968798E-03  0.9943885E+03  0.7818609E-02  0.9314721E-01
       -2   -1    0    0    0  501  0.00000000000E+00  0.00000000000E+00  0.35394471081E+03  0.35394471082E+03  0.25500000920E-02 0.  1.
        2   -1    0    0  501    0  0.00000000000E+00  0.00000000000E+00 -0.69842013237E+03  0.69842013237E+03  0.25500000920E-02 0. -1.
    10030    2    1    2    0    0  0.00000000000E+00  0.00000000000E+00 -0.34447542156E+03  0.10523648432E+04  0.99438847898E+03 0.  0.
        2    1    3    3  502    0  0.17062305234E+03  0.24011893220E+02 -0.66581272931E+03  0.68774660124E+03  0.25500000920E-02 0. -1.
       -2    1    3    3    0  502 -0.17062305234E+03 -0.24011893220E+02  0.32133730775E+03  0.36461824195E+03  0.25500000920E-02 0.  1.
</event>
<event>
 5   0  0.5072205E-03  0.9990888E+03  0.7818609E-02  0.9309545E-01
       -1   -1    0    0    0  501  0.00000000000E+00  0.00000000000E+00  0.43828239508E+03  0.43828239511E+03  0.50400001928E-02 0.  1.
        1   -1    0    0  501    0  0.00000000000E+00  0.00000000000E+00 -0.56936948164E+03  0.56936948166E+03  0.50400001928E-02 0. -1.
    10030    2    1    2    0    0  0.00000000000E+00  0.00000000000E+00 -0.13108708656E+03  0.10076518768E+04  0.99908882513E+03 0.  0.
        5    1    3    3  502    0 -0.30712037713E+03  0.38990844349E+03 -0.12233790290E+03  0.51121440985E+03  0.46999998093E+01 0. -1.
       -5    1    3    3    0  502  0.30712037713E+03 -0.38990844349E+03 -0.87491836588E+01  0.49643746692E+03  0.46999998093E+01 0.  1.
</event>
<event>
 5   0  0.5189877E-03  0.9640234E+03  0.7818609E-02  0.9348908E-01
       -1   -1    0    0    0  501  0.00000000000E+00  0.00000000000E+00  0.18999392017E+03  0.18999392023E+03  0.50400001928E-02 0.  1.
        1   -1    0    0  501    0  0.00000000000E+00  0.00000000000E+00 -0.12228562660E+04  0.12228562660E+04  0.50400001928E-02 0. -1.
    10030    2    1    2    0    0  0.00000000000E+00  0.00000000000E+00 -0.10328623458E+04  0.14128501863E+04  0.96402335207E+03 0.  0.
        3    1    3    3  502    0  0.82692056918E+02  0.55144065256E+02  0.17481225113E+03  0.20109246022E+03  0.10100000352E+00 0.  1.
       -3    1    3    3    0  502 -0.82692056918E+02 -0.55144065256E+02 -0.12076745970E+04  0.12117577260E+04  0.10100000352E+00 0. -1.
</event>
<event>
 5   0  0.5189877E-03  0.1002572E+04  0.7818609E-02  0.9305728E-01
       -1   -1    0    0    0  501  0.00000000000E+00  0.00000000000E+00  0.24139925048E+03  0.24139925053E+03  0.50400001928E-02 0. -1.
        1   -1    0    0  501    0  0.00000000000E+00  0.00000000000E+00 -0.10409636564E+04  0.10409636565E+04  0.50400001928E-02 0.  1.
    10030    2    1    2    0    0  0.00000000000E+00  0.00000000000E+00 -0.79956440597E+03  0.12823629070E+04  0.10025723844E+04 0.  0.
        3    1    3    3  502    0  0.37247724492E+03  0.24339798844E+03 -0.69509555547E+03  0.82531189268E+03  0.10100000352E+00 0.  1.
       -3    1    3    3    0  502 -0.37247724492E+03 -0.24339798844E+03 -0.10446885050E+03  0.45705101431E+03  0.10100000352E+00 0. -1.
</event>
<event>
 5   0  0.5201968E-03  0.9890713E+03  0.7818609E-02  0.9320613E-01
        1   -1    0    0  501    0  0.00000000000E+00  0.00000000000E+00  0.13802446724E+04  0.13802446725E+04  0.50400001928E-02 0.  1.
       -1   -1    0    0    0  501  0.00000000000E+00  0.00000000000E+00 -0.17718996450E+03  0.17718996457E+03  0.50400001928E-02 0. -1.
    10030    2    1    2    0    0  0.00000000000E+00  0.00000000000E+00  0.12030547079E+04  0.15574346370E+04  0.98907129080E+03 0.  0.
        2    1    3    3  502    0  0.36204092887E+02  0.20830599764E+03  0.13054887542E+04  0.13224987759E+04  0.25500000920E-02 0.  1.
       -2    1    3    3    0  502 -0.36204092887E+02 -0.20830599764E+03 -0.10243404625E+03  0.23493586110E+03  0.25500000920E-02 0. -1.
</event>
<event>
 5   0  0.8907355E-03  0.1004878E+04  0.7818609E-02  0.9303210E-01
        2   -1    0    0  501    0  0.00000000000E+00  0.00000000000E+00  0.11936387972E+04  0.11936387972E+04  0.25500000920E-02 0. -1.
       -2   -1    0    0    0  501  0.00000000000E+00  0.00000000000E+00 -0.21149211168E+03  0.21149211169E+03  0.25500000920E-02 0.  1.
    10030    2    1    2    0    0  0.00000000000E+00  0.00000000000E+00  0.98214668553E+03  0.14051309089E+04  0.10048784798E+04 0.  0.
        5    1    3    3  502    0 -0.42329318961E+03 -0.13687131031E+03  0.16459815867E+03  0.47436855270E+03  0.46999998093E+01 0.  1.
       -5    1    3    3    0  502  0.42329318961E+03  0.13687131031E+03  0.81754852685E+03  0.93076235620E+03  0.46999998093E+01 0. -1.
</event>
<event>
 5   0  0.5349685E-03  0.9811489E+03  0.7818609E-02  0.9329465E-01
        1   -1    0    0  501    0  0.00000000000E+00  0.00000000000E+00  0.11960268814E+04  0.11960268814E+04  0.50400001928E-02 0.  1.
       -1   -1    0    0    0  501  0.00000000000E+00  0.00000000000E+00 -0.20121897252E+03  0.20121897259E+03  0.50400001928E-02 0. -1.
    10030    2    1    2    0    0  0.00000000000E+00  0.00000000000E+00  0.99480790886E+03  0.13972458540E+04  0.98114891884E+03 0.  0.
        4    1    3    3  502    0 -0.26035482171E+03 -0.18396204782E+03  0.10284106539E+04  0.10766878630E+04  0.12699999809E+01 0.  1.
       -4    1    3    3    0  502  0.26035482171E+03  0.18396204782E+03 -0.33602745081E+02  0.32055799101E+03  0.12699999809E+01 0. -1.
</event>
<event>
 5   0  0.5189877E-03  0.9961812E+03  0.7818609E-02  0.9312743E-01
        1   -1    0    0  501    0  0.00000000000E+00  0.00000000000E+00  0.33417529025E+03  0.33417529029E+03  0.50400001928E-02 0.  1.
       -1   -1    0    0    0  501  0.00000000000E+00  0.00000000000E+00 -0.74240746685E+03  0.74240746687E+03  0.50400001928E-02 0. -1.
    10030    2    1    2    0    0  0.00000000000E+00  0.00000000000E+00 -0.40823217660E+03  0.10765827572E+04  0.99618116976E+03 0.  0.
        3    1    3    3  502    0 -0.20904042686E+03 -0.41439125186E+03 -0.39947127061E+03  0.61236861115E+03  0.10100000352E+00 0. -1.
       -3    1    3    3    0  502  0.20904042686E+03  0.41439125186E+03 -0.87609059975E+01  0.46421414601E+03  0.10100000352E+00 0.  1.
</event>
<event>
 5   0  0.8968798E-03  0.8580710E+03  0.7818609E-02  0.9479568E-01
       -2   -1    0    0    0  501  0.00000000000E+00  0.00000000000E+00  0.72872869508E+03  0.72872869509E+03  0.25500000920E-02 0.  1.
        2   -1    0    0  501    0  0.00000000000E+00  0.00000000000E+00 -0.25259257687E+03  0.25259257689E+03  0.25500000920E-02 0. -1.
    10030    2    1    2    0    0  0.00000000000E+00  0.00000000000E+00  0.47613611821E+03  0.98132127197E+03  0.85807099693E+03 0.  0.
        2    1    3    3  502    0  0.57162160413E+00 -0.20596525031E+03  0.66849102244E+03  0.69950143543E+03  0.25500000920E-02 0.  1.
       -2    1    3    3    0  502 -0.57162160413E+00  0.20596525031E+03 -0.19235490422E+03  0.28181983654E+03  0.25500000920E-02 0. -1.
</event>
<event>
 5   0  0.3513625E-03  0.1000055E+04  0.7818609E-02  0.9308484E-01
       -4   -1    0    0    0  501  0.00000000000E+00  0.00000000000E+00  0.21402798138E+03  0.21403174931E+03  0.12699999809E+01 0. -1.
        4   -1    0    0  501    0  0.00000000000E+00  0.00000000000E+00 -0.11681864861E+04  0.11681871764E+04  0.12699999809E+01 0.  1.
    10030    2    1    2    0    0  0.00000000000E+00  0.00000000000E+00 -0.95415850471E+03  0.13822189257E+04  0.10000553518E+04 0.  0.
        3    1    3    3  502    0  0.18846873254E+02  0.38805200055E+03 -0.42004820252E+02  0.39077355961E+03  0.10100000352E+00 0. -1.
       -3    1    3    3    0  502 -0.18846873254E+02 -0.38805200055E+03 -0.91215368446E+03  0.99144536614E+03  0.10100000352E+00 0.  1.
</event>
<event>
 5   0  0.8907355E-03  0.1003533E+04  0.7818609E-02  0.9304678E-01
        2   -1    0    0  501    0  0.00000000000E+00  0.00000000000E+00  0.16003361981E+04  0.16003361981E+04  0.25500000920E-02 0.  1.
       -2   -1    0    0    0  501  0.00000000000E+00  0.00000000000E+00 -0.15732296887E+03  0.15732296889E+03  0.25500000920E-02 0. -1.
    10030    2    1    2    0    0  0.00000000000E+00  0.00000000000E+00  0.14430132293E+04  0.17576591670E+04  0.10035330426E+04 0.  0.
        5    1    3    3  502    0 -0.12942452881E+03  0.17441705412E+03  0.15136974868E+04  0.15292070458E+04  0.46999998093E+01 0.  1.
       -5    1    3    3    0  502  0.12942452881E+03 -0.17441705412E+03 -0.70684257533E+02  0.22845212121E+03  0.46999998093E+01 0. -1.
</event>
<event>
 5   0  0.5310275E-03  0.1034526E+04  0.7818609E-02  0.9271467E-01
        1   -1    0    0  501    0  0.00000000000E+00  0.00000000000E+00  0.70885901431E+03  0.70885901433E+03  0.50400001928E-02 0. -1.
       -1   -1    0    0    0  501  0.00000000000E+00  0.00000000000E+00 -0.37745322976E+03  0.37745322979E+03  0.50400001928E-02 0.  1.
    10030    2    1    2    0    0  0.00000000000E+00  0.00000000000E+00  0.33140578455E+03  0.10863122441E+04  0.10345262190E+04 0.  0.
        1    1    3    3  502    0 -0.15309687719E+03  0.48148742266E+03  0.49282161539E+02  0.50763916659E+03  0.50400001928E-02 0.  1.
       -1    1    3    3    0  502  0.15309687719E+03 -0.48148742266E+03  0.28212362302E+03  0.57867307754E+03  0.50400001928E-02 0. -1.
</event>
<event>
 5   0  0.9243773E-03  0.1009303E+04  0.7818609E-02  0.9298400E-01
       -2   -1    0    0    0  501  0.00000000000E+00  0.00000000000E+00  0.15345193414E+03  0.15345193416E+03  0.25500000920E-02 0. -1.
        2   -1    0    0  501    0  0.00000000000E+00  0.00000000000E+00 -0.16596282796E+04  0.16596282796E+04  0.25500000920E-02 0.  1.
    10030    2    1    2    0    0  0.00000000000E+00  0.00000000000E+00 -0.15061763454E+04  0.18130802137E+04  0.10093030654E+04 0.  0.
        3    1    3    3  502    0  0.11139123306E+03  0.40045161947E+01  0.13106299919E+03  0.17205104740E+03  0.10100000352E+00 0. -1.
       -3    1    3    3    0  502 -0.11139123306E+03 -0.40045161947E+01 -0.16372393446E+04  0.16410291663E+04  0.10100000352E+00 0.  1.
</event>
<event>
 5   0  0.8907355E-03  0.1011811E+04  0.7818609E-02  0.9295685E-01
        2   -1    0    0  501    0  0.00000000000E+00  0.00000000000E+00  0.11808367189E+04  0.11808367189E+04  0.25500000920E-02 0. -1.
       -2   -1    0    0    0  501  0.00000000000E+00  0.00000000000E+00 -0.21674479375E+03  0.21674479377E+03  0.25500000920E-02 0.  1.
    10030    2    1    2    0    0  0.00000000000E+00  0.00000000000E+00  0.96409192513E+03  0.13975815126E+04  0.10118106762E+04 0.  0.
        5    1    3    3  502    0 -0.33182951985E+03  0.36786993994E+03  0.62344217343E+03  0.79632992947E+03  0.46999998093E+01 0.  1.
       -5    1    3    3    0  502  0.33182951985E+03 -0.36786993994E+03  0.34064975169E+03  0.60125158318E+03  0.46999998093E+01 0. -1.
</event>
<event>
 5   0  0.5310275E-03  0.9969938E+03  0.7818609E-02  0.9311848E-01
       -1   -1    0    0    0  501  0.00000000000E+00  0.00000000000E+00  0.56684018796E+03  0.56684018799E+03  0.50400001928E-02 0.  1.
        1   -1    0    0  501    0  0.00000000000E+00  0.00000000000E+00 -0.43839372613E+03  0.43839372616E+03  0.50400001928E-02 0. -1.
    10030    2    1    2    0    0  0.00000000000E+00  0.00000000000E+00  0.12844646183E+03  0.10052339141E+04  0.99699384582E+03 0.  0.
        1    1    3    3  502    0 -0.40879870687E+03  0.14964415021E+03  0.30910798397E+03  0.53390776376E+03  0.50400001928E-02 0.  1.
       -1    1    3    3    0  502  0.40879870687E+03 -0.14964415021E+03 -0.18066152213E+03  0.47132615038E+03  0.50400001928E-02 0. -1.
</event>
<event>
 5   0  0.8968798E-03  0.9831292E+03  0.7818609E-02  0.9327244E-01
        2   -1    0    0  501    0  0.00000000000E+00  0.00000000000E+00  0.22693029999E+03  0.22693030000E+03  0.25500000920E-02 0.  1.
       -2   -1    0    0    0  501  0.00000000000E+00  0.00000000000E+00 -0.10648015635E+04  0.10648015635E+04  0.25500000920E-02 0. -1.
    10030    2    1    2    0    0  0.00000000000E+00  0.00000000000E+00 -0.83787126349E+03  0.12917318635E+04  0.98312916393E+03 0.  0.
        2    1    3    3  502    0 -0.28539669835E+03 -0.72143958264E+02 -0.93618410574E+03  0.98137490593E+03  0.25500000920E-02 0. -1.
       -2    1    3    3    0  502  0.28539669835E+03  0.72143958264E+02  0.98312842255E+02  0.31035695755E+03  0.25500000920E-02 0.  1.
</event>
<event>
 5   0  0.8907355E-03  0.9501255E+03  0.7818609E-02  0.9365004E-01
        2   -1    0    0  501    0  0.00000000000E+00  0.00000000000E+00  0.11903047142E+04  0.11903047142E+04  0.25500000920E-02 0.  1.
       -2   -1    0    0    0  501  0.00000000000E+00  0.00000000000E+00 -0.18960236968E+03  0.18960236970E+03  0.25500000920E-02 0. -1.
    10030    2    1    2    0    0  0.00000000000E+00  0.00000000000E+00  0.10007023445E+04  0.13799070839E+04  0.95012545375E+03 0.  0.
        5    1    3    3  502    0  0.20803095541E+03  0.16389621428E+02 -0.11943822515E+03  0.24048508837E+03  0.46999998093E+01 0. -1.
       -5    1    3    3    0  502 -0.20803095541E+03 -0.16389621428E+02  0.11201405696E+04  0.11394219955E+04  0.46999998093E+01 0.  1.
</event>
<event>
 5   0  0.5201968E-03  0.1030469E+04  0.7818609E-02  0.9275744E-01
        1   -1    0    0  501    0  0.00000000000E+00  0.00000000000E+00  0.43179308590E+03  0.43179308593E+03  0.50400001928E-02 0. -1.
       -1   -1    0    0    0  501  0.00000000000E+00  0.00000000000E+00 -0.61480053366E+03  0.61480053368E+03  0.50400001928E-02 0.  1.
    10030    2    1    2    0    0  0.00000000000E+00  0.00000000000E+00 -0.18300744776E+03  0.10465936196E+04  0.10304690576E+04 0.  0.
        2    1    3    3  502    0 -0.25615869984E+03 -0.36809137640E+03  0.16615488803E+03  0.47824260340E+03  0.25500000920E-02 0. -1.
       -2    1    3    3    0  502  0.25615869984E+03  0.36809137640E+03 -0.34916233580E+03  0.56835101621E+03  0.25500000920E-02 0.  1.
</event>
<event>
 5   0  0.8907355E-03  0.1012663E+04  0.7818609E-02  0.9294764E-01
       -2   -1    0    0    0  501  0.00000000000E+00  0.00000000000E+00  0.30913293185E+03  0.30913293186E+03  0.25500000920E-02 0. -1.
        2   -1    0    0  501    0  0.00000000000E+00  0.00000000000E+00 -0.82932525222E+03  0.82932525223E+03  0.25500000920E-02 0.  1.
    10030    2    1    2    0    0  0.00000000000E+00  0.00000000000E+00 -0.52019232037E+03  0.11384581841E+04  0.10126633136E+04 0.  0.
        5    1    3    3  502    0 -0.19229265858E+03  0.16198544197E+03 -0.75415795239E+03  0.79497928093E+03  0.46999998093E+01 0.  1.
       -5    1    3    3    0  502  0.19229265858E+03 -0.16198544197E+03  0.23396563202E+03  0.34347890316E+03  0.46999998093E+01 0. -1.
</event>
<event>
 5   0  0.5349685E-03  0.9998278E+03  0.7818609E-02  0.9308734E-01
        1   -1    0    0  501    0  0.00000000000E+00  0.00000000000E+00  0.10490872080E+04  0.10490872080E+04  0.50400001928E-02 0. -1.
       -1   -1    0    0    0  501  0.00000000000E+00  0.00000000000E+00 -0.23822033166E+03  0.23822033172E+03  0.50400001928E-02 0.  1.
    10030    2    1    2    0    0  0.00000000000E+00  0.00000000000E+00  0.81086687629E+03  0.12873075397E+04  0.99982779050E+03 0.  0.
        4    1    3    3  502    0  0.80641273507E+02 -0.37055854816E+03  0.82481165773E+03  0.90781745755E+03  0.12699999809E+01 0. -1.
       -4    1    3    3    0  502 -0.80641273507E+02  0.37055854816E+03 -0.13944781440E+02  0.37949008213E+03  0.12699999809E+01 0.  1.
</event>
<event>
 5   0  0.5072205E-03  0.9880978E+03  0.7818609E-02  0.9321696E-01
        1   -1    0    0  501    0  0.00000000000E+00  0.00000000000E+00  0.84195613109E+03  0.84195613110E+03  0.50400001928E-02 0. -1.
       -1   -1    0    0    0  501  0.00000000000E+00  0.00000000000E+00 -0.28990145303E+03  0.28990145307E+03  0.50400001928E-02 0.  1.
    10030    2    1    2    0    0  0.00000000000E+00  0.00000000000E+00  0.55205467806E+03  0.11318575842E+04  0.98809778023E+03 0.  0.
        5    1    3    3  502    0 -0.32253969866E+03 -0.13869978027E+01  0.70467452689E+03  0.77499810311E+03  0.46999998093E+01 0. -1.
       -5    1    3    3    0  502  0.32253969866E+03  0.13869978027E+01 -0.15261984883E+03  0.35685948107E+03  0.46999998093E+01 0.  1.
</event>
<event>
 5   0  0.5072205E-03  0.9967846E+03  0.7818609E-02  0.9312078E-01
       -1   -1    0    0    0  501  0.00000000000E+00  0.00000000000E+00  0.16056434029E+03  0.16056434037E+03  0.50400001928E-02 0.  1.
        1   -1    0    0  501    0  0.00000000000E+00  0.00000000000E+00 -0.15470115992E+04  0.15470115992E+04  0.50400001928E-02 0. -1.
    10030    2    1    2    0    0  0.00000000000E+00  0.00000000000E+00 -0.13864472589E+04  0.17075759395E+04  0.99678462452E+03 0.  0.
        5    1    3    3  502    0  0.26953325913E+03 -0.72905674029E+02 -0.14003962856E+04  0.14279689288E+04  0.46999998093E+01 0. -1.
       -5    1    3    3    0  502 -0.26953325913E+03  0.72905674029E+02  0.13949026718E+02  0.27960701069E+03  0.46999998093E+01 0.  1.
</event>
<event>
 5   0  0.5072205E-03  0.1007096E+04  0.7818609E-02  0.9300796E-01
       -1   -1    0    0    0  501  0.00000000000E+00  0.00000000000E+00  0.27192082998E+03  0.27192083003E+03  0.50400001928E-02 0.  1.
        1   -1    0    0  501    0  0.00000000000E+00  0.00000000000E+00 -0.93248024995E+03  0.93248024996E+03  0.50400001928E-02 0. -1.
    10030    2    1    2    0    0  0.00000000000E+00  0.00000000000E+00 -0.66055941997E+03  0.12044010800E+04  0.10070964274E+04 0.  0.
        5    1    3    3  502    0 -0.45670864104E+03 -0.20577559635E+03 -0.26915532673E+03  0.56867658538E+03  0.46999998093E+01 0.  1.
       -5    1    3    3    0  502  0.45670864104E+03  0.20577559635E+03 -0.39140409323E+03  0.63572449461E+03  0.46999998093E+01 0. -1.
</event>
<event>
 5   0  0.9243773E-03  0.9781175E+03  0.7818609E-02  0.9332876E-01
       -2   -1    0    0    0  501  0.00000000000E+00  0.00000000000E+00  0.73210663792E+03  0.73210663792E+03  0.25500000920E-02 0. -1.
        2   -1    0    0  501    0  0.00000000000E+00  0.00000000000E+00 -0.32669890584E+03  0.32669890585E+03  0.25500000920E-02 0.  1.
    10030    2    1    2    0    0  0.00000000000E+00  0.00000000000E+00  0.40540773208E+03  0.10588055438E+04  0.97811745220E+03 0.  0.
        3    1    3    3  502    0 -0.28261521777E+03  0.39803681883E+03  0.23470169488E+03  0.54165447126E+03  0.10100000352E+00 0.  1.
       -3    1    3    3    0  502  0.28261521777E+03 -0.39803681883E+03  0.17070603720E+03  0.51715107251E+03  0.10100000352E+00 0. -1.
</event>
<event>
 5   0  0.5072205E-03  0.9875504E+03  0.7818609E-02  0.9322306E-01
       -1   -1    0    0    0  501  0.00000000000E+00  0.00000000000E+00  0.93652425196E+03  0.93652425198E+03  0.50400001928E-02 0. -1.
        1   -1    0    0  501    0  0.00000000000E+00  0.00000000000E+00 -0.26033916318E+03  0.26033916323E+03  0.50400001928E-02 0.  1.
    10030    2    1    2    0    0  0.00000000000E+00  0.00000000000E+00  0.67618508878E+03  0.11968634152E+04  0.98755038371E+03 0.  0.
        5    1    3    3  502    0 -0.65989848677E+02  0.46876820264E+03  0.50817028153E+03  0.69451955549E+03  0.46999998093E+01 0. -1.
       -5    1    3    3    0  502  0.65989848677E+02 -0.46876820264E+03  0.16801480725E+03  0.50234385971E+03  0.46999998093E+01 0.  1.
</event>
<event>
 5   0  0.5072205E-03  0.9958007E+03  0.7818609E-02  0.9313162E-01
        1   -1    0    0  501    0  0.00000000000E+00  0.00000000000E+00  0.15000931972E+04  0.15000931972E+04  0.50400001928E-02 0. -1.
       -1   -1    0    0    0  501  0.00000000000E+00  0.00000000000E+00 -0.16525958324E+03  0.16525958332E+03  0.50400001928E-02 0.  1.
    10030    2    1    2    0    0  0.00000000000E+00  0.00000000000E+00  0.13348336140E+04  0.16653527805E+04  0.99580073643E+03 0.  0.
        5    1    3    3  502    0  0.92632871417E+02  0.31323351158E+03  0.12958086675E+04  0.13363526011E+04  0.46999998093E+01 0. -1.
       -5    1    3    3    0  502 -0.92632871417E+02 -0.31323351158E+03  0.39024946478E+02  0.32900017947E+03  0.46999998093E+01 0.  1.
</event>
<event>
 5   0  0.9243773E-03  0.9951661E+03  0.7818609E-02  0.9313862E-01
        2   -1    0    0  501    0  0.00000000000E+00  0.00000000000E+00  0.29801760866E+04  0.29801760866E+04  0.25500000920E-02 0. -1.
       -2   -1    0    0    0  501  0.00000000000E+00  0.00000000000E+00 -0.83078614134E+02  0.83078614173E+02  0.25500000920E-02 0.  1.
    10030    2    1    2    0    0  0.00000000000E+00  0.00000000000E+00  0.28970974725E+04  0.30632547008E+04  0.99516611521E+03 0.  0.
        3    1    3    3  502    0 -0.24627734702E+03 -0.42611197497E+03  0.12230884521E+04  0.13183964953E+04  0.10100000352E+00 0. -1.
       -3    1    3    3    0  502  0.24627734702E+03  0.42611197497E+03  0.16740090204E+04  0.17448582055E+04  0.10100000352E+00 0.  1.
</event>
<event>
 5   0  0.9040674E-03  0.1000769E+04  0.7818609E-02  0.9307702E-01
        2   -1    0    0  501    0  0.00000000000E+00  0.00000000000E+00  0.27332091424E+03  0.27332091425E+03  0.25500000920E-02 0.  1.
       -2   -1    0    0    0  501  0.00000000000E+00  0.00000000000E+00 -0.91608319808E+03  0.91608319809E+03  0.25500000920E-02 0. -1.
    10030    2    1    2    0    0  0.00000000000E+00  0.00000000000E+00 -0.64276228384E+03  0.11894041123E+04  0.10007690987E+04 0.  0.
        1    1    3    3  502    0 -0.47433469270E+03 -0.84948454360E+02 -0.48160730577E+03  0.68128939342E+03  0.50400001928E-02 0.  1.
       -1    1    3    3    0  502  0.47433469270E+03  0.84948454360E+02 -0.16115497807E+03  0.50811471891E+03  0.50400001928E-02 0. -1.
</event>
<event>
 5   0  0.8875655E-03  0.9946470E+03  0.7818609E-02  0.9314435E-01
        2   -1    0    0  501    0  0.00000000000E+00  0.00000000000E+00  0.61593935053E+03  0.61593935054E+03  0.25500000920E-02 0. -1.
       -2   -1    0    0    0  501  0.00000000000E+00  0.00000000000E+00 -0.40155039006E+03  0.40155039007E+03  0.25500000920E-02 0.  1.
    10030    2    1    2    0    0  0.00000000000E+00  0.00000000000E+00  0.21438896048E+03  0.10174897406E+04  0.99464704587E+03 0.  0.
        4    1    3    3  502    0 -0.14051371389E+03  0.15662410330E+03 -0.35376915589E+03  0.41161807794E+03  0.12699999809E+01 0.  1.
       -4    1    3    3    0  502  0.14051371389E+03 -0.15662410330E+03  0.56815811637E+03  0.60587166267E+03  0.12699999809E+01 0. -1.
</event>
<event>
 5   0  0.5201968E-03  0.1042453E+04  0.7818609E-02  0.9263171E-01
        1   -1    0    0  501    0  0.00000000000E+00  0.00000000000E+00  0.50997632523E+03  0.50997632526E+03  0.50400001928E-02 0.  1.
       -1   -1    0    0    0  501  0.00000000000E+00  0.00000000000E+00 -0.53272465026E+03  0.53272465028E+03  0.50400001928E-02 0. -1.
    10030    2    1    2    0    0  0.00000000000E+00  0.00000000000E+00 -0.22748325024E+02  0.10427009755E+04  0.10424527990E+04 0.  0.
        2    1    3    3  502    0  0.40521922298E+03  0.17953443316E+03  0.26299339751E+03  0.51536468496E+03  0.25500000920E-02 0.  1.
       -2    1    3    3    0  502 -0.40521922298E+03 -0.17953443316E+03 -0.28574172254E+03  0.52733629058E+03  0.25500000920E-02 0. -1.
</event>
<event>
 5   0  0.8907355E-03  0.1008053E+04  0.7818609E-02  0.9299756E-01
       -2   -1    0    0    0  501  0.00000000000E+00  0.00000000000E+00  0.46188040365E+03  0.46188040366E+03  0.25500000920E-02 0.  1.
        2   -1    0    0  501    0  0.00000000000E+00  0.00000000000E+00 -0.55001822467E+03  0.55001822468E+03  0.25500000920E-02 0. -1.
    10030    2    1    2    0    0  0.00000000000E+00  0.00000000000E+00 -0.88137821016E+02  0.10118986283E+04  0.10080528550E+04 0.  0.
        5    1    3    3  502    0  0.25257897774E+03 -0.37204933171E+03  0.18440368297E+03  0.48604902378E+03  0.46999998093E+01 0.  1.
       -5    1    3    3    0  502 -0.25257897774E+03  0.37204933171E+03 -0.27254150399E+03  0.52584960456E+03  0.46999998093E+01 0. -1.
</event>
<event>
 5   0  0.5349685E-03  0.9978634E+03  0.7818609E-02  0.9310891E-01
        1   -1    0    0  501    0  0.00000000000E+00  0.00000000000E+00  0.29544980845E+03  0.29544980849E+03  0.50400001928E-02 0.  1.
       -1   -1    0    0    0  501  0.00000000000E+00  0.00000000000E+00 -0.84255548318E+03  0.84255548320E+03  0.50400001928E-02 0. -1.
    10030    2    1    2    0    0  0.00000000000E+00  0.00000000000E+00 -0.54710567474E+03  0.11380052917E+04  0.99786342983E+03 0.  0.
        4    1    3    3  502    0  0.20512874862E+03  0.27349796226E+03  0.14087237334E+03  0.36976421858E+03  0.12699999809E+01 0.  1.
       -4    1    3    3    0  502 -0.20512874862E+03 -0.27349796226E+03 -0.68797804808E+03  0.76824107311E+03  0.12699999809E+01 0. -1.
</event>
<event>
 5   0  0.9040674E-03  0.9786336E+03  0.7818609E-02  0.9332295E-01
        2   -1    0    0  501    0  0.00000000000E+00  0.00000000000E+00  0.68913740739E+03  0.68913740739E+03  0.25500000920E-02 0.  1.
       -2   -1    0    0    0  501  0.00000000000E+00  0.00000000000E+00 -0.34743566100E+03  0.34743566101E+03  0.25500000920E-02 0. -1.
    10030    2    1    2    0    0  0.00000000000E+00  0.00000000000E+00  0.34170174638E+03  0.10365730684E+04  0.97863355893E+03 0.  0.
        1    1    3    3  502    0  0.26505938460E+03  0.39505879763E+03  0.29209615596E+03  0.55825450764E+03  0.50400001928E-02 0.  1.
       -1    1    3    3    0  502 -0.26505938460E+03 -0.39505879763E+03  0.49605590426E+02  0.47831856077E+03  0.50400001928E-02 0. -1.
</event>
<event>
 5   0  0.8907355E-03  0.9924894E+03  0.7818609E-02  0.9316821E-01
        2   -1    0    0  501    0  0.00000000000E+00  0.00000000000E+00  0.86223596397E+03  0.86223596397E+03  0.25500000920E-02 0. -1.
       -2   -1    0    0    0  501  0.00000000000E+00  0.00000000000E+00 -0.28560490241E+03  0.28560490242E+03  0.25500000920E-02 0.  1.
    10030    2    1    2    0    0  0.00000000000E+00  0.00000000000E+00  0.57663106155E+03  0.11478408664E+04  0.99248943239E+03 0.  0.
        5    1    3    3  502    0 -0.26712955000E+03 -0.41719373206E+03  0.25503804934E+03  0.55720310764E+03  0.46999998093E+01 0. -1.
       -5    1    3    3    0  502  0.26712955000E+03  0.41719373206E+03  0.32159301222E+03  0.59063775875E+03  0.46999998093E+01 0.  1.
</event>
<event>
 5   0  0.8968798E-03  0.9430504E+03  0.7818609E-02  0.9373311E-01
        2   -1    0    0  501    0  0.00000000000E+00  0.00000000000E+00  0.13836777977E+04  0.13836777977E+04  0.25500000920E-02 0. -1.
       -2   -1    0    0    0  501  0.00000000000E+00  0.00000000000E+00 -0.16068481838E+03  0.16068481840E+03  0.25500000920E-02 0.  1.
    10030    2    1    2    0    0  0.00000000000E+00  0.00000000000E+00  0.12229929793E+04  0.15443626161E+04  0.94305040298E+03 0.  0.
        2    1    3    3  502    0  0.29646525172E+03 -0.14056432996E+03  0.11660834481E+04  0.12113631100E+04  0.25500000920E-02 0. -1.
       -2    1    3    3    0  502 -0.29646525172E+03  0.14056432996E+03  0.56909531257E+02  0.33299950614E+03  0.25500000920E-02 0.  1.
</event>
<event>
 5   0  0.5310275E-03  0.1013890E+04  0.7818609E-02  0.9293441E-01
        1   -1    0    0  501    0  0.00000000000E+00  0.00000000000E+00  0.68308728588E+03  0.68308728590E+03  0.50400001928E-02 0.  1.
       -1   -1    0    0    0  501  0.00000000000E+00  0.00000000000E+00 -0.37622295747E+03  0.37622295750E+03  0.50400001928E-02 0. -1.
    10030    2    1    2    0    0  0.00000000000E+00  0.00000000000E+00  0.30686432841E+03  0.10593102434E+04  0.10138897749E+04 0.  0.
        1    1    3    3  502    0  0.31976225278E+03 -0.36634164573E+03  0.30316680296E+03  0.57303072356E+03  0.50400001928E-02 0.  1.
       -1    1    3    3    0  502 -0.31976225278E+03  0.36634164573E+03  0.36975254483E+01  0.48627951984E+03  0.50400001928E-02 0. -1.
</event>
<event>
 5   0  0.5349685E-03  0.9932249E+03  0.7818609E-02  0.9316007E-01
        1   -1    0    0  501    0  0.00000000000E+00  0.00000000000E+00  0.64008035472E+03  0.64008035474E+03  0.50400001928E-02 0. -1.
       -1   -1    0    0    0  501  0.00000000000E+00  0.00000000000E+00 -0.38530152355E+03  0.38530152358E+03  0.50400001928E-02 0.  1.
    10030    2    1    2    0    0  0.00000000000E+00  0.00000000000E+00  0.25477883118E+03  0.10253818783E+04  0.99322492094E+03 0.  0.
        4    1    3    3  502    0 -0.45273283155E+03  0.18757079780E+03  0.21044601166E+03  0.53332818945E+03  0.12699999809E+01 0. -1.
       -4    1    3    3    0  502  0.45273283155E+03 -0.18757079780E+03  0.44332819520E+02  0.49205368887E+03  0.12699999809E+01 0.  1.
</event>
<event>
 5   0  0.8968798E-03  0.1006889E+04  0.7818609E-02  0.9301022E-01
        2   -1    0    0  501    0  0.00000000000E+00  0.00000000000E+00  0.16375135557E+03  0.16375135559E+03  0.25500000920E-02 0.  1.
       -2   -1    0    0    0  501  0.00000000000E+00  0.00000000000E+00 -0.15478111449E+04  0.15478111449E+04  0.25500000920E-02 0. -1.
    10030    2    1    2    0    0  0.00000000000E+00  0.00000000000E+00 -0.13840597893E+04  0.17115625005E+04  0.10068886198E+04 0.  0.
        2    1    3    3  502    0  0.29973013799E+03 -0.29509498819E+03 -0.22176024606E+03  0.47549638738E+03  0.25500000920E-02 0.  1.
       -2    1    3    3    0  502 -0.29973013799E+03  0.29509498819E+03 -0.11622995432E+04  0.12360661131E+04  0.25500000920E-02 0. -1.
</event>
<event>
 5   0  0.8907355E-03  0.1001330E+04  0.7818609E-02  0.9307088E-01
        2   -1    0    0  501    0  0.00000000000E+00  0.00000000000E+00  0.20546410787E+03  0.20546410788E+03  0.25500000920E-02 0. -1.
       -2   -1    0    0    0  501  0.00000000000E+00  0.00000000000E+00 -0.12199957717E+04  0.12199957717E+04  0.25500000920E-02 0.  1.
    10030    2    1    2    0    0  0.00000000000E+00  0.00000000000E+00 -0.10145316638E+04  0.14254598796E+04  0.10013298015E+04 0.  0.
        5    1    3    3  502    0 -0.42297497360E+03  0.26513294198E+03 -0.56128541225E+03  0.75117688277E+03  0.46999998093E+01 0.  1.
       -5    1    3    3    0  502  0.42297497360E+03 -0.26513294198E+03 -0.45324625157E+03  0.67428299680E+03  0.46999998093E+01 0. -1.
</event>
<event>
 5   0  0.5349685E-03  0.9953343E+03  0.7818609E-02  0.9313677E-01
        1   -1    0    0  501    0  0.00000000000E+00  0.00000000000E+00  0.25970962881E+03  0.25970962886E+03  0.50400001928E-02 0.  1.
       -1   -1    0    0    0  501  0.00000000000E+00  0.00000000000E+00 -0.95365188135E+03  0.95365188137E+03  0.50400001928E-02 0. -1.
    10030    2    1    2    0    0  0.00000000000E+00  0.00000000000E+00 -0.69394225254E+03  0.12133615102E+04  0.99533426779E+03 0.  0.
        4    1    3    3  502    0  0.16511833232E+03 -0.12152653397E+03 -0.89977764543E+03  0.92284028209E+03  0.12699999809E+01 0. -1.
       -4    1    3    3    0  502 -0.16511833232E+03  0.12152653397E+03  0.20583539289E+03  0.29052122813E+03  0.12699999809E+01 0.  1.
</event>
<event>
 5   0  0.5201968E-03  0.9839606E+03  0.7818609E-02  0.9326314E-01
       -1   -1    0    0    0  501  0.00000000000E+00  0.00000000000E+00  0.64957333645E+03  0.64957333647E+03  0.50400001928E-02 0. -1.
        1   -1    0    0  501    0  0.00000000000E+00  0.00000000000E+00 -0.37262095391E+03  0.37262095395E+03  0.50400001928E-02 0.  1.
    10030    2    1    2    0    0  0.00000000000E+00  0.00000000000E+00  0.27695238254E+03  0.10221942904E+04  0.98396064208E+03 0.  0.
        2    1    3    3  502    0  0.41929117175E+03 -0.21476656874E+03 -0.88616642373E+01  0.47117756191E+03  0.25500000920E-02 0.  1.
       -2    1    3    3    0  502 -0.41929117175E+03  0.21476656874E+03  0.28581404678E+03  0.55101672851E+03  0.25500000920E-02 0. -1.
</event>
<event>
 5   0  0.3513625E-03  0.1002665E+04  0.7818609E-02  0.9305627E-01
        3   -1    0    0  501    0  0.00000000000E+00  0.00000000000E+00  0.22154305837E+03  0.22154308139E+03  0.10100000352E+00 0.  1.
       -3   -1    0    0    0  501  0.00000000000E+00  0.00000000000E+00 -0.11344715205E+04  0.11344715250E+04  0.10100000352E+00 0. -1.
    10030    2    1    2    0    0  0.00000000000E+00  0.00000000000E+00 -0.91292846209E+03  0.13560146063E+04  0.10026650666E+04 0.  0.
        3    1    3    3  502    0  0.39868245998E+03  0.64261584512E+01 -0.86743968145E+03  0.95469398792E+03  0.10100000352E+00 0. -1.
       -3    1    3    3    0  502 -0.39868245998E+03 -0.64261584512E+01 -0.45488780642E+02  0.40132061843E+03  0.10100000352E+00 0.  1.
</event>
<event>
 5   0  0.8875655E-03  0.1006274E+04  0.7818609E-02  0.9301690E-01
        2   -1    0    0  501    0  0.00000000000E+00  0.00000000000E+00  0.91020214822E+03  0.91020214823E+03  0.25500000920E-02 0. -1.
       -2   -1    0    0    0  501  0.00000000000E+00  0.00000000000E+00 -0.27812148599E+03  0.27812148600E+03  0.25500000920E-02 0.  1.
    10030    2    1    2    0    0  0.00000000000E+00  0.00000000000E+00  0.63208066224E+03  0.11883236342E+04  0.10062738673E+04 0.  0.
        4    1    3    3  502    0  0.19082910059E+03  0.98237659260E+02  0.85342631748E+03  0.88000254295E+03  0.12699999809E+01 0. -1.
       -4    1    3    3    0  502 -0.19082910059E+03 -0.98237659260E+02 -0.22134565524E+03  0.30832109127E+03  0.12699999809E+01 0.  1.
</event>
<event>
 5   0  0.5072205E-03  0.1002312E+04  0.7818609E-02  0.9306013E-01
       -1   -1    0    0    0  501  0.00000000000E+00  0.00000000000E+00  0.17727345753E+03  0.17727345761E+03  0.50400001928E-02 0.  1.
        1   -1    0    0  501    0  0.00000000000E+00  0.00000000000E+00 -0.14167793481E+04  0.14167793481E+04  0.50400001928E-02 0. -1.
    10030    2    1    2    0    0  0.00000000000E+00  0.00000000000E+00 -0.12395058905E+04  0.15940528057E+04  0.10023120745E+04 0.  0.
        5    1    3    3  502    0  0.40622544359E+03  0.25096959586E+03 -0.37787757996E+03  0.60894860580E+03  0.46999998093E+01 0.  1.
       -5    1    3    3    0  502 -0.40622544359E+03 -0.25096959586E+03 -0.86162831058E+03  0.98510419990E+03  0.46999998093E+01 0. -1.
</event>
<event>
 5   0  0.8875655E-03  0.1015968E+04  0.7818609E-02  0.9291203E-01
       -2   -1    0    0    0  501  0.00000000000E+00  0.00000000000E+00  0.38810125290E+03  0.38810125291E+03  0.25500000920E-02 0. -1.
        2   -1    0    0  501    0  0.00000000000E+00  0.00000000000E+00 -0.66489774348E+03  0.66489774348E+03  0.25500000920E-02 0.  1.
    10030    2    1    2    0    0  0.00000000000E+00  0.00000000000E+00 -0.27679649057E+03  0.10529989964E+04  0.10159678091E+04 0.  0.
        4    1    3    3  502    0  0.47429445378E+03  0.14640518972E+03 -0.25029792697E+03  0.55591399839E+03  0.12699999809E+01 0. -1.
       -4    1    3    3    0  502 -0.47429445378E+03 -0.14640518972E+03 -0.26498563607E+02  0.49708499800E+03  0.12699999809E+01 0.  1.
</event>
<event>
 5   0  0.8875655E-03  0.9908235E+03  0.7818609E-02  0.9318667E-01
       -2   -1    0    0    0  501  0.00000000000E+00  0.00000000000E+00  0.20320629647E+03  0.20320629649E+03  0.25500000920E-02 0. -1.
        2   -1    0    0  501    0  0.00000000000E+00  0.00000000000E+00 -0.12078012025E+04  0.12078012025E+04  0.25500000920E-02 0.  1.
    10030    2    1    2    0    0  0.00000000000E+00  0.00000000000E+00 -0.10045949060E+04  0.14110074990E+04  0.99082351454E+03 0.  0.
        4    1    3    3  502    0  0.86640347578E+01 -0.41438652240E+03 -0.11585063770E+03  0.43036523861E+03  0.12699999809E+01 0. -1.
       -4    1    3    3    0  502 -0.86640347578E+01  0.41438652240E+03 -0.88874426831E+03  0.98064226036E+03  0.12699999809E+01 0.  1.
</event>
<event>
 5   0  0.9243773E-03  0.9933664E+03  0.7818609E-02  0.9315851E-01
        2   -1    0    0  501    0  0.00000000000E+00  0.00000000000E+00  0.86031564246E+02  0.86031564284E+02  0.25500000920E-02 0. -1.
       -2   -1    0    0    0  501  0.00000000000E+00  0.00000000000E+00 -0.28674845587E+04  0.28674845587E+04  0.25500000920E-02 0.  1.
    10030    2    1    2    0    0  0.00000000000E+00  0.00000000000E+00 -0.27814529944E+04  0.29535161229E+04  0.99336636160E+03 0.  0.
        3    1    3    3  502    0 -0.60706377297E+02 -0.41522675339E+03 -0.60074145184E+03  0.73279521227E+03  0.10100000352E+00 0. -1.
       -3    1    3    3    0  502  0.60706377297E+02  0.41522675339E+03 -0.21807115426E+04  0.22207209107E+04  0.10100000352E+00 0.  1.
</event>
<event>
 5   0  0.5201968E-03  0.1021636E+04  0.7818609E-02  0.9285128E-01
        1   -1    0    0  501    0  0.00000000000E+00  0.00000000000E+00  0.12599673754E+04  0.12599673754E+04  0.50400001928E-02 0. -1.
       -1   -1    0    0    0  501  0.00000000000E+00  0.00000000000E+00 -0.20709659576E+03  0.20709659582E+03  0.50400001928E-02 0.  1.
    10030    2    1    2    0    0  0.00000000000E+00  0.00000000000E+00  0.10528707796E+04  0.14670639712E+04  0.10216358534E+04 0.  0.
        2    1    3    3  502    0 -0.35730679550E+03  0.31917137745E+03  0.27199085390E+03  0.55092425877E+03  0.25500000920E-02 0. -1.
       -2    1    3    3    0  502  0.35730679550E+03 -0.31917137745E+03  0.78087992573E+03  0.91613971244E+03  0.25500000920E-02 0.  1.
</event>
<event>
 5   0  0.5349685E-03  0.1006445E+04  0.7818609E-02  0.9301504E-01
       -1   -1    0    0    0  501  0.00000000000E+00  0.00000000000E+00  0.39831932829E+03  0.39831932832E+03  0.50400001928E-02 0.  1.
        1   -1    0    0  501    0  0.00000000000E+00  0.00000000000E+00 -0.63575403614E+03  0.63575403616E+03  0.50400001928E-02 0. -1.
    10030    2    1    2    0    0  0.00000000000E+00  0.00000000000E+00 -0.23743470786E+03  0.10340733645E+04  0.10064454693E+04 0.  0.
        4    1    3    3  502    0  0.18183192494E+02 -0.10948241367E+02  0.39785758087E+03  0.39842535064E+03  0.12699999809E+01 0.  1.
       -4    1    3    3    0  502 -0.18183192494E+02  0.10948241367E+02 -0.63529228873E+03  0.63564801384E+03  0.12699999809E+01 0. -1.
</event>
<event>
 5   0  0.5072205E-03  0.1004156E+04  0.7818609E-02  0.9303999E-01
       -1   -1    0    0    0  501  0.00000000000E+00  0.00000000000E+00  0.10639907973E+03  0.10639907985E+03  0.50400001928E-02 0.  1.
        1   -1    0    0  501    0  0.00000000000E+00  0.00000000000E+00 -0.23692137666E+04  0.23692137666E+04  0.50400001928E-02 0. -1.
    10030    2    1    2    0    0  0.00000000000E+00  0.00000000000E+00 -0.22628146868E+04  0.24756128464E+04  0.10041556943E+04 0.  0.
        5    1    3    3  502    0 -0.39438595482E+03  0.29325815037E+03 -0.13842662171E+04  0.14689301120E+04  0.46999998093E+01 0. -1.
       -5    1    3    3    0  502  0.39438595482E+03 -0.29325815037E+03 -0.87854846971E+03  0.10066827344E+04  0.46999998093E+01 0.  1.
</event>
<event>
 5   0  0.9040674E-03  0.1005247E+04  0.7818609E-02  0.9302808E-01
       -2   -1    0    0    0  501  0.00000000000E+00  0.00000000000E+00  0.19633614326E+03  0.19633614328E+03  0.25500000920E-02 0.  1.
        2   -1    0    0  501    0  0.00000000000E+00  0.00000000000E+00 -0.12867247563E+04  0.12867247563E+04  0.25500000920E-02 0. -1.
    10030    2    1    2    0    0  0.00000000000E+00  0.00000000000E+00 -0.10903886131E+04  0.14830608996E+04  0.10052473847E+04 0.  0.
        1    1    3    3  502    0 -0.20495053805E+03 -0.19468016910E+03 -0.11583407921E+04  0.11923332092E+04  0.50400001928E-02 0. -1.
       -1    1    3    3    0  502  0.20495053805E+03  0.19468016910E+03  0.67952178992E+02  0.29072769036E+03  0.50400001928E-02 0.  1.
</event>
<event>
 5   0  0.8907355E-03  0.1007689E+04  0.7818609E-02  0.9300152E-01
       -2   -1    0    0    0  501  0.00000000000E+00  0.00000000000E+00  0.27084620442E+03  0.27084620444E+03  0.25500000920E-02 0. -1.
        2   -1    0    0  501    0  0.00000000000E+00  0.00000000000E+00 -0.93728177639E+03  0.93728177639E+03  0.25500000920E-02 0.  1.
    10030    2    1    2    0    0  0.00000000000E+00  0.00000000000E+00 -0.66643557196E+03  0.12081279808E+04  0.10076888639E+04 0.  0.
        5    1    3    3  502    0 -0.31263692390E+03  0.37163964944E+03 -0.49397564955E+03  0.69274230965E+03  0.46999998093E+01 0.  1.
       -5    1    3    3    0  502  0.31263692390E+03 -0.37163964944E+03 -0.17245992241E+03  0.51538567118E+03  0.46999998093E+01 0. -1.
</event>
<event>
 5   0  0.8875655E-03  0.9999403E+03  0.7818609E-02  0.9308610E-01
        2   -1    0    0  501    0  0.00000000000E+00  0.00000000000E+00  0.13712342023E+04  0.13712342023E+04  0.25500000920E-02 0. -1.
       -2   -1    0    0    0  501  0.00000000000E+00  0.00000000000E+00 -0.18229572866E+03  0.18229572868E+03  0.25500000920E-02 0.  1.
    10030    2    1    2    0    0  0.00000000000E+00  0.00000000000E+00  0.11889384737E+04  0.15535299310E+04  0.99994027441E+03 0.  0.
        4    1    3    3  502    0 -0.20530730526E+03  0.30538414901E+03  0.11203147765E+04  0.11792020096E+04  0.12699999809E+01 0. -1.
       -4    1    3    3    0  502  0.20530730526E+03 -0.30538414901E+03  0.68623697188E+02  0.37432792145E+03  0.12699999809E+01 0.  1.
</event>
<event>
 5   0  0.5072205E-03  0.1005009E+04  0.7818609E-02  0.9303068E-01
       -1   -1    0    0    0  501  0.00000000000E+00  0.00000000000E+00  0.12984632291E+03  0.12984632301E+03  0.50400001928E-02 0. -1.
        1   -1    0    0  501    0  0.00000000000E+00  0.00000000000E+00 -0.19446908968E+04  0.19446908968E+04  0.50400001928E-02 0.  1.
    10030    2    1    2    0    0  0.00000000000E+00  0.00000000000E+00 -0.18148445739E+04  0.20745372198E+04  0.10050093776E+04 0.  0.
        5    1    3    3  502    0  0.40236623715E+03  0.25886303264E+03 -0.12243972692E+04  0.13145643465E+04  0.46999998093E+01 0. -1.
       -5    1    3    3    0  502 -0.40236623715E+03 -0.25886303264E+03 -0.59044730473E+03  0.75997287329E+03  0.46999998093E+01 0.  1.
</event>
<event>
 5   0  0.5310275E-03  0.1001571E+04  0.7818609E-02  0.9306824E-01
        1   -1    0    0  501    0  0.00000000000E+00  0.00000000000E+00  0.57208461739E+03  0.57208461741E+03  0.50400001928E-02 0.  1.
       -1   -1    0    0    0  501  0.00000000000E+00  0.00000000000E+00 -0.43837222141E+03  0.43837222144E+03  0.50400001928E-02 0. -1.
    10030    2    1    2    0    0  0.00000000000E+00  0.00000000000E+00  0.13371239597E+03  0.10104568389E+04  0.10015707755E+04 0.  0.
        1    1    3    3  502    0  0.64970192198E+02 -0.38347463264E+03  0.38511031912E+03  0.54734255971E+03  0.50400001928E-02 0.  1.
       -1    1    3    3    0  502 -0.64970192198E+02  0.38347463264E+03 -0.25139792315E+03  0.46311427914E+03  0.50400001928E-02 0. -1.
</event>
<event>
 5   0  0.5201968E-03  0.9885329E+03  0.7818609E-02  0.9321212E-01
        1   -1    0    0  501    0  0.00000000000E+00  0.00000000000E+00  0.21359031537E+04  0.21359031537E+04  0.50400001928E-02 0.  1.
       -1   -1    0    0    0  501  0.00000000000E+00  0.00000000000E+00 -0.11437753144E+03  0.11437753156E+03  0.50400001928E-02 0. -1.
    10030    2    1    2    0    0  0.00000000000E+00  0.00000000000E+00  0.20215256222E+04  0.22502806852E+04  0.98853291347E+03 0.  0.
        2    1    3    3  502    0  0.21565107406E+03  0.44457083109E+03  0.10387096010E+04  0.11502461670E+04  0.25500000920E-02 0. -1.
       -2    1    3    3    0  502 -0.21565107406E+03 -0.44457083109E+03  0.98281602122E+03  0.11000345182E+04  0.25500000920E-02 0.  1.
</event>
<event>
 5   0  0.5201968E-03  0.9993643E+03  0.7818609E-02  0.9309242E-01
       -1   -1    0    0    0  501  0.00000000000E+00  0.00000000000E+00  0.32292408008E+03  0.32292408012E+03  0.50400001928E-02 0.  1.
        1   -1    0    0  501    0  0.00000000000E+00  0.00000000000E+00 -0.77319185783E+03  0.77319185784E+03  0.50400001928E-02 0. -1.
    10030    2    1    2    0    0  0.00000000000E+00  0.00000000000E+00 -0.45026777775E+03  0.10961159380E+04  0.99936433686E+03 0.  0.
        2    1    3    3  502    0 -0.21343979750E+03  0.87194949422E+02 -0.71136089426E+03  0.74779263720E+03  0.25500000920E-02 0. -1.
       -2    1    3    3    0  502  0.21343979750E+03 -0.87194949422E+02  0.26109311651E+03  0.34832330077E+03  0.25500000920E-02 0.  1.
</event>
<event>
 5   0  0.5189877E-03  0.1009042E+04  0.7818609E-02  0.9298683E-01
        1   -1    0    0  501    0  0.00000000000E+00  0.00000000000E+00  0.89508194116E+03  0.89508194118E+03  0.50400001928E-02 0.  1.
       -1   -1    0    0    0  501  0.00000000000E+00  0.00000000000E+00 -0.28437762189E+03  0.28437762194E+03  0.50400001928E-02 0. -1.
    10030    2    1    2    0    0  0.00000000000E+00  0.00000000000E+00  0.61070431927E+03  0.11794595631E+04  0.10090416718E+04 0.  0.
        3    1    3    3  502    0 -0.43873825793E+03  0.22697585931E+03  0.18539431985E+03  0.52761763021E+03  0.10100000352E+00 0.  1.
       -3    1    3    3    0  502  0.43873825793E+03 -0.22697585931E+03  0.42530999942E+03  0.65184193290E+03  0.10100000352E+00 0. -1.
</event>
<event>
 5   0  0.9040674E-03  0.1005897E+04  0.7818609E-02  0.9302100E-01
       -2   -1    0    0    0  501  0.00000000000E+00  0.00000000000E+00  0.21512680491E+03  0.21512680492E+03  0.25500000920E-02 0.  1.
        2   -1    0    0  501    0  0.00000000000E+00  0.00000000000E+00 -0.11758522284E+04  0.11758522284E+04  0.25500000920E-02 0. -1.
    10030    2    1    2    0    0  0.00000000000E+00  0.00000000000E+00 -0.96072542348E+03  0.13909790333E+04  0.10058972770E+04 0.  0.
        1    1    3    3  502    0  0.50762548929E+02 -0.13032289376E+03 -0.11484205516E+04  0.11569056385E+04  0.50400001928E-02 0. -1.
       -1    1    3    3    0  502 -0.50762548929E+02  0.13032289376E+03  0.18769512813E+03  0.23407339482E+03  0.50400001928E-02 0.  1.
</event>
<event>
 5   0  0.5201968E-03  0.9952643E+03  0.7818609E-02  0.9313754E-01
        1   -1    0    0  501    0  0.00000000000E+00  0.00000000000E+00  0.44101789707E+03  0.44101789710E+03  0.50400001928E-02 0.  1.
       -1   -1    0    0    0  501  0.00000000000E+00  0.00000000000E+00 -0.56151411264E+03  0.56151411266E+03  0.50400001928E-02 0. -1.
    10030    2    1    2    0    0  0.00000000000E+00  0.00000000000E+00 -0.12049621557E+03  0.10025320098E+04  0.99526433304E+03 0.  0.
        2    1    3    3  502    0  0.33484379834E+03  0.29385700887E+03  0.16310390497E+03  0.47442090466E+03  0.25500000920E-02 0.  1.
       -2    1    3    3    0  502 -0.33484379834E+03 -0.29385700887E+03 -0.28360012055E+03  0.52811110510E+03  0.25500000920E-02 0. -1.
</event>
<event>
 5   0  0.5349685E-03  0.9918509E+03  0.7818609E-02  0.9317528E-01
       -1   -1    0    0    0  501  0.00000000000E+00  0.00000000000E+00  0.32158298845E+03  0.32158298849E+03  0.50400001928E-02 0. -1.
        1   -1    0    0  501    0  0.00000000000E+00  0.00000000000E+00 -0.76478570063E+03  0.76478570064E+03  0.50400001928E-02 0.  1.
    10030    2    1    2    0    0  0.00000000000E+00  0.00000000000E+00 -0.44320271218E+03  0.10863686891E+04  0.99185093872E+03 0.  0.
        4    1    3    3  502    0 -0.37426870616E+03  0.30901755746E+03 -0.11005573701E+03  0.49767739890E+03  0.12699999809E+01 0. -1.
       -4    1    3    3    0  502  0.37426870616E+03 -0.30901755746E+03 -0.33314697516E+03  0.58869129023E+03  0.12699999809E+01 0.  1.
</event>
<event>
 5   0  0.8875655E-03  0.1000892E+04  0.7818609E-02  0.9307567E-01
       -2   -1    0    0    0  501  0.00000000000E+00  0.00000000000E+00  0.31021444800E+03  0.31021444801E+03  0.25500000920E-02 0.  1.
        2   -1    0    0  501    0  0.00000000000E+00  0.00000000000E+00 -0.80733291056E+03  0.80733291056E+03  0.25500000920E-02 0. -1.
    10030    2    1    2    0    0  0.00000000000E+00  0.00000000000E+00 -0.49711846255E+03  0.11175473586E+04  0.10008922684E+04 0.  0.
        4    1    3    3  502    0 -0.47836267768E+03 -0.98636345146E+02 -0.37028245635E+03  0.61291980745E+03  0.12699999809E+01 0. -1.
       -4    1    3    3    0  502  0.47836267768E+03  0.98636345146E+02 -0.12683600621E+03  0.50462755112E+03  0.12699999809E+01 0.  1.
</event>
<event>
 5   0  0.5072205E-03  0.1015105E+04  0.7818609E-02  0.9292132E-01
       -1   -1    0    0    0  501  0.00000000000E+00  0.00000000000E+00  0.37227447325E+03  0.37227447328E+03  0.50400001928E-02 0.  1.
        1   -1    0    0  501    0  0.00000000000E+00  0.00000000000E+00 -0.69198764862E+03  0.69198764864E+03  0.50400001928E-02 0. -1.
    10030    2    1    2    0    0  0.00000000000E+00  0.00000000000E+00 -0.31971317538E+03  0.10642621219E+04  0.10151046003E+04 0.  0.
        5    1    3    3  502    0 -0.47328316034E+03 -0.11318607344E+03 -0.31098716073E+03  0.57753193957E+03  0.46999998093E+01 0. -1.
       -5    1    3    3    0  502  0.47328316034E+03  0.11318607344E+03 -0.87260146454E+01  0.48673018235E+03  0.46999998093E+01 0.  1.
</event>
<event>
 5   0  0.5072205E-03  0.1004062E+04  0.7818609E-02  0.9304101E-01
       -1   -1    0    0    0  501  0.00000000000E+00  0.00000000000E+00  0.54230563458E+03  0.54230563460E+03  0.50400001928E-02 0.  1.
        1   -1    0    0  501    0  0.00000000000E+00  0.00000000000E+00 -0.46474755844E+03  0.46474755847E+03  0.50400001928E-02 0. -1.
    10030    2    1    2    0    0  0.00000000000E+00  0.00000000000E+00  0.77558076133E+02  0.10070531931E+04  0.10040621886E+04 0.  0.
        5    1    3    3  502    0 -0.47631862115E+03 -0.15846397796E+03  0.43575381652E+02  0.50389598634E+03  0.46999998093E+01 0.  1.
       -5    1    3    3    0  502  0.47631862115E+03  0.15846397796E+03  0.33982694482E+02  0.50315720673E+03  0.46999998093E+01 0. -1.
</event>
<event>
 5   0  0.3513625E-03  0.1007191E+04  0.7818609E-02  0.9300693E-01
       -3   -1    0    0    0  501  0.00000000000E+00  0.00000000000E+00  0.22611892751E+03  0.22611895006E+03  0.10100000352E+00 0.  1.
        3   -1    0    0  501    0  0.00000000000E+00  0.00000000000E+00 -0.11215699634E+04  0.11215699679E+04  0.10100000352E+00 0. -1.
    10030    2    1    2    0    0  0.00000000000E+00  0.00000000000E+00 -0.89545103588E+03  0.13476889180E+04  0.10071905788E+04 0.  0.
        5    1    3    3  502    0  0.19616373323E+03 -0.44052302527E+03 -0.64183930520E+03  0.80282035957E+03  0.46999998093E+01 0.  1.
       -5    1    3    3    0  502 -0.19616373323E+03  0.44052302527E+03 -0.25361173068E+03  0.54486855843E+03  0.46999998093E+01 0. -1.
</event>
<event>
 5   0  0.5201968E-03  0.1041290E+04  0.7818609E-02  0.9264383E-01
        1   -1    0    0  501    0  0.00000000000E+00  0.00000000000E+00  0.76835106134E+03  0.76835106136E+03  0.50400001928E-02 0. -1.
       -1   -1    0    0    0  501  0.00000000000E+00  0.00000000000E+00 -0.35279629544E+03  0.35279629548E+03  0.50400001928E-02 0.  1.
    10030    2    1    2    0    0  0.00000000000E+00  0.00000000000E+00  0.41555476590E+03  0.11211473568E+04  0.10412903689E+04 0.  0.
        2    1    3    3  502    0  0.70909980826E+02 -0.96115496311E+01 -0.34747636288E+03  0.35476813559E+03  0.25500000920E-02 0.  1.
       -2    1    3    3    0  502 -0.70909980826E+02  0.96115496311E+01  0.76303112878E+03  0.76637922124E+03  0.25500000920E-02 0. -1.
</event>
<event>
 5   0  0.9040674E-03  0.1004322E+04  0.7818609E-02  0.9303817E-01
        2   -1    0    0  501    0  0.00000000000E+00  0.00000000000E+00  0.59863010481E+03  0.59863010482E+03  0.25500000920E-02 0. -1.
       -2   -1    0    0    0  501  0.00000000000E+00  0.00000000000E+00 -0.42123772701E+03  0.42123772702E+03  0.25500000920E-02 0.  1.
    10030    2    1    2    0    0  0.00000000000E+00  0.00000000000E+00  0.17739237780E+03  0.10198678318E+04  0.10043218302E+04 0.  0.
        1    1    3    3  502    0  0.12307242466E+03 -0.13921366405E+03 -0.38504230176E+03  0.42753343745E+03  0.50400001928E-02 0.  1.
       -1    1    3    3    0  502 -0.12307242466E+03  0.13921366405E+03  0.56243467956E+03  0.59233439438E+03  0.50400001928E-02 0. -1.
</event>
<event>
 5   0  0.5201968E-03  0.1059812E+04  0.7818609E-02  0.9245272E-01
       -1   -1    0    0    0  501  0.00000000000E+00  0.00000000000E+00  0.68834676468E+03  0.68834676470E+03  0.50400001928E-02 0. -1.
        1   -1    0    0  501    0  0.00000000000E+00  0.00000000000E+00 -0.40793452807E+03  0.40793452810E+03  0.50400001928E-02 0.  1.
    10030    2    1    2    0    0  0.00000000000E+00  0.00000000000E+00  0.28041223661E+03  0.10962812928E+04  0.10598120826E+04 0.  0.
        2    1    3    3  502    0 -0.81325200926E+02  0.42199441434E+03 -0.18047354004E+03  0.46611562160E+03  0.25500000920E-02 0.  1.
       -2    1    3    3    0  502  0.81325200926E+02 -0.42199441434E+03  0.46088577666E+03  0.63016567121E+03  0.25500000920E-02 0. -1.
</event>
<event>
 5   0  0.9040674E-03  0.1021289E+04  0.7818609E-02  0.9285498E-01
       -2   -1    0    0    0  501  0.00000000000E+00  0.00000000000E+00  0.26358752683E+03  0.26358752684E+03  0.25500000920E-02 0.  1.
        2   -1    0    0  501    0  0.00000000000E+00  0.00000000000E+00 -0.98926516615E+03  0.98926516616E+03  0.25500000920E-02 0. -1.
    10030    2    1    2    0    0  0.00000000000E+00  0.00000000000E+00 -0.72567763932E+03  0.12528526930E+04  0.10212892999E+04 0.  0.
        1    1    3    3  502    0 -0.27668247056E+03 -0.54275928548E+02  0.15943816751E+03  0.32391294389E+03  0.50400001928E-02 0.  1.
       -1    1    3    3    0  502  0.27668247056E+03  0.54275928548E+02 -0.88511580683E+03  0.92893974911E+03  0.50400001928E-02 0. -1.
</event>
<event>
 5   0  0.9243773E-03  0.1007663E+04  0.7818609E-02  0.9300180E-01
        2   -1    0    0  501    0  0.00000000000E+00  0.00000000000E+00  0.12130651162E+04  0.12130651162E+04  0.25500000920E-02 0. -1.
       -2   -1    0    0    0  501  0.00000000000E+00  0.00000000000E+00 -0.20925995387E+03  0.20925995389E+03  0.25500000920E-02 0.  1.
    10030    2    1    2    0    0  0.00000000000E+00  0.00000000000E+00  0.10038051623E+04  0.14223250701E+04  0.10076625433E+04 0.  0.
        3    1    3    3  502    0 -0.32781448019E+03  0.37290951065E+03  0.62268443251E+03  0.79640426245E+03  0.10100000352E+00 0. -1.
       -3    1    3    3    0  502  0.32781448019E+03 -0.37290951065E+03  0.38112072984E+03  0.62592080767E+03  0.10100000352E+00 0.  1.
</event>
<event>
 5   0  0.9243773E-03  0.1049287E+04  0.7818609E-02  0.9256080E-01
       -2   -1    0    0    0  501  0.00000000000E+00  0.00000000000E+00  0.14237116278E+03  0.14237116280E+03  0.25500000920E-02 0.  1.
        2   -1    0    0  501    0  0.00000000000E+00  0.00000000000E+00 -0.19333337820E+04  0.19333337820E+04  0.25500000920E-02 0. -1.
    10030    2    1    2    0    0  0.00000000000E+00  0.00000000000E+00 -0.17909626192E+04  0.20757049448E+04  0.10492873365E+04 0.  0.
        3    1    3    3  502    0 -0.25231891508E+03  0.30930104831E+03 -0.22196441822E+03  0.45672769409E+03  0.10100000352E+00 0.  1.
       -3    1    3    3    0  502  0.25231891508E+03 -0.30930104831E+03 -0.15689982010E+04  0.16189772507E+04  0.10100000352E+00 0. -1.
</event>
<event>
 5   0  0.5310275E-03  0.1008134E+04  0.7818609E-02  0.9299668E-01
       -1   -1    0    0    0  501  0.00000000000E+00  0.00000000000E+00  0.24804688435E+03  0.24804688440E+03  0.50400001928E-02 0. -1.
        1   -1    0    0  501    0  0.00000000000E+00  0.00000000000E+00 -0.10243369494E+04  0.10243369494E+04  0.50400001928E-02 0.  1.
    10030    2    1    2    0    0  0.00000000000E+00  0.00000000000E+00 -0.77629006508E+03  0.12723838338E+04  0.10081340960E+04 0.  0.
        1    1    3    3  502    0  0.23327228022E+03  0.39483714564E+03 -0.12409005028E+03  0.47509016923E+03  0.50400001928E-02 0. -1.
       -1    1    3    3    0  502 -0.23327228022E+03 -0.39483714564E+03 -0.65220001479E+03  0.79729366460E+03  0.50400001928E-02 0.  1.
</event>
<event>
 5   0  0.5072205E-03  0.1012572E+04  0.7818609E-02  0.9294863E-01
        1   -1    0    0  501    0  0.00000000000E+00  0.00000000000E+00  0.35750854993E+03  0.35750854997E+03  0.50400001928E-02 0.  1.
       -1   -1    0    0    0  501  0.00000000000E+00  0.00000000000E+00 -0.71697709927E+03  0.71697709929E+03  0.50400001928E-02 0. -1.
    10030    2    1    2    0    0  0.00000000000E+00  0.00000000000E+00 -0.35946854934E+03  0.10744856493E+04  0.10125718604E+04 0.  0.
        5    1    3    3  502    0  0.46956073847E+03 -0.18924316576E+03 -0.18159966733E+03  0.53786689066E+03  0.46999998093E+01 0.  1.
       -5    1    3    3    0  502 -0.46956073847E+03  0.18924316576E+03 -0.17786888201E+03  0.53661875860E+03  0.46999998093E+01 0. -1.
</event>
<event>
 5   0  0.9243773E-03  0.1002284E+04  0.7818609E-02  0.9306043E-01
        2   -1    0    0  501    0  0.00000000000E+00  0.00000000000E+00  0.88343089382E+03  0.88343089382E+03  0.25500000920E-02 0. -1.
       -2   -1    0    0    0  501  0.00000000000E+00  0.00000000000E+00 -0.28428171125E+03  0.28428171127E+03  0.25500000920E-02 0.  1.
    10030    2    1    2    0    0  0.00000000000E+00  0.00000000000E+00  0.59914918257E+03  0.11677126051E+04  0.10022838845E+04 0.  0.
        3    1    3    3  502    0 -0.41471525153E+03 -0.18905270588E+03  0.56825298047E+02  0.45930250397E+03  0.10100000352E+00 0.  1.
       -3    1    3    3    0  502  0.41471525153E+03  0.18905270588E+03  0.54232388452E+03  0.70841010112E+03  0.10100000352E+00 0. -1.
</event>
<event>
 5   0  0.5072205E-03  0.7621197E+03  0.7818609E-02  0.9616526E-01
        1   -1    0    0  501    0  0.00000000000E+00  0.00000000000E+00  0.97326368633E+03  0.97326368635E+03  0.50400001928E-02 0. -1.
       -1   -1    0    0    0  501  0.00000000000E+00  0.00000000000E+00 -0.14919552871E+03  0.14919552880E+03  0.50400001928E-02 0.  1.
    10030    2    1    2    0    0  0.00000000000E+00  0.00000000000E+00  0.82406815762E+03  0.11224592151E+04  0.76211965022E+03 0.  0.
        5    1    3    3  502    0  0.25705530385E+03 -0.18826062288E+03  0.10427265177E+03  0.33528251858E+03  0.46999998093E+01 0.  1.
       -5    1    3    3    0  502 -0.25705530385E+03  0.18826062288E+03  0.71979550585E+03  0.78717669656E+03  0.46999998093E+01 0. -1.
</event>
<event>
 5   0  0.8968798E-03  0.9226435E+03  0.7818609E-02  0.9397710E-01
       -2   -1    0    0    0  501  0.00000000000E+00  0.00000000000E+00  0.24081196939E+03  0.24081196941E+03  0.25500000920E-02 0.  1.
        2   -1    0    0  501    0  0.00000000000E+00  0.00000000000E+00 -0.88375070965E+03  0.88375070965E+03  0.25500000920E-02 0. -1.
    10030    2    1    2    0    0  0.00000000000E+00  0.00000000000E+00 -0.64293874025E+03  0.11245626791E+04  0.92264348229E+03 0.  0.
        2    1    3    3  502    0 -0.10927362779E+02 -0.21119403515E+03  0.17825173304E+03  0.27657911721E+03  0.25500000920E-02 0.  1.
       -2    1    3    3    0  502  0.10927362779E+02  0.21119403515E+03 -0.82119047329E+03  0.84798356185E+03  0.25500000920E-02 0. -1.
</event>
<event>
 5   0  0.5310275E-03  0.8727302E+03  0.7818609E-02  0.9460327E-01
       -1   -1    0    0    0  501  0.00000000000E+00  0.00000000000E+00  0.19953375372E+03  0.19953375378E+03  0.50400001928E-02 0.  1.
        1   -1    0    0  501    0  0.00000000000E+00  0.00000000000E+00 -0.95429708773E+03  0.95429708774E+03  0.50400001928E-02 0. -1.
    10030    2    1    2    0    0  0.00000000000E+00  0.00000000000E+00 -0.75476333401E+03  0.11538308415E+04  0.87273015331E+03 0.  0.
        1    1    3    3  502    0  0.36963147528E+03 -0.11111376113E+03 -0.10824296906E+03  0.40086186624E+03  0.50400001928E-02 0.  1.
       -1    1    3    3    0  502 -0.36963147528E+03  0.11111376113E+03 -0.64652036495E+03  0.75296897529E+03  0.50400001928E-02 0. -1.
</event>
<event>
 5   0  0.5310275E-03  0.9966367E+03  0.7818609E-02  0.9312241E-01
        1   -1    0    0  501    0  0.00000000000E+00  0.00000000000E+00  0.17853125316E+04  0.17853125316E+04  0.50400001928E-02 0. -1.
       -1   -1    0    0    0  501  0.00000000000E+00  0.00000000000E+00 -0.13909116316E+03  0.13909116326E+03  0.50400001928E-02 0.  1.
    10030    2    1    2    0    0  0.00000000000E+00  0.00000000000E+00  0.16462213684E+04  0.19244036948E+04  0.99663673768E+03 0.  0.
        1    1    3    3  502    0  0.82060989271E+01 -0.40314096027E+03  0.13884755281E+04  0.14458403321E+04  0.50400001928E-02 0. -1.
       -1    1    3    3    0  502 -0.82060989271E+01  0.40314096027E+03  0.25774584035E+03  0.47856336273E+03  0.50400001928E-02 0.  1.
</event>
<event>
 5   0  0.5201968E-03  0.9984694E+03  0.7818609E-02  0.9310225E-01
       -1   -1    0    0    0  501  0.00000000000E+00  0.00000000000E+00  0.16906794295E+03  0.16906794302E+03  0.50400001928E-02 0.  1.
        1   -1    0    0  501    0  0.00000000000E+00  0.00000000000E+00 -0.14741723823E+04  0.14741723823E+04  0.50400001928E-02 0. -1.
    10030    2    1    2    0    0  0.00000000000E+00  0.00000000000E+00 -0.13051044393E+04  0.16432403253E+04  0.99846941322E+03 0.  0.
        2    1    3    3  502    0  0.54523183493E+02  0.24183949468E+03 -0.13657115378E+04  0.13880299432E+04  0.25500000920E-02 0. -1.
       -2    1    3    3    0  502 -0.54523183493E+02 -0.24183949468E+03  0.60607098503E+02  0.25521038208E+03  0.25500000920E-02 0.  1.
</event>
<event>
 5   0  0.8875655E-03  0.1003366E+04  0.7818609E-02  0.9304861E-01
        2   -1    0    0  501    0  0.00000000000E+00  0.00000000000E+00  0.23621796230E+04  0.23621796230E+04  0.25500000920E-02 0. -1.
       -2   -1    0    0    0  501  0.00000000000E+00  0.00000000000E+00 -0.10654813959E+03  0.10654813962E+03  0.25500000920E-02 0.  1.
    10030    2    1    2    0    0  0.00000000000E+00  0.00000000000E+00  0.22556314834E+04  0.24687277627E+04  0.10033660234E+04 0.  0.
        4    1    3    3  502    0 -0.70856494581E+02 -0.10741363294E+03  0.23208805783E+04  0.23244454399E+04  0.12699999809E+01 0. -1.
       -4    1    3    3    0  502  0.70856494581E+02  0.10741363294E+03 -0.65249094901E+02  0.14428232273E+03  0.12699999809E+01 0.  1.
</event>
<event>
 5   0  0.5189877E-03  0.9896800E+03  0.7818609E-02  0.9319937E-01
        1   -1    0    0  501    0  0.00000000000E+00  0.00000000000E+00  0.19309382442E+04  0.19309382442E+04  0.50400001928E-02 0.  1.
       -1   -1    0    0    0  501  0.00000000000E+00  0.00000000000E+00 -0.12681224452E+03  0.12681224462E+03  0.50400001928E-02 0. -1.
    10030    2    1    2    0    0  0.00000000000E+00  0.00000000000E+00  0.18041259996E+04  0.20577504888E+04  0.98967997432E+03 0.  0.
        3    1    3    3  502    0  0.63701227951E+02 -0.37890707879E+03  0.25370280227E+03  0.46042756529E+03  0.10100000352E+00 0. -1.
       -3    1    3    3    0  502 -0.63701227951E+02  0.37890707879E+03  0.15504231974E+04  0.15973229235E+04  0.10100000352E+00 0.  1.
</event>
<event>
 5   0  0.5072205E-03  0.1004676E+04  0.7818609E-02  0.9303431E-01
        1   -1    0    0  501    0  0.00000000000E+00  0.00000000000E+00  0.10320322800E+04  0.10320322800E+04  0.50400001928E-02 0. -1.
       -1   -1    0    0    0  501  0.00000000000E+00  0.00000000000E+00 -0.24451141007E+03  0.24451141012E+03  0.50400001928E-02 0.  1.
    10030    2    1    2    0    0  0.00000000000E+00  0.00000000000E+00  0.78752086989E+03  0.12765436901E+04  0.10046764017E+04 0.  0.
        5    1    3    3  502    0 -0.33085521299E+03 -0.44360112858E+02 -0.83161599306E+02  0.34405077122E+03  0.46999998093E+01 0.  1.
       -5    1    3    3    0  502  0.33085521299E+03  0.44360112858E+02  0.87068246920E+03  0.93249291887E+03  0.46999998093E+01 0. -1.
</event>
<event>
 5   0  0.5201968E-03  0.1008375E+04  0.7818609E-02  0.9299407E-01
       -1   -1    0    0    0  501  0.00000000000E+00  0.00000000000E+00  0.38752691139E+03  0.38752691143E+03  0.50400001928E-02 0.  1.
        1   -1    0    0  501    0  0.00000000000E+00  0.00000000000E+00 -0.65596681138E+03  0.65596681140E+03  0.50400001928E-02 0. -1.
    10030    2    1    2    0    0  0.00000000000E+00  0.00000000000E+00 -0.26843989999E+03  0.10434937228E+04  0.10083745186E+04 0.  0.
        2    1    3    3  502    0  0.78348633361E+02  0.29545690413E+03  0.28070783025E+03  0.41500623673E+03  0.25500000920E-02 0.  1.
       -2    1    3    3    0  502 -0.78348633361E+02 -0.29545690413E+03 -0.54914773024E+03  0.62848748610E+03  0.25500000920E-02 0. -1.
</event>
<event>
 5   0  0.8968798E-03  0.1023210E+04  0.7818609E-02  0.9283449E-01
       -2   -1    0    0    0  501  0.00000000000E+00  0.00000000000E+00  0.12990601241E+03  0.12990601243E+03  0.25500000920E-02 0.  1.
        2   -1    0    0  501    0  0.00000000000E+00  0.00000000000E+00 -0.20148374527E+04  0.20148374527E+04  0.25500000920E-02 0. -1.
    10030    2    1    2    0    0  0.00000000000E+00  0.00000000000E+00 -0.18849314403E+04  0.21447434652E+04  0.10232096543E+04 0.  0.
        2    1    3    3  502    0  0.45072489767E+03  0.14829981020E+03 -0.13434377472E+04  0.14247704193E+04  0.25500000920E-02 0.  1.
       -2    1    3    3    0  502 -0.45072489767E+03 -0.14829981020E+03 -0.54149369312E+03  0.71997304587E+03  0.25500000920E-02 0. -1.
</event>
<event>
 5   0  0.3513625E-03  0.9992611E+03  0.7818609E-02  0.9309356E-01
       -3   -1    0    0    0  501  0.00000000000E+00  0.00000000000E+00  0.59762679133E+03  0.59762679987E+03  0.10100000352E+00 0. -1.
        3   -1    0    0  501    0  0.00000000000E+00  0.00000000000E+00 -0.41770331713E+03  0.41770332934E+03  0.10100000352E+00 0.  1.
    10030    2    1    2    0    0  0.00000000000E+00  0.00000000000E+00  0.17992347420E+03  0.10153301292E+04  0.99926113440E+03 0.  0.
        4    1    3    3  502    0  0.39774654813E+03  0.11998245532E+03 -0.19204598608E+03  0.45769135867E+03  0.12699999809E+01 0.  1.
       -4    1    3    3    0  502 -0.39774654813E+03 -0.11998245532E+03  0.37196946028E+03  0.55763877054E+03  0.12699999809E+01 0. -1.
</event>
<event>
 5   0  0.8875655E-03  0.1032695E+04  0.7818609E-02  0.9273395E-01
       -2   -1    0    0    0  501  0.00000000000E+00  0.00000000000E+00  0.35646746778E+03  0.35646746779E+03  0.25500000920E-02 0. -1.
        2   -1    0    0  501    0  0.00000000000E+00  0.00000000000E+00 -0.74793535696E+03  0.74793535696E+03  0.25500000920E-02 0.  1.
    10030    2    1    2    0    0  0.00000000000E+00  0.00000000000E+00 -0.39146788918E+03  0.11044028248E+04  0.10326947715E+04 0.  0.
        4    1    3    3  502    0  0.15331193635E+03 -0.36678833810E+03  0.15665315389E+03  0.42729387816E+03  0.12699999809E+01 0.  1.
       -4    1    3    3    0  502 -0.15331193635E+03  0.36678833810E+03 -0.54812104307E+03  0.67710894659E+03  0.12699999809E+01 0. -1.
</event>
<event>
 5   0  0.8875655E-03  0.9999626E+03  0.7818609E-02  0.9308586E-01
       -2   -1    0    0    0  501  0.00000000000E+00  0.00000000000E+00  0.35276154599E+03  0.35276154600E+03  0.25500000920E-02 0.  1.
        2   -1    0    0  501    0  0.00000000000E+00  0.00000000000E+00 -0.70864101291E+03  0.70864101292E+03  0.25500000920E-02 0. -1.
    10030    2    1    2    0    0  0.00000000000E+00  0.00000000000E+00 -0.35587946693E+03  0.10614025589E+04  0.99996259785E+03 0.  0.
        4    1    3    3  502    0  0.13734820360E+03 -0.37378487859E+03  0.14296012389E+03  0.42310622119E+03  0.12699999809E+01 0.  1.
       -4    1    3    3    0  502 -0.13734820360E+03  0.37378487859E+03 -0.49883959081E+03  0.63829633772E+03  0.12699999809E+01 0. -1.
</event>
<event>
 5   0  0.5349685E-03  0.9977712E+03  0.7818609E-02  0.9310993E-01
        1   -1    0    0  501    0  0.00000000000E+00  0.00000000000E+00  0.10607447760E+04  0.10607447760E+04  0.50400001928E-02 0.  1.
       -1   -1    0    0    0  501  0.00000000000E+00  0.00000000000E+00 -0.23463403437E+03  0.23463403442E+03  0.50400001928E-02 0. -1.
    10030    2    1    2    0    0  0.00000000000E+00  0.00000000000E+00  0.82611074167E+03  0.12953788105E+04  0.99777116871E+03 0.  0.
        4    1    3    3  502    0  0.99999381224E+02 -0.29860987545E+03 -0.89289637996E+02  0.32732550514E+03  0.12699999809E+01 0. -1.
       -4    1    3    3    0  502 -0.99999381224E+02  0.29860987545E+03  0.91540037967E+03  0.96805330533E+03  0.12699999809E+01 0.  1.
</event>
<event>
 5   0  0.8968798E-03  0.1006358E+04  0.7818609E-02  0.9301599E-01
        2   -1    0    0  501    0  0.00000000000E+00  0.00000000000E+00  0.57772257612E+03  0.57772257612E+03  0.25500000920E-02 0.  1.
       -2   -1    0    0    0  501  0.00000000000E+00  0.00000000000E+00 -0.43825382564E+03  0.43825382565E+03  0.25500000920E-02 0. -1.
    10030    2    1    2    0    0  0.00000000000E+00  0.00000000000E+00  0.13946875048E+03  0.10159764018E+04  0.10063580459E+04 0.  0.
        2    1    3    3  502    0  0.24582521434E+03  0.67249411336E+02 -0.36827473514E+03  0.44786024593E+03  0.25500000920E-02 0. -1.
       -2    1    3    3    0  502 -0.24582521434E+03 -0.67249411336E+02  0.50774348562E+03  0.56811615584E+03  0.25500000920E-02 0.  1.
</event>
<event>
 5   0  0.3513625E-03  0.1007541E+04  0.7818609E-02  0.9300313E-01
        3   -1    0    0  501    0  0.00000000000E+00  0.00000000000E+00  0.27758190932E+03  0.27758192770E+03  0.10100000352E+00 0.  1.
       -3   -1    0    0    0  501  0.00000000000E+00  0.00000000000E+00 -0.91426874660E+03  0.91426875217E+03  0.10100000352E+00 0. -1.
    10030    2    1    2    0    0  0.00000000000E+00  0.00000000000E+00 -0.63668683727E+03  0.11918506799E+04  0.10075405274E+04 0.  0.
        3    1    3    3  502    0  0.45675275076E+03 -0.21197666954E+03 -0.33617723790E+03  0.60545216924E+03  0.10100000352E+00 0. -1.
       -3    1    3    3    0  502 -0.45675275076E+03  0.21197666954E+03 -0.30050959937E+03  0.58639851063E+03  0.10100000352E+00 0.  1.
</event>
<event>
 5   0  0.8875655E-03  0.1005965E+04  0.7818609E-02  0.9302027E-01
       -2   -1    0    0    0  501  0.00000000000E+00  0.00000000000E+00  0.21582886272E+03  0.21582886273E+03  0.25500000920E-02 0.  1.
        2   -1    0    0  501    0  0.00000000000E+00  0.00000000000E+00 -0.11721843551E+04  0.11721843551E+04  0.25500000920E-02 0. -1.
    10030    2    1    2    0    0  0.00000000000E+00  0.00000000000E+00 -0.95635549241E+03  0.13880132179E+04  0.10059646441E+04 0.  0.
        4    1    3    3  502    0  0.23715098409E+03 -0.33467217885E+02  0.13209989249E+03  0.27351899098E+03  0.12699999809E+01 0.  1.
       -4    1    3    3    0  502 -0.23715098409E+03  0.33467217885E+02 -0.10884553849E+04  0.11144942269E+04  0.12699999809E+01 0. -1.
</event>
<event>
 5   0  0.8907355E-03  0.9953934E+03  0.7818609E-02  0.9313612E-01
        2   -1    0    0  501    0  0.00000000000E+00  0.00000000000E+00  0.51843857376E+03  0.51843857377E+03  0.25500000920E-02 0. -1.
       -2   -1    0    0    0  501  0.00000000000E+00  0.00000000000E+00 -0.47778471471E+03  0.47778471472E+03  0.25500000920E-02 0.  1.
    10030    2    1    2    0    0  0.00000000000E+00  0.00000000000E+00  0.40653859048E+02  0.99622328849E+03  0.99539344195E+03 0.  0.
        5    1    3    3  502    0  0.22410033984E+02 -0.47190754387E+03  0.17692141370E+03  0.50450194867E+03  0.46999998093E+01 0. -1.
       -5    1    3    3    0  502 -0.22410033984E+02  0.47190754387E+03 -0.13626755466E+03  0.49172133982E+03  0.46999998093E+01 0.  1.
</event>
<event>
 5   0  0.3513625E-03  0.9970560E+03  0.7818609E-02  0.9311780E-01
        4   -1    0    0  501    0  0.00000000000E+00  0.00000000000E+00  0.37217527356E+03  0.37217744041E+03  0.12699999809E+01 0. -1.
       -4   -1    0    0    0  501  0.00000000000E+00  0.00000000000E+00 -0.66777254718E+03  0.66777375485E+03  0.12699999809E+01 0.  1.
    10030    2    1    2    0    0  0.00000000000E+00  0.00000000000E+00 -0.29559727362E+03  0.10399511953E+04  0.99705603671E+03 0.  0.
        4    1    3    3  502    0 -0.38062198493E+03 -0.29226101674E+03 -0.69367168328E+01  0.47993679611E+03  0.12699999809E+01 0. -1.
       -4    1    3    3    0  502  0.38062198493E+03  0.29226101674E+03 -0.28866055678E+03  0.56001439915E+03  0.12699999809E+01 0.  1.
</event>
<event>
 5   0  0.8907355E-03  0.1005108E+04  0.7818609E-02  0.9302961E-01
        2   -1    0    0  501    0  0.00000000000E+00  0.00000000000E+00  0.77749875554E+03  0.77749875554E+03  0.25500000920E-02 0. -1.
       -2   -1    0    0    0  501  0.00000000000E+00  0.00000000000E+00 -0.32483697925E+03  0.32483697926E+03  0.25500000920E-02 0.  1.
    10030    2    1    2    0    0  0.00000000000E+00  0.00000000000E+00  0.45266177629E+03  0.11023357348E+04  0.10051076502E+04 0.  0.
        5    1    3    3  502    0 -0.18969522823E+03  0.39546853621E+03  0.49532961226E+03  0.66162916919E+03  0.46999998093E+01 0. -1.
       -5    1    3    3    0  502  0.18969522823E+03 -0.39546853621E+03 -0.42667835975E+02  0.44070656561E+03  0.46999998093E+01 0.  1.
</event>
<event>
 5   0  0.5072205E-03  0.1028762E+04  0.7818609E-02  0.9277550E-01
        1   -1    0    0  501    0  0.00000000000E+00  0.00000000000E+00  0.93230758485E+03  0.93230758486E+03  0.50400001928E-02 0. -1.
       -1   -1    0    0    0  501  0.00000000000E+00  0.00000000000E+00 -0.28379883168E+03  0.28379883172E+03  0.50400001928E-02 0.  1.
    10030    2    1    2    0    0  0.00000000000E+00  0.00000000000E+00  0.64850875317E+03  0.12161064166E+04  0.10287619810E+04 0.  0.
        5    1    3    3  502    0 -0.42151414860E+03 -0.27181456783E+03  0.45907869243E+03  0.67995049275E+03  0.46999998093E+01 0. -1.
       -5    1    3    3    0  502  0.42151414860E+03  0.27181456783E+03  0.18943006074E+03  0.53615592383E+03  0.46999998093E+01 0.  1.
</event>
<event>
 5   0  0.5201968E-03  0.9898495E+03  0.7818609E-02  0.9319748E-01
        1   -1    0    0  501    0  0.00000000000E+00  0.00000000000E+00  0.63543487561E+03  0.63543487563E+03  0.50400001928E-02 0. -1.
       -1   -1    0    0    0  501  0.00000000000E+00  0.00000000000E+00 -0.38548484626E+03  0.38548484629E+03  0.50400001928E-02 0.  1.
    10030    2    1    2    0    0  0.00000000000E+00  0.00000000000E+00  0.24995002935E+03  0.10209197219E+04  0.98984951454E+03 0.  0.
        2    1    3    3  502    0  0.48704117905E+03  0.82296901093E+02  0.92875362151E+02  0.50260095794E+03  0.25500000920E-02 0. -1.
       -2    1    3    3    0  502 -0.48704117905E+03 -0.82296901093E+02  0.15707466719E+03  0.51831876398E+03  0.25500000920E-02 0.  1.
</event>
<event>
 5   0  0.9040674E-03  0.1065340E+04  0.7818609E-02  0.9239648E-01
       -2   -1    0    0    0  501  0.00000000000E+00  0.00000000000E+00  0.20473718908E+03  0.20473718909E+03  0.25500000920E-02 0.  1.
        2   -1    0    0  501    0  0.00000000000E+00  0.00000000000E+00 -0.13858605981E+04  0.13858605981E+04  0.25500000920E-02 0. -1.
    10030    2    1    2    0    0  0.00000000000E+00  0.00000000000E+00 -0.11811234091E+04  0.15905977872E+04  0.10653397643E+04 0.  0.
        1    1    3    3  502    0 -0.12091834247E+03  0.39161784602E+03 -0.82594819572E+02  0.41810009222E+03  0.50400001928E-02 0.  1.
       -1    1    3    3    0  502  0.12091834247E+03 -0.39161784602E+03 -0.10985285895E+04  0.11724976950E+04  0.50400001928E-02 0. -1.
</event>
<event>
 5   0  0.5349685E-03  0.1000891E+04  0.7818609E-02  0.9307569E-01
        1   -1    0    0  501    0  0.00000000000E+00  0.00000000000E+00  0.53328421095E+03  0.53328421098E+03  0.50400001928E-02 0. -1.
       -1   -1    0    0    0  501  0.00000000000E+00  0.00000000000E+00 -0.46962858282E+03  0.46962858285E+03  0.50400001928E-02 0.  1.
    10030    2    1    2    0    0  0.00000000000E+00  0.00000000000E+00  0.63655628134E+02  0.10029127938E+04  0.10008906199E+04 0.  0.
        4    1    3    3  502    0 -0.18064259485E+03 -0.27220137040E+03  0.41169605375E+03  0.52556691934E+03  0.12699999809E+01 0. -1.
       -4    1    3    3    0  502  0.18064259485E+03  0.27220137040E+03 -0.34804042562E+03  0.47734587449E+03  0.12699999809E+01 0.  1.
</event>
<event>
 5   0  0.9243773E-03  0.1002753E+04  0.7818609E-02  0.9305531E-01
        2   -1    0    0  501    0  0.00000000000E+00  0.00000000000E+00  0.35112067553E+03  0.35112067554E+03  0.25500000920E-02 0.  1.
       -2   -1    0    0    0  501  0.00000000000E+00  0.00000000000E+00 -0.71593091644E+03  0.71593091644E+03  0.25500000920E-02 0. -1.
    10030    2    1    2    0    0  0.00000000000E+00  0.00000000000E+00 -0.36481024091E+03  0.10670515920E+04  0.10027525059E+04 0.  0.
        3    1    3    3  502    0  0.11335427534E+03 -0.33389537153E+03 -0.56169105268E+03  0.66319843164E+03  0.10100000352E+00 0. -1.
       -3    1    3    3    0  502 -0.11335427534E+03  0.33389537153E+03  0.19688081177E+03  0.40385316034E+03  0.10100000352E+00 0.  1.
</event>
<event>
 5   0  0.5189877E-03  0.9880456E+03  0.7818609E-02  0.9321754E-01
        1   -1    0    0  501    0  0.00000000000E+00  0.00000000000E+00  0.66962452845E+03  0.66962452847E+03  0.50400001928E-02 0. -1.
       -1   -1    0    0    0  501  0.00000000000E+00  0.00000000000E+00 -0.36447068472E+03  0.36447068475E+03  0.50400001928E-02 0.  1.
    10030    2    1    2    0    0  0.00000000000E+00  0.00000000000E+00  0.30515384374E+03  0.10340952132E+04  0.98804556659E+03 0.  0.
        3    1    3    3  502    0 -0.34402077226E+03  0.10183900785E+03 -0.20286440906E+03  0.41215950059E+03  0.10100000352E+00 0.  1.
       -3    1    3    3    0  502  0.34402077226E+03 -0.10183900785E+03  0.50801825280E+03  0.62193571263E+03  0.10100000352E+00 0. -1.
</event>
<event>
 5   0  0.5189877E-03  0.9834623E+03  0.7818609E-02  0.9326871E-01
        1   -1    0    0  501    0  0.00000000000E+00  0.00000000000E+00  0.55235005441E+03  0.55235005443E+03  0.50400001928E-02 0.  1.
       -1   -1    0    0    0  501  0.00000000000E+00  0.00000000000E+00 -0.43776502981E+03  0.43776502984E+03  0.50400001928E-02 0. -1.
    10030    2    1    2    0    0  0.00000000000E+00  0.00000000000E+00  0.11458502460E+03  0.99011508427E+03  0.98346232883E+03 0.  0.
        3    1    3    3  502    0 -0.38114114407E+03 -0.21360864312E+03  0.28443410512E+03  0.52134441061E+03  0.10100000352E+00 0.  1.
       -3    1    3    3    0  502  0.38114114407E+03  0.21360864312E+03 -0.16984908053E+03  0.46877067365E+03  0.10100000352E+00 0. -1.
</event>
<event>
 5   0  0.5072205E-03  0.1002756E+04  0.7818609E-02  0.9305527E-01
        1   -1    0    0  501    0  0.00000000000E+00  0.00000000000E+00  0.34790189483E+03  0.34790189487E+03  0.50400001928E-02 0.  1.
       -1   -1    0    0    0  501  0.00000000000E+00  0.00000000000E+00 -0.72256029029E+03  0.72256029031E+03  0.50400001928E-02 0. -1.
    10030    2    1    2    0    0  0.00000000000E+00  0.00000000000E+00 -0.37465839545E+03  0.10704621852E+04  0.10027563895E+04 0.  0.
        5    1    3    3  502    0 -0.19091575734E+03  0.15261879953E+03  0.27996732308E+03  0.37167878116E+03  0.46999998093E+01 0.  1.
       -5    1    3    3    0  502  0.19091575734E+03 -0.15261879953E+03 -0.65462571853E+03  0.69878340402E+03  0.46999998093E+01 0. -1.
</event>
<event>
 5   0  0.8968798E-03  0.9909680E+03  0.7818609E-02  0.9318507E-01
        2   -1    0    0  501    0  0.00000000000E+00  0.00000000000E+00  0.43978568207E+03  0.43978568207E+03  0.25500000920E-02 0.  1.
       -2   -1    0    0    0  501  0.00000000000E+00  0.00000000000E+00 -0.55823646267E+03  0.55823646268E+03  0.25500000920E-02 0. -1.
    10030    2    1    2    0    0  0.00000000000E+00  0.00000000000E+00 -0.11845078061E+03  0.99802214475E+03  0.99096801865E+03 0.  0.
        2    1    3    3  502    0  0.42630606342E+03 -0.21919580915E+03  0.67049513361E+02  0.48402406934E+03  0.25500000920E-02 0.  1.
       -2    1    3    3    0  502 -0.42630606342E+03  0.21919580915E+03 -0.18550029397E+03  0.51399807541E+03  0.25500000920E-02 0. -1.
</event>
<event>
 5   0  0.8907355E-03  0.1001889E+04  0.7818609E-02  0.9306476E-01
        2   -1    0    0  501    0  0.00000000000E+00  0.00000000000E+00  0.10025541479E+04  0.10025541479E+04  0.25500000920E-02 0. -1.
       -2   -1    0    0    0  501  0.00000000000E+00  0.00000000000E+00 -0.25030585872E+03  0.25030585873E+03  0.25500000920E-02 0.  1.
    10030    2    1    2    0    0  0.00000000000E+00  0.00000000000E+00  0.75224828917E+03  0.12528600066E+04  0.10018885705E+04 0.  0.
        5    1    3    3  502    0  0.16153178578E+03 -0.45471586181E+03  0.20805393696E+03  0.52551647308E+03  0.46999998093E+01 0. -1.
       -5    1    3    3    0  502 -0.16153178578E+03  0.45471586181E+03  0.54419435221E+03  0.72734353354E+03  0.46999998093E+01 0.  1.
</event>
<event>
 5   0  0.5349685E-03  0.1006000E+04  0.7818609E-02  0.9301988E-01
        1   -1    0    0  501    0  0.00000000000E+00  0.00000000000E+00  0.61483092015E+03  0.61483092017E+03  0.50400001928E-02 0.  1.
       -1   -1    0    0    0  501  0.00000000000E+00  0.00000000000E+00 -0.41151010240E+03  0.41151010243E+03  0.50400001928E-02 0. -1.
    10030    2    1    2    0    0  0.00000000000E+00  0.00000000000E+00  0.20332081776E+03  0.10263410226E+04  0.10060002683E+04 0.  0.
        4    1    3    3  502    0 -0.41556737053E+03  0.26197906540E+03  0.21191140201E+03  0.53501151891E+03  0.12699999809E+01 0.  1.
       -4    1    3    3    0  502  0.41556737053E+03 -0.26197906540E+03 -0.85905842555E+01  0.49132950369E+03  0.12699999809E+01 0. -1.
</event>
<event>
 5   0  0.8875655E-03  0.9712878E+03  0.7818609E-02  0.9340609E-01
       -2   -1    0    0    0  501  0.00000000000E+00  0.00000000000E+00  0.22334694779E+03  0.22334694781E+03  0.25500000920E-02 0.  1.
        2   -1    0    0  501    0  0.00000000000E+00  0.00000000000E+00 -0.10559804821E+04  0.10559804821E+04  0.25500000920E-02 0. -1.
    10030    2    1    2    0    0  0.00000000000E+00  0.00000000000E+00 -0.83263353433E+03  0.12793274299E+04  0.97128784121E+03 0.  0.
        4    1    3    3  502    0 -0.24552113738E+03 -0.55018684412E+02 -0.96343295250E+03  0.99574713226E+03  0.12699999809E+01 0. -1.
       -4    1    3    3    0  502  0.24552113738E+03  0.55018684412E+02  0.13079941818E+03  0.28358029767E+03  0.12699999809E+01 0.  1.
</event>
<event>
 5   0  0.5072205E-03  0.1000821E+04  0.7818609E-02  0.9307645E-01
        1   -1    0    0  501    0  0.00000000000E+00  0.00000000000E+00  0.12195320136E+04  0.12195320136E+04  0.50400001928E-02 0. -1.
       -1   -1    0    0    0  501  0.00000000000E+00  0.00000000000E+00 -0.20533345971E+03  0.20533345977E+03  0.50400001928E-02 0.  1.
    10030    2    1    2    0    0  0.00000000000E+00  0.00000000000E+00  0.10141985539E+04  0.14248654734E+04  0.10008211181E+04 0.  0.
        5    1    3    3  502    0  0.65146188118E+02 -0.23299050401E+03 -0.11650583125E+03  0.26855967586E+03  0.46999998093E+01 0.  1.
       -5    1    3    3    0  502 -0.65146188118E+02  0.23299050401E+03  0.11307043851E+04  0.11563057975E+04  0.46999998093E+01 0. -1.
</event>
<event>
 5   0  0.8968798E-03  0.1015826E+04  0.7818609E-02  0.9291355E-01
        2   -1    0    0  501    0  0.00000000000E+00  0.00000000000E+00  0.44911149533E+03  0.44911149533E+03  0.25500000920E-02 0. -1.
       -2   -1    0    0    0  501  0.00000000000E+00  0.00000000000E+00 -0.57441358759E+03  0.57441358760E+03  0.25500000920E-02 0.  1.
    10030    2    1    2    0    0  0.00000000000E+00  0.00000000000E+00 -0.12530209227E+03  0.10235250829E+04  0.10158262554E+04 0.  0.
        2    1    3    3  502    0  0.18693455214E+03 -0.45135716933E+03 -0.20265711093E+03  0.52890237823E+03  0.25500000920E-02 0. -1.
       -2    1    3    3    0  502 -0.18693455214E+03  0.45135716933E+03  0.77355018663E+02  0.49462270470E+03  0.25500000920E-02 0.  1.
</event>
<event>
 5   0  0.9243773E-03  0.1015774E+04  0.7818609E-02  0.9291412E-01
        2   -1    0    0  501    0  0.00000000000E+00  0.00000000000E+00  0.14507771997E+04  0.14507771997E+04  0.25500000920E-02 0. -1.
       -2   -1    0    0    0  501  0.00000000000E+00  0.00000000000E+00 -0.17780066034E+03  0.17780066036E+03  0.25500000920E-02 0.  1.
    10030    2    1    2    0    0  0.00000000000E+00  0.00000000000E+00  0.12729765394E+04  0.16285778601E+04  0.10157738806E+04 0.  0.
        3    1    3    3  502    0 -0.11104440915E+03  0.37495282126E+03  0.11560837767E+04  0.12204303290E+04  0.10100000352E+00 0. -1.
       -3    1    3    3    0  502  0.11104440915E+03 -0.37495282126E+03  0.11689276268E+03  0.40814753110E+03  0.10100000352E+00 0.  1.
</event>
<event>
 5   0  0.5201968E-03  0.7715872E+03  0.7818609E-02  0.9602079E-01
       -1   -1    0    0    0  501  0.00000000000E+00  0.00000000000E+00  0.27547996853E+03  0.27547996857E+03  0.50400001928E-02 0. -1.
        1   -1    0    0  501    0  0.00000000000E+00  0.00000000000E+00 -0.54028136407E+03  0.54028136409E+03  0.50400001928E-02 0.  1.
    10030    2    1    2    0    0  0.00000000000E+00  0.00000000000E+00 -0.26480139554E+03  0.81576133266E+03  0.77158717770E+03 0.  0.
        2    1    3    3  502    0 -0.35341150762E+03 -0.13391647685E+03 -0.21431805096E+03  0.43447156808E+03  0.25500000920E-02 0. -1.
       -2    1    3    3    0  502  0.35341150762E+03  0.13391647685E+03 -0.50483344580E+02  0.38128976459E+03  0.25500000920E-02 0.  1.
</event>
<event>
 5   0  0.5072205E-03  0.1004874E+04  0.7818609E-02  0.9303215E-01
       -1   -1    0    0    0  501  0.00000000000E+00  0.00000000000E+00  0.39138945380E+03  0.39138945384E+03  0.50400001928E-02 0.  1.
        1   -1    0    0  501    0  0.00000000000E+00  0.00000000000E+00 -0.64499194708E+03  0.64499194710E+03  0.50400001928E-02 0. -1.
    10030    2    1    2    0    0  0.00000000000E+00  0.00000000000E+00 -0.25360249327E+03  0.10363814009E+04  0.10048742128E+04 0.  0.
        5    1    3    3  502    0 -0.55539974099E+02 -0.31086066564E+03  0.27622204798E+03  0.41957091409E+03  0.46999998093E+01 0.  1.
       -5    1    3    3    0  502  0.55539974099E+02  0.31086066564E+03 -0.52982454125E+03  0.61681048684E+03  0.46999998093E+01 0. -1.
</event>
<event>
 5   0  0.9243773E-03  0.9970628E+03  0.7818609E-02  0.9311772E-01
       -2   -1    0    0    0  501  0.00000000000E+00  0.00000000000E+00  0.22425607503E+03  0.22425607504E+03  0.25500000920E-02 0.  1.
        2   -1    0    0  501    0  0.00000000000E+00  0.00000000000E+00 -0.11082577564E+04  0.11082577564E+04  0.25500000920E-02 0. -1.
    10030    2    1    2    0    0  0.00000000000E+00  0.00000000000E+00 -0.88400168139E+03  0.13325138315E+04  0.99706275547E+03 0.  0.
        3    1    3    3  502    0  0.18230333370E+03 -0.40431341068E+03 -0.74625639553E+03  0.86810279207E+03  0.10100000352E+00 0. -1.
       -3    1    3    3    0  502 -0.18230333370E+03  0.40431341068E+03 -0.13774528586E+03  0.46441103939E+03  0.10100000352E+00 0.  1.
</event>
<event>
 5   0  0.9243773E-03  0.1003733E+04  0.7818609E-02  0.9304460E-01
        2   -1    0    0  501    0  0.00000000000E+00  0.00000000000E+00  0.13332977751E+04  0.13332977751E+04  0.25500000920E-02 0. -1.
       -2   -1    0    0    0  501  0.00000000000E+00  0.00000000000E+00 -0.18890744605E+03  0.18890744607E+03  0.25500000920E-02 0.  1.
    10030    2    1    2    0    0  0.00000000000E+00  0.00000000000E+00  0.11443903290E+04  0.15222052212E+04  0.10037327882E+04 0.  0.
        3    1    3    3  502    0 -0.36858654314E+03 -0.33999869686E+03  0.54131146767E+03  0.73788431944E+03  0.10100000352E+00 0. -1.
       -3    1    3    3    0  502  0.36858654314E+03  0.33999869686E+03  0.60307886137E+03  0.78432090172E+03  0.10100000352E+00 0.  1.
</event>
<event>
 5   0  0.8968798E-03  0.9942029E+03  0.7818609E-02  0.9314926E-01
       -2   -1    0    0    0  501  0.00000000000E+00  0.00000000000E+00  0.38810796085E+03  0.38810796086E+03  0.25500000920E-02 0.  1.
        2   -1    0    0  501    0  0.00000000000E+00  0.00000000000E+00 -0.63670393112E+03  0.63670393113E+03  0.25500000920E-02 0. -1.
    10030    2    1    2    0    0  0.00000000000E+00  0.00000000000E+00 -0.24859597027E+03  0.10248118920E+04  0.99420292573E+03 0.  0.
        2    1    3    3  502    0  0.38321839680E+03  0.63689855420E+02 -0.44400353137E+03  0.58995921317E+03  0.25500000920E-02 0. -1.
       -2    1    3    3    0  502 -0.38321839680E+03 -0.63689855420E+02  0.19540756110E+03  0.43485267882E+03  0.25500000920E-02 0.  1.
</event>
<event>
 5   0  0.5310275E-03  0.1005156E+04  0.7818609E-02  0.9302908E-01
       -1   -1    0    0    0  501  0.00000000000E+00  0.00000000000E+00  0.48370699546E+03  0.48370699549E+03  0.50400001928E-02 0. -1.
        1   -1    0    0  501    0  0.00000000000E+00  0.00000000000E+00 -0.52218539233E+03  0.52218539236E+03  0.50400001928E-02 0.  1.
    10030    2    1    2    0    0  0.00000000000E+00  0.00000000000E+00 -0.38478396873E+02  0.10058923878E+04  0.10051561614E+04 0.  0.
        1    1    3    3  502    0  0.30317966207E+03  0.28419944433E+03 -0.30210768416E+03  0.51376676080E+03  0.50400001928E-02 0.  1.
       -1    1    3    3    0  502 -0.30317966207E+03 -0.28419944433E+03  0.26362928728E+03  0.49212562704E+03  0.50400001928E-02 0. -1.
</event>
<event>
 5   0  0.8875655E-03  0.9992581E+03  0.7818609E-02  0.9309359E-01
       -2   -1    0    0    0  501  0.00000000000E+00  0.00000000000E+00  0.29192164423E+03  0.29192164424E+03  0.25500000920E-02 0.  1.
        2   -1    0    0  501    0  0.00000000000E+00  0.00000000000E+00 -0.85512386918E+03  0.85512386918E+03  0.25500000920E-02 0. -1.
    10030    2    1    2    0    0  0.00000000000E+00  0.00000000000E+00 -0.56320222495E+03  0.11470455134E+04  0.99925805659E+03 0.  0.
        4    1    3    3  502    0  0.30417649855E+03 -0.28664779371E+03 -0.59583417410E+03  0.72781197836E+03  0.12699999809E+01 0. -1.
       -4    1    3    3    0  502 -0.30417649855E+03  0.28664779371E+03  0.32631949149E+02  0.41923353506E+03  0.12699999809E+01 0.  1.
</event>
<event>
 5   0  0.9243773E-03  0.1000746E+04  0.7818609E-02  0.9307727E-01
        2   -1    0    0  501    0  0.00000000000E+00  0.00000000000E+00  0.61959231138E+03  0.61959231139E+03  0.25500000920E-02 0. -1.
       -2   -1    0    0    0  501  0.00000000000E+00  0.00000000000E+00 -0.40409302121E+03  0.40409302122E+03  0.25500000920E-02 0.  1.
    10030    2    1    2    0    0  0.00000000000E+00  0.00000000000E+00  0.21549929017E+03  0.10236853326E+04  0.10007455801E+04 0.  0.
        3    1    3    3  502    0  0.37031926045E+03 -0.19870770902E+03 -0.17004837316E+03  0.45336251246E+03  0.10100000352E+00 0.  1.
       -3    1    3    3    0  502 -0.37031926045E+03  0.19870770902E+03  0.38554766333E+03  0.57032282015E+03  0.10100000352E+00 0. -1.
</event>
<event>
 5   0  0.5201968E-03  0.1084163E+04  0.7818609E-02  0.9220767E-01
       -1   -1    0    0    0  501  0.00000000000E+00  0.00000000000E+00  0.24100428443E+03  0.24100428448E+03  0.50400001928E-02 0. -1.
        1   -1    0    0  501    0  0.00000000000E+00  0.00000000000E+00 -0.12192816079E+04  0.12192816079E+04  0.50400001928E-02 0.  1.
    10030    2    1    2    0    0  0.00000000000E+00  0.00000000000E+00 -0.97827732348E+03  0.14602858924E+04  0.10841625182E+04 0.  0.
        2    1    3    3  502    0 -0.40349809493E+03  0.14066424195E-01 -0.97672073267E+03  0.10567847948E+04  0.25500000920E-02 0.  1.
       -2    1    3    3    0  502  0.40349809493E+03 -0.14066424195E-01 -0.15565908097E+01  0.40350109764E+03  0.25500000920E-02 0. -1.
</event>
<event>
 5   0  0.5310275E-03  0.1014420E+04  0.7818609E-02  0.9292870E-01
        1   -1    0    0  501    0  0.00000000000E+00  0.00000000000E+00  0.50010418585E+03  0.50010418588E+03  0.50400001928E-02 0.  1.
       -1   -1    0    0    0  501  0.00000000000E+00  0.00000000000E+00 -0.51441637511E+03  0.51441637513E+03  0.50400001928E-02 0. -1.
    10030    2    1    2    0    0  0.00000000000E+00  0.00000000000E+00 -0.14312189255E+02  0.10145205610E+04  0.10144196025E+04 0.  0.
        1    1    3    3  502    0 -0.42435016107E+03 -0.27776380885E+03 -0.11563517992E+01  0.50717564008E+03  0.50400001928E-02 0.  1.
       -1    1    3    3    0  502  0.42435016107E+03  0.27776380885E+03 -0.13155837456E+02  0.50734492093E+03  0.50400001928E-02 0. -1.
</event>
<event>
 5   0  0.9040674E-03  0.1034771E+04  0.7818609E-02  0.9271210E-01
        2   -1    0    0  501    0  0.00000000000E+00  0.00000000000E+00  0.60463986745E+03  0.60463986746E+03  0.25500000920E-02 0. -1.
       -2   -1    0    0    0  501  0.00000000000E+00  0.00000000000E+00 -0.44272228052E+03  0.44272228053E+03  0.25500000920E-02 0.  1.
    10030    2    1    2    0    0  0.00000000000E+00  0.00000000000E+00  0.16191758693E+03  0.10473621480E+04  0.10347705852E+04 0.  0.
        1    1    3    3  502    0 -0.20548963959E+03 -0.26935835423E+03  0.47675112211E+03  0.58486882925E+03  0.50400001928E-02 0. -1.
       -1    1    3    3    0  502  0.20548963959E+03  0.26935835423E+03 -0.31483353518E+03  0.46249331873E+03  0.50400001928E-02 0.  1.
</event>
<event>
 5   0  0.5072205E-03  0.9952086E+03  0.7818609E-02  0.9313816E-01
       -1   -1    0    0    0  501  0.00000000000E+00  0.00000000000E+00  0.13566913877E+04  0.13566913877E+04  0.50400001928E-02 0.  1.
        1   -1    0    0  501    0  0.00000000000E+00  0.00000000000E+00 -0.18251020886E+03  0.18251020893E+03  0.50400001928E-02 0. -1.
    10030    2    1    2    0    0  0.00000000000E+00  0.00000000000E+00  0.11741811789E+04  0.15392015967E+04  0.99520857832E+03 0.  0.
        5    1    3    3  502    0 -0.11980551216E+03  0.34015465555E+03  0.56872388218E+02  0.36512341609E+03  0.46999998093E+01 0. -1.
       -5    1    3    3    0  502  0.11980551216E+03 -0.34015465555E+03  0.11173087907E+04  0.11740781806E+04  0.46999998093E+01 0.  1.
</event>
<event>
 5   0  0.5349685E-03  0.1008425E+04  0.7818609E-02  0.9299353E-01
       -1   -1    0    0    0  501  0.00000000000E+00  0.00000000000E+00  0.39796049949E+03  0.39796049952E+03  0.50400001928E-02 0. -1.
        1   -1    0    0  501    0  0.00000000000E+00  0.00000000000E+00 -0.63883232767E+03  0.63883232769E+03  0.50400001928E-02 0.  1.
    10030    2    1    2    0    0  0.00000000000E+00  0.00000000000E+00 -0.24087182818E+03  0.10367928272E+04  0.10084245777E+04 0.  0.
        4    1    3    3  502    0  0.71544061665E+02  0.61633364689E+02  0.38878618881E+03  0.40009191183E+03  0.12699999809E+01 0. -1.
       -4    1    3    3    0  502 -0.71544061665E+02 -0.61633364689E+02 -0.62965801698E+03  0.63670091538E+03  0.12699999809E+01 0.  1.
</event>
<event>
 5   0  0.9243773E-03  0.9543301E+03  0.7818609E-02  0.9360104E-01
        2   -1    0    0  501    0  0.00000000000E+00  0.00000000000E+00  0.72933699194E+03  0.72933699194E+03  0.25500000920E-02 0. -1.
       -2   -1    0    0    0  501  0.00000000000E+00  0.00000000000E+00 -0.31218283299E+03  0.31218283300E+03  0.25500000920E-02 0.  1.
    10030    2    1    2    0    0  0.00000000000E+00  0.00000000000E+00  0.41715415895E+03  0.10415198249E+04  0.95433010715E+03 0.  0.
        3    1    3    3  502    0  0.14987625625E+03 -0.29322236951E+03  0.58544363554E+03  0.67170418397E+03  0.10100000352E+00 0. -1.
       -3    1    3    3    0  502 -0.14987625625E+03  0.29322236951E+03 -0.16828947659E+03  0.36981564096E+03  0.10100000352E+00 0.  1.
</event>
<event>
 5   0  0.5349685E-03  0.1001574E+04  0.7818609E-02  0.9306820E-01
        1   -1    0    0  501    0  0.00000000000E+00  0.00000000000E+00  0.51486533523E+03  0.51486533525E+03  0.50400001928E-02 0. -1.
       -1   -1    0    0    0  501  0.00000000000E+00  0.00000000000E+00 -0.48709392897E+03  0.48709392900E+03  0.50400001928E-02 0.  1.
    10030    2    1    2    0    0  0.00000000000E+00  0.00000000000E+00  0.27771406258E+02  0.10019592643E+04  0.10015743189E+04 0.  0.
        4    1    3    3  502    0  0.50394409325E+02  0.35285974347E+03  0.36578299395E+03  0.51073320492E+03  0.12699999809E+01 0. -1.
       -4    1    3    3    0  502 -0.50394409325E+02 -0.35285974347E+03 -0.33801158769E+03  0.49122605933E+03  0.12699999809E+01 0.  1.
</event>
<event>
 5   0  0.5310275E-03  0.9933664E+03  0.7818609E-02  0.9315851E-01
       -1   -1    0    0    0  501  0.00000000000E+00  0.00000000000E+00  0.52601352501E+03  0.52601352503E+03  0.50400001928E-02 0.  1.
        1   -1    0    0  501    0  0.00000000000E+00  0.00000000000E+00 -0.46898828764E+03  0.46898828767E+03  0.50400001928E-02 0. -1.
    10030    2    1    2    0    0  0.00000000000E+00  0.00000000000E+00  0.57025237364E+02  0.99500181270E+03  0.99336636222E+03 0.  0.
        1    1    3    3  502    0  0.33360992324E+03  0.34887585442E+03 -0.88659628337E+02  0.49078556663E+03  0.50400001928E-02 0.  1.
       -1    1    3    3    0  502 -0.33360992324E+03 -0.34887585442E+03  0.14568486570E+03  0.50421624607E+03  0.50400001928E-02 0. -1.
</event>
<event>
 5   0  0.5201968E-03  0.1014868E+04  0.7818609E-02  0.9292387E-01
        1   -1    0    0  501    0  0.00000000000E+00  0.00000000000E+00  0.39366407058E+03  0.39366407062E+03  0.50400001928E-02 0.  1.
       -1   -1    0    0    0  501  0.00000000000E+00  0.00000000000E+00 -0.65408347998E+03  0.65408348000E+03  0.50400001928E-02 0. -1.
    10030    2    1    2    0    0  0.00000000000E+00  0.00000000000E+00 -0.26041940940E+03  0.10477475506E+04  0.10148678047E+04 0.  0.
        2    1    3    3  502    0  0.32612926413E+03  0.36736367090E+03  0.10827622981E+01  0.49124081263E+03  0.25500000920E-02 0.  1.
       -2    1    3    3    0  502 -0.32612926413E+03 -0.36736367090E+03 -0.26150217169E+03  0.55650673798E+03  0.25500000920E-02 0. -1.
</event>
<event>
 5   0  0.9040674E-03  0.1032076E+04  0.7818609E-02  0.9274047E-01
        2   -1    0    0  501    0  0.00000000000E+00  0.00000000000E+00  0.15459080090E+04  0.15459080090E+04  0.25500000920E-02 0. -1.
       -2   -1    0    0    0  501  0.00000000000E+00  0.00000000000E+00 -0.17225816881E+03  0.17225816883E+03  0.25500000920E-02 0.  1.
    10030    2    1    2    0    0  0.00000000000E+00  0.00000000000E+00  0.13736498402E+04  0.17181661779E+04  0.10320761267E+04 0.  0.
        1    1    3    3  502    0  0.21137803207E+03  0.27977440011E+02 -0.95494860834E+02  0.23362936045E+03  0.50400001928E-02 0.  1.
       -1    1    3    3    0  502 -0.21137803207E+03 -0.27977440011E+02  0.14691447011E+04  0.14845368174E+04  0.50400001928E-02 0. -1.
</event>
<event>
 5   0  0.5072205E-03  0.9766099E+03  0.7818609E-02  0.9334577E-01
       -1   -1    0    0    0  501  0.00000000000E+00  0.00000000000E+00  0.70203666510E+03  0.70203666512E+03  0.50400001928E-02 0. -1.
        1   -1    0    0  501    0  0.00000000000E+00  0.00000000000E+00 -0.33964283504E+03  0.33964283508E+03  0.50400001928E-02 0.  1.
    10030    2    1    2    0    0  0.00000000000E+00  0.00000000000E+00  0.36239383005E+03  0.10416795002E+04  0.97660989810E+03 0.  0.
        5    1    3    3  502    0  0.16335373546E+03 -0.45103398933E+03  0.84001809032E+02  0.48702617623E+03  0.46999998093E+01 0.  1.
       -5    1    3    3    0  502 -0.16335373546E+03  0.45103398933E+03  0.27839202102E+03  0.55465332396E+03  0.46999998093E+01 0. -1.
</event>
<event>
 5   0  0.9243773E-03  0.9866429E+03  0.7818609E-02  0.9323317E-01
        2   -1    0    0  501    0  0.00000000000E+00  0.00000000000E+00  0.59285317846E+03  0.59285317846E+03  0.25500000920E-02 0.  1.
       -2   -1    0    0    0  501  0.00000000000E+00  0.00000000000E+00 -0.41049969541E+03  0.41049969542E+03  0.25500000920E-02 0. -1.
    10030    2    1    2    0    0  0.00000000000E+00  0.00000000000E+00  0.18235348304E+03  0.10033528739E+04  0.98664289221E+03 0.  0.
        3    1    3    3  502    0  0.17005934571E+03 -0.19868216178E+03  0.51655673738E+03  0.57898674908E+03  0.10100000352E+00 0.  1.
       -3    1    3    3    0  502 -0.17005934571E+03  0.19868216178E+03 -0.33420325434E+03  0.42436612481E+03  0.10100000352E+00 0. -1.
</event>
<event>
 5   0  0.8968798E-03  0.9984057E+03  0.7818609E-02  0.9310295E-01
        2   -1    0    0  501    0  0.00000000000E+00  0.00000000000E+00  0.21573992668E+04  0.21573992668E+04  0.25500000920E-02 0. -1.
       -2   -1    0    0    0  501  0.00000000000E+00  0.00000000000E+00 -0.11551106431E+03  0.11551106434E+03  0.25500000920E-02 0.  1.
    10030    2    1    2    0    0  0.00000000000E+00  0.00000000000E+00  0.20418882024E+04  0.22729103311E+04  0.99840570006E+03 0.  0.
        2    1    3    3  502    0 -0.20857564118E+02 -0.36780338984E+03  0.25402005758E+03  0.44748247030E+03  0.25500000920E-02 0.  1.
       -2    1    3    3    0  502  0.20857564118E+02  0.36780338984E+03  0.17878681449E+04  0.18254278608E+04  0.25500000920E-02 0. -1.
</event>
<event>
 5   0  0.8875655E-03  0.9923215E+03  0.7818609E-02  0.9317007E-01
       -2   -1    0    0    0  501  0.00000000000E+00  0.00000000000E+00  0.20755139672E+03  0.20755139673E+03  0.25500000920E-02 0.  1.
        2   -1    0    0  501    0  0.00000000000E+00  0.00000000000E+00 -0.11860941983E+04  0.11860941983E+04  0.25500000920E-02 0. -1.
    10030    2    1    2    0    0  0.00000000000E+00  0.00000000000E+00 -0.97854280158E+03  0.13936455950E+04  0.99232153561E+03 0.  0.
        4    1    3    3  502    0 -0.50501694892E+01 -0.48596324870E+03 -0.34891196407E+03  0.59826996821E+03  0.12699999809E+01 0. -1.
       -4    1    3    3    0  502  0.50501694892E+01  0.48596324870E+03 -0.62963083752E+03  0.79537562683E+03  0.12699999809E+01 0.  1.
</event>
<event>
 5   0  0.9243773E-03  0.1022325E+04  0.7818609E-02  0.9284392E-01
        2   -1    0    0  501    0  0.00000000000E+00  0.00000000000E+00  0.96610622723E+03  0.96610622723E+03  0.25500000920E-02 0. -1.
       -2   -1    0    0    0  501  0.00000000000E+00  0.00000000000E+00 -0.27045400423E+03  0.27045400424E+03  0.25500000920E-02 0.  1.
    10030    2    1    2    0    0  0.00000000000E+00  0.00000000000E+00  0.69565222300E+03  0.12365602315E+04  0.10223253840E+04 0.  0.
        3    1    3    3  502    0  0.47398278992E+02  0.42869366729E+02  0.96125477912E+03  0.96337694598E+03  0.10100000352E+00 0. -1.
       -3    1    3    3    0  502 -0.47398278992E+02 -0.42869366729E+02 -0.26560255612E+03  0.27318328550E+03  0.10100000352E+00 0.  1.
</event>
<event>
 5   0  0.5310275E-03  0.1019155E+04  0.7818609E-02  0.9287782E-01
       -1   -1    0    0    0  501  0.00000000000E+00  0.00000000000E+00  0.70490314484E+03  0.70490314486E+03  0.50400001928E-02 0. -1.
        1   -1    0    0  501    0  0.00000000000E+00  0.00000000000E+00 -0.36837541155E+03  0.36837541159E+03  0.50400001928E-02 0.  1.
    10030    2    1    2    0    0  0.00000000000E+00  0.00000000000E+00  0.33652773329E+03  0.10732785564E+04  0.10191545243E+04 0.  0.
        1    1    3    3  502    0 -0.25160637467E+03  0.44161146169E+03  0.12967737808E+03  0.52454044008E+03  0.50400001928E-02 0. -1.
       -1    1    3    3    0  502  0.25160637467E+03 -0.44161146169E+03  0.20685035522E+03  0.54873811637E+03  0.50400001928E-02 0.  1.
</event>
<event>
 5   0  0.5072205E-03  0.8782575E+03  0.7818609E-02  0.9453176E-01
       -1   -1    0    0    0  501  0.00000000000E+00  0.00000000000E+00  0.13369755576E+03  0.13369755585E+03  0.50400001928E-02 0. -1.
        1   -1    0    0  501    0  0.00000000000E+00  0.00000000000E+00 -0.14423156777E+04  0.14423156777E+04  0.50400001928E-02 0.  1.
    10030    2    1    2    0    0  0.00000000000E+00  0.00000000000E+00 -0.13086181219E+04  0.15760132335E+04  0.87825754951E+03 0.  0.
        5    1    3    3  502    0  0.11294630131E+03  0.17270590279E+03  0.41216531070E+02  0.21048773900E+03  0.46999998093E+01 0. -1.
       -5    1    3    3    0  502 -0.11294630131E+03 -0.17270590279E+03 -0.13498346530E+04  0.13655254945E+04  0.46999998093E+01 0.  1.
</event>
<event>
 5   0  0.3513625E-03  0.9972993E+03  0.7818609E-02  0.9311512E-01
        3   -1    0    0  501    0  0.00000000000E+00  0.00000000000E+00  0.54400150643E+03  0.54400151580E+03  0.10100000352E+00 0.  1.
       -3   -1    0    0    0  501  0.00000000000E+00  0.00000000000E+00 -0.45707866355E+03  0.45707867471E+03  0.10100000352E+00 0. -1.
    10030    2    1    2    0    0  0.00000000000E+00  0.00000000000E+00  0.86922842875E+02  0.10010801905E+04  0.99729933682E+03 0.  0.
        2    1    3    3  502    0  0.11192899864E+03 -0.40736196864E+03 -0.22245725224E+03  0.47745062919E+03  0.25500000920E-02 0. -1.
       -2    1    3    3    0  502 -0.11192899864E+03  0.40736196864E+03  0.30938009512E+03  0.52362956132E+03  0.25500000920E-02 0.  1.
</event>
<event>
 5   0  0.8875655E-03  0.9866887E+03  0.7818609E-02  0.9323266E-01
        2   -1    0    0  501    0  0.00000000000E+00  0.00000000000E+00  0.73877974756E+03  0.73877974756E+03  0.25500000920E-02 0. -1.
       -2   -1    0    0    0  501  0.00000000000E+00  0.00000000000E+00 -0.32944682570E+03  0.32944682571E+03  0.25500000920E-02 0.  1.
    10030    2    1    2    0    0  0.00000000000E+00  0.00000000000E+00  0.40933292186E+03  0.10682265733E+04  0.98668868998E+03 0.  0.
        4    1    3    3  502    0 -0.59427722310E+02  0.24354746128E+03  0.66467930519E+03  0.71038525585E+03  0.12699999809E+01 0. -1.
       -4    1    3    3    0  502  0.59427722310E+02 -0.24354746128E+03 -0.25534638333E+03  0.35784131743E+03  0.12699999809E+01 0.  1.
</event>
<event>
 5   0  0.8968798E-03  0.1006090E+04  0.7818609E-02  0.9301890E-01
       -2   -1    0    0    0  501  0.00000000000E+00  0.00000000000E+00  0.35652292990E+03  0.35652292991E+03  0.25500000920E-02 0.  1.
        2   -1    0    0  501    0  0.00000000000E+00  0.00000000000E+00 -0.70978414958E+03  0.70978414959E+03  0.25500000920E-02 0. -1.
    10030    2    1    2    0    0  0.00000000000E+00  0.00000000000E+00 -0.35326121968E+03  0.10663070795E+04  0.10060901045E+04 0.  0.
        2    1    3    3  502    0  0.11194190830E+03  0.20778644614E+03 -0.64745821611E+03  0.68913593698E+03  0.25500000920E-02 0. -1.
       -2    1    3    3    0  502 -0.11194190830E+03 -0.20778644614E+03  0.29419699642E+03  0.37717114251E+03  0.25500000920E-02 0.  1.
</event>
<event>
 5   0  0.5201968E-03  0.1018110E+04  0.7818609E-02  0.9288902E-01
        1   -1    0    0  501    0  0.00000000000E+00  0.00000000000E+00  0.66764863164E+03  0.66764863166E+03  0.50400001928E-02 0. -1.
       -1   -1    0    0    0  501  0.00000000000E+00  0.00000000000E+00 -0.38813378964E+03  0.38813378967E+03  0.50400001928E-02 0.  1.
    10030    2    1    2    0    0  0.00000000000E+00  0.00000000000E+00  0.27951484200E+03  0.10557824213E+04  0.10181100011E+04 0.  0.
        2    1    3    3  502    0 -0.28637782454E+03  0.10384953802E+03 -0.28318191877E+03  0.41591944419E+03  0.25500000920E-02 0.  1.
       -2    1    3    3    0  502  0.28637782454E+03 -0.10384953802E+03  0.56269676077E+03  0.63986297715E+03  0.25500000920E-02 0. -1.
</event>
<event>
 5   0  0.3513625E-03  0.1031005E+04  0.7818609E-02  0.9275178E-01
       -4   -1    0    0    0  501  0.00000000000E+00  0.00000000000E+00  0.29369847541E+03  0.29370122124E+03  0.12699999809E+01 0.  1.
        4   -1    0    0  501    0  0.00000000000E+00  0.00000000000E+00 -0.90480819369E+03  0.90480908499E+03  0.12699999809E+01 0. -1.
    10030    2    1    2    0    0  0.00000000000E+00  0.00000000000E+00 -0.61110971828E+03  0.11985103062E+04  0.10310052698E+04 0.  0.
        4    1    3    3  502    0 -0.62234775288E+02 -0.30512666478E+03  0.17199997320E+03  0.35575420236E+03  0.12699999809E+01 0.  1.
       -4    1    3    3    0  502  0.62234775288E+02  0.30512666478E+03 -0.78310969149E+03  0.84275610387E+03  0.12699999809E+01 0. -1.
</event>
<event>
 5   0  0.9040674E-03  0.9984440E+03  0.7818609E-02  0.9310253E-01
       -2   -1    0    0    0  501  0.00000000000E+00  0.00000000000E+00  0.18344760499E+03  0.18344760501E+03  0.25500000920E-02 0.  1.
        2   -1    0    0  501    0  0.00000000000E+00  0.00000000000E+00 -0.13585493285E+04  0.13585493285E+04  0.25500000920E-02 0. -1.
    10030    2    1    2    0    0  0.00000000000E+00  0.00000000000E+00 -0.11751017235E+04  0.15419969335E+04  0.99844403066E+03 0.  0.
        1    1    3    3  502    0  0.14648540479E+03 -0.17942768312E+03  0.95434342254E+02  0.25051942239E+03  0.50400001928E-02 0.  1.
       -1    1    3    3    0  502 -0.14648540479E+03  0.17942768312E+03 -0.12705360658E+04  0.12914775111E+04  0.50400001928E-02 0. -1.
</event>
<event>
 5   0  0.5349685E-03  0.1024497E+04  0.7818609E-02  0.9282077E-01
        1   -1    0    0  501    0  0.00000000000E+00  0.00000000000E+00  0.65747853295E+03  0.65747853297E+03  0.50400001928E-02 0. -1.
       -1   -1    0    0    0  501  0.00000000000E+00  0.00000000000E+00 -0.39909862597E+03  0.39909862601E+03  0.50400001928E-02 0.  1.
    10030    2    1    2    0    0  0.00000000000E+00  0.00000000000E+00  0.25837990698E+03  0.10565771590E+04  0.10244974946E+04 0.  0.
        4    1    3    3  502    0  0.24884947886E+03  0.65067170494E+02 -0.32766797964E+03  0.41656658242E+03  0.12699999809E+01 0.  1.
       -4    1    3    3    0  502 -0.24884947886E+03 -0.65067170494E+02  0.58604788661E+03  0.64001057656E+03  0.12699999809E+01 0. -1.
</event>
<event>
 5   0  0.5072205E-03  0.9947985E+03  0.7818609E-02  0.9314268E-01
        1   -1    0    0  501    0  0.00000000000E+00  0.00000000000E+00  0.29174984702E+03  0.29174984707E+03  0.50400001928E-02 0.  1.
       -1   -1    0    0    0  501  0.00000000000E+00  0.00000000000E+00 -0.84800727221E+03  0.84800727222E+03  0.50400001928E-02 0. -1.
    10030    2    1    2    0    0  0.00000000000E+00  0.00000000000E+00 -0.55625742518E+03  0.11397571193E+04  0.99479845592E+03 0.  0.
        5    1    3    3  502    0 -0.20987142967E+03  0.14648440504E+03  0.21048981146E+03  0.33140873350E+03  0.46999998093E+01 0.  1.
       -5    1    3    3    0  502  0.20987142967E+03 -0.14648440504E+03 -0.76674723664E+03  0.80834838579E+03  0.46999998093E+01 0. -1.
</event>
<event>
 5   0  0.5310275E-03  0.1009636E+04  0.7818609E-02  0.9298039E-01
        1   -1    0    0  501    0  0.00000000000E+00  0.00000000000E+00  0.13710312657E+04  0.13710312657E+04  0.50400001928E-02 0.  1.
       -1   -1    0    0    0  501  0.00000000000E+00  0.00000000000E+00 -0.18587554954E+03  0.18587554961E+03  0.50400001928E-02 0. -1.
    10030    2    1    2    0    0  0.00000000000E+00  0.00000000000E+00  0.11851557161E+04  0.15569068153E+04  0.10096359542E+04 0.  0.
        1    1    3    3  502    0 -0.25245856377E+02  0.40500564751E+03  0.12951589270E+03  0.42595926362E+03  0.50400001928E-02 0. -1.
       -1    1    3    3    0  502  0.25245856377E+02 -0.40500564751E+03  0.10556398234E+04  0.11309475517E+04  0.50400001928E-02 0.  1.
</event>
<event>
 5   0  0.5189877E-03  0.9975177E+03  0.7818609E-02  0.9311271E-01
        1   -1    0    0  501    0  0.00000000000E+00  0.00000000000E+00  0.30752801365E+03  0.30752801369E+03  0.50400001928E-02 0.  1.
       -1   -1    0    0    0  501  0.00000000000E+00  0.00000000000E+00 -0.80890324973E+03  0.80890324974E+03  0.50400001928E-02 0. -1.
    10030    2    1    2    0    0  0.00000000000E+00  0.00000000000E+00 -0.50137523607E+03  0.11164312634E+04  0.99751773851E+03 0.  0.
        3    1    3    3  502    0 -0.14011595296E+03 -0.23173976211E+02  0.28441961046E+03  0.31790570687E+03  0.10100000352E+00 0.  1.
       -3    1    3    3    0  502  0.14011595296E+03  0.23173976211E+02 -0.78579484654E+03  0.79852555657E+03  0.10100000352E+00 0. -1.
</event>
<event>
 5   0  0.9243773E-03  0.9993444E+03  0.7818609E-02  0.9309264E-01
        2   -1    0    0  501    0  0.00000000000E+00  0.00000000000E+00  0.19648591382E+03  0.19648591383E+03  0.25500000920E-02 0. -1.
       -2   -1    0    0    0  501  0.00000000000E+00  0.00000000000E+00 -0.12706880709E+04  0.12706880709E+04  0.25500000920E-02 0.  1.
    10030    2    1    2    0    0  0.00000000000E+00  0.00000000000E+00 -0.10742021571E+04  0.14671739848E+04  0.99934439871E+03 0.  0.
        3    1    3    3  502    0  0.34641306415E+03  0.19607710055E+03 -0.98052704844E+03  0.10582445574E+04  0.10100000352E+00 0.  1.
       -3    1    3    3    0  502 -0.34641306415E+03 -0.19607710055E+03 -0.93675108681E+02  0.40892942736E+03  0.10100000352E+00 0. -1.
</event>
<event>
 5   0  0.9040674E-03  0.9951500E+03  0.7818609E-02  0.9313880E-01
        2   -1    0    0  501    0  0.00000000000E+00  0.00000000000E+00  0.16639493917E+04  0.16639493917E+04  0.25500000920E-02 0.  1.
       -2   -1    0    0    0  501  0.00000000000E+00  0.00000000000E+00 -0.14879111175E+03  0.14879111177E+03  0.25500000920E-02 0. -1.
    10030    2    1    2    0    0  0.00000000000E+00  0.00000000000E+00  0.15151582799E+04  0.18127405035E+04  0.99514999855E+03 0.  0.
        1    1    3    3  502    0  0.25105306174E+03  0.57751521806E+02 -0.17860075951E+02  0.25822831065E+03  0.50400001928E-02 0. -1.
       -1    1    3    3    0  502 -0.25105306174E+03 -0.57751521806E+02  0.15330183559E+04  0.15545121928E+04  0.50400001928E-02 0.  1.
</event>
<event>
 5   0  0.5072205E-03  0.1006102E+04  0.7818609E-02  0.9301878E-01
       -1   -1    0    0    0  501  0.00000000000E+00  0.00000000000E+00  0.20936063824E+03  0.20936063830E+03  0.50400001928E-02 0. -1.
        1   -1    0    0  501    0  0.00000000000E+00  0.00000000000E+00 -0.12087280325E+04  0.12087280325E+04  0.50400001928E-02 0.  1.
    10030    2    1    2    0    0  0.00000000000E+00  0.00000000000E+00 -0.99936739424E+03  0.14180886708E+04  0.10061015304E+04 0.  0.
        5    1    3    3  502    0 -0.43872420208E+03  0.88354586996E+02 -0.17595350941E+03  0.48090247036E+03  0.46999998093E+01 0.  1.
       -5    1    3    3    0  502  0.43872420208E+03 -0.88354586996E+02 -0.82341388483E+03  0.93718620042E+03  0.46999998093E+01 0. -1.
</event>
<event>
 5   0  0.8875655E-03  0.1011219E+04  0.7818609E-02  0.9296324E-01
        2   -1    0    0  501    0  0.00000000000E+00  0.00000000000E+00  0.32482699860E+03  0.32482699861E+03  0.25500000920E-02 0. -1.
       -2   -1    0    0    0  501  0.00000000000E+00  0.00000000000E+00 -0.78700728653E+03  0.78700728653E+03  0.25500000920E-02 0.  1.
    10030    2    1    2    0    0  0.00000000000E+00  0.00000000000E+00 -0.46218028793E+03  0.11118342851E+04  0.10112194910E+04 0.  0.
        4    1    3    3  502    0  0.20538287193E+03  0.79664183326E+02  0.26928567418E+03  0.34791506636E+03  0.12699999809E+01 0. -1.
       -4    1    3    3    0  502 -0.20538287193E+03 -0.79664183326E+02 -0.73146596211E+03  0.76391921877E+03  0.12699999809E+01 0.  1.
</event>
<event>
 5   0  0.5201968E-03  0.1019568E+04  0.7818609E-02  0.9287340E-01
       -1   -1    0    0    0  501  0.00000000000E+00  0.00000000000E+00  0.25138763059E+03  0.25138763064E+03  0.50400001928E-02 0. -1.
        1   -1    0    0  501    0  0.00000000000E+00  0.00000000000E+00 -0.10337801946E+04  0.10337801946E+04  0.50400001928E-02 0.  1.
    10030    2    1    2    0    0  0.00000000000E+00  0.00000000000E+00 -0.78239256403E+03  0.12851678253E+04  0.10195676608E+04 0.  0.
        2    1    3    3  502    0  0.95996439101E+00 -0.50250366955E+03 -0.28299334195E+03  0.57671144521E+03  0.25500000920E-02 0.  1.
       -2    1    3    3    0  502 -0.95996439101E+00  0.50250366955E+03 -0.49939922207E+03  0.70845638007E+03  0.25500000920E-02 0. -1.
</event>
<event>
 5   0  0.8907355E-03  0.1016617E+04  0.7818609E-02  0.9290505E-01
       -2   -1    0    0    0  501  0.00000000000E+00  0.00000000000E+00  0.43458965829E+03  0.43458965830E+03  0.25500000920E-02 0.  1.
        2   -1    0    0  501    0  0.00000000000E+00  0.00000000000E+00 -0.59453209763E+03  0.59453209764E+03  0.25500000920E-02 0. -1.
    10030    2    1    2    0    0  0.00000000000E+00  0.00000000000E+00 -0.15994243934E+03  0.10291217559E+04  0.10166169410E+04 0.  0.
        5    1    3    3  502    0 -0.55334627589E+00 -0.50004591768E+03  0.12304753875E+02  0.50021967469E+03  0.46999998093E+01 0.  1.
       -5    1    3    3    0  502  0.55334627589E+00  0.50004591768E+03 -0.17224719322E+03  0.52890208125E+03  0.46999998093E+01 0. -1.
</event>
<event>
 5   0  0.8907355E-03  0.1002187E+04  0.7818609E-02  0.9306149E-01
       -2   -1    0    0    0  501  0.00000000000E+00  0.00000000000E+00  0.13011084074E+03  0.13011084076E+03  0.25500000920E-02 0.  1.
        2   -1    0    0  501    0  0.00000000000E+00  0.00000000000E+00 -0.19298537142E+04  0.19298537142E+04  0.25500000920E-02 0. -1.
    10030    2    1    2    0    0  0.00000000000E+00  0.00000000000E+00 -0.17997428735E+04  0.20599645550E+04  0.10021873862E+04 0.  0.
        5    1    3    3  502    0  0.36187631144E+03 -0.18997481213E+03 -0.30404113790E+03  0.50941927482E+03  0.46999998093E+01 0.  1.
       -5    1    3    3    0  502 -0.36187631144E+03  0.18997481213E+03 -0.14957017356E+04  0.15505452802E+04  0.46999998093E+01 0. -1.
</event>
<event>
 5   0  0.9243773E-03  0.7688313E+03  0.7818609E-02  0.9606262E-01
       -2   -1    0    0    0  501  0.00000000000E+00  0.00000000000E+00  0.39335555173E+03  0.39335555174E+03  0.25500000920E-02 0. -1.
        2   -1    0    0  501    0  0.00000000000E+00  0.00000000000E+00 -0.37567896841E+03  0.37567896842E+03  0.25500000920E-02 0.  1.
    10030    2    1    2    0    0  0.00000000000E+00  0.00000000000E+00  0.17676583323E+02  0.76903452015E+03  0.76883134145E+03 0.  0.
        3    1    3    3  502    0 -0.38347835504E+02 -0.19813350310E+03  0.33610659545E+03  0.39203966029E+03  0.10100000352E+00 0. -1.
       -3    1    3    3    0  502  0.38347835504E+02  0.19813350310E+03 -0.31843001213E+03  0.37699485986E+03  0.10100000352E+00 0.  1.
</event>
<event>
 5   0  0.8907355E-03  0.9821082E+03  0.7818609E-02  0.9328389E-01
        2   -1    0    0  501    0  0.00000000000E+00  0.00000000000E+00  0.15741924633E+04  0.15741924633E+04  0.25500000920E-02 0. -1.
       -2   -1    0    0    0  501  0.00000000000E+00  0.00000000000E+00 -0.15317958725E+03  0.15317958727E+03  0.25500000920E-02 0.  1.
    10030    2    1    2    0    0  0.00000000000E+00  0.00000000000E+00  0.14210128760E+04  0.17273720506E+04  0.98210824616E+03 0.  0.
        5    1    3    3  502    0 -0.46718716739E+03 -0.13882404960E+03  0.60532693960E+03  0.77716070405E+03  0.46999998093E+01 0.  1.
       -5    1    3    3    0  502  0.46718716739E+03  0.13882404960E+03  0.81568593644E+03  0.95021134650E+03  0.46999998093E+01 0. -1.
</event>
<event>
 5   0  0.8968798E-03  0.9853722E+03  0.7818609E-02  0.9324735E-01
        2   -1    0    0  501    0  0.00000000000E+00  0.00000000000E+00  0.31401513108E+03  0.31401513109E+03  0.25500000920E-02 0.  1.
       -2   -1    0    0    0  501  0.00000000000E+00  0.00000000000E+00 -0.77301881843E+03  0.77301881843E+03  0.25500000920E-02 0. -1.
    10030    2    1    2    0    0  0.00000000000E+00  0.00000000000E+00 -0.45900368735E+03  0.10870339495E+04  0.98537222532E+03 0.  0.
        2    1    3    3  502    0 -0.28079560259E+03 -0.22294319975E+03  0.14328139797E+03  0.38610801567E+03  0.25500000920E-02 0.  1.
       -2    1    3    3    0  502  0.28079560259E+03  0.22294319975E+03 -0.60228508532E+03  0.70092593386E+03  0.25500000920E-02 0. -1.
</event>
<event>
 5   0  0.8907355E-03  0.9966526E+03  0.7818609E-02  0.9312224E-01
       -2   -1    0    0    0  501  0.00000000000E+00  0.00000000000E+00  0.60368559439E+03  0.60368559439E+03  0.25500000920E-02 0.  1.
        2   -1    0    0  501    0  0.00000000000E+00  0.00000000000E+00 -0.41135499927E+03  0.41135499927E+03  0.25500000920E-02 0. -1.
    10030    2    1    2    0    0  0.00000000000E+00  0.00000000000E+00  0.19233059512E+03  0.10150405937E+04  0.99665257185E+03 0.  0.
        5    1    3    3  502    0 -0.19700518043E+03 -0.22231006435E+03  0.50363964936E+03  0.58472881940E+03  0.46999998093E+01 0.  1.
       -5    1    3    3    0  502  0.19700518043E+03  0.22231006435E+03 -0.31130905424E+03  0.43031177427E+03  0.46999998093E+01 0. -1.
</event>
<event>
 5   0  0.8968798E-03  0.9682190E+03  0.7818609E-02  0.9344105E-01
       -2   -1    0    0    0  501  0.00000000000E+00  0.00000000000E+00  0.20428398582E+03  0.20428398584E+03  0.25500000920E-02 0.  1.
        2   -1    0    0  501    0  0.00000000000E+00  0.00000000000E+00 -0.11472364130E+04  0.11472364130E+04  0.25500000920E-02 0. -1.
    10030    2    1    2    0    0  0.00000000000E+00  0.00000000000E+00 -0.94295242721E+03  0.13515203989E+04  0.96821903957E+03 0.  0.
        2    1    3    3  502    0  0.39976342744E+02  0.45756194733E+03 -0.68500972501E+03  0.82474200026E+03  0.25500000920E-02 0. -1.
       -2    1    3    3    0  502 -0.39976342744E+02 -0.45756194733E+03 -0.25794270220E+03  0.52677839861E+03  0.25500000920E-02 0.  1.
</event>
<event>
 5   0  0.8875655E-03  0.1010795E+04  0.7818609E-02  0.9296783E-01
        2   -1    0    0  501    0  0.00000000000E+00  0.00000000000E+00  0.16702412640E+04  0.16702412640E+04  0.25500000920E-02 0. -1.
       -2   -1    0    0    0  501  0.00000000000E+00  0.00000000000E+00 -0.15292807912E+03  0.15292807914E+03  0.25500000920E-02 0.  1.
    10030    2    1    2    0    0  0.00000000000E+00  0.00000000000E+00  0.15173131849E+04  0.18231693432E+04  0.10107953071E+04 0.  0.
        4    1    3    3  502    0 -0.73142784931E+02 -0.11017112748E+03 -0.12116650535E+03  0.17936130919E+03  0.12699999809E+01 0.  1.
       -4    1    3    3    0  502  0.73142784931E+02  0.11017112748E+03  0.16384796902E+04  0.16438080340E+04  0.12699999809E+01 0. -1.
</event>
<event>
 5   0  0.9040674E-03  0.9999993E+03  0.7818609E-02  0.9308546E-01
       -2   -1    0    0    0  501  0.00000000000E+00  0.00000000000E+00  0.14998685955E+03  0.14998685957E+03  0.25500000920E-02 0.  1.
        2   -1    0    0  501    0  0.00000000000E+00  0.00000000000E+00 -0.16668103001E+04  0.16668103001E+04  0.25500000920E-02 0. -1.
    10030    2    1    2    0    0  0.00000000000E+00  0.00000000000E+00 -0.15168234406E+04  0.18167971597E+04  0.99999928479E+03 0.  0.
        1    1    3    3  502    0  0.13524401104E+03 -0.46785258311E+03 -0.55268257495E+03  0.73663763868E+03  0.50400001928E-02 0.  1.
       -1    1    3    3    0  502 -0.13524401104E+03  0.46785258311E+03 -0.96414086562E+03  0.10801595210E+04  0.50400001928E-02 0. -1.
</event>
<event>
 5   0  0.5310275E-03  0.9901017E+03  0.7818609E-02  0.9319468E-01
        1   -1    0    0  501    0  0.00000000000E+00  0.00000000000E+00  0.36017014661E+03  0.36017014665E+03  0.50400001928E-02 0.  1.
       -1   -1    0    0    0  501  0.00000000000E+00  0.00000000000E+00 -0.68044318869E+03  0.68044318871E+03  0.50400001928E-02 0. -1.
    10030    2    1    2    0    0  0.00000000000E+00  0.00000000000E+00 -0.32027304207E+03  0.10406133354E+04  0.99010165753E+03 0.  0.
        1    1    3    3  502    0  0.46686702968E+03 -0.10760636171E+03 -0.29153654647E+02  0.47999363338E+03  0.50400001928E-02 0.  1.
       -1    1    3    3    0  502 -0.46686702968E+03  0.10760636171E+03 -0.29111938743E+03  0.56061970197E+03  0.50400001928E-02 0. -1.
</event>
<event>
 5   0  0.5072205E-03  0.9985029E+03  0.7818609E-02  0.9310188E-01
        1   -1    0    0  501    0  0.00000000000E+00  0.00000000000E+00  0.10343626541E+04  0.10343626542E+04  0.50400001928E-02 0.  1.
       -1   -1    0    0    0  501  0.00000000000E+00  0.00000000000E+00 -0.24097160834E+03  0.24097160839E+03  0.50400001928E-02 0. -1.
    10030    2    1    2    0    0  0.00000000000E+00  0.00000000000E+00  0.79339104580E+03  0.12753342625E+04  0.99850294424E+03 0.  0.
        5    1    3    3  502    0  0.48212489534E+03 -0.84393481902E+02  0.52225129643E+03  0.71577592940E+03  0.46999998093E+01 0. -1.
       -5    1    3    3    0  502 -0.48212489534E+03  0.84393481902E+02  0.27113974937E+03  0.55955833314E+03  0.46999998093E+01 0.  1.
</event>
<event>
 5   0  0.5201968E-03  0.8889740E+03  0.7818609E-02  0.9439470E-01
        1   -1    0    0  501    0  0.00000000000E+00  0.00000000000E+00  0.11394154461E+04  0.11394154461E+04  0.50400001928E-02 0. -1.
       -1   -1    0    0    0  501  0.00000000000E+00  0.00000000000E+00 -0.17339477858E+03  0.17339477865E+03  0.50400001928E-02 0.  1.
    10030    2    1    2    0    0  0.00000000000E+00  0.00000000000E+00  0.96602066748E+03  0.13128102247E+04  0.88897399070E+03 0.  0.
        2    1    3    3  502    0 -0.30240354055E+03  0.73214504431E+02  0.14242407426E+02  0.31146606745E+03  0.25500000920E-02 0.  1.
       -2    1    3    3    0  502  0.30240354055E+03 -0.73214504431E+02  0.95177826005E+03  0.10013441573E+04  0.25500000920E-02 0. -1.
</event>
<event>
 5   0  0.5072205E-03  0.1013575E+04  0.7818609E-02  0.9293781E-01
       -1   -1    0    0    0  501  0.00000000000E+00  0.00000000000E+00  0.28298299758E+03  0.28298299763E+03  0.50400001928E-02 0.  1.
        1   -1    0    0  501    0  0.00000000000E+00  0.00000000000E+00 -0.90759279669E+03  0.90759279670E+03  0.50400001928E-02 0. -1.
    10030    2    1    2    0    0  0.00000000000E+00  0.00000000000E+00 -0.62460979911E+03  0.11905757943E+04  0.10135745266E+04 0.  0.
        5    1    3    3  502    0  0.61509602475E+01  0.44628121882E+03 -0.30377666197E+02  0.44738088156E+03  0.46999998093E+01 0.  1.
       -5    1    3    3    0  502 -0.61509602475E+01 -0.44628121882E+03 -0.59423213291E+03  0.74319491277E+03  0.46999998093E+01 0. -1.
</event>
<event>
 5   0  0.9040674E-03  0.9979985E+03  0.7818609E-02  0.9310743E-01
        2   -1    0    0  501    0  0.00000000000E+00  0.00000000000E+00  0.16042281198E+04  0.16042281198E+04  0.25500000920E-02 0. -1.
       -2   -1    0    0    0  501  0.00000000000E+00  0.00000000000E+00 -0.15521498771E+03  0.15521498773E+03  0.25500000920E-02 0.  1.
    10030    2    1    2    0    0  0.00000000000E+00  0.00000000000E+00  0.14490131320E+04  0.17594431075E+04  0.99799849280E+03 0.  0.
        1    1    3    3  502    0  0.13449458945E+03  0.38700557892E+03  0.12266847639E+04  0.12932971904E+04  0.50400001928E-02 0. -1.
       -1    1    3    3    0  502 -0.13449458945E+03 -0.38700557892E+03  0.22232836815E+03  0.46614591708E+03  0.50400001928E-02 0.  1.
</event>
<event>
 5   0  0.8875655E-03  0.1017419E+04  0.7818609E-02  0.9289644E-01
        2   -1    0    0  501    0  0.00000000000E+00  0.00000000000E+00  0.26148499369E+03  0.26148499370E+03  0.25500000920E-02 0.  1.
       -2   -1    0    0    0  501  0.00000000000E+00  0.00000000000E+00 -0.98967503702E+03  0.98967503703E+03  0.25500000920E-02 0. -1.
    10030    2    1    2    0    0  0.00000000000E+00  0.00000000000E+00 -0.72819004333E+03  0.12511600307E+04  0.10174186372E+04 0.  0.
        4    1    3    3  502    0 -0.71191364180E+02  0.49203105973E+03 -0.23152940854E+03  0.54842524923E+03  0.12699999809E+01 0.  1.
       -4    1    3    3    0  502  0.71191364180E+02 -0.49203105973E+03 -0.49666063480E+03  0.70273478150E+03  0.12699999809E+01 0. -1.
</event>
<event>
 5   0  0.5349685E-03  0.1004169E+04  0.7818609E-02  0.9303984E-01
       -1   -1    0    0    0  501  0.00000000000E+00  0.00000000000E+00  0.28882311575E+03  0.28882311579E+03  0.50400001928E-02 0. -1.
        1   -1    0    0  501    0  0.00000000000E+00  0.00000000000E+00 -0.87281343338E+03  0.87281343340E+03  0.50400001928E-02 0.  1.
    10030    2    1    2    0    0  0.00000000000E+00  0.00000000000E+00 -0.58399031763E+03  0.11616365492E+04  0.10041687016E+04 0.  0.
        4    1    3    3  502    0 -0.31834941167E+03 -0.31581650575E+03 -0.30748030997E+02  0.44948133168E+03  0.12699999809E+01 0. -1.
       -4    1    3    3    0  502  0.31834941167E+03  0.31581650575E+03 -0.55324228664E+03  0.71215521752E+03  0.12699999809E+01 0.  1.
</event>
<event>
 5   0  0.5201968E-03  0.9850181E+03  0.7818609E-02  0.9325131E-01
        1   -1    0    0  501    0  0.00000000000E+00  0.00000000000E+00  0.40439342680E+03  0.40439342683E+03  0.50400001928E-02 0.  1.
       -1   -1    0    0    0  501  0.00000000000E+00  0.00000000000E+00 -0.59982470296E+03  0.59982470298E+03  0.50400001928E-02 0. -1.
    10030    2    1    2    0    0  0.00000000000E+00  0.00000000000E+00 -0.19543127617E+03  0.10042181298E+04  0.98501810569E+03 0.  0.
        2    1    3    3  502    0  0.44706984181E+03  0.70839147417E+02 -0.29560095950E+03  0.54061960336E+03  0.25500000920E-02 0. -1.
       -2    1    3    3    0  502 -0.44706984181E+03 -0.70839147417E+02  0.10016968334E+03  0.46359852646E+03  0.25500000920E-02 0.  1.
</event>
<event>
 5   0  0.5201968E-03  0.1030358E+04  0.7818609E-02  0.9275862E-01
        1   -1    0    0  501    0  0.00000000000E+00  0.00000000000E+00  0.88083381447E+03  0.88083381448E+03  0.50400001928E-02 0.  1.
       -1   -1    0    0    0  501  0.00000000000E+00  0.00000000000E+00 -0.30131591728E+03  0.30131591733E+03  0.50400001928E-02 0. -1.
    10030    2    1    2    0    0  0.00000000000E+00  0.00000000000E+00  0.57951789718E+03  0.11821497318E+04  0.10303577026E+04 0.  0.
        2    1    3    3  502    0 -0.41162467789E+03  0.32311583992E+02  0.64325695791E+03  0.76436799241E+03  0.25500000920E-02 0. -1.
       -2    1    3    3    0  502  0.41162467789E+03 -0.32311583992E+02 -0.63739060728E+02  0.41778173940E+03  0.25500000920E-02 0.  1.
</event>
<event>
 5   0  0.8968798E-03  0.1012371E+04  0.7818609E-02  0.9295079E-01
       -2   -1    0    0    0  501  0.00000000000E+00  0.00000000000E+00  0.33917081423E+03  0.33917081424E+03  0.25500000920E-02 0. -1.
        2   -1    0    0  501    0  0.00000000000E+00  0.00000000000E+00 -0.75544211825E+03  0.75544211825E+03  0.25500000920E-02 0.  1.
    10030    2    1    2    0    0  0.00000000000E+00  0.00000000000E+00 -0.41627130401E+03  0.10946129325E+04  0.10123713120E+04 0.  0.
        2    1    3    3  502    0 -0.32021099599E+03  0.29968550424E+03  0.65135935139E+02  0.44338377672E+03  0.25500000920E-02 0. -1.
       -2    1    3    3    0  502  0.32021099599E+03 -0.29968550424E+03 -0.48140723915E+03  0.65122915577E+03  0.25500000920E-02 0.  1.
</event>
<event>
 5   0  0.5310275E-03  0.8052595E+03  0.7818609E-02  0.9552435E-01
       -1   -1    0    0    0  501  0.00000000000E+00  0.00000000000E+00  0.16943798392E+03  0.16943798400E+03  0.50400001928E-02 0. -1.
        1   -1    0    0  501    0  0.00000000000E+00  0.00000000000E+00 -0.95675544245E+03  0.95675544247E+03  0.50400001928E-02 0.  1.
    10030    2    1    2    0    0  0.00000000000E+00  0.00000000000E+00 -0.78731745853E+03  0.11261934265E+04  0.80525949439E+03 0.  0.
        1    1    3    3  502    0  0.11425521881E+02  0.27437788476E+03 -0.80545180183E+03  0.85097965386E+03  0.50400001928E-02 0.  1.
       -1    1    3    3    0  502 -0.11425521881E+02 -0.27437788476E+03  0.18134343302E+02  0.27521377260E+03  0.50400001928E-02 0. -1.
</event>
<event>
 5   0  0.5201968E-03  0.1068971E+04  0.7818609E-02  0.9235974E-01
       -1   -1    0    0    0  501  0.00000000000E+00  0.00000000000E+00  0.46099472543E+03  0.46099472545E+03  0.50400001928E-02 0. -1.
        1   -1    0    0  501    0  0.00000000000E+00  0.00000000000E+00 -0.61969205662E+03  0.61969205664E+03  0.50400001928E-02 0.  1.
    10030    2    1    2    0    0  0.00000000000E+00  0.00000000000E+00 -0.15869733119E+03  0.10806867821E+04  0.10689710371E+04 0.  0.
        2    1    3    3  502    0  0.27423486859E+03 -0.34107253190E+03 -0.38953304548E+03  0.58589353016E+03  0.25500000920E-02 0.  1.
       -2    1    3    3    0  502 -0.27423486859E+03  0.34107253190E+03  0.23083571428E+03  0.49479325193E+03  0.25500000920E-02 0. -1.
</event>
<event>
 5   0  0.5189877E-03  0.9998499E+03  0.7818609E-02  0.9308709E-01
       -1   -1    0    0    0  501  0.00000000000E+00  0.00000000000E+00  0.43483263682E+03  0.43483263685E+03  0.50400001928E-02 0. -1.
        1   -1    0    0  501    0  0.00000000000E+00  0.00000000000E+00 -0.57476124637E+03  0.57476124639E+03  0.50400001928E-02 0.  1.
    10030    2    1    2    0    0  0.00000000000E+00  0.00000000000E+00 -0.13992860955E+03  0.10095938832E+04  0.99984988538E+03 0.  0.
        3    1    3    3  502    0 -0.95807954876E+02 -0.48949401979E+03 -0.10407784197E+03  0.50952504062E+03  0.10100000352E+00 0.  1.
       -3    1    3    3    0  502  0.95807954876E+02  0.48949401979E+03 -0.35850767577E+02  0.50006884262E+03  0.10100000352E+00 0. -1.
</event>
<event>
 5   0  0.5349685E-03  0.1010275E+04  0.7818609E-02  0.9297347E-01
        1   -1    0    0  501    0  0.00000000000E+00  0.00000000000E+00  0.92282566805E+03  0.92282566807E+03  0.50400001928E-02 0.  1.
       -1   -1    0    0    0  501  0.00000000000E+00  0.00000000000E+00 -0.27650271945E+03  0.27650271950E+03  0.50400001928E-02 0. -1.
    10030    2    1    2    0    0  0.00000000000E+00  0.00000000000E+00  0.64632294860E+03  0.11993283876E+04  0.10102748276E+04 0.  0.
        4    1    3    3  502    0 -0.40745634525E+03  0.16212965943E+03  0.62078701944E+03  0.76005581122E+03  0.12699999809E+01 0.  1.
       -4    1    3    3    0  502  0.40745634525E+03 -0.16212965943E+03  0.25535929159E+02  0.43927257635E+03  0.12699999809E+01 0. -1.
</event>
<event>
 5   0  0.8875655E-03  0.9724426E+03  0.7818609E-02  0.9339297E-01
        2   -1    0    0  501    0  0.00000000000E+00  0.00000000000E+00  0.67978146034E+03  0.67978146034E+03  0.25500000920E-02 0.  1.
       -2   -1    0    0    0  501  0.00000000000E+00  0.00000000000E+00 -0.34777521218E+03  0.34777521218E+03  0.25500000920E-02 0. -1.
    10030    2    1    2    0    0  0.00000000000E+00  0.00000000000E+00  0.33200624816E+03  0.10275566725E+04  0.97244257745E+03 0.  0.
        4    1    3    3  502    0 -0.31299664877E+03  0.16945873153E+03 -0.18402046512E+03  0.40068479921E+03  0.12699999809E+01 0. -1.
       -4    1    3    3    0  502  0.31299664877E+03 -0.16945873153E+03  0.51602671328E+03  0.62687187332E+03  0.12699999809E+01 0.  1.
</event>
<event>
 5   0  0.8968798E-03  0.1005400E+04  0.7818609E-02  0.9302642E-01
        2   -1    0    0  501    0  0.00000000000E+00  0.00000000000E+00  0.79219437754E+03  0.79219437754E+03  0.25500000920E-02 0. -1.
       -2   -1    0    0    0  501  0.00000000000E+00  0.00000000000E+00 -0.31899644632E+03  0.31899644633E+03  0.25500000920E-02 0.  1.
    10030    2    1    2    0    0  0.00000000000E+00  0.00000000000E+00  0.47319793122E+03  0.11111908239E+04  0.10053998035E+04 0.  0.
        2    1    3    3  502    0  0.28280049162E+03 -0.30679196859E+03 -0.73277139626E+02  0.42363542020E+03  0.25500000920E-02 0.  1.
       -2    1    3    3    0  502 -0.28280049162E+03  0.30679196859E+03  0.54647507085E+03  0.68755540367E+03  0.25500000920E-02 0. -1.
</event>
<event>
 5   0  0.8907355E-03  0.9996705E+03  0.7818609E-02  0.9308906E-01
        2   -1    0    0  501    0  0.00000000000E+00  0.00000000000E+00  0.20444180360E+03  0.20444180362E+03  0.25500000920E-02 0. -1.
       -2   -1    0    0    0  501  0.00000000000E+00  0.00000000000E+00 -0.12220360803E+04  0.12220360803E+04  0.25500000920E-02 0.  1.
    10030    2    1    2    0    0  0.00000000000E+00  0.00000000000E+00 -0.10175942767E+04  0.14264778839E+04  0.99967046639E+03 0.  0.
        5    1    3    3  502    0  0.27823514602E+02 -0.39730013792E+03 -0.77888050854E+02  0.40584502709E+03  0.46999998093E+01 0. -1.
       -5    1    3    3    0  502 -0.27823514602E+02  0.39730013792E+03 -0.93970622586E+03  0.10206328568E+04  0.46999998093E+01 0.  1.
</event>
<event>
 5   0  0.9243773E-03  0.1021260E+04  0.7818609E-02  0.9285530E-01
       -2   -1    0    0    0  501  0.00000000000E+00  0.00000000000E+00  0.69801952709E+03  0.69801952709E+03  0.25500000920E-02 0.  1.
        2   -1    0    0  501    0  0.00000000000E+00  0.00000000000E+00 -0.37354683501E+03  0.37354683502E+03  0.25500000920E-02 0. -1.
    10030    2    1    2    0    0  0.00000000000E+00  0.00000000000E+00  0.32447269208E+03  0.10715663621E+04  0.10212599769E+04 0.  0.
        3    1    3    3  502    0  0.27383151380E+03  0.49509288604E+02  0.61147135797E+03  0.67181254783E+03  0.10100000352E+00 0.  1.
       -3    1    3    3    0  502 -0.27383151380E+03 -0.49509288604E+02 -0.28699866589E+03  0.39975381428E+03  0.10100000352E+00 0. -1.
</event>
<event>
 5   0  0.9040674E-03  0.9974533E+03  0.7818609E-02  0.9311342E-01
        2   -1    0    0  501    0  0.00000000000E+00  0.00000000000E+00  0.21135984010E+04  0.21135984010E+04  0.25500000920E-02 0. -1.
       -2   -1    0    0    0  501  0.00000000000E+00  0.00000000000E+00 -0.11768000134E+03  0.11768000137E+03  0.25500000920E-02 0.  1.
    10030    2    1    2    0    0  0.00000000000E+00  0.00000000000E+00  0.19959183996E+04  0.22312784023E+04  0.99745328250E+03 0.  0.
        1    1    3    3  502    0  0.38109260632E+03 -0.32718295365E+02  0.28203551430E+03  0.47523267228E+03  0.50400001928E-02 0.  1.
       -1    1    3    3    0  502 -0.38109260632E+03  0.32718295365E+02  0.17138828853E+04  0.17560457300E+04  0.50400001928E-02 0. -1.
</event>
<event>
 5   0  0.5189877E-03  0.9885123E+03  0.7818609E-02  0.9321235E-01
        1   -1    0    0  501    0  0.00000000000E+00  0.00000000000E+00  0.11296977597E+04  0.11296977598E+04  0.50400001928E-02 0.  1.
       -1   -1    0    0    0  501  0.00000000000E+00  0.00000000000E+00 -0.21624291837E+03  0.21624291843E+03  0.50400001928E-02 0. -1.
    10030    2    1    2    0    0  0.00000000000E+00  0.00000000000E+00  0.91345484138E+03  0.13459406782E+04  0.98851229732E+03 0.  0.
        3    1    3    3  502    0 -0.89607559840E+02  0.43588429938E+03  0.74959260529E+03  0.87173030309E+03  0.10100000352E+00 0.  1.
       -3    1    3    3    0  502  0.89607559840E+02 -0.43588429938E+03  0.16386223609E+03  0.47421037509E+03  0.10100000352E+00 0. -1.
</event>
<event>
 5   0  0.5189877E-03  0.1111697E+04  0.7818609E-02  0.9193866E-01
       -1   -1    0    0    0  501  0.00000000000E+00  0.00000000000E+00  0.28466009689E+03  0.28466009694E+03  0.50400001928E-02 0.  1.
        1   -1    0    0  501    0  0.00000000000E+00  0.00000000000E+00 -0.10853905096E+04  0.10853905096E+04  0.50400001928E-02 0. -1.
    10030    2    1    2    0    0  0.00000000000E+00  0.00000000000E+00 -0.80073041268E+03  0.13700506065E+04  0.11116966631E+04 0.  0.
        3    1    3    3  502    0  0.18407847737E+03 -0.63088954176E+02 -0.10420427970E+04  0.10600558018E+04  0.10100000352E+00 0. -1.
       -3    1    3    3    0  502 -0.18407847737E+03  0.63088954176E+02  0.24131238428E+03  0.30999480476E+03  0.10100000352E+00 0.  1.
</event>
<event>
 5   0  0.8907355E-03  0.1002102E+04  0.7818609E-02  0.9306242E-01
       -2   -1    0    0    0  501  0.00000000000E+00  0.00000000000E+00  0.35984506076E+03  0.35984506077E+03  0.25500000920E-02 0. -1.
        2   -1    0    0  501    0  0.00000000000E+00  0.00000000000E+00 -0.69766745100E+03  0.69766745101E+03  0.25500000920E-02 0.  1.
    10030    2    1    2    0    0  0.00000000000E+00  0.00000000000E+00 -0.33782239025E+03  0.10575125118E+04  0.10021021631E+04 0.  0.
        5    1    3    3  502    0  0.84736192375E+02  0.22035354850E+02 -0.68950855970E+03  0.69506109304E+03  0.46999998093E+01 0.  1.
       -5    1    3    3    0  502 -0.84736192375E+02 -0.22035354850E+02  0.35168616945E+03  0.36245141874E+03  0.46999998093E+01 0. -1.
</event>
<event>
 5   0  0.5349685E-03  0.9969766E+03  0.7818609E-02  0.9311867E-01
       -1   -1    0    0    0  501  0.00000000000E+00  0.00000000000E+00  0.10202722439E+04  0.10202722439E+04  0.50400001928E-02 0. -1.
        1   -1    0    0  501    0  0.00000000000E+00  0.00000000000E+00 -0.24355319625E+03  0.24355319630E+03  0.50400001928E-02 0.  1.
    10030    2    1    2    0    0  0.00000000000E+00  0.00000000000E+00  0.77671904763E+03  0.12638254402E+04  0.99697656157E+03 0.  0.
        4    1    3    3  502    0 -0.23506995085E+03 -0.40428070208E+03  0.60714786139E+03  0.76637517337E+03  0.12699999809E+01 0. -1.
       -4    1    3    3    0  502  0.23506995085E+03  0.40428070208E+03  0.16957118625E+03  0.49745026683E+03  0.12699999809E+01 0.  1.
</event>
<event>
 5   0  0.9040674E-03  0.1010098E+04  0.7818609E-02  0.9297539E-01
        2   -1    0    0  501    0  0.00000000000E+00  0.00000000000E+00  0.27288198040E+03  0.27288198041E+03  0.25500000920E-02 0. -1.
       -2   -1    0    0    0  501  0.00000000000E+00  0.00000000000E+00 -0.93474241747E+03  0.93474241748E+03  0.25500000920E-02 0.  1.
    10030    2    1    2    0    0  0.00000000000E+00  0.00000000000E+00 -0.66186043708E+03  0.12076243979E+04  0.10100977419E+04 0.  0.
        1    1    3    3  502    0 -0.28417237065E+03  0.32357202076E+03 -0.15473054625E+02  0.43092018322E+03  0.50400001928E-02 0. -1.
       -1    1    3    3    0  502  0.28417237065E+03 -0.32357202076E+03 -0.64638738245E+03  0.77670421467E+03  0.50400001928E-02 0.  1.
</event>
<event>
 5   0  0.9243773E-03  0.1028829E+04  0.7818609E-02  0.9277478E-01
       -2   -1    0    0    0  501  0.00000000000E+00  0.00000000000E+00  0.17735389053E+03  0.17735389055E+03  0.25500000920E-02 0.  1.
        2   -1    0    0  501    0  0.00000000000E+00  0.00000000000E+00 -0.14920588267E+04  0.14920588267E+04  0.25500000920E-02 0. -1.
    10030    2    1    2    0    0  0.00000000000E+00  0.00000000000E+00 -0.13147049362E+04  0.16694127172E+04  0.10288293111E+04 0.  0.
        3    1    3    3  502    0 -0.12457949284E+03 -0.19015648468E+03  0.91423607595E+02  0.24502617192E+03  0.10100000352E+00 0.  1.
       -3    1    3    3    0  502  0.12457949284E+03  0.19015648468E+03 -0.14061285438E+04  0.14243865453E+04  0.10100000352E+00 0. -1.
</event>
<event>
 5   0  0.3513625E-03  0.1009322E+04  0.7818609E-02  0.9298379E-01
        3   -1    0    0  501    0  0.00000000000E+00  0.00000000000E+00  0.91623338104E+03  0.91623338661E+03  0.10100000352E+00 0.  1.
       -3   -1    0    0    0  501  0.00000000000E+00  0.00000000000E+00 -0.27796727230E+03  0.27796729065E+03  0.10100000352E+00 0. -1.
    10030    2    1    2    0    0  0.00000000000E+00  0.00000000000E+00  0.63826610874E+03  0.11942006773E+04  0.10093223628E+04 0.  0.
        3    1    3    3  502    0  0.25979502412E+03  0.40142782500E+03  0.51007915923E+03  0.69915557076E+03  0.10100000352E+00 0. -1.
       -3    1    3    3    0  502 -0.25979502412E+03 -0.40142782500E+03  0.12818694951E+03  0.49504510650E+03  0.10100000352E+00 0.  1.
</event>
<event>
 5   0  0.5310275E-03  0.1012597E+04  0.7818609E-02  0.9294835E-01
       -1   -1    0    0    0  501  0.00000000000E+00  0.00000000000E+00  0.15146723989E+04  0.15146723989E+04  0.50400001928E-02 0. -1.
        1   -1    0    0  501    0  0.00000000000E+00  0.00000000000E+00 -0.16923683560E+03  0.16923683568E+03  0.50400001928E-02 0.  1.
    10030    2    1    2    0    0  0.00000000000E+00  0.00000000000E+00  0.13454355633E+04  0.16839092346E+04  0.10125973807E+04 0.  0.
        1    1    3    3  502    0 -0.50457302445E+03  0.36325536969E+02  0.70699583318E+03  0.86934261934E+03  0.50400001928E-02 0.  1.
       -1    1    3    3    0  502  0.50457302445E+03 -0.36325536969E+02  0.63843973009E+03  0.81456661522E+03  0.50400001928E-02 0. -1.
</event>
<event>
 5   0  0.9243773E-03  0.9855433E+03  0.7818609E-02  0.9324544E-01
       -2   -1    0    0    0  501  0.00000000000E+00  0.00000000000E+00  0.24595958716E+03  0.24595958717E+03  0.25500000920E-02 0.  1.
        2   -1    0    0  501    0  0.00000000000E+00  0.00000000000E+00 -0.98725113609E+03  0.98725113609E+03  0.25500000920E-02 0. -1.
    10030    2    1    2    0    0  0.00000000000E+00  0.00000000000E+00 -0.74129154892E+03  0.12332107233E+04  0.98554326514E+03 0.  0.
        3    1    3    3  502    0 -0.41230177319E+03 -0.11333293762E+03 -0.64174822128E+02  0.43238353914E+03  0.10100000352E+00 0.  1.
       -3    1    3    3    0  502  0.41230177319E+03  0.11333293762E+03 -0.67711672680E+03  0.80082718412E+03  0.10100000352E+00 0. -1.
</event>
<event>
 5   0  0.9040674E-03  0.1010556E+04  0.7818609E-02  0.9297042E-01
        2   -1    0    0  501    0  0.00000000000E+00  0.00000000000E+00  0.14222284009E+04  0.14222284009E+04  0.25500000920E-02 0.  1.
       -2   -1    0    0    0  501  0.00000000000E+00  0.00000000000E+00 -0.17951110751E+03  0.17951110753E+03  0.25500000920E-02 0. -1.
    10030    2    1    2    0    0  0.00000000000E+00  0.00000000000E+00  0.12427172934E+04  0.16017395084E+04  0.10105558775E+04 0.  0.
        1    1    3    3  502    0  0.12732889038E+03  0.34940725857E+02  0.13944013527E+04  0.14006386518E+04  0.50400001928E-02 0.  1.
       -1    1    3    3    0  502 -0.12732889038E+03 -0.34940725857E+02 -0.15168405929E+03  0.20110085658E+03  0.50400001928E-02 0. -1.
</event>
<event>
 5   0  0.5201968E-03  0.9999390E+03  0.7818609E-02  0.9308612E-01
       -1   -1    0    0    0  501  0.00000000000E+00  0.00000000000E+00  0.25804701380E+03  0.25804701385E+03  0.50400001928E-02 0.  1.
        1   -1    0    0  501    0  0.00000000000E+00  0.00000000000E+00 -0.96869756710E+03  0.96869756712E+03  0.50400001928E-02 0. -1.
    10030    2    1    2    0    0  0.00000000000E+00  0.00000000000E+00 -0.71065055330E+03  0.12267445810E+04  0.99993902715E+03 0.  0.
        2    1    3    3  502    0 -0.67328190897E+02 -0.33989381686E+03 -0.79750580877E+03  0.86952654190E+03  0.25500000920E-02 0. -1.
       -2    1    3    3    0  502  0.67328190897E+02  0.33989381686E+03  0.86855255470E+02  0.35721803907E+03  0.25500000920E-02 0.  1.
</event>
<event>
 5   0  0.8875655E-03  0.1015883E+04  0.7818609E-02  0.9291294E-01
        2   -1    0    0  501    0  0.00000000000E+00  0.00000000000E+00  0.22154067215E+04  0.22154067215E+04  0.25500000920E-02 0.  1.
       -2   -1    0    0    0  501  0.00000000000E+00  0.00000000000E+00 -0.11645933327E+03  0.11645933330E+03  0.25500000920E-02 0. -1.
    10030    2    1    2    0    0  0.00000000000E+00  0.00000000000E+00  0.20989473883E+04  0.23318660548E+04  0.10158834377E+04 0.  0.
        4    1    3    3  502    0  0.19229339472E+03  0.21315087820E+03  0.87610113867E+02  0.30014528396E+03  0.12699999809E+01 0. -1.
       -4    1    3    3    0  502 -0.19229339472E+03 -0.21315087820E+03  0.20113372744E+04  0.20317207709E+04  0.12699999809E+01 0.  1.
</event>
<event>
 5   0  0.8968798E-03  0.9950380E+03  0.7818609E-02  0.9314004E-01
        2   -1    0    0  501    0  0.00000000000E+00  0.00000000000E+00  0.12339289751E+04  0.12339289751E+04  0.25500000920E-02 0. -1.
       -2   -1    0    0    0  501  0.00000000000E+00  0.00000000000E+00 -0.20059918794E+03  0.20059918795E+03  0.25500000920E-02 0.  1.
    10030    2    1    2    0    0  0.00000000000E+00  0.00000000000E+00  0.10333297872E+04  0.14345281631E+04  0.99503799001E+03 0.  0.
        2    1    3    3  502    0  0.81529686237E+02 -0.25737008776E+03  0.11191407668E+04  0.11512438959E+04  0.25500000920E-02 0. -1.
       -2    1    3    3    0  502 -0.81529686237E+02  0.25737008776E+03 -0.85810979645E+02  0.28328426720E+03  0.25500000920E-02 0.  1.
</event>
<event>
 5   0  0.5189877E-03  0.1032959E+04  0.7818609E-02  0.9273117E-01
       -1   -1    0    0    0  501  0.00000000000E+00  0.00000000000E+00  0.11145790237E+04  0.11145790237E+04  0.50400001928E-02 0. -1.
        1   -1    0    0  501    0  0.00000000000E+00  0.00000000000E+00 -0.23932904699E+03  0.23932904704E+03  0.50400001928E-02 0.  1.
    10030    2    1    2    0    0  0.00000000000E+00  0.00000000000E+00  0.87524997668E+03  0.13539080707E+04  0.10329591194E+04 0.  0.
        3    1    3    3  502    0 -0.27231514370E+03  0.15670120166E+03  0.97491998276E+03  0.10242947755E+04  0.10100000352E+00 0. -1.
       -3    1    3    3    0  502  0.27231514370E+03 -0.15670120166E+03 -0.99670006078E+02  0.32961329524E+03  0.10100000352E+00 0.  1.
</event>
<event>
 5   0  0.5349685E-03  0.1068862E+04  0.7818609E-02  0.9236084E-01
        1   -1    0    0  501    0  0.00000000000E+00  0.00000000000E+00  0.20173641768E+03  0.20173641774E+03  0.50400001928E-02 0. -1.
       -1   -1    0    0    0  501  0.00000000000E+00  0.00000000000E+00 -0.14157898317E+04  0.14157898317E+04  0.50400001928E-02 0.  1.
    10030    2    1    2    0    0  0.00000000000E+00  0.00000000000E+00 -0.12140534140E+04  0.16175262494E+04  0.10688617664E+04 0.  0.
        4    1    3    3  502    0  0.12669411954E+03  0.39595983431E+03 -0.11152379089E+04  0.11902070394E+04  0.12699999809E+01 0.  1.
       -4    1    3    3    0  502 -0.12669411954E+03 -0.39595983431E+03 -0.98815505104E+02  0.42731921003E+03  0.12699999809E+01 0. -1.
</event>
<event>
 5   0  0.5072205E-03  0.1002391E+04  0.7818609E-02  0.9305926E-01
        1   -1    0    0  501    0  0.00000000000E+00  0.00000000000E+00  0.23350761996E+04  0.23350761996E+04  0.50400001928E-02 0. -1.
       -1   -1    0    0    0  501  0.00000000000E+00  0.00000000000E+00 -0.10757556689E+03  0.10757556701E+03  0.50400001928E-02 0.  1.
    10030    2    1    2    0    0  0.00000000000E+00  0.00000000000E+00  0.22275006327E+04  0.24426517666E+04  0.10023914327E+04 0.  0.
        5    1    3    3  502    0 -0.36495759365E+03  0.13169175578E+03  0.18867972114E+04  0.19262820590E+04  0.46999998093E+01 0. -1.
       -5    1    3    3    0  502  0.36495759365E+03 -0.13169175578E+03  0.34070342132E+03  0.51636970767E+03  0.46999998093E+01 0.  1.
</event>
<event>
 5   0  0.5349685E-03  0.1009507E+04  0.7818609E-02  0.9298179E-01
        1   -1    0    0  501    0  0.00000000000E+00  0.00000000000E+00  0.33434081706E+03  0.33434081710E+03  0.50400001928E-02 0. -1.
       -1   -1    0    0    0  501  0.00000000000E+00  0.00000000000E+00 -0.76202500357E+03  0.76202500359E+03  0.50400001928E-02 0.  1.
    10030    2    1    2    0    0  0.00000000000E+00  0.00000000000E+00 -0.42768418651E+03  0.10963658207E+04  0.10095069338E+04 0.  0.
        4    1    3    3  502    0  0.17895108358E+03  0.39912669257E+03  0.59721332221E+02  0.44146784419E+03  0.12699999809E+01 0. -1.
       -4    1    3    3    0  502 -0.17895108358E+03 -0.39912669257E+03 -0.48740551873E+03  0.65489797650E+03  0.12699999809E+01 0.  1.
</event>
<event>
 5   0  0.5310275E-03  0.1015348E+04  0.7818609E-02  0.9291869E-01
        1   -1    0    0  501    0  0.00000000000E+00  0.00000000000E+00  0.55630005652E+03  0.55630005655E+03  0.50400001928E-02 0. -1.
       -1   -1    0    0    0  501  0.00000000000E+00  0.00000000000E+00 -0.46329864107E+03  0.46329864109E+03  0.50400001928E-02 0.  1.
    10030    2    1    2    0    0  0.00000000000E+00  0.00000000000E+00  0.93001415456E+02  0.10195986976E+04  0.10153483348E+04 0.  0.
        1    1    3    3  502    0  0.39561353002E+03  0.71984213839E+02  0.35770326270E+03  0.53818529927E+03  0.50400001928E-02 0. -1.
       -1    1    3    3    0  502 -0.39561353002E+03 -0.71984213839E+02 -0.26470184724E+03  0.48141339837E+03  0.50400001928E-02 0.  1.
</event>
<event>
 5   0  0.8907355E-03  0.1023082E+04  0.7818609E-02  0.9283584E-01
        2   -1    0    0  501    0  0.00000000000E+00  0.00000000000E+00  0.16036783395E+04  0.16036783395E+04  0.25500000920E-02 0.  1.
       -2   -1    0    0    0  501  0.00000000000E+00  0.00000000000E+00 -0.16317140431E+03  0.16317140433E+03  0.25500000920E-02 0. -1.
    10030    2    1    2    0    0  0.00000000000E+00  0.00000000000E+00  0.14405069351E+04  0.17668497438E+04  0.10230824927E+04 0.  0.
        5    1    3    3  502    0  0.41782250393E+02 -0.48952826587E+03  0.47438566036E+03  0.68296963643E+03  0.46999998093E+01 0. -1.
       -5    1    3    3    0  502 -0.41782250393E+02  0.48952826587E+03  0.96612127478E+03  0.10838801074E+04  0.46999998093E+01 0.  1.
</event>
<event>
 5   0  0.5349685E-03  0.9826923E+03  0.7818609E-02  0.9327734E-01
       -1   -1    0    0    0  501  0.00000000000E+00  0.00000000000E+00  0.22943366263E+03  0.22943366268E+03  0.50400001928E-02 0.  1.
        1   -1    0    0  501    0  0.00000000000E+00  0.00000000000E+00 -0.10522477081E+04  0.10522477081E+04  0.50400001928E-02 0. -1.
    10030    2    1    2    0    0  0.00000000000E+00  0.00000000000E+00 -0.82281404545E+03  0.12816813708E+04  0.98269231339E+03 0.  0.
        4    1    3    3  502    0  0.39326158795E+03 -0.57831292575E+02 -0.78810941734E+03  0.88267615894E+03  0.12699999809E+01 0. -1.
       -4    1    3    3    0  502 -0.39326158795E+03  0.57831292575E+02 -0.34704628112E+02  0.39900521184E+03  0.12699999809E+01 0.  1.
</event>
<event>
 5   0  0.3513625E-03  0.1012728E+04  0.7818609E-02  0.9294694E-01
       -4   -1    0    0    0  501  0.00000000000E+00  0.00000000000E+00  0.50852214762E+03  0.50852373348E+03  0.12699999809E+01 0. -1.
        4   -1    0    0  501    0  0.00000000000E+00  0.00000000000E+00 -0.50421149000E+03  0.50421308942E+03  0.12699999809E+01 0.  1.
    10030    2    1    2    0    0  0.00000000000E+00  0.00000000000E+00  0.43106576178E+01  0.10127368229E+04  0.10127276488E+04 0.  0.
        2    1    3    3  502    0 -0.44379279389E+03 -0.90231349224E+02 -0.22436511620E+03  0.50540423985E+03  0.25500000920E-02 0.  1.
       -2    1    3    3    0  502  0.44379279389E+03  0.90231349224E+02  0.22867577382E+03  0.50733258305E+03  0.25500000920E-02 0. -1.
</event>
<event>
 5   0  0.9243773E-03  0.9983357E+03  0.7818609E-02  0.9310372E-01
       -2   -1    0    0    0  501  0.00000000000E+00  0.00000000000E+00  0.12232115350E+03  0.12232115353E+03  0.25500000920E-02 0.  1.
        2   -1    0    0  501    0  0.00000000000E+00  0.00000000000E+00 -0.20370027867E+04  0.20370027867E+04  0.25500000920E-02 0. -1.
    10030    2    1    2    0    0  0.00000000000E+00  0.00000000000E+00 -0.19146816332E+04  0.21593239402E+04  0.99833567618E+03 0.  0.
        3    1    3    3  502    0 -0.43310853056E+03 -0.77337198103E+02 -0.14673712560E+04  0.15319081091E+04  0.10100000352E+00 0. -1.
       -3    1    3    3    0  502  0.43310853056E+03  0.77337198103E+02 -0.44731037719E+03  0.62741583117E+03  0.10100000352E+00 0.  1.
</event>
<event>
 5   0  0.9243773E-03  0.8694917E+03  0.7818609E-02  0.9464543E-01
        2   -1    0    0  501    0  0.00000000000E+00  0.00000000000E+00  0.21768293160E+04  0.21768293160E+04  0.25500000920E-02 0.  1.
       -2   -1    0    0    0  501  0.00000000000E+00  0.00000000000E+00 -0.86825343355E+02  0.86825343392E+02  0.25500000920E-02 0. -1.
    10030    2    1    2    0    0  0.00000000000E+00  0.00000000000E+00  0.20900039726E+04  0.22636546594E+04  0.86949169709E+03 0.  0.
        3    1    3    3  502    0  0.10264055514E+03  0.29612498982E+03  0.18294010561E+04  0.18560531586E+04  0.10100000352E+00 0.  1.
       -3    1    3    3    0  502 -0.10264055514E+03 -0.29612498982E+03  0.26060291652E+03  0.40760150081E+03  0.10100000352E+00 0. -1.
</event>
<event>
 5   0  0.5072205E-03  0.1012883E+04  0.7818609E-02  0.9294527E-01
        1   -1    0    0  501    0  0.00000000000E+00  0.00000000000E+00  0.63416186045E+03  0.63416186047E+03  0.50400001928E-02 0. -1.
       -1   -1    0    0    0  501  0.00000000000E+00  0.00000000000E+00 -0.40444389383E+03  0.40444389386E+03  0.50400001928E-02 0.  1.
    10030    2    1    2    0    0  0.00000000000E+00  0.00000000000E+00  0.22971796662E+03  0.10386057543E+04  0.10128828011E+04 0.  0.
        5    1    3    3  502    0  0.19931435399E+03  0.42432398329E+03  0.31125305606E+03  0.56274115667E+03  0.46999998093E+01 0. -1.
       -5    1    3    3    0  502 -0.19931435399E+03 -0.42432398329E+03 -0.81535089434E+02  0.47586459767E+03  0.46999998093E+01 0.  1.
</event>
<event>
 5   0  0.8907355E-03  0.1006712E+04  0.7818609E-02  0.9301214E-01
        2   -1    0    0  501    0  0.00000000000E+00  0.00000000000E+00  0.56803195500E+03  0.56803195500E+03  0.25500000920E-02 0. -1.
       -2   -1    0    0    0  501  0.00000000000E+00  0.00000000000E+00 -0.44604408386E+03  0.44604408387E+03  0.25500000920E-02 0.  1.
    10030    2    1    2    0    0  0.00000000000E+00  0.00000000000E+00  0.12198787113E+03  0.10140760389E+04  0.10067120601E+04 0.  0.
        5    1    3    3  502    0 -0.49098402554E+03  0.90166661542E+02  0.12588458473E+03  0.51484401410E+03  0.46999998093E+01 0.  1.
       -5    1    3    3    0  502  0.49098402554E+03 -0.90166661542E+02 -0.38967135989E+01  0.49923202477E+03  0.46999998093E+01 0. -1.
</event>
<event>
 5   0  0.9243773E-03  0.1017307E+04  0.7818609E-02  0.9289764E-01
        2   -1    0    0  501    0  0.00000000000E+00  0.00000000000E+00  0.29406107200E+04  0.29406107200E+04  0.25500000920E-02 0. -1.
       -2   -1    0    0    0  501  0.00000000000E+00  0.00000000000E+00 -0.87984502746E+02  0.87984502783E+02  0.25500000920E-02 0.  1.
    10030    2    1    2    0    0  0.00000000000E+00  0.00000000000E+00  0.28526262173E+04  0.30285952228E+04  0.10173065851E+04 0.  0.
        3    1    3    3  502    0 -0.10404046229E+02 -0.51269050098E+02 -0.79954256705E+02  0.95548171317E+02  0.10100000352E+00 0.  1.
       -3    1    3    3    0  502  0.10404046229E+02  0.51269050098E+02  0.29325804740E+04  0.29330470515E+04  0.10100000352E+00 0. -1.
</event>
<event>
 5   0  0.5189877E-03  0.9965057E+03  0.7818609E-02  0.9312386E-01
       -1   -1    0    0    0  501  0.00000000000E+00  0.00000000000E+00  0.14746360027E+03  0.14746360036E+03  0.50400001928E-02 0. -1.
        1   -1    0    0  501    0  0.00000000000E+00  0.00000000000E+00 -0.16835064113E+04  0.16835064113E+04  0.50400001928E-02 0.  1.
    10030    2    1    2    0    0  0.00000000000E+00  0.00000000000E+00 -0.15360428111E+04  0.18309700117E+04  0.99650572819E+03 0.  0.
        3    1    3    3  502    0 -0.17878571602E+03 -0.90124079043E+02  0.70298337064E+02  0.21219931261E+03  0.10100000352E+00 0. -1.
       -3    1    3    3    0  502  0.17878571602E+03  0.90124079043E+02 -0.16063411481E+04  0.16187706991E+04  0.10100000352E+00 0.  1.
</event>
<event>
 5   0  0.5189877E-03  0.9998957E+03  0.7818609E-02  0.9308659E-01
        1   -1    0    0  501    0  0.00000000000E+00  0.00000000000E+00  0.10932320011E+04  0.10932320011E+04  0.50400001928E-02 0. -1.
       -1   -1    0    0    0  501  0.00000000000E+00  0.00000000000E+00 -0.22863203088E+03  0.22863203094E+03  0.50400001928E-02 0.  1.
    10030    2    1    2    0    0  0.00000000000E+00  0.00000000000E+00  0.86459997023E+03  0.13218640321E+04  0.99989569993E+03 0.  0.
        3    1    3    3  502    0 -0.88793186498E+02 -0.45409842954E+03  0.68263782582E+03  0.82467207126E+03  0.10100000352E+00 0. -1.
       -3    1    3    3    0  502  0.88793186498E+02  0.45409842954E+03  0.18196214441E+03  0.49719196080E+03  0.10100000352E+00 0.  1.
</event>
<event>
 5   0  0.5349685E-03  0.9920119E+03  0.7818609E-02  0.9317350E-01
       -1   -1    0    0    0  501  0.00000000000E+00  0.00000000000E+00  0.41490911514E+03  0.41490911518E+03  0.50400001928E-02 0. -1.
        1   -1    0    0  501    0  0.00000000000E+00  0.00000000000E+00 -0.59295370446E+03  0.59295370449E+03  0.50400001928E-02 0.  1.
    10030    2    1    2    0    0  0.00000000000E+00  0.00000000000E+00 -0.17804458932E+03  0.10078628197E+04  0.99201188877E+03 0.  0.
        4    1    3    3  502    0 -0.17686583091E+02 -0.10673198890E+03  0.40277404181E+03  0.41705284357E+03  0.12699999809E+01 0. -1.
       -4    1    3    3    0  502  0.17686583091E+02  0.10673198890E+03 -0.58081863113E+03  0.59080997609E+03  0.12699999809E+01 0.  1.
</event>
<event>
 5   0  0.3513625E-03  0.9975313E+03  0.7818609E-02  0.9311257E-01
       -3   -1    0    0    0  501  0.00000000000E+00  0.00000000000E+00  0.24240141719E+03  0.24240143823E+03  0.10100000352E+00 0. -1.
        3   -1    0    0  501    0  0.00000000000E+00  0.00000000000E+00 -0.10262612422E+04  0.10262612472E+04  0.10100000352E+00 0.  1.
    10030    2    1    2    0    0  0.00000000000E+00  0.00000000000E+00 -0.78385982504E+03  0.12686626854E+04  0.99753134492E+03 0.  0.
        3    1    3    3  502    0  0.40825913604E+03  0.16009532151E+03 -0.89729897560E+02  0.44761311290E+03  0.10100000352E+00 0. -1.
       -3    1    3    3    0  502 -0.40825913604E+03 -0.16009532151E+03 -0.69412992748E+03  0.82104957253E+03  0.10100000352E+00 0.  1.
</event>
<event>
 5   0  0.9040674E-03  0.1005103E+04  0.7818609E-02  0.9302966E-01
       -2   -1    0    0    0  501  0.00000000000E+00  0.00000000000E+00  0.75675957432E+03  0.75675957432E+03  0.25500000920E-02 0.  1.
        2   -1    0    0  501    0  0.00000000000E+00  0.00000000000E+00 -0.33373616410E+03  0.33373616411E+03  0.25500000920E-02 0. -1.
    10030    2    1    2    0    0  0.00000000000E+00  0.00000000000E+00  0.42302341022E+03  0.10904957384E+04  0.10051030544E+04 0.  0.
        1    1    3    3  502    0 -0.43204225930E+03 -0.10697196988E+03 -0.41668852636E+02  0.44703446116E+03  0.50400001928E-02 0. -1.
       -1    1    3    3    0  502  0.43204225930E+03  0.10697196988E+03  0.46469226285E+03  0.64346127727E+03  0.50400001928E-02 0.  1.
</event>
<event>
 5   0  0.8907355E-03  0.1004520E+04  0.7818609E-02  0.9303601E-01
        2   -1    0    0  501    0  0.00000000000E+00  0.00000000000E+00  0.57931333253E+03  0.57931333254E+03  0.25500000920E-02 0.  1.
       -2   -1    0    0    0  501  0.00000000000E+00  0.00000000000E+00 -0.43545514967E+03  0.43545514968E+03  0.25500000920E-02 0. -1.
    10030    2    1    2    0    0  0.00000000000E+00  0.00000000000E+00  0.14385818286E+03  0.10147684822E+04  0.10045197339E+04 0.  0.
        5    1    3    3  502    0 -0.23488893117E+03 -0.26807593025E+03 -0.28552475464E+03  0.45670996254E+03  0.46999998093E+01 0. -1.
       -5    1    3    3    0  502  0.23488893117E+03  0.26807593025E+03  0.42938293750E+03  0.55805851968E+03  0.46999998093E+01 0.  1.
</event>
<event>
 5   0  0.8968798E-03  0.9943334E+03  0.7818609E-02  0.9314782E-01
        2   -1    0    0  501    0  0.00000000000E+00  0.00000000000E+00  0.11746769429E+04  0.11746769429E+04  0.25500000920E-02 0.  1.
       -2   -1    0    0    0  501  0.00000000000E+00  0.00000000000E+00 -0.21041931430E+03  0.21041931432E+03  0.25500000920E-02 0. -1.
    10030    2    1    2    0    0  0.00000000000E+00  0.00000000000E+00  0.96425762861E+03  0.13850962572E+04  0.99433337844E+03 0.  0.
        2    1    3    3  502    0  0.27470706691E+03 -0.31232318726E+03  0.86148515977E+03  0.95664331201E+03  0.25500000920E-02 0.  1.
       -2    1    3    3    0  502 -0.27470706691E+03  0.31232318726E+03  0.10277246884E+03  0.42845294522E+03  0.25500000920E-02 0. -1.
</event>
<event>
 5   0  0.9243773E-03  0.9997482E+03  0.7818609E-02  0.9308821E-01
       -2   -1    0    0    0  501  0.00000000000E+00  0.00000000000E+00  0.47560253382E+03  0.47560253382E+03  0.25500000920E-02 0. -1.
        2   -1    0    0  501    0  0.00000000000E+00  0.00000000000E+00 -0.52538435189E+03  0.52538435190E+03  0.25500000920E-02 0.  1.
    10030    2    1    2    0    0  0.00000000000E+00  0.00000000000E+00 -0.49781818074E+02  0.10009868857E+04  0.99974822629E+03 0.  0.
        3    1    3    3  502    0 -0.71492827630E+02 -0.53122272402E+02  0.46759341122E+03  0.47600084942E+03  0.10100000352E+00 0. -1.
       -3    1    3    3    0  502  0.71492827630E+02  0.53122272402E+02 -0.51737522930E+03  0.52498603631E+03  0.10100000352E+00 0.  1.
</event>
<event>
 5   0  0.5201968E-03  0.9622054E+03  0.7818609E-02  0.9350997E-01
       -1   -1    0    0    0  501  0.00000000000E+00  0.00000000000E+00  0.22860969989E+03  0.22860969995E+03  0.50400001928E-02 0.  1.
        1   -1    0    0  501    0  0.00000000000E+00  0.00000000000E+00 -0.10124672021E+04  0.10124672021E+04  0.50400001928E-02 0. -1.
    10030    2    1    2    0    0  0.00000000000E+00  0.00000000000E+00 -0.78385750216E+03  0.12410769020E+04  0.96220543182E+03 0.  0.
        2    1    3    3  502    0  0.13488859490E+03  0.19552482159E+03  0.14769773379E+03  0.27971326294E+03  0.25500000920E-02 0.  1.
       -2    1    3    3    0  502 -0.13488859490E+03 -0.19552482159E+03 -0.93155523595E+03  0.96136363907E+03  0.25500000920E-02 0. -1.
</event>
<event>
 5   0  0.5310275E-03  0.1002506E+04  0.7818609E-02  0.9305800E-01
       -1   -1    0    0    0  501  0.00000000000E+00  0.00000000000E+00  0.11965519969E+03  0.11965519980E+03  0.50400001928E-02 0.  1.
        1   -1    0    0  501    0  0.00000000000E+00  0.00000000000E+00 -0.20998228000E+04  0.20998228000E+04  0.50400001928E-02 0. -1.
    10030    2    1    2    0    0  0.00000000000E+00  0.00000000000E+00 -0.19801676003E+04  0.22194779998E+04  0.10025062924E+04 0.  0.
        1    1    3    3  502    0 -0.49140977879E+03  0.73339599029E+02 -0.84335441252E+03  0.97883039012E+03  0.50400001928E-02 0.  1.
       -1    1    3    3    0  502  0.49140977879E+03 -0.73339599029E+02 -0.11368131878E+04  0.12406476097E+04  0.50400001928E-02 0. -1.
</event>
<event>
 5   0  0.9243773E-03  0.1030359E+04  0.7818609E-02  0.9275861E-01
       -2   -1    0    0    0  501  0.00000000000E+00  0.00000000000E+00  0.20315968227E+03  0.20315968228E+03  0.25500000920E-02 0.  1.
        2   -1    0    0  501    0  0.00000000000E+00  0.00000000000E+00 -0.13064094653E+04  0.13064094653E+04  0.25500000920E-02 0. -1.
    10030    2    1    2    0    0  0.00000000000E+00  0.00000000000E+00 -0.11032497830E+04  0.15095691475E+04  0.10303586403E+04 0.  0.
        3    1    3    3  502    0 -0.18832694092E+03  0.39313445220E+03 -0.95389306058E+03  0.10487772478E+04  0.10100000352E+00 0. -1.
       -3    1    3    3    0  502  0.18832694092E+03 -0.39313445220E+03 -0.14935672241E+03  0.46079189979E+03  0.10100000352E+00 0.  1.
</event>
<event>
 5   0  0.8907355E-03  0.1056581E+04  0.7818609E-02  0.9248576E-01
       -2   -1    0    0    0  501  0.00000000000E+00  0.00000000000E+00  0.26401549312E+03  0.26401549313E+03  0.25500000920E-02 0.  1.
        2   -1    0    0  501    0  0.00000000000E+00  0.00000000000E+00 -0.10571001102E+04  0.10571001102E+04  0.25500000920E-02 0. -1.
    10030    2    1    2    0    0  0.00000000000E+00  0.00000000000E+00 -0.79308461711E+03  0.13211156034E+04  0.10565809139E+04 0.  0.
        5    1    3    3  502    0  0.13518083397E+03  0.16855012204E+03 -0.99930001958E+03  0.10224018880E+04  0.46999998093E+01 0. -1.
       -5    1    3    3    0  502 -0.13518083397E+03 -0.16855012204E+03  0.20621540247E+03  0.29871371533E+03  0.46999998093E+01 0.  1.
</event>
<event>
 5   0  0.5189877E-03  0.9507837E+03  0.7818609E-02  0.9364235E-01
        1   -1    0    0  501    0  0.00000000000E+00  0.00000000000E+00  0.11201620539E+04  0.11201620539E+04  0.50400001928E-02 0.  1.
       -1   -1    0    0    0  501  0.00000000000E+00  0.00000000000E+00 -0.20175420052E+03  0.20175420059E+03  0.50400001928E-02 0. -1.
    10030    2    1    2    0    0  0.00000000000E+00  0.00000000000E+00  0.91840785336E+03  0.13219162545E+04  0.95078367610E+03 0.  0.
        3    1    3    3  502    0  0.13125853263E+03 -0.41887578610E+03  0.71296230054E+03  0.83725801206E+03  0.10100000352E+00 0.  1.
       -3    1    3    3    0  502 -0.13125853263E+03  0.41887578610E+03  0.20544555282E+03  0.48465824242E+03  0.10100000352E+00 0. -1.
</event>
<event>
 5   0  0.5201968E-03  0.9900082E+03  0.7818609E-02  0.9319572E-01
       -1   -1    0    0    0  501  0.00000000000E+00  0.00000000000E+00  0.11377293228E+04  0.11377293228E+04  0.50400001928E-02 0.  1.
        1   -1    0    0  501    0  0.00000000000E+00  0.00000000000E+00 -0.21536673804E+03  0.21536673810E+03  0.50400001928E-02 0. -1.
    10030    2    1    2    0    0  0.00000000000E+00  0.00000000000E+00  0.92236258471E+03  0.13530960609E+04  0.99000818797E+03 0.  0.
        2    1    3    3  502    0  0.36519354715E+03 -0.16215315213E+03  0.86051884080E+03  0.94876374667E+03  0.25500000920E-02 0.  1.
       -2    1    3    3    0  502 -0.36519354715E+03  0.16215315213E+03  0.61843743915E+02  0.40433231419E+03  0.25500000920E-02 0. -1.
</event>
<event>
 5   0  0.5201968E-03  0.9686274E+03  0.7818609E-02  0.9343639E-01
       -1   -1    0    0    0  501  0.00000000000E+00  0.00000000000E+00  0.60666412319E+03  0.60666412321E+03  0.50400001928E-02 0.  1.
        1   -1    0    0  501    0  0.00000000000E+00  0.00000000000E+00 -0.38663861559E+03  0.38663861563E+03  0.50400001928E-02 0. -1.
    10030    2    1    2    0    0  0.00000000000E+00  0.00000000000E+00  0.22002550759E+03  0.99330273883E+03  0.96862743456E+03 0.  0.
        2    1    3    3  502    0  0.14280482099E+03  0.77221233476E+02 -0.35790424074E+03  0.39300353859E+03  0.25500000920E-02 0. -1.
       -2    1    3    3    0  502 -0.14280482099E+03 -0.77221233476E+02  0.57792974833E+03  0.60029920024E+03  0.25500000920E-02 0.  1.
</event>
<event>
 5   0  0.8875655E-03  0.9927206E+03  0.7818609E-02  0.9316565E-01
       -2   -1    0    0    0  501  0.00000000000E+00  0.00000000000E+00  0.86504488256E+03  0.86504488256E+03  0.25500000920E-02 0.  1.
        2   -1    0    0  501    0  0.00000000000E+00  0.00000000000E+00 -0.28481013617E+03  0.28481013618E+03  0.25500000920E-02 0. -1.
    10030    2    1    2    0    0  0.00000000000E+00  0.00000000000E+00  0.58023474639E+03  0.11498550187E+04  0.99272060682E+03 0.  0.
        4    1    3    3  502    0 -0.33457603521E+03  0.34175408383E+03  0.44393400486E+03  0.65254577673E+03  0.12699999809E+01 0.  1.
       -4    1    3    3    0  502  0.33457603521E+03 -0.34175408383E+03  0.13630074153E+03  0.49730924201E+03  0.12699999809E+01 0. -1.
</event>
<event>
 5   0  0.5072205E-03  0.9835909E+03  0.7818609E-02  0.9326727E-01
       -1   -1    0    0    0  501  0.00000000000E+00  0.00000000000E+00  0.67205481386E+03  0.67205481388E+03  0.50400001928E-02 0. -1.
        1   -1    0    0  501    0  0.00000000000E+00  0.00000000000E+00 -0.35988543829E+03  0.35988543833E+03  0.50400001928E-02 0.  1.
    10030    2    1    2    0    0  0.00000000000E+00  0.00000000000E+00  0.31216937557E+03  0.10319402522E+04  0.98359085248E+03 0.  0.
        5    1    3    3  502    0 -0.38772023712E+03  0.13040198436E+03  0.44246582836E+03  0.60260248843E+03  0.46999998093E+01 0. -1.
       -5    1    3    3    0  502  0.38772023712E+03 -0.13040198436E+03 -0.13029645279E+03  0.42933776378E+03  0.46999998093E+01 0.  1.
</event>
<event>
 5   0  0.8907355E-03  0.9895377E+03  0.7818609E-02  0.9320095E-01
        2   -1    0    0  501    0  0.00000000000E+00  0.00000000000E+00  0.11691226915E+04  0.11691226915E+04  0.25500000920E-02 0.  1.
       -2   -1    0    0    0  501  0.00000000000E+00  0.00000000000E+00 -0.20938453673E+03  0.20938453675E+03  0.25500000920E-02 0. -1.
    10030    2    1    2    0    0  0.00000000000E+00  0.00000000000E+00  0.95973815481E+03  0.13785072283E+04  0.98953769644E+03 0.  0.
        5    1    3    3  502    0 -0.19985102714E+03 -0.42169389902E+03  0.70880949986E+03  0.84864549408E+03  0.46999998093E+01 0. -1.
       -5    1    3    3    0  502  0.19985102714E+03  0.42169389902E+03  0.25092865494E+03  0.52986173422E+03  0.46999998093E+01 0.  1.
</event>
<event>
 5   0  0.5201968E-03  0.9511247E+03  0.7818609E-02  0.9363837E-01
        1   -1    0    0  501    0  0.00000000000E+00  0.00000000000E+00  0.36962899359E+03  0.36962899362E+03  0.50400001928E-02 0.  1.
       -1   -1    0    0    0  501  0.00000000000E+00  0.00000000000E+00 -0.61185559494E+03  0.61185559496E+03  0.50400001928E-02 0. -1.
    10030    2    1    2    0    0  0.00000000000E+00  0.00000000000E+00 -0.24222660135E+03  0.98148458858E+03  0.95112474010E+03 0.  0.
        2    1    3    3  502    0  0.13104745834E+03 -0.54797306884E+02  0.34722761779E+03  0.37515756655E+03  0.25500000920E-02 0.  1.
       -2    1    3    3    0  502 -0.13104745834E+03  0.54797306884E+02 -0.58945421914E+03  0.60632702203E+03  0.25500000920E-02 0. -1.
</event>
<event>
 5   0  0.9040674E-03  0.9959942E+03  0.7818609E-02  0.9312949E-01
       -2   -1    0    0    0  501  0.00000000000E+00  0.00000000000E+00  0.20594789531E+03  0.20594789533E+03  0.25500000920E-02 0. -1.
        2   -1    0    0  501    0  0.00000000000E+00  0.00000000000E+00 -0.12041935003E+04  0.12041935003E+04  0.25500000920E-02 0.  1.
    10030    2    1    2    0    0  0.00000000000E+00  0.00000000000E+00 -0.99824560500E+03  0.14101413956E+04  0.99599421073E+03 0.  0.
        1    1    3    3  502    0  0.42790987425E+03 -0.10717855640E+03 -0.82631654872E+03  0.93669266152E+03  0.50400001928E-02 0.  1.
       -1    1    3    3    0  502 -0.42790987425E+03  0.10717855640E+03 -0.17192905628E+03  0.47344873413E+03  0.50400001928E-02 0. -1.
</event>
<event>
 5   0  0.5072205E-03  0.1000530E+04  0.7818609E-02  0.9307964E-01
        1   -1    0    0  501    0  0.00000000000E+00  0.00000000000E+00  0.12844121135E+04  0.12844121135E+04  0.50400001928E-02 0.  1.
       -1   -1    0    0    0  501  0.00000000000E+00  0.00000000000E+00 -0.19484799370E+03  0.19484799376E+03  0.50400001928E-02 0. -1.
    10030    2    1    2    0    0  0.00000000000E+00  0.00000000000E+00  0.10895641198E+04  0.14792601073E+04  0.10005301064E+04 0.  0.
        5    1    3    3  502    0 -0.13016416817E+02 -0.21194765345E+02  0.12834646968E+04  0.12837142841E+04  0.46999998093E+01 0.  1.
       -5    1    3    3    0  502  0.13016416817E+02  0.21194765345E+02 -0.19390057704E+03  0.19554582317E+03  0.46999998093E+01 0. -1.
</event>
<event>
 5   0  0.3513625E-03  0.9932618E+03  0.7818609E-02  0.9315966E-01
       -4   -1    0    0    0  501  0.00000000000E+00  0.00000000000E+00  0.37526544229E+03  0.37526759130E+03  0.12699999809E+01 0.  1.
        4   -1    0    0  501    0  0.00000000000E+00  0.00000000000E+00 -0.65724273995E+03  0.65724396697E+03  0.12699999809E+01 0. -1.
    10030    2    1    2    0    0  0.00000000000E+00  0.00000000000E+00 -0.28197729765E+03  0.10325115583E+04  0.99326175883E+03 0.  0.
        1    1    3    3  502    0 -0.28903391397E+03 -0.21724284669E+03 -0.49489337513E+03  0.61290660841E+03  0.50400001928E-02 0. -1.
       -1    1    3    3    0  502  0.28903391397E+03  0.21724284669E+03  0.21291607748E+03  0.41960494985E+03  0.50400001928E-02 0.  1.
</event>
<event>
 5   0  0.8968798E-03  0.9775847E+03  0.7818609E-02  0.9333477E-01
       -2   -1    0    0    0  501  0.00000000000E+00  0.00000000000E+00  0.47622017680E+03  0.47622017680E+03  0.25500000920E-02 0. -1.
        2   -1    0    0  501    0  0.00000000000E+00  0.00000000000E+00 -0.50169642813E+03  0.50169642813E+03  0.25500000920E-02 0.  1.
    10030    2    1    2    0    0  0.00000000000E+00  0.00000000000E+00 -0.25476251331E+02  0.97791660494E+03  0.97758470059E+03 0.  0.
        2    1    3    3  502    0 -0.40525969823E+03 -0.25384282642E+03  0.88520537792E+02  0.48632035651E+03  0.25500000920E-02 0. -1.
       -2    1    3    3    0  502  0.40525969823E+03  0.25384282642E+03 -0.11399678912E+03  0.49159624843E+03  0.25500000920E-02 0.  1.
</event>
<event>
 5   0  0.8968798E-03  0.9320778E+03  0.7818609E-02  0.9386348E-01
       -2   -1    0    0    0  501  0.00000000000E+00  0.00000000000E+00  0.35651713425E+03  0.35651713426E+03  0.25500000920E-02 0.  1.
        2   -1    0    0  501    0  0.00000000000E+00  0.00000000000E+00 -0.60920569946E+03  0.60920569947E+03  0.25500000920E-02 0. -1.
    10030    2    1    2    0    0  0.00000000000E+00  0.00000000000E+00 -0.25268856521E+03  0.96572283373E+03  0.93207782969E+03 0.  0.
        2    1    3    3  502    0 -0.28376211316E+03  0.31627928622E+03 -0.32466615995E+03  0.53475381175E+03  0.25500000920E-02 0. -1.
       -2    1    3    3    0  502  0.28376211316E+03 -0.31627928622E+03  0.71977594734E+02  0.43096902198E+03  0.25500000920E-02 0.  1.
</event>
<event>
 5   0  0.8875655E-03  0.9516107E+03  0.7818609E-02  0.9363270E-01
        2   -1    0    0  501    0  0.00000000000E+00  0.00000000000E+00  0.32568918827E+03  0.32568918828E+03  0.25500000920E-02 0.  1.
       -2   -1    0    0    0  501  0.00000000000E+00  0.00000000000E+00 -0.69511280602E+03  0.69511280603E+03  0.25500000920E-02 0. -1.
    10030    2    1    2    0    0  0.00000000000E+00  0.00000000000E+00 -0.36942361775E+03  0.10208019943E+04  0.95161068838E+03 0.  0.
        4    1    3    3  502    0  0.65163445845E+02  0.93718334472E+02  0.31078219863E+03  0.33108396031E+03  0.12699999809E+01 0.  1.
       -4    1    3    3    0  502 -0.65163445845E+02 -0.93718334472E+02 -0.68020581638E+03  0.68971803400E+03  0.12699999809E+01 0. -1.
</event>
<event>
 5   0  0.8968798E-03  0.1021765E+04  0.7818609E-02  0.9284990E-01
       -2   -1    0    0    0  501  0.00000000000E+00  0.00000000000E+00  0.31666044976E+03  0.31666044977E+03  0.25500000920E-02 0.  1.
        2   -1    0    0  501    0  0.00000000000E+00  0.00000000000E+00 -0.82422955347E+03  0.82422955347E+03  0.25500000920E-02 0. -1.
    10030    2    1    2    0    0  0.00000000000E+00  0.00000000000E+00 -0.50756910370E+03  0.11408900032E+04  0.10217649458E+04 0.  0.
        2    1    3    3  502    0 -0.23293388155E+03  0.43328296385E+03 -0.99838829216E+02  0.50195628471E+03  0.25500000920E-02 0.  1.
       -2    1    3    3    0  502  0.23293388155E+03 -0.43328296385E+03 -0.40773027449E+03  0.63893371853E+03  0.25500000920E-02 0. -1.
</event>
<event>
 5   0  0.8968798E-03  0.1007343E+04  0.7818609E-02  0.9300528E-01
       -2   -1    0    0    0  501  0.00000000000E+00  0.00000000000E+00  0.41853160603E+03  0.41853160604E+03  0.25500000920E-02 0. -1.
        2   -1    0    0  501    0  0.00000000000E+00  0.00000000000E+00 -0.60613082781E+03  0.60613082781E+03  0.25500000920E-02 0.  1.
    10030    2    1    2    0    0  0.00000000000E+00  0.00000000000E+00 -0.18759922177E+03  0.10246624339E+04  0.10073428589E+04 0.  0.
        2    1    3    3  502    0 -0.72898650831E+02  0.33231153122E+03 -0.47158765240E+03  0.58149813497E+03  0.25500000920E-02 0.  1.
       -2    1    3    3    0  502  0.72898650831E+02 -0.33231153122E+03  0.28398843062E+03  0.44316429889E+03  0.25500000920E-02 0. -1.
</event>
<event>
 5   0  0.9243773E-03  0.9929640E+03  0.7818609E-02  0.9316296E-01
       -2   -1    0    0    0  501  0.00000000000E+00  0.00000000000E+00  0.32087395130E+03  0.32087395131E+03  0.25500000920E-02 0.  1.
        2   -1    0    0  501    0  0.00000000000E+00  0.00000000000E+00 -0.76819684169E+03  0.76819684169E+03  0.25500000920E-02 0. -1.
    10030    2    1    2    0    0  0.00000000000E+00  0.00000000000E+00 -0.44732289039E+03  0.10890707930E+04  0.99296395902E+03 0.  0.
        3    1    3    3  502    0 -0.25263358934E+01  0.20582583510E+03 -0.71919073503E+03  0.74806816556E+03  0.10100000352E+00 0. -1.
       -3    1    3    3    0  502  0.25263358934E+01 -0.20582583510E+03  0.27186784464E+03  0.34100262744E+03  0.10100000352E+00 0.  1.
</event>
<event>
 5   0  0.5349685E-03  0.1007789E+04  0.7818609E-02  0.9300043E-01
       -1   -1    0    0    0  501  0.00000000000E+00  0.00000000000E+00  0.90236409948E+03  0.90236409950E+03  0.50400001928E-02 0. -1.
        1   -1    0    0  501    0  0.00000000000E+00  0.00000000000E+00 -0.28138293399E+03  0.28138293404E+03  0.50400001928E-02 0.  1.
    10030    2    1    2    0    0  0.00000000000E+00  0.00000000000E+00  0.62098116549E+03  0.11837470335E+04  0.10077893785E+04 0.  0.
        4    1    3    3  502    0 -0.46895709958E+03 -0.15699307692E+03  0.19696915322E+03  0.53232137630E+03  0.12699999809E+01 0.  1.
       -4    1    3    3    0  502  0.46895709958E+03  0.15699307692E+03  0.42401201227E+03  0.65142565723E+03  0.12699999809E+01 0. -1.
</event>
<event>
 5   0  0.5310275E-03  0.1006038E+04  0.7818609E-02  0.9301947E-01
       -1   -1    0    0    0  501  0.00000000000E+00  0.00000000000E+00  0.21483919187E+03  0.21483919193E+03  0.50400001928E-02 0. -1.
        1   -1    0    0  501    0  0.00000000000E+00  0.00000000000E+00 -0.11777569288E+04  0.11777569288E+04  0.50400001928E-02 0.  1.
    10030    2    1    2    0    0  0.00000000000E+00  0.00000000000E+00 -0.96291773689E+03  0.13925961207E+04  0.10060384622E+04 0.  0.
        1    1    3    3  502    0 -0.85210169817E+02 -0.32454456903E+03 -0.10002033951E+04  0.10549866264E+04  0.50400001928E-02 0.  1.
       -1    1    3    3    0  502  0.85210169817E+02  0.32454456903E+03  0.37285658172E+02  0.33760949432E+03  0.50400001928E-02 0. -1.
</event>
<event>
 5   0  0.5189877E-03  0.1016038E+04  0.7818609E-02  0.9291128E-01
       -1   -1    0    0    0  501  0.00000000000E+00  0.00000000000E+00  0.37311096328E+03  0.37311096331E+03  0.50400001928E-02 0.  1.
        1   -1    0    0  501    0  0.00000000000E+00  0.00000000000E+00 -0.69170594940E+03  0.69170594942E+03  0.50400001928E-02 0. -1.
    10030    2    1    2    0    0  0.00000000000E+00  0.00000000000E+00 -0.31859498612E+03  0.10648169127E+04  0.10160375448E+04 0.  0.
        3    1    3    3  502    0  0.78993857163E+02 -0.79032900309E+02  0.36007215543E+03  0.37701219624E+03  0.10100000352E+00 0.  1.
       -3    1    3    3    0  502 -0.78993857163E+02  0.79032900309E+02 -0.67866714155E+03  0.68780471649E+03  0.10100000352E+00 0. -1.
</event>
<event>
 5   0  0.3513625E-03  0.1020273E+04  0.7818609E-02  0.9286585E-01
        3   -1    0    0  501    0  0.00000000000E+00  0.00000000000E+00  0.48315141613E+03  0.48315142669E+03  0.10100000352E+00 0. -1.
       -3   -1    0    0    0  501  0.00000000000E+00  0.00000000000E+00 -0.53862852643E+03  0.53862853590E+03  0.10100000352E+00 0.  1.
    10030    2    1    2    0    0  0.00000000000E+00  0.00000000000E+00 -0.55477110298E+02  0.10217799626E+04  0.10202727979E+04 0.  0.
        3    1    3    3  502    0  0.34533175223E+03 -0.32347497761E+03 -0.21867447460E+03  0.52125676617E+03  0.10100000352E+00 0.  1.
       -3    1    3    3    0  502 -0.34533175223E+03  0.32347497761E+03  0.16319736430E+03  0.50052319642E+03  0.10100000352E+00 0. -1.
</event>
<event>
 5   0  0.5201968E-03  0.9436246E+03  0.7818609E-02  0.9372634E-01
       -1   -1    0    0    0  501  0.00000000000E+00  0.00000000000E+00  0.80118335248E+03  0.80118335249E+03  0.50400001928E-02 0. -1.
        1   -1    0    0  501    0  0.00000000000E+00  0.00000000000E+00 -0.27784759607E+03  0.27784759611E+03  0.50400001928E-02 0.  1.
    10030    2    1    2    0    0  0.00000000000E+00  0.00000000000E+00  0.52333575641E+03  0.10790309486E+04  0.94362464684E+03 0.  0.
        2    1    3    3  502    0 -0.45536957171E+03  0.12422536361E+02  0.40214160566E+03  0.60764598021E+03  0.25500000920E-02 0. -1.
       -2    1    3    3    0  502  0.45536957171E+03 -0.12422536361E+02  0.12119415075E+03  0.47138496840E+03  0.25500000920E-02 0.  1.
</event>
<event>
 5   0  0.5310275E-03  0.9996519E+03  0.7818609E-02  0.9308927E-01
       -1   -1    0    0    0  501  0.00000000000E+00  0.00000000000E+00  0.56179074329E+03  0.56179074331E+03  0.50400001928E-02 0.  1.
        1   -1    0    0  501    0  0.00000000000E+00  0.00000000000E+00 -0.44469581461E+03  0.44469581464E+03  0.50400001928E-02 0. -1.
    10030    2    1    2    0    0  0.00000000000E+00  0.00000000000E+00  0.11709492868E+03  0.10064865580E+04  0.99965192393E+03 0.  0.
        1    1    3    3  502    0 -0.35806068711E+03 -0.34615158366E+03  0.15859264499E+02  0.49827692182E+03  0.50400001928E-02 0. -1.
       -1    1    3    3    0  502  0.35806068711E+03  0.34615158366E+03  0.10123566418E+03  0.50820963613E+03  0.50400001928E-02 0.  1.
</event>
<event>
 5   0  0.8875655E-03  0.9953238E+03  0.7818609E-02  0.9313689E-01
       -2   -1    0    0    0  501  0.00000000000E+00  0.00000000000E+00  0.13086724253E+03  0.13086724255E+03  0.25500000920E-02 0.  1.
        2   -1    0    0  501    0  0.00000000000E+00  0.00000000000E+00 -0.18925083230E+04  0.18925083230E+04  0.25500000920E-02 0. -1.
    10030    2    1    2    0    0  0.00000000000E+00  0.00000000000E+00 -0.17616410805E+04  0.20233755656E+04  0.99532375782E+03 0.  0.
        4    1    3    3  502    0  0.18174223843E+03 -0.42662339863E+03 -0.51361676299E+03  0.69198378421E+03  0.12699999809E+01 0.  1.
       -4    1    3    3    0  502 -0.18174223843E+03  0.42662339863E+03 -0.12480243175E+04  0.13313917814E+04  0.12699999809E+01 0. -1.
</event>
<event>
 5   0  0.8875655E-03  0.1008929E+04  0.7818609E-02  0.9298806E-01
       -2   -1    0    0    0  501  0.00000000000E+00  0.00000000000E+00  0.16942706906E+03  0.16942706908E+03  0.25500000920E-02 0.  1.
        2   -1    0    0  501    0  0.00000000000E+00  0.00000000000E+00 -0.15020282589E+04  0.15020282589E+04  0.25500000920E-02 0. -1.
    10030    2    1    2    0    0  0.00000000000E+00  0.00000000000E+00 -0.13326011899E+04  0.16714553280E+04  0.10089286309E+04 0.  0.
        4    1    3    3  502    0 -0.14676059196E+03 -0.15069496810E+03  0.93302673310E+02  0.23011876610E+03  0.12699999809E+01 0.  1.
       -4    1    3    3    0  502  0.14676059196E+03  0.15069496810E+03 -0.14259038632E+04  0.14413365619E+04  0.12699999809E+01 0. -1.
</event>
<event>
 5   0  0.8968798E-03  0.1000101E+04  0.7818609E-02  0.9308434E-01
       -2   -1    0    0    0  501  0.00000000000E+00  0.00000000000E+00  0.21290096879E+03  0.21290096880E+03  0.25500000920E-02 0.  1.
        2   -1    0    0  501    0  0.00000000000E+00  0.00000000000E+00 -0.11744917325E+04  0.11744917325E+04  0.25500000920E-02 0. -1.
    10030    2    1    2    0    0  0.00000000000E+00  0.00000000000E+00 -0.96159076370E+03  0.13873927013E+04  0.10001008503E+04 0.  0.
        2    1    3    3  502    0  0.22320828171E+03 -0.63744191749E+02 -0.10952170979E+04  0.11195471185E+04  0.25500000920E-02 0. -1.
       -2    1    3    3    0  502 -0.22320828171E+03  0.63744191749E+02  0.13362633422E+03  0.26784558277E+03  0.25500000920E-02 0.  1.
</event>
<event>
 5   0  0.5072205E-03  0.1002277E+04  0.7818609E-02  0.9306051E-01
        1   -1    0    0  501    0  0.00000000000E+00  0.00000000000E+00  0.14643627147E+04  0.14643627147E+04  0.50400001928E-02 0. -1.
       -1   -1    0    0    0  501  0.00000000000E+00  0.00000000000E+00 -0.17150108493E+03  0.17150108501E+03  0.50400001928E-02 0.  1.
    10030    2    1    2    0    0  0.00000000000E+00  0.00000000000E+00  0.12928616297E+04  0.16358637997E+04  0.10022769964E+04 0.  0.
        5    1    3    3  502    0  0.44406292913E+03  0.21402398590E+03  0.79350126932E+03  0.93416513849E+03  0.46999998093E+01 0.  1.
       -5    1    3    3    0  502 -0.44406292913E+03 -0.21402398590E+03  0.49936036043E+03  0.70169866120E+03  0.46999998093E+01 0. -1.
</event>
<event>
 5   0  0.5349685E-03  0.9853022E+03  0.7818609E-02  0.9324814E-01
       -1   -1    0    0    0  501  0.00000000000E+00  0.00000000000E+00  0.41289645044E+03  0.41289645047E+03  0.50400001928E-02 0. -1.
        1   -1    0    0  501    0  0.00000000000E+00  0.00000000000E+00 -0.58781109335E+03  0.58781109337E+03  0.50400001928E-02 0.  1.
    10030    2    1    2    0    0  0.00000000000E+00  0.00000000000E+00 -0.17491464291E+03  0.10007075438E+04  0.98530221557E+03 0.  0.
        4    1    3    3  502    0 -0.34379764318E+03  0.27239510842E+03 -0.31525770760E+03  0.54017122253E+03  0.12699999809E+01 0.  1.
       -4    1    3    3    0  502  0.34379764318E+03 -0.27239510842E+03  0.14034306469E+03  0.46053632132E+03  0.12699999809E+01 0. -1.
</event>
<event>
 5   0  0.5189877E-03  0.1051456E+04  0.7818609E-02  0.9253842E-01
       -1   -1    0    0    0  501  0.00000000000E+00  0.00000000000E+00  0.28124413455E+03  0.28124413460E+03  0.50400001928E-02 0.  1.
        1   -1    0    0  501    0  0.00000000000E+00  0.00000000000E+00 -0.98274069824E+03  0.98274069825E+03  0.50400001928E-02 0. -1.
    10030    2    1    2    0    0  0.00000000000E+00  0.00000000000E+00 -0.70149656369E+03  0.12639848329E+04  0.10514562420E+04 0.  0.
        3    1    3    3  502    0 -0.37846908112E+02 -0.31379835665E+03  0.15427169474E+03  0.35171233002E+03  0.10100000352E+00 0.  1.
       -3    1    3    3    0  502  0.37846908112E+02  0.31379835665E+03 -0.85576825843E+03  0.91227250283E+03  0.10100000352E+00 0. -1.
</event>
<event>
 5   0  0.3513625E-03  0.9438550E+03  0.7818609E-02  0.9372362E-01
       -3   -1    0    0    0  501  0.00000000000E+00  0.00000000000E+00  0.71437546579E+03  0.71437547293E+03  0.10100000352E+00 0. -1.
        3   -1    0    0  501    0  0.00000000000E+00  0.00000000000E+00 -0.31176261138E+03  0.31176262774E+03  0.10100000352E+00 0.  1.
    10030    2    1    2    0    0  0.00000000000E+00  0.00000000000E+00  0.40261285442E+03  0.10261381007E+04  0.94385501593E+03 0.  0.
        1    1    3    3  502    0 -0.79491824615E+01 -0.45753256082E+03  0.32676286356E+03  0.56229280873E+03  0.50400001928E-02 0. -1.
       -1    1    3    3    0  502  0.79491824615E+01  0.45753256082E+03  0.75849990852E+02  0.46384529194E+03  0.50400001928E-02 0.  1.
</event>
<event>
 5   0  0.5349685E-03  0.8498790E+03  0.7818609E-02  0.9490499E-01
       -1   -1    0    0    0  501  0.00000000000E+00  0.00000000000E+00  0.26590884743E+03  0.26590884747E+03  0.50400001928E-02 0.  1.
        1   -1    0    0  501    0  0.00000000000E+00  0.00000000000E+00 -0.67908068692E+03  0.67908068694E+03  0.50400001928E-02 0. -1.
    10030    2    1    2    0    0  0.00000000000E+00  0.00000000000E+00 -0.41317183950E+03  0.94498953441E+03  0.84987896268E+03 0.  0.
        4    1    3    3  502    0 -0.21515784491E+03 -0.34298660760E+03 -0.63157027120E+02  0.40978425323E+03  0.12699999809E+01 0.  1.
       -4    1    3    3    0  502  0.21515784491E+03  0.34298660760E+03 -0.35001481238E+03  0.53520528118E+03  0.12699999809E+01 0. -1.
</event>
<event>
 5   0  0.5201968E-03  0.1015793E+04  0.7818609E-02  0.9291391E-01
        1   -1    0    0  501    0  0.00000000000E+00  0.00000000000E+00  0.86750118938E+03  0.86750118939E+03  0.50400001928E-02 0. -1.
       -1   -1    0    0    0  501  0.00000000000E+00  0.00000000000E+00 -0.29735855141E+03  0.29735855145E+03  0.50400001928E-02 0.  1.
    10030    2    1    2    0    0  0.00000000000E+00  0.00000000000E+00  0.57014263796E+03  0.11648597408E+04  0.10157930834E+04 0.  0.
        2    1    3    3  502    0  0.45491762427E+03  0.20827582861E+03  0.18490273213E+03  0.53340218035E+03  0.25500000920E-02 0. -1.
       -2    1    3    3    0  502 -0.45491762427E+03 -0.20827582861E+03  0.38523990583E+03  0.63145756049E+03  0.25500000920E-02 0.  1.
</event>
<event>
 5   0  0.9040674E-03  0.9754971E+03  0.7818609E-02  0.9335835E-01
        2   -1    0    0  501    0  0.00000000000E+00  0.00000000000E+00  0.28482115643E+03  0.28482115645E+03  0.25500000920E-02 0.  1.
       -2   -1    0    0    0  501  0.00000000000E+00  0.00000000000E+00 -0.83525632361E+03  0.83525632361E+03  0.25500000920E-02 0. -1.
    10030    2    1    2    0    0  0.00000000000E+00  0.00000000000E+00 -0.55043516717E+03  0.11200774801E+04  0.97549714919E+03 0.  0.
        1    1    3    3  502    0 -0.22495507626E+03 -0.41683635165E+03 -0.40883187348E+03  0.62570027265E+03  0.50400001928E-02 0. -1.
       -1    1    3    3    0  502  0.22495507626E+03  0.41683635165E+03 -0.14160329369E+03  0.49437720741E+03  0.50400001928E-02 0.  1.
</event>
<event>
 5   0  0.8968798E-03  0.9412264E+03  0.7818609E-02  0.9375465E-01
       -2   -1    0    0    0  501  0.00000000000E+00  0.00000000000E+00  0.15896406046E+03  0.15896406048E+03  0.25500000920E-02 0. -1.
        2   -1    0    0  501    0  0.00000000000E+00  0.00000000000E+00 -0.13932507181E+04  0.13932507181E+04  0.25500000920E-02 0.  1.
    10030    2    1    2    0    0  0.00000000000E+00  0.00000000000E+00 -0.12342866577E+04  0.15522147786E+04  0.94122641570E+03 0.  0.
        2    1    3    3  502    0 -0.36938282157E+03 -0.26982504161E+02 -0.13830980794E+03  0.39534962676E+03  0.25500000920E-02 0. -1.
       -2    1    3    3    0  502  0.36938282157E+03  0.26982504161E+02 -0.10959768497E+04  0.11568651518E+04  0.25500000920E-02 0.  1.
</event>
<event>
 5   0  0.9243773E-03  0.9694007E+03  0.7818609E-02  0.9342757E-01
       -2   -1    0    0    0  501  0.00000000000E+00  0.00000000000E+00  0.29370139024E+03  0.29370139025E+03  0.25500000920E-02 0. -1.
        2   -1    0    0  501    0  0.00000000000E+00  0.00000000000E+00 -0.79990912352E+03  0.79990912353E+03  0.25500000920E-02 0.  1.
    10030    2    1    2    0    0  0.00000000000E+00  0.00000000000E+00 -0.50620773328E+03  0.10936105138E+04  0.96940068425E+03 0.  0.
        3    1    3    3  502    0 -0.35725892878E+03  0.20838650745E+03 -0.53822317091E+03  0.67878057618E+03  0.10100000352E+00 0.  1.
       -3    1    3    3    0  502  0.35725892878E+03 -0.20838650745E+03  0.32015437636E+02  0.41482993760E+03  0.10100000352E+00 0. -1.
</event>
<event>
 5   0  0.8907355E-03  0.9981461E+03  0.7818609E-02  0.9310580E-01
        2   -1    0    0  501    0  0.00000000000E+00  0.00000000000E+00  0.53765987277E+03  0.53765987278E+03  0.25500000920E-02 0. -1.
       -2   -1    0    0    0  501  0.00000000000E+00  0.00000000000E+00 -0.46325554190E+03  0.46325554191E+03  0.25500000920E-02 0.  1.
    10030    2    1    2    0    0  0.00000000000E+00  0.00000000000E+00  0.74404330869E+02  0.10009154147E+04  0.99814611300E+03 0.  0.
        5    1    3    3  502    0 -0.21682472688E+03 -0.36418916221E+02  0.48645465889E+03  0.53385346754E+03  0.46999998093E+01 0. -1.
       -5    1    3    3    0  502  0.21682472688E+03  0.36418916221E+02 -0.41205032803E+03  0.46706194715E+03  0.46999998093E+01 0.  1.
</event>
<event>
 5   0  0.3513625E-03  0.1004767E+04  0.7818609E-02  0.9303331E-01
        3   -1    0    0  501    0  0.00000000000E+00  0.00000000000E+00  0.15582139703E+04  0.15582139736E+04  0.10100000352E+00 0. -1.
       -3   -1    0    0    0  501  0.00000000000E+00  0.00000000000E+00 -0.16197351593E+03  0.16197354742E+03  0.10100000352E+00 0.  1.
    10030    2    1    2    0    0  0.00000000000E+00  0.00000000000E+00  0.13962404544E+04  0.17201875210E+04  0.10047674860E+04 0.  0.
        5    1    3    3  502    0  0.47111396515E+03 -0.15546791328E+03  0.56278686103E+03  0.75024648028E+03  0.46999998093E+01 0.  1.
       -5    1    3    3    0  502 -0.47111396515E+03  0.15546791328E+03  0.83345359337E+03  0.96994104074E+03  0.46999998093E+01 0. -1.
</event>
<event>
 5   0  0.5072205E-03  0.1013234E+04  0.7818609E-02  0.9294148E-01
       -1   -1    0    0    0  501  0.00000000000E+00  0.00000000000E+00  0.29347537880E+03  0.29347537885E+03  0.50400001928E-02 0. -1.
        1   -1    0    0  501    0  0.00000000000E+00  0.00000000000E+00 -0.87455586014E+03  0.87455586015E+03  0.50400001928E-02 0.  1.
    10030    2    1    2    0    0  0.00000000000E+00  0.00000000000E+00 -0.58108048134E+03  0.11680312390E+04  0.10132336599E+04 0.  0.
        5    1    3    3  502    0  0.40226699049E+03  0.18799588615E+03 -0.94015557013E+01  0.44415274861E+03  0.46999998093E+01 0. -1.
       -5    1    3    3    0  502 -0.40226699049E+03 -0.18799588615E+03 -0.57167892564E+03  0.72387849040E+03  0.46999998093E+01 0.  1.
</event>
<event>
 5   0  0.5201968E-03  0.1003352E+04  0.7818609E-02  0.9304876E-01
        1   -1    0    0  501    0  0.00000000000E+00  0.00000000000E+00  0.11172103696E+04  0.11172103696E+04  0.50400001928E-02 0. -1.
       -1   -1    0    0    0  501  0.00000000000E+00  0.00000000000E+00 -0.22527452687E+03  0.22527452692E+03  0.50400001928E-02 0.  1.
    10030    2    1    2    0    0  0.00000000000E+00  0.00000000000E+00  0.89193584273E+03  0.13424848965E+04  0.10033524555E+04 0.  0.
        2    1    3    3  502    0  0.76659110566E+02 -0.40427779424E+03  0.61978707833E+02  0.41612319616E+03  0.25500000920E-02 0.  1.
       -2    1    3    3    0  502 -0.76659110566E+02  0.40427779424E+03  0.82995713490E+03  0.92636170038E+03  0.25500000920E-02 0. -1.
</event>
<event>
 5   0  0.5072205E-03  0.7521836E+03  0.7818609E-02  0.9631931E-01
       -1   -1    0    0    0  501  0.00000000000E+00  0.00000000000E+00  0.33539693059E+03  0.33539693062E+03  0.50400001928E-02 0.  1.
        1   -1    0    0  501    0  0.00000000000E+00  0.00000000000E+00 -0.42172430647E+03  0.42172430650E+03  0.50400001928E-02 0. -1.
    10030    2    1    2    0    0  0.00000000000E+00  0.00000000000E+00 -0.86327375879E+02  0.75712123712E+03  0.75218358921E+03 0.  0.
        5    1    3    3  502    0 -0.28275642225E+03  0.15382506629E+03 -0.23888703354E+03  0.40087710104E+03  0.46999998093E+01 0. -1.
       -5    1    3    3    0  502  0.28275642225E+03 -0.15382506629E+03  0.15255965766E+03  0.35624413608E+03  0.46999998093E+01 0.  1.
</event>
<event>
 5   0  0.8968798E-03  0.9968684E+03  0.7818609E-02  0.9311986E-01
       -2   -1    0    0    0  501  0.00000000000E+00  0.00000000000E+00  0.95746019004E+03  0.95746019004E+03  0.25500000920E-02 0.  1.
        2   -1    0    0  501    0  0.00000000000E+00  0.00000000000E+00 -0.25947466281E+03  0.25947466282E+03  0.25500000920E-02 0. -1.
    10030    2    1    2    0    0  0.00000000000E+00  0.00000000000E+00  0.69798552723E+03  0.12169348529E+04  0.99686841655E+03 0.  0.
        2    1    3    3  502    0 -0.17147056486E+02 -0.24612348393E+03  0.87768922015E+03  0.91170672810E+03  0.25500000920E-02 0.  1.
       -2    1    3    3    0  502  0.17147056486E+02  0.24612348393E+03 -0.17970369293E+03  0.30522812476E+03  0.25500000920E-02 0. -1.
</event>
<event>
 5   0  0.9040674E-03  0.1008951E+04  0.7818609E-02  0.9298781E-01
        2   -1    0    0  501    0  0.00000000000E+00  0.00000000000E+00  0.11355429786E+04  0.11355429786E+04  0.25500000920E-02 0. -1.
       -2   -1    0    0    0  501  0.00000000000E+00  0.00000000000E+00 -0.22411797848E+03  0.22411797849E+03  0.25500000920E-02 0.  1.
    10030    2    1    2    0    0  0.00000000000E+00  0.00000000000E+00  0.91142500014E+03  0.13596609571E+04  0.10089511323E+04 0.  0.
        1    1    3    3  502    0 -0.18856777240E+03 -0.27692652835E+03 -0.52547408187E+02  0.33912731683E+03  0.50400001928E-02 0.  1.
       -1    1    3    3    0  502  0.18856777240E+03  0.27692652835E+03  0.96397240832E+03  0.10205336403E+04  0.50400001928E-02 0. -1.
</event>
<event>
 5   0  0.9040674E-03  0.9935336E+03  0.7818609E-02  0.9315666E-01
       -2   -1    0    0    0  501  0.00000000000E+00  0.00000000000E+00  0.81138771127E+03  0.81138771127E+03  0.25500000920E-02 0. -1.
        2   -1    0    0  501    0  0.00000000000E+00  0.00000000000E+00 -0.30414220532E+03  0.30414220533E+03  0.25500000920E-02 0.  1.
    10030    2    1    2    0    0  0.00000000000E+00  0.00000000000E+00  0.50724550595E+03  0.11155299166E+04  0.99353358853E+03 0.  0.
        1    1    3    3  502    0  0.43455763656E+02 -0.30606829391E+03 -0.18298397493E+03  0.35923437898E+03  0.50400001928E-02 0.  1.
       -1    1    3    3    0  502 -0.43455763656E+02  0.30606829391E+03  0.69022948088E+03  0.75629553763E+03  0.50400001928E-02 0. -1.
</event>
<event>
 5   0  0.9243773E-03  0.9921385E+03  0.7818609E-02  0.9317209E-01
        2   -1    0    0  501    0  0.00000000000E+00  0.00000000000E+00  0.84376459007E+03  0.84376459007E+03  0.25500000920E-02 0.  1.
       -2   -1    0    0    0  501  0.00000000000E+00  0.00000000000E+00 -0.29165089141E+03  0.29165089142E+03  0.25500000920E-02 0. -1.
    10030    2    1    2    0    0  0.00000000000E+00  0.00000000000E+00  0.55211369865E+03  0.11354154815E+04  0.99213848800E+03 0.  0.
        3    1    3    3  502    0 -0.20571062273E+02 -0.96679300158E+02  0.83238087717E+03  0.83822908000E+03  0.10100000352E+00 0.  1.
       -3    1    3    3    0  502  0.20571062273E+02  0.96679300158E+02 -0.28026717851E+03  0.29718640150E+03  0.10100000352E+00 0. -1.
</event>
<event>
 5   0  0.5349685E-03  0.1008883E+04  0.7818609E-02  0.9298856E-01
       -1   -1    0    0    0  501  0.00000000000E+00  0.00000000000E+00  0.41357563728E+03  0.41357563731E+03  0.50400001928E-02 0.  1.
        1   -1    0    0  501    0  0.00000000000E+00  0.00000000000E+00 -0.61527103994E+03  0.61527103996E+03  0.50400001928E-02 0. -1.
    10030    2    1    2    0    0  0.00000000000E+00  0.00000000000E+00 -0.20169540266E+03  0.10288466773E+04  0.10088827731E+04 0.  0.
        4    1    3    3  502    0  0.15084108580E+03  0.35962386050E+03  0.22544808144E+03  0.45045621822E+03  0.12699999809E+01 0.  1.
       -4    1    3    3    0  502 -0.15084108580E+03 -0.35962386050E+03 -0.42714348410E+03  0.57839045905E+03  0.12699999809E+01 0. -1.
</event>
<event>
 5   0  0.9243773E-03  0.1001123E+04  0.7818609E-02  0.9307314E-01
       -2   -1    0    0    0  501  0.00000000000E+00  0.00000000000E+00  0.42452532455E+03  0.42452532456E+03  0.25500000920E-02 0. -1.
        2   -1    0    0  501    0  0.00000000000E+00  0.00000000000E+00 -0.59021675785E+03  0.59021675785E+03  0.25500000920E-02 0.  1.
    10030    2    1    2    0    0  0.00000000000E+00  0.00000000000E+00 -0.16569143329E+03  0.10147420824E+04  0.10011232905E+04 0.  0.
        3    1    3    3  502    0  0.23721944404E+03 -0.34210192449E+03 -0.36457491013E+03  0.55337299055E+03  0.10100000352E+00 0.  1.
       -3    1    3    3    0  502 -0.23721944404E+03  0.34210192449E+03  0.19888347683E+03  0.46136909187E+03  0.10100000352E+00 0. -1.
</event>
<event>
 5   0  0.5201968E-03  0.9615778E+03  0.7818609E-02  0.9351719E-01
       -1   -1    0    0    0  501  0.00000000000E+00  0.00000000000E+00  0.79429744208E+03  0.79429744210E+03  0.50400001928E-02 0.  1.
        1   -1    0    0  501    0  0.00000000000E+00  0.00000000000E+00 -0.29102190517E+03  0.29102190521E+03  0.50400001928E-02 0. -1.
    10030    2    1    2    0    0  0.00000000000E+00  0.00000000000E+00  0.50327553691E+03  0.10853193473E+04  0.96157777615E+03 0.  0.
        2    1    3    3  502    0  0.31904829361E+03  0.27493815136E+03 -0.10098532036E+02  0.42128942674E+03  0.25500000920E-02 0.  1.
       -2    1    3    3    0  502 -0.31904829361E+03 -0.27493815136E+03  0.51337406895E+03  0.66402992057E+03  0.25500000920E-02 0. -1.
</event>
<event>
 5   0  0.8907355E-03  0.9882581E+03  0.7818609E-02  0.9321518E-01
       -2   -1    0    0    0  501  0.00000000000E+00  0.00000000000E+00  0.29757269593E+03  0.29757269594E+03  0.25500000920E-02 0.  1.
        2   -1    0    0  501    0  0.00000000000E+00  0.00000000000E+00 -0.82051726889E+03  0.82051726889E+03  0.25500000920E-02 0. -1.
    10030    2    1    2    0    0  0.00000000000E+00  0.00000000000E+00 -0.52294457296E+03  0.11180899648E+04  0.98825813584E+03 0.  0.
        5    1    3    3  502    0  0.37449852908E+03  0.30315345730E+03 -0.13758663981E+03  0.50110212573E+03  0.46999998093E+01 0. -1.
       -5    1    3    3    0  502 -0.37449852908E+03 -0.30315345730E+03 -0.38535793315E+03  0.61698783910E+03  0.46999998093E+01 0.  1.
</event>
<event>
 5   0  0.9243773E-03  0.9984628E+03  0.7818609E-02  0.9310232E-01
        2   -1    0    0  501    0  0.00000000000E+00  0.00000000000E+00  0.30248505605E+03  0.30248505606E+03  0.25500000920E-02 0.  1.
       -2   -1    0    0    0  501  0.00000000000E+00  0.00000000000E+00 -0.82394810443E+03  0.82394810444E+03  0.25500000920E-02 0. -1.
    10030    2    1    2    0    0  0.00000000000E+00  0.00000000000E+00 -0.52146304838E+03  0.11264331605E+04  0.99846279563E+03 0.  0.
        3    1    3    3  502    0  0.75401031649E+01  0.32900875570E+03  0.16278732608E+03  0.36715574109E+03  0.10100000352E+00 0.  1.
       -3    1    3    3    0  502 -0.75401031649E+01 -0.32900875570E+03 -0.68425037446E+03  0.75927741941E+03  0.10100000352E+00 0. -1.
</event>
<event>
 5   0  0.5201968E-03  0.9946589E+03  0.7818609E-02  0.9314422E-01
        1   -1    0    0  501    0  0.00000000000E+00  0.00000000000E+00  0.21102727355E+04  0.21102727355E+04  0.50400001928E-02 0. -1.
       -1   -1    0    0    0  501  0.00000000000E+00  0.00000000000E+00 -0.11720598437E+03  0.11720598448E+03  0.50400001928E-02 0.  1.
    10030    2    1    2    0    0  0.00000000000E+00  0.00000000000E+00  0.19930667512E+04  0.22274787200E+04  0.99465892323E+03 0.  0.
        2    1    3    3  502    0  0.28262705520E+03  0.40125939119E+03  0.11763792388E+04  0.12746588817E+04  0.25500000920E-02 0. -1.
       -2    1    3    3    0  502 -0.28262705520E+03 -0.40125939119E+03  0.81668751241E+03  0.95281983831E+03  0.25500000920E-02 0.  1.
</event>
<event>
 5   0  0.5201968E-03  0.8887871E+03  0.7818609E-02  0.9439708E-01
       -1   -1    0    0    0  501  0.00000000000E+00  0.00000000000E+00  0.28794659861E+03  0.28794659865E+03  0.50400001928E-02 0. -1.
        1   -1    0    0  501    0  0.00000000000E+00  0.00000000000E+00 -0.68584113959E+03  0.68584113961E+03  0.50400001928E-02 0.  1.
    10030    2    1    2    0    0  0.00000000000E+00  0.00000000000E+00 -0.39789454098E+03  0.97378773826E+03  0.88878709118E+03 0.  0.
        2    1    3    3  502    0 -0.36811012363E+03  0.24188532580E+03 -0.26350667427E+03  0.51327316446E+03  0.25500000920E-02 0.  1.
       -2    1    3    3    0  502  0.36811012363E+03 -0.24188532580E+03 -0.13438786671E+03  0.46051457380E+03  0.25500000920E-02 0. -1.
</event>
<event>
 5   0  0.3513625E-03  0.1011155E+04  0.7818609E-02  0.9296394E-01
        3   -1    0    0  501    0  0.00000000000E+00  0.00000000000E+00  0.10803524848E+04  0.10803524895E+04  0.10100000352E+00 0.  1.
       -3   -1    0    0    0  501  0.00000000000E+00  0.00000000000E+00 -0.23659740154E+03  0.23659742310E+03  0.10100000352E+00 0. -1.
    10030    2    1    2    0    0  0.00000000000E+00  0.00000000000E+00  0.84375508326E+03  0.13169499126E+04  0.10111549989E+04 0.  0.
        3    1    3    3  502    0 -0.24708909077E+03 -0.24359467980E+03 -0.57047462259E+02  0.35163306152E+03  0.10100000352E+00 0. -1.
       -3    1    3    3    0  502  0.24708909077E+03  0.24359467980E+03  0.90080254552E+03  0.96531685110E+03  0.10100000352E+00 0.  1.
</event>
<event>
 5   0  0.5072205E-03  0.9909782E+03  0.7818609E-02  0.9318495E-01
        1   -1    0    0  501    0  0.00000000000E+00  0.00000000000E+00  0.21993896703E+03  0.21993896709E+03  0.50400001928E-02 0.  1.
       -1   -1    0    0    0  501  0.00000000000E+00  0.00000000000E+00 -0.11162618024E+04  0.11162618024E+04  0.50400001928E-02 0. -1.
    10030    2    1    2    0    0  0.00000000000E+00  0.00000000000E+00 -0.89632283532E+03  0.13362007695E+04  0.99097823951E+03 0.  0.
        5    1    3    3  502    0  0.10035900898E+03 -0.39841970232E+03 -0.74790327407E+02  0.41764323645E+03  0.46999998093E+01 0.  1.
       -5    1    3    3    0  502 -0.10035900898E+03  0.39841970232E+03 -0.82153250792E+03  0.91855753301E+03  0.46999998093E+01 0. -1.
</event>
<event>
 5   0  0.8968798E-03  0.9780190E+03  0.7818609E-02  0.9332987E-01
       -2   -1    0    0    0  501  0.00000000000E+00  0.00000000000E+00  0.27608693561E+03  0.27608693562E+03  0.25500000920E-02 0. -1.
        2   -1    0    0  501    0  0.00000000000E+00  0.00000000000E+00 -0.86614129396E+03  0.86614129397E+03  0.25500000920E-02 0.  1.
    10030    2    1    2    0    0  0.00000000000E+00  0.00000000000E+00 -0.59005435835E+03  0.11422282296E+04  0.97801900936E+03 0.  0.
        2    1    3    3  502    0  0.11031659235E+03 -0.17239301436E+03 -0.81371303393E+03  0.83905780703E+03  0.25500000920E-02 0.  1.
       -2    1    3    3    0  502 -0.11031659235E+03  0.17239301436E+03  0.22365867558E+03  0.30317042256E+03  0.25500000920E-02 0. -1.
</event>
<event>
 5   0  0.8968798E-03  0.1006655E+04  0.7818609E-02  0.9301275E-01
        2   -1    0    0  501    0  0.00000000000E+00  0.00000000000E+00  0.13374002127E+04  0.13374002127E+04  0.25500000920E-02 0. -1.
       -2   -1    0    0    0  501  0.00000000000E+00  0.00000000000E+00 -0.18942631881E+03  0.18942631883E+03  0.25500000920E-02 0.  1.
    10030    2    1    2    0    0  0.00000000000E+00  0.00000000000E+00  0.11479738939E+04  0.15268265315E+04  0.10066554507E+04 0.  0.
        2    1    3    3  502    0 -0.20094772321E+03 -0.28364943608E+03  0.21884397668E+02  0.34830434525E+03  0.25500000920E-02 0.  1.
       -2    1    3    3    0  502  0.20094772321E+03  0.28364943608E+03  0.11260894962E+04  0.11785221863E+04  0.25500000920E-02 0. -1.
</event>
<event>
 5   0  0.5189877E-03  0.7576107E+03  0.7818609E-02  0.9623486E-01
       -1   -1    0    0    0  501  0.00000000000E+00  0.00000000000E+00  0.24239208701E+03  0.24239208706E+03  0.50400001928E-02 0.  1.
        1   -1    0    0  501    0  0.00000000000E+00  0.00000000000E+00 -0.59198911804E+03  0.59198911806E+03  0.50400001928E-02 0. -1.
    10030    2    1    2    0    0  0.00000000000E+00  0.00000000000E+00 -0.34959703104E+03  0.83438120512E+03  0.75761065947E+03 0.  0.
        3    1    3    3  502    0  0.18615619939E+03 -0.30165993888E+03 -0.32190214479E+03  0.47882549047E+03  0.10100000352E+00 0. -1.
       -3    1    3    3    0  502 -0.18615619939E+03  0.30165993888E+03 -0.27694886247E+02  0.35555571466E+03  0.10100000352E+00 0.  1.
</event>
<event>
 5   0  0.8875655E-03  0.1000427E+04  0.7818609E-02  0.9308077E-01
       -2   -1    0    0    0  501  0.00000000000E+00  0.00000000000E+00  0.33404803537E+03  0.33404803538E+03  0.25500000920E-02 0.  1.
        2   -1    0    0  501    0  0.00000000000E+00  0.00000000000E+00 -0.74903448275E+03  0.74903448276E+03  0.25500000920E-02 0. -1.
    10030    2    1    2    0    0  0.00000000000E+00  0.00000000000E+00 -0.41498644739E+03  0.10830825181E+04  0.10004269037E+04 0.  0.
        4    1    3    3  502    0  0.21371396844E+03  0.27629584194E+03 -0.59512397034E+03  0.69006318953E+03  0.12699999809E+01 0. -1.
       -4    1    3    3    0  502 -0.21371396844E+03 -0.27629584194E+03  0.18013752295E+03  0.39301932860E+03  0.12699999809E+01 0.  1.
</event>
<event>
 5   0  0.5310275E-03  0.9853782E+03  0.7818609E-02  0.9324729E-01
        1   -1    0    0  501    0  0.00000000000E+00  0.00000000000E+00  0.12959043019E+04  0.12959043019E+04  0.50400001928E-02 0.  1.
       -1   -1    0    0    0  501  0.00000000000E+00  0.00000000000E+00 -0.18731518132E+03  0.18731518139E+03  0.50400001928E-02 0. -1.
    10030    2    1    2    0    0  0.00000000000E+00  0.00000000000E+00  0.11085891206E+04  0.14832194833E+04  0.98537820018E+03 0.  0.
        1    1    3    3  502    0  0.21393223013E+03  0.18888125300E+02  0.12217387858E+04  0.12404714511E+04  0.50400001928E-02 0.  1.
       -1    1    3    3    0  502 -0.21393223013E+03 -0.18888125300E+02 -0.11314966519E+03  0.24274803218E+03  0.50400001928E-02 0. -1.
</event>
<event>
 5   0  0.8968798E-03  0.1004468E+04  0.7818609E-02  0.9303658E-01
        2   -1    0    0  501    0  0.00000000000E+00  0.00000000000E+00  0.15656463114E+04  0.15656463114E+04  0.25500000920E-02 0.  1.
       -2   -1    0    0    0  501  0.00000000000E+00  0.00000000000E+00 -0.16110848279E+03  0.16110848281E+03  0.25500000920E-02 0. -1.
    10030    2    1    2    0    0  0.00000000000E+00  0.00000000000E+00  0.14045378286E+04  0.17267547942E+04  0.10044678230E+04 0.  0.
        2    1    3    3  502    0 -0.42320843723E+03 -0.25633553909E+03  0.85040496590E+03  0.98387087363E+03  0.25500000920E-02 0. -1.
       -2    1    3    3    0  502  0.42320843723E+03  0.25633553909E+03  0.55413286274E+03  0.74288392062E+03  0.25500000920E-02 0.  1.
</event>
<event>
 5   0  0.5189877E-03  0.1003990E+04  0.7818609E-02  0.9304179E-01
       -1   -1    0    0    0  501  0.00000000000E+00  0.00000000000E+00  0.33056076893E+03  0.33056076897E+03  0.50400001928E-02 0.  1.
        1   -1    0    0  501    0  0.00000000000E+00  0.00000000000E+00 -0.76233808427E+03  0.76233808428E+03  0.50400001928E-02 0. -1.
    10030    2    1    2    0    0  0.00000000000E+00  0.00000000000E+00 -0.43177731533E+03  0.10928988533E+04  0.10039901660E+04 0.  0.
        3    1    3    3  502    0 -0.67096412586E+02  0.44862781973E+03 -0.44994122858E+03  0.63891781052E+03  0.10100000352E+00 0. -1.
       -3    1    3    3    0  502  0.67096412586E+02 -0.44862781973E+03  0.18163913248E+02  0.45398104274E+03  0.10100000352E+00 0.  1.
</event>
<event>
 5   0  0.3513625E-03  0.1006178E+04  0.7818609E-02  0.9301795E-01
       -3   -1    0    0    0  501  0.00000000000E+00  0.00000000000E+00  0.36410985597E+03  0.36410986998E+03  0.10100000352E+00 0. -1.
        3   -1    0    0  501    0  0.00000000000E+00  0.00000000000E+00 -0.69511563978E+03  0.69511564711E+03  0.10100000352E+00 0.  1.
    10030    2    1    2    0    0  0.00000000000E+00  0.00000000000E+00 -0.33100578380E+03  0.10592255171E+04  0.10061778507E+04 0.  0.
        5    1    3    3  502    0 -0.11795173803E+03  0.33530420913E+03 -0.54027021105E+03  0.64672677083E+03  0.46999998093E+01 0.  1.
       -5    1    3    3    0  502  0.11795173803E+03 -0.33530420913E+03  0.20926442724E+03  0.41249874627E+03  0.46999998093E+01 0. -1.
</event>
<event>
 5   0  0.9040674E-03  0.9826680E+03  0.7818609E-02  0.9327761E-01
        2   -1    0    0  501    0  0.00000000000E+00  0.00000000000E+00  0.12665188159E+04  0.12665188159E+04  0.25500000920E-02 0. -1.
       -2   -1    0    0    0  501  0.00000000000E+00  0.00000000000E+00 -0.19060837910E+03  0.19060837912E+03  0.25500000920E-02 0.  1.
    10030    2    1    2    0    0  0.00000000000E+00  0.00000000000E+00  0.10759104368E+04  0.14571271951E+04  0.98266799810E+03 0.  0.
        1    1    3    3  502    0 -0.49663938422E+00  0.23122643433E+03 -0.10488634034E+03  0.25390363329E+03  0.50400001928E-02 0.  1.
       -1    1    3    3    0  502  0.49663938422E+00 -0.23122643433E+03  0.11807967772E+04  0.12032235618E+04  0.50400001928E-02 0. -1.
</event>
<event>
 5   0  0.8907355E-03  0.9924219E+03  0.7818609E-02  0.9316896E-01
        2   -1    0    0  501    0  0.00000000000E+00  0.00000000000E+00  0.22408840461E+04  0.22408840461E+04  0.25500000920E-02 0.  1.
       -2   -1    0    0    0  501  0.00000000000E+00  0.00000000000E+00 -0.10987863676E+03  0.10987863679E+03  0.25500000920E-02 0. -1.
    10030    2    1    2    0    0  0.00000000000E+00  0.00000000000E+00  0.21310054093E+04  0.23507626829E+04  0.99242185416E+03 0.  0.
        5    1    3    3  502    0  0.41213226002E+03 -0.85415821859E+01  0.41130360562E+03  0.58233899438E+03  0.46999998093E+01 0. -1.
       -5    1    3    3    0  502 -0.41213226002E+03  0.85415821859E+01  0.17197018037E+04  0.17684236885E+04  0.46999998093E+01 0.  1.
</event>
<event>
 5   0  0.5310275E-03  0.1004838E+04  0.7818609E-02  0.9303254E-01
        1   -1    0    0  501    0  0.00000000000E+00  0.00000000000E+00  0.10813327501E+04  0.10813327501E+04  0.50400001928E-02 0.  1.
       -1   -1    0    0    0  501  0.00000000000E+00  0.00000000000E+00 -0.23343868283E+03  0.23343868288E+03  0.50400001928E-02 0. -1.
    10030    2    1    2    0    0  0.00000000000E+00  0.00000000000E+00  0.84789406731E+03  0.13147714330E+04  0.10048380823E+04 0.  0.
        1    1    3    3  502    0 -0.26382088795E+03  0.41623853391E+03  0.29595423986E+03  0.57484336141E+03  0.50400001928E-02 0. -1.
       -1    1    3    3    0  502  0.26382088795E+03 -0.41623853391E+03  0.55193982744E+03  0.73992807162E+03  0.50400001928E-02 0.  1.
</event>
<event>
 5   0  0.5201968E-03  0.1013327E+04  0.7818609E-02  0.9294048E-01
       -1   -1    0    0    0  501  0.00000000000E+00  0.00000000000E+00  0.34359625643E+03  0.34359625646E+03  0.50400001928E-02 0.  1.
        1   -1    0    0  501    0  0.00000000000E+00  0.00000000000E+00 -0.74712047103E+03  0.74712047104E+03  0.50400001928E-02 0. -1.
    10030    2    1    2    0    0  0.00000000000E+00  0.00000000000E+00 -0.40352421460E+03  0.10907167275E+04  0.10133267923E+04 0.  0.
        2    1    3    3  502    0  0.22531172552E+03  0.44934942877E+03 -0.13345262611E+03  0.52008642187E+03  0.25500000920E-02 0.  1.
       -2    1    3    3    0  502 -0.22531172552E+03 -0.44934942877E+03 -0.27007158849E+03  0.57063030564E+03  0.25500000920E-02 0. -1.
</event>
<event>
 5   0  0.5349685E-03  0.9815029E+03  0.7818609E-02  0.9329068E-01
       -1   -1    0    0    0  501  0.00000000000E+00  0.00000000000E+00  0.30071897390E+03  0.30071897394E+03  0.50400001928E-02 0. -1.
        1   -1    0    0  501    0  0.00000000000E+00  0.00000000000E+00 -0.80087060271E+03  0.80087060273E+03  0.50400001928E-02 0.  1.
    10030    2    1    2    0    0  0.00000000000E+00  0.00000000000E+00 -0.50015162881E+03  0.11015895767E+04  0.98150290046E+03 0.  0.
        4    1    3    3  502    0 -0.34126208562E+03 -0.90415872457E+02  0.13251301769E+03  0.37708905292E+03  0.12699999809E+01 0. -1.
       -4    1    3    3    0  502  0.34126208562E+03  0.90415872457E+02 -0.63266464650E+03  0.72450052375E+03  0.12699999809E+01 0.  1.
</event>
<event>
 5   0  0.8968798E-03  0.1006532E+04  0.7818609E-02  0.9301409E-01
       -2   -1    0    0    0  501  0.00000000000E+00  0.00000000000E+00  0.19252022353E+03  0.19252022355E+03  0.25500000920E-02 0. -1.
        2   -1    0    0  501    0  0.00000000000E+00  0.00000000000E+00 -0.13155848505E+04  0.13155848505E+04  0.25500000920E-02 0.  1.
    10030    2    1    2    0    0  0.00000000000E+00  0.00000000000E+00 -0.11230646270E+04  0.15081050741E+04  0.10065320452E+04 0.  0.
        2    1    3    3  502    0 -0.44048198710E+03  0.57528089121E+02 -0.91591802355E+03  0.10179585885E+04  0.25500000920E-02 0.  1.
       -2    1    3    3    0  502  0.44048198710E+03 -0.57528089121E+02 -0.20714660343E+03  0.49014648557E+03  0.25500000920E-02 0. -1.
</event>
<event>
 5   0  0.8968798E-03  0.9991635E+03  0.7818609E-02  0.9309463E-01
        2   -1    0    0  501    0  0.00000000000E+00  0.00000000000E+00  0.96117501147E+03  0.96117501147E+03  0.25500000920E-02 0. -1.
       -2   -1    0    0    0  501  0.00000000000E+00  0.00000000000E+00 -0.25966336672E+03  0.25966336673E+03  0.25500000920E-02 0.  1.
    10030    2    1    2    0    0  0.00000000000E+00  0.00000000000E+00  0.70151164475E+03  0.12208383782E+04  0.99916352914E+03 0.  0.
        2    1    3    3  502    0  0.36404675718E+03 -0.19705262314E+03  0.90231466643E+01  0.41405457959E+03  0.25500000920E-02 0.  1.
       -2    1    3    3    0  502 -0.36404675718E+03  0.19705262314E+03  0.69248849809E+03  0.80678379860E+03  0.25500000920E-02 0. -1.
</event>
<event>
 5   0  0.8875655E-03  0.1001190E+04  0.7818609E-02  0.9307241E-01
       -2   -1    0    0    0  501  0.00000000000E+00  0.00000000000E+00  0.37078430368E+03  0.37078430369E+03  0.25500000920E-02 0. -1.
        2   -1    0    0  501    0  0.00000000000E+00  0.00000000000E+00 -0.67585208004E+03  0.67585208005E+03  0.25500000920E-02 0.  1.
    10030    2    1    2    0    0  0.00000000000E+00  0.00000000000E+00 -0.30506777636E+03  0.10466363837E+04  0.10011899778E+04 0.  0.
        4    1    3    3  502    0 -0.33700746538E+03 -0.20638191606E+03  0.16870313855E+03  0.42968580248E+03  0.12699999809E+01 0. -1.
       -4    1    3    3    0  502  0.33700746538E+03  0.20638191606E+03 -0.47377091491E+03  0.61695058126E+03  0.12699999809E+01 0.  1.
</event>
<event>
 5   0  0.8907355E-03  0.9498841E+03  0.7818609E-02  0.9365286E-01
       -2   -1    0    0    0  501  0.00000000000E+00  0.00000000000E+00  0.21820438030E+03  0.21820438031E+03  0.25500000920E-02 0.  1.
        2   -1    0    0  501    0  0.00000000000E+00  0.00000000000E+00 -0.10337553378E+04  0.10337553378E+04  0.25500000920E-02 0. -1.
    10030    2    1    2    0    0  0.00000000000E+00  0.00000000000E+00 -0.81555095748E+03  0.12519597181E+04  0.94988408318E+03 0.  0.
        5    1    3    3  502    0 -0.30668724994E+03 -0.54330639143E+02 -0.88031392061E+03  0.93380060850E+03  0.46999998093E+01 0. -1.
       -5    1    3    3    0  502  0.30668724994E+03  0.54330639143E+02  0.64762963129E+02  0.31815910959E+03  0.46999998093E+01 0.  1.
</event>
<event>
 5   0  0.8968798E-03  0.1003136E+04  0.7818609E-02  0.9305112E-01
       -2   -1    0    0    0  501  0.00000000000E+00  0.00000000000E+00  0.20545411220E+03  0.20545411222E+03  0.25500000920E-02 0. -1.
        2   -1    0    0  501    0  0.00000000000E+00  0.00000000000E+00 -0.12244605056E+04  0.12244605056E+04  0.25500000920E-02 0.  1.
    10030    2    1    2    0    0  0.00000000000E+00  0.00000000000E+00 -0.10190063934E+04  0.14299146178E+04  0.10031359751E+04 0.  0.
        2    1    3    3  502    0  0.28198870444E+03 -0.96711447922E+02  0.65464827785E+02  0.30521529659E+03  0.25500000920E-02 0. -1.
       -2    1    3    3    0  502 -0.28198870444E+03  0.96711447922E+02 -0.10844712212E+04  0.11246993212E+04  0.25500000920E-02 0.  1.
</event>
<event>
 5   0  0.9040674E-03  0.9991923E+03  0.7818609E-02  0.9309431E-01
        2   -1    0    0  501    0  0.00000000000E+00  0.00000000000E+00  0.68673332924E+03  0.68673332924E+03  0.25500000920E-02 0. -1.
       -2   -1    0    0    0  501  0.00000000000E+00  0.00000000000E+00 -0.36345452159E+03  0.36345452160E+03  0.25500000920E-02 0.  1.
    10030    2    1    2    0    0  0.00000000000E+00  0.00000000000E+00  0.32327880764E+03  0.10501878508E+04  0.99919234114E+03 0.  0.
        1    1    3    3  502    0 -0.16844425847E+03  0.43933859945E+03 -0.14873634829E+02  0.47075800388E+03  0.50400001928E-02 0. -1.
       -1    1    3    3    0  502  0.16844425847E+03 -0.43933859945E+03  0.33815244247E+03  0.57942984696E+03  0.50400001928E-02 0.  1.
</event>
<event>
 5   0  0.8875655E-03  0.1010635E+04  0.7818609E-02  0.9296957E-01
        2   -1    0    0  501    0  0.00000000000E+00  0.00000000000E+00  0.74162089555E+03  0.74162089556E+03  0.25500000920E-02 0.  1.
       -2   -1    0    0    0  501  0.00000000000E+00  0.00000000000E+00 -0.34430754143E+03  0.34430754144E+03  0.25500000920E-02 0. -1.
    10030    2    1    2    0    0  0.00000000000E+00  0.00000000000E+00  0.39731335413E+03  0.10859284370E+04  0.10106347851E+04 0.  0.
        4    1    3    3  502    0  0.39670827496E+03  0.29828194446E+03  0.96751791296E+02  0.50567983530E+03  0.12699999809E+01 0. -1.
       -4    1    3    3    0  502 -0.39670827496E+03 -0.29828194446E+03  0.30056156283E+03  0.58024860169E+03  0.12699999809E+01 0.  1.
</event>
<event>
 5   0  0.8875655E-03  0.9989686E+03  0.7818609E-02  0.9309677E-01
       -2   -1    0    0    0  501  0.00000000000E+00  0.00000000000E+00  0.27677421026E+03  0.27677421028E+03  0.25500000920E-02 0.  1.
        2   -1    0    0  501    0  0.00000000000E+00  0.00000000000E+00 -0.90140110742E+03  0.90140110742E+03  0.25500000920E-02 0. -1.
    10030    2    1    2    0    0  0.00000000000E+00  0.00000000000E+00 -0.62462689716E+03  0.11781753177E+04  0.99896862743E+03 0.  0.
        4    1    3    3  502    0 -0.33368210374E+03 -0.15754559117E+03  0.84703168550E+02  0.37860348561E+03  0.12699999809E+01 0.  1.
       -4    1    3    3    0  502  0.33368210374E+03  0.15754559117E+03 -0.70933006571E+03  0.79957183209E+03  0.12699999809E+01 0. -1.
</event>
<event>
 5   0  0.8907355E-03  0.9898010E+03  0.7818609E-02  0.9319802E-01
       -2   -1    0    0    0  501  0.00000000000E+00  0.00000000000E+00  0.22112286112E+03  0.22112286114E+03  0.25500000920E-02 0. -1.
        2   -1    0    0  501    0  0.00000000000E+00  0.00000000000E+00 -0.11076489737E+04  0.11076489737E+04  0.25500000920E-02 0.  1.
    10030    2    1    2    0    0  0.00000000000E+00  0.00000000000E+00 -0.88652611255E+03  0.13287718348E+04  0.98980101068E+03 0.  0.
        5    1    3    3  502    0  0.14973068425E+03 -0.29563159553E+03 -0.93667477934E+03  0.99357890997E+03  0.46999998093E+01 0.  1.
       -5    1    3    3    0  502 -0.14973068425E+03  0.29563159553E+03  0.50148666792E+02  0.33519292484E+03  0.46999998093E+01 0. -1.
</event>
<event>
 5   0  0.5201968E-03  0.9582001E+03  0.7818609E-02  0.9355617E-01
       -1   -1    0    0    0  501  0.00000000000E+00  0.00000000000E+00  0.33249085717E+03  0.33249085721E+03  0.50400001928E-02 0.  1.
        1   -1    0    0  501    0  0.00000000000E+00  0.00000000000E+00 -0.69035534997E+03  0.69035534999E+03  0.50400001928E-02 0. -1.
    10030    2    1    2    0    0  0.00000000000E+00  0.00000000000E+00 -0.35786449281E+03  0.10228462072E+04  0.95820006698E+03 0.  0.
        2    1    3    3  502    0  0.82806527606E+02 -0.51902307397E+01 -0.68262812901E+03  0.68765181745E+03  0.25500000920E-02 0. -1.
       -2    1    3    3    0  502 -0.82806527606E+02  0.51902307397E+01  0.32476363621E+03  0.33519438975E+03  0.25500000920E-02 0.  1.
</event>
<event>
 5   0  0.8907355E-03  0.1000586E+04  0.7818609E-02  0.9307902E-01
       -2   -1    0    0    0  501  0.00000000000E+00  0.00000000000E+00  0.22948138537E+03  0.22948138539E+03  0.25500000920E-02 0. -1.
        2   -1    0    0  501    0  0.00000000000E+00  0.00000000000E+00 -0.10906909313E+04  0.10906909313E+04  0.25500000920E-02 0.  1.
    10030    2    1    2    0    0  0.00000000000E+00  0.00000000000E+00 -0.86120954590E+03  0.13201723167E+04  0.10005863600E+04 0.  0.
        5    1    3    3  502    0 -0.53904416098E+02  0.47566409603E+03 -0.23890945989E+03  0.53503442726E+03  0.46999998093E+01 0. -1.
       -5    1    3    3    0  502  0.53904416098E+02 -0.47566409603E+03 -0.62230008601E+03  0.78513788940E+03  0.46999998093E+01 0.  1.
</event>
<event>
 5   0  0.9243773E-03  0.8555113E+03  0.7818609E-02  0.9482970E-01
        2   -1    0    0  501    0  0.00000000000E+00  0.00000000000E+00  0.11387114187E+03  0.11387114190E+03  0.25500000920E-02 0.  1.
       -2   -1    0    0    0  501  0.00000000000E+00  0.00000000000E+00 -0.16068593530E+04  0.16068593530E+04  0.25500000920E-02 0. -1.
    10030    2    1    2    0    0  0.00000000000E+00  0.00000000000E+00 -0.14929882111E+04  0.17207304949E+04  0.85551133102E+03 0.  0.
        3    1    3    3  502    0 -0.42103735859E+03  0.70890230375E+02 -0.79882846360E+03  0.90577304362E+03  0.10100000352E+00 0.  1.
       -3    1    3    3    0  502  0.42103735859E+03 -0.70890230375E+02 -0.69415974749E+03  0.81495745124E+03  0.10100000352E+00 0. -1.
</event>
<event>
 5   0  0.3513625E-03  0.1001363E+04  0.7818609E-02  0.9307051E-01
       -4   -1    0    0    0  501  0.00000000000E+00  0.00000000000E+00  0.10725937322E+04  0.10725944841E+04  0.12699999809E+01 0. -1.
        4   -1    0    0  501    0  0.00000000000E+00  0.00000000000E+00 -0.23371311631E+03  0.23371656688E+03  0.12699999809E+01 0.  1.
    10030    2    1    2    0    0  0.00000000000E+00  0.00000000000E+00  0.83888061593E+03  0.13063110510E+04  0.10013630082E+04 0.  0.
        2    1    3    3  502    0 -0.24951584488E+03  0.24166058746E+03 -0.50959105606E+02  0.35107666802E+03  0.25500000920E-02 0.  1.
       -2    1    3    3    0  502  0.24951584488E+03 -0.24166058746E+03  0.88983972153E+03  0.95523438296E+03  0.25500000920E-02 0. -1.
</event>
<event>
 5   0  0.5310275E-03  0.9914525E+03  0.7818609E-02  0.9317970E-01
        1   -1    0    0  501    0  0.00000000000E+00  0.00000000000E+00  0.11657079845E+03  0.11657079856E+03  0.50400001928E-02 0. -1.
       -1   -1    0    0    0  501  0.00000000000E+00  0.00000000000E+00 -0.21081139508E+04  0.21081139508E+04  0.50400001928E-02 0.  1.
    10030    2    1    2    0    0  0.00000000000E+00  0.00000000000E+00 -0.19915431524E+04  0.22246847494E+04  0.99145252354E+03 0.  0.
        1    1    3    3  502    0 -0.39745976091E+03 -0.44749572276E+01 -0.33107917928E+03  0.51730813812E+03  0.50400001928E-02 0. -1.
       -1    1    3    3    0  502  0.39745976091E+03  0.44749572276E+01 -0.16604639731E+04  0.17073766113E+04  0.50400001928E-02 0.  1.
</event>
<event>
 5   0  0.5072205E-03  0.1007732E+04  0.7818609E-02  0.9300105E-01
        1   -1    0    0  501    0  0.00000000000E+00  0.00000000000E+00  0.13638793582E+04  0.13638793582E+04  0.50400001928E-02 0. -1.
       -1   -1    0    0    0  501  0.00000000000E+00  0.00000000000E+00 -0.18614618643E+03  0.18614618650E+03  0.50400001928E-02 0.  1.
    10030    2    1    2    0    0  0.00000000000E+00  0.00000000000E+00  0.11777331718E+04  0.15500255447E+04  0.10077319908E+04 0.  0.
        5    1    3    3  502    0  0.11070941410E+03  0.31128291566E+03  0.37587505948E+01  0.33043886901E+03  0.46999998093E+01 0.  1.
       -5    1    3    3    0  502 -0.11070941410E+03 -0.31128291566E+03  0.11739744212E+04  0.12195866757E+04  0.46999998093E+01 0. -1.
</event>
<event>
 5   0  0.5072205E-03  0.9913291E+03  0.7818609E-02  0.9318106E-01
       -1   -1    0    0    0  501  0.00000000000E+00  0.00000000000E+00  0.39813799724E+03  0.39813799727E+03  0.50400001928E-02 0. -1.
        1   -1    0    0  501    0  0.00000000000E+00  0.00000000000E+00 -0.61708091197E+03  0.61708091199E+03  0.50400001928E-02 0.  1.
    10030    2    1    2    0    0  0.00000000000E+00  0.00000000000E+00 -0.21894291473E+03  0.10152189093E+04  0.99132912487E+03 0.  0.
        5    1    3    3  502    0  0.14437066809E+03 -0.28902509381E+02 -0.59414507909E+03  0.61213455209E+03  0.46999998093E+01 0.  1.
       -5    1    3    3    0  502 -0.14437066809E+03  0.28902509381E+02  0.37520216437E+03  0.40308435717E+03  0.46999998093E+01 0. -1.
</event>
<event>
 5   0  0.3513625E-03  0.1000243E+04  0.7818609E-02  0.9308279E-01
       -3   -1    0    0    0  501  0.00000000000E+00  0.00000000000E+00  0.21380105824E+03  0.21380108209E+03  0.10100000352E+00 0. -1.
        3   -1    0    0  501    0  0.00000000000E+00  0.00000000000E+00 -0.11698790483E+04  0.11698790526E+04  0.10100000352E+00 0.  1.
    10030    2    1    2    0    0  0.00000000000E+00  0.00000000000E+00 -0.95607799003E+03  0.13836801347E+04  0.10002427666E+04 0.  0.
        1    1    3    3  502    0  0.63112810698E+02 -0.17699675687E+03 -0.11191863526E+04  0.11348520479E+04  0.50400001928E-02 0.  1.
       -1    1    3    3    0  502 -0.63112810698E+02  0.17699675687E+03  0.16310836257E+03  0.24882808680E+03  0.50400001928E-02 0. -1.
</event>
<event>
 5   0  0.9040674E-03  0.1014400E+04  0.7818609E-02  0.9292891E-01
       -2   -1    0    0    0  501  0.00000000000E+00  0.00000000000E+00  0.25131529995E+03  0.25131529996E+03  0.25500000920E-02 0. -1.
        2   -1    0    0  501    0  0.00000000000E+00  0.00000000000E+00 -0.10236221394E+04  0.10236221394E+04  0.25500000920E-02 0.  1.
    10030    2    1    2    0    0  0.00000000000E+00  0.00000000000E+00 -0.77230683950E+03  0.12749374394E+04  0.10144001282E+04 0.  0.
        1    1    3    3  502    0  0.53024892505E+02  0.21176438649E+02 -0.10195700301E+04  0.10211675314E+04  0.50400001928E-02 0.  1.
       -1    1    3    3    0  502 -0.53024892505E+02 -0.21176438649E+02  0.24726319061E+03  0.25376990805E+03  0.50400001928E-02 0. -1.
</event>
<event>
 5   0  0.9040674E-03  0.7972884E+03  0.7818609E-02  0.9563950E-01
       -2   -1    0    0    0  501  0.00000000000E+00  0.00000000000E+00  0.64646603973E+03  0.64646603973E+03  0.25500000920E-02 0.  1.
        2   -1    0    0  501    0  0.00000000000E+00  0.00000000000E+00 -0.24582449457E+03  0.24582449458E+03  0.25500000920E-02 0. -1.
    10030    2    1    2    0    0  0.00000000000E+00  0.00000000000E+00  0.40064154516E+03  0.89229053431E+03  0.79728837312E+03 0.  0.
        1    1    3    3  502    0 -0.11820251618E+03  0.29254354444E+03  0.47299938148E+03  0.56857890844E+03  0.50400001928E-02 0.  1.
       -1    1    3    3    0  502  0.11820251618E+03 -0.29254354444E+03 -0.72357836319E+02  0.32371162587E+03  0.50400001928E-02 0. -1.
</event>
<event>
 5   0  0.5349685E-03  0.9608954E+03  0.7818609E-02  0.9352505E-01
        1   -1    0    0  501    0  0.00000000000E+00  0.00000000000E+00  0.10573930641E+04  0.10573930641E+04  0.50400001928E-02 0.  1.
       -1   -1    0    0    0  501  0.00000000000E+00  0.00000000000E+00 -0.21830102309E+03  0.21830102315E+03  0.50400001928E-02 0. -1.
    10030    2    1    2    0    0  0.00000000000E+00  0.00000000000E+00  0.83909204101E+03  0.12756940873E+04  0.96089539023E+03 0.  0.
        4    1    3    3  502    0  0.41572642138E+03  0.24022022926E+03  0.44231593510E+03  0.65282403090E+03  0.12699999809E+01 0.  1.
       -4    1    3    3    0  502 -0.41572642138E+03 -0.24022022926E+03  0.39677610591E+03  0.62287005635E+03  0.12699999809E+01 0. -1.
</event>
<event>
 5   0  0.8968798E-03  0.1031136E+04  0.7818609E-02  0.9275039E-01
       -2   -1    0    0    0  501  0.00000000000E+00  0.00000000000E+00  0.37625070145E+03  0.37625070146E+03  0.25500000920E-02 0. -1.
        2   -1    0    0  501    0  0.00000000000E+00  0.00000000000E+00 -0.70647162526E+03  0.70647162526E+03  0.25500000920E-02 0.  1.
    10030    2    1    2    0    0  0.00000000000E+00  0.00000000000E+00 -0.33022092381E+03  0.10827223267E+04  0.10311361589E+04 0.  0.
        2    1    3    3  502    0  0.19837657373E+03 -0.34750395154E+03  0.17626699369E+03  0.43724399872E+03  0.25500000920E-02 0. -1.
       -2    1    3    3    0  502 -0.19837657373E+03  0.34750395154E+03 -0.50648791750E+03  0.64547832800E+03  0.25500000920E-02 0.  1.
</event>
<event>
 5   0  0.5072205E-03  0.1004509E+04  0.7818609E-02  0.9303614E-01
        1   -1    0    0  501    0  0.00000000000E+00  0.00000000000E+00  0.15155138717E+04  0.15155138717E+04  0.50400001928E-02 0.  1.
       -1   -1    0    0    0  501  0.00000000000E+00  0.00000000000E+00 -0.16645137653E+03  0.16645137661E+03  0.50400001928E-02 0. -1.
    10030    2    1    2    0    0  0.00000000000E+00  0.00000000000E+00  0.13490624952E+04  0.16819652483E+04  0.10045085767E+04 0.  0.
        5    1    3    3  502    0 -0.32655963232E+02  0.29290395027E+03  0.13554611814E+04  0.13871395893E+04  0.46999998093E+01 0.  1.
       -5    1    3    3    0  502  0.32655963232E+02 -0.29290395027E+03 -0.63986862223E+01  0.29482565899E+03  0.46999998093E+01 0. -1.
</event>
<event>
 5   0  0.8907355E-03  0.1004397E+04  0.7818609E-02  0.9303735E-01
        2   -1    0    0  501    0  0.00000000000E+00  0.00000000000E+00  0.70198682842E+03  0.70198682842E+03  0.25500000920E-02 0. -1.
       -2   -1    0    0    0  501  0.00000000000E+00  0.00000000000E+00 -0.35927104828E+03  0.35927104829E+03  0.25500000920E-02 0.  1.
    10030    2    1    2    0    0  0.00000000000E+00  0.00000000000E+00  0.34271578013E+03  0.10612578767E+04  0.10043974188E+04 0.  0.
        5    1    3    3  502    0  0.41817708743E+03 -0.12310118747E+03  0.43478170399E+03  0.61569732737E+03  0.46999998093E+01 0.  1.
       -5    1    3    3    0  502 -0.41817708743E+03  0.12310118747E+03 -0.92065923856E+02  0.44556054935E+03  0.46999998093E+01 0. -1.
</event>
<event>
 5   0  0.8907355E-03  0.1003047E+04  0.7818609E-02  0.9305209E-01
        2   -1    0    0  501    0  0.00000000000E+00  0.00000000000E+00  0.78409610774E+03  0.78409610775E+03  0.25500000920E-02 0. -1.
       -2   -1    0    0    0  501  0.00000000000E+00  0.00000000000E+00 -0.32078429761E+03  0.32078429762E+03  0.25500000920E-02 0.  1.
    10030    2    1    2    0    0  0.00000000000E+00  0.00000000000E+00  0.46331181013E+03  0.11048804054E+04  0.10030467969E+04 0.  0.
        5    1    3    3  502    0  0.30778742220E+03 -0.33605242884E+03  0.10205585335E+01  0.45572740068E+03  0.46999998093E+01 0. -1.
       -5    1    3    3    0  502 -0.30778742220E+03  0.33605242884E+03  0.46229125159E+03  0.64915300469E+03  0.46999998093E+01 0.  1.
</event>
<event>
 5   0  0.5310275E-03  0.8727541E+03  0.7818609E-02  0.9460296E-01
        1   -1    0    0  501    0  0.00000000000E+00  0.00000000000E+00  0.75901367202E+03  0.75901367203E+03  0.50400001928E-02 0. -1.
       -1   -1    0    0    0  501  0.00000000000E+00  0.00000000000E+00 -0.25088474020E+03  0.25088474025E+03  0.50400001928E-02 0.  1.
    10030    2    1    2    0    0  0.00000000000E+00  0.00000000000E+00  0.50812893181E+03  0.10098984123E+04  0.87275414166E+03 0.  0.
        1    1    3    3  502    0 -0.33024118206E+03  0.89905504565E+02  0.56731118513E+03  0.66255884182E+03  0.50400001928E-02 0. -1.
       -1    1    3    3    0  502  0.33024118206E+03 -0.89905504565E+02 -0.59182253314E+02  0.34733957046E+03  0.50400001928E-02 0.  1.
</event>
<event>
 5   0  0.5349685E-03  0.1009201E+04  0.7818609E-02  0.9298510E-01
        1   -1    0    0  501    0  0.00000000000E+00  0.00000000000E+00  0.73510390148E+03  0.73510390150E+03  0.50400001928E-02 0.  1.
       -1   -1    0    0    0  501  0.00000000000E+00  0.00000000000E+00 -0.34637530090E+03  0.34637530094E+03  0.50400001928E-02 0. -1.
    10030    2    1    2    0    0  0.00000000000E+00  0.00000000000E+00  0.38872860058E+03  0.10814792024E+04  0.10092013379E+04 0.  0.
        4    1    3    3  502    0  0.33577782472E+03 -0.37620708123E+03  0.17455509396E+03  0.53361934866E+03  0.12699999809E+01 0. -1.
       -4    1    3    3    0  502 -0.33577782472E+03  0.37620708123E+03  0.21417350661E+03  0.54785985377E+03  0.12699999809E+01 0.  1.
</event>
<event>
 5   0  0.9243773E-03  0.9997326E+03  0.7818609E-02  0.9308838E-01
       -2   -1    0    0    0  501  0.00000000000E+00  0.00000000000E+00  0.13552357309E+03  0.13552357311E+03  0.25500000920E-02 0. -1.
        2   -1    0    0  501    0  0.00000000000E+00  0.00000000000E+00 -0.18437110540E+04  0.18437110540E+04  0.25500000920E-02 0.  1.
    10030    2    1    2    0    0  0.00000000000E+00  0.00000000000E+00 -0.17081874809E+04  0.19792346271E+04  0.99973258384E+03 0.  0.
        3    1    3    3  502    0  0.25323422775E+03 -0.30254603598E+03 -0.14617381939E+04  0.15140476332E+04  0.10100000352E+00 0. -1.
       -3    1    3    3    0  502 -0.25323422775E+03  0.30254603598E+03 -0.24644928698E+03  0.46518699385E+03  0.10100000352E+00 0.  1.
</event>
<event>
 5   0  0.9040674E-03  0.1034966E+04  0.7818609E-02  0.9271005E-01
        2   -1    0    0  501    0  0.00000000000E+00  0.00000000000E+00  0.26989088371E+04  0.26989088371E+04  0.25500000920E-02 0.  1.
       -2   -1    0    0    0  501  0.00000000000E+00  0.00000000000E+00 -0.99221063145E+02  0.99221063178E+02  0.25500000920E-02 0. -1.
    10030    2    1    2    0    0  0.00000000000E+00  0.00000000000E+00  0.25996877740E+04  0.27981299003E+04  0.10349659013E+04 0.  0.
        1    1    3    3  502    0  0.32834206381E+03  0.17390554221E+03  0.22736526589E+04  0.23038116377E+04  0.50400001928E-02 0.  1.
       -1    1    3    3    0  502 -0.32834206381E+03 -0.17390554221E+03  0.32603511504E+03  0.49431826260E+03  0.50400001928E-02 0. -1.
</event>
<event>
 5   0  0.8907355E-03  0.1003205E+04  0.7818609E-02  0.9305036E-01
       -2   -1    0    0    0  501  0.00000000000E+00  0.00000000000E+00  0.14800924952E+03  0.14800924954E+03  0.25500000920E-02 0. -1.
        2   -1    0    0  501    0  0.00000000000E+00  0.00000000000E+00 -0.16999285012E+04  0.16999285012E+04  0.25500000920E-02 0.  1.
    10030    2    1    2    0    0  0.00000000000E+00  0.00000000000E+00 -0.15519192516E+04  0.18479377507E+04  0.10032051469E+04 0.  0.
        5    1    3    3  502    0  0.12122467381E+02  0.45937167280E+03 -0.11462668929E+04  0.12349571522E+04  0.46999998093E+01 0.  1.
       -5    1    3    3    0  502 -0.12122467381E+02 -0.45937167280E+03 -0.40565235872E+03  0.61298059849E+03  0.46999998093E+01 0. -1.
</event>
<event>
 5   0  0.3513625E-03  0.1017279E+04  0.7818609E-02  0.9289794E-01
        4   -1    0    0  501    0  0.00000000000E+00  0.00000000000E+00  0.55822307191E+03  0.55822451658E+03  0.12699999809E+01 0. -1.
       -4   -1    0    0    0  501  0.00000000000E+00  0.00000000000E+00 -0.46345704025E+03  0.46345878032E+03  0.12699999809E+01 0.  1.
    10030    2    1    2    0    0  0.00000000000E+00  0.00000000000E+00  0.94766031666E+02  0.10216832969E+04  0.10172788007E+04 0.  0.
        4    1    3    3  502    0  0.10394955254E+03 -0.44358793211E+03 -0.17973024571E+03  0.48977580290E+03  0.12699999809E+01 0.  1.
       -4    1    3    3    0  502 -0.10394955254E+03  0.44358793211E+03  0.27449627738E+03  0.53190749400E+03  0.12699999809E+01 0. -1.
</event>
<event>
 5   0  0.9243773E-03  0.9980961E+03  0.7818609E-02  0.9310635E-01
        2   -1    0    0  501    0  0.00000000000E+00  0.00000000000E+00  0.17438604861E+04  0.17438604861E+04  0.25500000920E-02 0. -1.
       -2   -1    0    0    0  501  0.00000000000E+00  0.00000000000E+00 -0.14281472625E+03  0.14281472628E+03  0.25500000920E-02 0.  1.
    10030    2    1    2    0    0  0.00000000000E+00  0.00000000000E+00  0.16010457598E+04  0.18866752123E+04  0.99809610352E+03 0.  0.
        3    1    3    3  502    0  0.41612071800E+03 -0.25657526156E+03  0.61091386763E+03  0.78243407432E+03  0.10100000352E+00 0. -1.
       -3    1    3    3    0  502 -0.41612071800E+03  0.25657526156E+03  0.99013189218E+03  0.11042411380E+04  0.10100000352E+00 0.  1.
</event>
<event>
 5   0  0.8875655E-03  0.1013831E+04  0.7818609E-02  0.9293504E-01
       -2   -1    0    0    0  501  0.00000000000E+00  0.00000000000E+00  0.38977319320E+03  0.38977319321E+03  0.25500000920E-02 0.  1.
        2   -1    0    0  501    0  0.00000000000E+00  0.00000000000E+00 -0.65926398662E+03  0.65926398663E+03  0.25500000920E-02 0. -1.
    10030    2    1    2    0    0  0.00000000000E+00  0.00000000000E+00 -0.26949079342E+03  0.10490371798E+04  0.10138312073E+04 0.  0.
        4    1    3    3  502    0  0.28150947537E+03  0.40657235106E+03 -0.25002867393E+03  0.55413411017E+03  0.12699999809E+01 0. -1.
       -4    1    3    3    0  502 -0.28150947537E+03 -0.40657235106E+03 -0.19462119491E+02  0.49490306967E+03  0.12699999809E+01 0.  1.
</event>
<event>
 5   0  0.5072205E-03  0.9966604E+03  0.7818609E-02  0.9312215E-01
        1   -1    0    0  501    0  0.00000000000E+00  0.00000000000E+00  0.50977517472E+03  0.50977517474E+03  0.50400001928E-02 0. -1.
       -1   -1    0    0    0  501  0.00000000000E+00  0.00000000000E+00 -0.48714216492E+03  0.48714216494E+03  0.50400001928E-02 0.  1.
    10030    2    1    2    0    0  0.00000000000E+00  0.00000000000E+00  0.22633009801E+02  0.99691733969E+03  0.99666038801E+03 0.  0.
        5    1    3    3  502    0 -0.18014949748E+03 -0.17563699383E+03  0.44155377047E+03  0.50822634452E+03  0.46999998093E+01 0. -1.
       -5    1    3    3    0  502  0.18014949748E+03  0.17563699383E+03 -0.41892076067E+03  0.48869099517E+03  0.46999998093E+01 0.  1.
</event>
<event>
 5   0  0.9243773E-03  0.1004965E+04  0.7818609E-02  0.9303116E-01
       -2   -1    0    0    0  501  0.00000000000E+00  0.00000000000E+00  0.27666185555E+03  0.27666185557E+03  0.25500000920E-02 0.  1.
        2   -1    0    0  501    0  0.00000000000E+00  0.00000000000E+00 -0.91262558286E+03  0.91262558286E+03  0.25500000920E-02 0. -1.
    10030    2    1    2    0    0  0.00000000000E+00  0.00000000000E+00 -0.63596372730E+03  0.11892874384E+04  0.10049650485E+04 0.  0.
        3    1    3    3  502    0  0.24210290584E+02 -0.42071880324E+03 -0.64185255159E+03  0.76783146442E+03  0.10100000352E+00 0. -1.
       -3    1    3    3    0  502 -0.24210290584E+02  0.42071880324E+03  0.58888242937E+01  0.42145597400E+03  0.10100000352E+00 0.  1.
</event>
<event>
 5   0  0.8875655E-03  0.9994909E+03  0.7818609E-02  0.9309103E-01
        2   -1    0    0  501    0  0.00000000000E+00  0.00000000000E+00  0.75943242348E+03  0.75943242348E+03  0.25500000920E-02 0. -1.
       -2   -1    0    0    0  501  0.00000000000E+00  0.00000000000E+00 -0.32885808528E+03  0.32885808529E+03  0.25500000920E-02 0.  1.
    10030    2    1    2    0    0  0.00000000000E+00  0.00000000000E+00  0.43057433819E+03  0.10882905088E+04  0.99949085577E+03 0.  0.
        4    1    3    3  502    0  0.30142817597E+03  0.12724284450E+03  0.62659707241E+03  0.70687706909E+03  0.12699999809E+01 0. -1.
       -4    1    3    3    0  502 -0.30142817597E+03 -0.12724284450E+03 -0.19602273422E+03  0.38141343969E+03  0.12699999809E+01 0.  1.
</event>
<event>
 5   0  0.9040674E-03  0.1017260E+04  0.7818609E-02  0.9289815E-01
        2   -1    0    0  501    0  0.00000000000E+00  0.00000000000E+00  0.83652530625E+03  0.83652530626E+03  0.25500000920E-02 0. -1.
       -2   -1    0    0    0  501  0.00000000000E+00  0.00000000000E+00 -0.30926053693E+03  0.30926053695E+03  0.25500000920E-02 0.  1.
    10030    2    1    2    0    0  0.00000000000E+00  0.00000000000E+00  0.52726476932E+03  0.11457858432E+04  0.10172595841E+04 0.  0.
        1    1    3    3  502    0  0.37401138031E+03 -0.24126865242E+03  0.54092665895E+03  0.70049748439E+03  0.50400001928E-02 0. -1.
       -1    1    3    3    0  502 -0.37401138031E+03  0.24126865242E+03 -0.13661889631E+02  0.44528835882E+03  0.50400001928E-02 0.  1.
</event>
<event>
 5   0  0.5349685E-03  0.9877159E+03  0.7818609E-02  0.9322121E-01
       -1   -1    0    0    0  501  0.00000000000E+00  0.00000000000E+00  0.32092302325E+03  0.32092302329E+03  0.50400001928E-02 0. -1.
        1   -1    0    0  501    0  0.00000000000E+00  0.00000000000E+00 -0.75998178220E+03  0.75998178222E+03  0.50400001928E-02 0.  1.
    10030    2    1    2    0    0  0.00000000000E+00  0.00000000000E+00 -0.43905875895E+03  0.10809048055E+04  0.98771585224E+03 0.  0.
        4    1    3    3  502    0  0.18166418400E+03  0.14438193616E+03  0.25754359166E+03  0.34666746853E+03  0.12699999809E+01 0. -1.
       -4    1    3    3    0  502 -0.18166418400E+03 -0.14438193616E+03 -0.69660235061E+03  0.73423733698E+03  0.12699999809E+01 0.  1.
</event>
<event>
 5   0  0.9243773E-03  0.1001469E+04  0.7818609E-02  0.9306935E-01
        2   -1    0    0  501    0  0.00000000000E+00  0.00000000000E+00  0.89608034767E+03  0.89608034768E+03  0.25500000920E-02 0.  1.
       -2   -1    0    0    0  501  0.00000000000E+00  0.00000000000E+00 -0.27981307514E+03  0.27981307515E+03  0.25500000920E-02 0. -1.
    10030    2    1    2    0    0  0.00000000000E+00  0.00000000000E+00  0.61626727254E+03  0.11758934228E+04  0.10014689165E+04 0.  0.
        3    1    3    3  502    0 -0.33474839102E+03 -0.59997999823E+02  0.73967655141E+03  0.81411157477E+03  0.10100000352E+00 0.  1.
       -3    1    3    3    0  502  0.33474839102E+03  0.59997999823E+02 -0.12340927887E+03  0.36178184806E+03  0.10100000352E+00 0. -1.
</event>
<event>
 5   0  0.8907355E-03  0.8853229E+03  0.7818609E-02  0.9444117E-01
       -2   -1    0    0    0  501  0.00000000000E+00  0.00000000000E+00  0.20847112336E+03  0.20847112337E+03  0.25500000920E-02 0.  1.
        2   -1    0    0  501    0  0.00000000000E+00  0.00000000000E+00 -0.93993424219E+03  0.93993424219E+03  0.25500000920E-02 0. -1.
    10030    2    1    2    0    0  0.00000000000E+00  0.00000000000E+00 -0.73146311883E+03  0.11484053656E+04  0.88532287299E+03 0.  0.
        5    1    3    3  502    0  0.25595893447E+03  0.36080061463E+03 -0.34584657100E+03  0.56153717626E+03  0.46999998093E+01 0. -1.
       -5    1    3    3    0  502 -0.25595893447E+03 -0.36080061463E+03 -0.38561654783E+03  0.58686818930E+03  0.46999998093E+01 0.  1.
</event>
<event>
 5   0  0.5189877E-03  0.1025189E+04  0.7818609E-02  0.9281342E-01
        1   -1    0    0  501    0  0.00000000000E+00  0.00000000000E+00  0.35880148463E+03  0.35880148466E+03  0.50400001928E-02 0.  1.
       -1   -1    0    0    0  501  0.00000000000E+00  0.00000000000E+00 -0.73230743960E+03  0.73230743962E+03  0.50400001928E-02 0. -1.
    10030    2    1    2    0    0  0.00000000000E+00  0.00000000000E+00 -0.37350595497E+03  0.10911089243E+04  0.10251887564E+04 0.  0.
        3    1    3    3  502    0  0.24670774499E+03 -0.60573483840E+02 -0.66059879768E+03  0.70776029846E+03  0.10100000352E+00 0. -1.
       -3    1    3    3    0  502 -0.24670774499E+03  0.60573483840E+02  0.28709284271E+03  0.38334862582E+03  0.10100000352E+00 0.  1.
</event>
<event>
 5   0  0.3513625E-03  0.9787579E+03  0.7818609E-02  0.9332155E-01
        3   -1    0    0  501    0  0.00000000000E+00  0.00000000000E+00  0.51692450855E+03  0.51692451842E+03  0.10100000352E+00 0.  1.
       -3   -1    0    0    0  501  0.00000000000E+00  0.00000000000E+00 -0.46330119025E+03  0.46330120126E+03  0.10100000352E+00 0. -1.
    10030    2    1    2    0    0  0.00000000000E+00  0.00000000000E+00  0.53623318302E+02  0.98022571967E+03  0.97875788694E+03 0.  0.
        4    1    3    3  502    0  0.91075130024E+02 -0.46285764956E+03  0.15723081692E+03  0.49724744922E+03  0.12699999809E+01 0.  1.
       -4    1    3    3    0  502 -0.91075130024E+02  0.46285764956E+03 -0.10360749862E+03  0.48297827046E+03  0.12699999809E+01 0. -1.
</event>
<event>
 5   0  0.5349685E-03  0.1075858E+04  0.7818609E-02  0.9229047E-01
        1   -1    0    0  501    0  0.00000000000E+00  0.00000000000E+00  0.11605848341E+04  0.11605848341E+04  0.50400001928E-02 0.  1.
       -1   -1    0    0    0  501  0.00000000000E+00  0.00000000000E+00 -0.24932901185E+03  0.24932901190E+03  0.50400001928E-02 0. -1.
    10030    2    1    2    0    0  0.00000000000E+00  0.00000000000E+00  0.91125582225E+03  0.14099138460E+04  0.10758577413E+04 0.  0.
        4    1    3    3  502    0  0.41163068651E+03  0.21024220242E+03  0.95003417885E+02  0.47187802244E+03  0.12699999809E+01 0. -1.
       -4    1    3    3    0  502 -0.41163068651E+03 -0.21024220242E+03  0.81625240437E+03  0.93803582356E+03  0.12699999809E+01 0.  1.
</event>
<event>
 5   0  0.8875655E-03  0.9934477E+03  0.7818609E-02  0.9315761E-01
       -2   -1    0    0    0  501  0.00000000000E+00  0.00000000000E+00  0.87857745970E+03  0.87857745970E+03  0.25500000920E-02 0. -1.
        2   -1    0    0  501    0  0.00000000000E+00  0.00000000000E+00 -0.28083420885E+03  0.28083420887E+03  0.25500000920E-02 0.  1.
    10030    2    1    2    0    0  0.00000000000E+00  0.00000000000E+00  0.59774325084E+03  0.11594116686E+04  0.99344774562E+03 0.  0.
        4    1    3    3  502    0  0.22011607989E+03  0.42638559562E+03  0.14906372555E+03  0.50247126481E+03  0.12699999809E+01 0.  1.
       -4    1    3    3    0  502 -0.22011607989E+03 -0.42638559562E+03  0.44867952529E+03  0.65694040376E+03  0.12699999809E+01 0. -1.
</event>
<event>
 5   0  0.5189877E-03  0.1004786E+04  0.7818609E-02  0.9303311E-01
        1   -1    0    0  501    0  0.00000000000E+00  0.00000000000E+00  0.69617619491E+03  0.69617619493E+03  0.50400001928E-02 0. -1.
       -1   -1    0    0    0  501  0.00000000000E+00  0.00000000000E+00 -0.36254987728E+03  0.36254987732E+03  0.50400001928E-02 0.  1.
    10030    2    1    2    0    0  0.00000000000E+00  0.00000000000E+00  0.33362631763E+03  0.10587260722E+04  0.10047857365E+04 0.  0.
        3    1    3    3  502    0  0.19595521987E+03  0.30079241583E+03 -0.20351430639E+03  0.41266525020E+03  0.10100000352E+00 0.  1.
       -3    1    3    3    0  502 -0.19595521987E+03 -0.30079241583E+03  0.53714062402E+03  0.64606082205E+03  0.10100000352E+00 0. -1.
</event>
<event>
 5   0  0.8907355E-03  0.1018734E+04  0.7818609E-02  0.9288233E-01
        2   -1    0    0  501    0  0.00000000000E+00  0.00000000000E+00  0.14628883778E+04  0.14628883778E+04  0.25500000920E-02 0.  1.
       -2   -1    0    0    0  501  0.00000000000E+00  0.00000000000E+00 -0.17735775724E+03  0.17735775726E+03  0.25500000920E-02 0. -1.
    10030    2    1    2    0    0  0.00000000000E+00  0.00000000000E+00  0.12855306205E+04  0.16402461350E+04  0.10187337273E+04 0.  0.
        5    1    3    3  502    0 -0.30543164476E+03 -0.25053810124E+03  0.11604382119E+04  0.12258453260E+04  0.46999998093E+01 0.  1.
       -5    1    3    3    0  502  0.30543164476E+03  0.25053810124E+03  0.12509240866E+03  0.41440080900E+03  0.46999998093E+01 0. -1.
</event>
<event>
 5   0  0.8968798E-03  0.1000701E+04  0.7818609E-02  0.9307776E-01
       -2   -1    0    0    0  501  0.00000000000E+00  0.00000000000E+00  0.14485091926E+03  0.14485091928E+03  0.25500000920E-02 0. -1.
        2   -1    0    0  501    0  0.00000000000E+00  0.00000000000E+00 -0.17283326151E+04  0.17283326151E+04  0.25500000920E-02 0.  1.
    10030    2    1    2    0    0  0.00000000000E+00  0.00000000000E+00 -0.15834816958E+04  0.18731835343E+04  0.10007008906E+04 0.  0.
        2    1    3    3  502    0  0.30045527806E+03  0.22630864578E+03 -0.14093495173E+04  0.14586826382E+04  0.25500000920E-02 0.  1.
       -2    1    3    3    0  502 -0.30045527806E+03 -0.22630864578E+03 -0.17413217853E+03  0.41450089611E+03  0.25500000920E-02 0. -1.
</event>
<event>
 5   0  0.8907355E-03  0.1003981E+04  0.7818609E-02  0.9304190E-01
       -2   -1    0    0    0  501  0.00000000000E+00  0.00000000000E+00  0.21787385699E+03  0.21787385701E+03  0.25500000920E-02 0. -1.
        2   -1    0    0  501    0  0.00000000000E+00  0.00000000000E+00 -0.11566065368E+04  0.11566065368E+04  0.25500000920E-02 0.  1.
    10030    2    1    2    0    0  0.00000000000E+00  0.00000000000E+00 -0.93873267982E+03  0.13744803938E+04  0.10039807313E+04 0.  0.
        5    1    3    3  502    0  0.39928744875E+03  0.27732464661E+03 -0.64053793916E+03  0.80414573794E+03  0.46999998093E+01 0.  1.
       -5    1    3    3    0  502 -0.39928744875E+03 -0.27732464661E+03 -0.29819474066E+03  0.57033465588E+03  0.46999998093E+01 0. -1.
</event>
<event>
 5   0  0.5189877E-03  0.1009145E+04  0.7818609E-02  0.9298571E-01
       -1   -1    0    0    0  501  0.00000000000E+00  0.00000000000E+00  0.11404679619E+03  0.11404679630E+03  0.50400001928E-02 0. -1.
        1   -1    0    0  501    0  0.00000000000E+00  0.00000000000E+00 -0.22323590687E+04  0.22323590687E+04  0.50400001928E-02 0.  1.
    10030    2    1    2    0    0  0.00000000000E+00  0.00000000000E+00 -0.21183122726E+04  0.23464058650E+04  0.10091449844E+04 0.  0.
        3    1    3    3  502    0 -0.14637004762E+03  0.48220713848E+02 -0.21762992914E+04  0.21817488499E+04  0.10100000352E+00 0.  1.
       -3    1    3    3    0  502  0.14637004762E+03 -0.48220713848E+02  0.57987018835E+02  0.16465701516E+03  0.10100000352E+00 0. -1.
</event>
<event>
 5   0  0.5201968E-03  0.9911104E+03  0.7818609E-02  0.9318349E-01
       -1   -1    0    0    0  501  0.00000000000E+00  0.00000000000E+00  0.23202306834E+03  0.23202306839E+03  0.50400001928E-02 0. -1.
        1   -1    0    0  501    0  0.00000000000E+00  0.00000000000E+00 -0.10584074268E+04  0.10584074268E+04  0.50400001928E-02 0.  1.
    10030    2    1    2    0    0  0.00000000000E+00  0.00000000000E+00 -0.82638435848E+03  0.12904304952E+04  0.99111036472E+03 0.  0.
        2    1    3    3  502    0  0.73835245221E+02 -0.36151184283E+03 -0.84390294390E+03  0.92103997452E+03  0.25500000920E-02 0.  1.
       -2    1    3    3    0  502 -0.73835245221E+02  0.36151184283E+03  0.17518585418E+02  0.36939052070E+03  0.25500000920E-02 0. -1.
</event>
<event>
 5   0  0.9243773E-03  0.1010259E+04  0.7818609E-02  0.9297363E-01
        2   -1    0    0  501    0  0.00000000000E+00  0.00000000000E+00  0.22156803638E+04  0.22156803638E+04  0.25500000920E-02 0. -1.
       -2   -1    0    0    0  501  0.00000000000E+00  0.00000000000E+00 -0.11515923406E+03  0.11515923409E+03  0.25500000920E-02 0.  1.
    10030    2    1    2    0    0  0.00000000000E+00  0.00000000000E+00  0.21005211298E+04  0.23308395979E+04  0.10102594789E+04 0.  0.
        3    1    3    3  502    0 -0.13776280730E+02  0.41470949109E+03  0.17148786823E+04  0.17643646599E+04  0.10100000352E+00 0. -1.
       -3    1    3    3    0  502  0.13776280730E+02 -0.41470949109E+03  0.38564244750E+03  0.56647493804E+03  0.10100000352E+00 0.  1.
</event>
<event>
 5   0  0.5201968E-03  0.9742649E+03  0.7818609E-02  0.9337230E-01
        1   -1    0    0  501    0  0.00000000000E+00  0.00000000000E+00  0.40407573140E+03  0.40407573143E+03  0.50400001928E-02 0.  1.
       -1   -1    0    0    0  501  0.00000000000E+00  0.00000000000E+00 -0.58726121470E+03  0.58726121472E+03  0.50400001928E-02 0. -1.
    10030    2    1    2    0    0  0.00000000000E+00  0.00000000000E+00 -0.18318548331E+03  0.99133694615E+03  0.97426486107E+03 0.  0.
        2    1    3    3  502    0  0.37403894833E+03  0.22798208798E+02  0.22510566482E+03  0.43714694730E+03  0.25500000920E-02 0.  1.
       -2    1    3    3    0  502 -0.37403894833E+03 -0.22798208798E+02 -0.40829114813E+03  0.55418999886E+03  0.25500000920E-02 0. -1.
</event>
<event>
 5   0  0.8875655E-03  0.9990804E+03  0.7818609E-02  0.9309554E-01
       -2   -1    0    0    0  501  0.00000000000E+00  0.00000000000E+00  0.27242637217E+03  0.27242637218E+03  0.25500000920E-02 0.  1.
        2   -1    0    0  501    0  0.00000000000E+00  0.00000000000E+00 -0.91599214318E+03  0.91599214319E+03  0.25500000920E-02 0. -1.
    10030    2    1    2    0    0  0.00000000000E+00  0.00000000000E+00 -0.64356577101E+03  0.11884185154E+04  0.99908041020E+03 0.  0.
        4    1    3    3  502    0 -0.10034369660E+03  0.11783689380E+03  0.24318467195E+03  0.28826166682E+03  0.12699999809E+01 0.  1.
       -4    1    3    3    0  502  0.10034369660E+03 -0.11783689380E+03 -0.88675044296E+03  0.90015684855E+03  0.12699999809E+01 0. -1.
</event>
<event>
 5   0  0.5349685E-03  0.9881699E+03  0.7818609E-02  0.9321616E-01
       -1   -1    0    0    0  501  0.00000000000E+00  0.00000000000E+00  0.14731665957E+03  0.14731665966E+03  0.50400001928E-02 0.  1.
        1   -1    0    0  501    0  0.00000000000E+00  0.00000000000E+00 -0.16571100366E+04  0.16571100366E+04  0.50400001928E-02 0. -1.
    10030    2    1    2    0    0  0.00000000000E+00  0.00000000000E+00 -0.15097933770E+04  0.18044266962E+04  0.98816985424E+03 0.  0.
        4    1    3    3  502    0  0.48552301952E+03  0.85174563271E+02 -0.81630649318E+03  0.95359593771E+03  0.12699999809E+01 0. -1.
       -4    1    3    3    0  502 -0.48552301952E+03 -0.85174563271E+02 -0.69348688381E+03  0.85083075851E+03  0.12699999809E+01 0.  1.
</event>
<event>
 5   0  0.5310275E-03  0.1009851E+04  0.7818609E-02  0.9297805E-01
        1   -1    0    0  501    0  0.00000000000E+00  0.00000000000E+00  0.10963124388E+04  0.10963124388E+04  0.50400001928E-02 0. -1.
       -1   -1    0    0    0  501  0.00000000000E+00  0.00000000000E+00 -0.23255228932E+03  0.23255228938E+03  0.50400001928E-02 0.  1.
    10030    2    1    2    0    0  0.00000000000E+00  0.00000000000E+00  0.86376014943E+03  0.13288647281E+04  0.10098514098E+04 0.  0.
        1    1    3    3  502    0 -0.96960796244E+02  0.12516326254E+03  0.10628032353E+04  0.10745315051E+04  0.50400001928E-02 0. -1.
       -1    1    3    3    0  502  0.96960796244E+02 -0.12516326254E+03 -0.19904308590E+03  0.25433322309E+03  0.50400001928E-02 0.  1.
</event>
<event>
 5   0  0.5072205E-03  0.9967179E+03  0.7818609E-02  0.9312152E-01
        1   -1    0    0  501    0  0.00000000000E+00  0.00000000000E+00  0.56842322158E+03  0.56842322160E+03  0.50400001928E-02 0. -1.
       -1   -1    0    0    0  501  0.00000000000E+00  0.00000000000E+00 -0.43693081708E+03  0.43693081711E+03  0.50400001928E-02 0.  1.
    10030    2    1    2    0    0  0.00000000000E+00  0.00000000000E+00  0.13149240450E+03  0.10053540387E+04  0.99671785913E+03 0.  0.
        5    1    3    3  502    0  0.36210199380E+03 -0.26066070630E+03  0.28965537797E+03  0.53196257924E+03  0.46999998093E+01 0. -1.
       -5    1    3    3    0  502 -0.36210199380E+03  0.26066070630E+03 -0.15816297347E+03  0.47339145947E+03  0.46999998093E+01 0.  1.
</event>
<event>
 5   0  0.5189877E-03  0.1001747E+04  0.7818609E-02  0.9306630E-01
        1   -1    0    0  501    0  0.00000000000E+00  0.00000000000E+00  0.12962796921E+04  0.12962796921E+04  0.50400001928E-02 0.  1.
       -1   -1    0    0    0  501  0.00000000000E+00  0.00000000000E+00 -0.19353420899E+03  0.19353420905E+03  0.50400001928E-02 0. -1.
    10030    2    1    2    0    0  0.00000000000E+00  0.00000000000E+00  0.11027454831E+04  0.14898139011E+04  0.10017474031E+04 0.  0.
        3    1    3    3  502    0 -0.48272923285E+03 -0.89030473547E+00  0.75004904182E+03  0.89196517882E+03  0.10100000352E+00 0.  1.
       -3    1    3    3    0  502  0.48272923285E+03  0.89030473547E+00  0.35269644126E+03  0.59784872231E+03  0.10100000352E+00 0. -1.
</event>
<event>
 5   0  0.8968798E-03  0.1022835E+04  0.7818609E-02  0.9283848E-01
       -2   -1    0    0    0  501  0.00000000000E+00  0.00000000000E+00  0.49411121583E+03  0.49411121584E+03  0.25500000920E-02 0.  1.
        2   -1    0    0  501    0  0.00000000000E+00  0.00000000000E+00 -0.52933029072E+03  0.52933029072E+03  0.25500000920E-02 0. -1.
    10030    2    1    2    0    0  0.00000000000E+00  0.00000000000E+00 -0.35219074883E+02  0.10234415066E+04  0.10228353407E+04 0.  0.
        2    1    3    3  502    0  0.40800084270E+03  0.28890766265E+03 -0.12544960479E+03  0.51543178843E+03  0.25500000920E-02 0. -1.
       -2    1    3    3    0  502 -0.40800084270E+03 -0.28890766265E+03  0.90230529909E+02  0.50800971813E+03  0.25500000920E-02 0.  1.
</event>
<event>
 5   0  0.5349685E-03  0.1010281E+04  0.7818609E-02  0.9297340E-01
       -1   -1    0    0    0  501  0.00000000000E+00  0.00000000000E+00  0.51269256233E+03  0.51269256235E+03  0.50400001928E-02 0.  1.
        1   -1    0    0  501    0  0.00000000000E+00  0.00000000000E+00 -0.49769982755E+03  0.49769982758E+03  0.50400001928E-02 0. -1.
    10030    2    1    2    0    0  0.00000000000E+00  0.00000000000E+00  0.14992734773E+02  0.10103923899E+04  0.10102811488E+04 0.  0.
        4    1    3    3  502    0  0.32822254612E+03  0.93138705540E+01 -0.37640602862E+03  0.49949964889E+03  0.12699999809E+01 0. -1.
       -4    1    3    3    0  502 -0.32822254612E+03 -0.93138705540E+01  0.39139876339E+03  0.51089274104E+03  0.12699999809E+01 0.  1.
</event>
<event>
 5   0  0.9243773E-03  0.9706430E+03  0.7818609E-02  0.9341342E-01
       -2   -1    0    0    0  501  0.00000000000E+00  0.00000000000E+00  0.16881925201E+03  0.16881925203E+03  0.25500000920E-02 0.  1.
        2   -1    0    0  501    0  0.00000000000E+00  0.00000000000E+00 -0.13952018867E+04  0.13952018867E+04  0.25500000920E-02 0. -1.
    10030    2    1    2    0    0  0.00000000000E+00  0.00000000000E+00 -0.12263826347E+04  0.15640211387E+04  0.97064295997E+03 0.  0.
        3    1    3    3  502    0 -0.19002083147E+03  0.42751370056E+03 -0.82117739733E+03  0.94509693082E+03  0.10100000352E+00 0. -1.
       -3    1    3    3    0  502  0.19002083147E+03 -0.42751370056E+03 -0.40520523735E+03  0.61892420791E+03  0.10100000352E+00 0.  1.
</event>
<event>
 5   0  0.3513625E-03  0.1024769E+04  0.7818609E-02  0.9281789E-01
        3   -1    0    0  501    0  0.00000000000E+00  0.00000000000E+00  0.54015420600E+03  0.54015421544E+03  0.10100000352E+00 0.  1.
       -3   -1    0    0    0  501  0.00000000000E+00  0.00000000000E+00 -0.48604210858E+03  0.48604211908E+03  0.10100000352E+00 0. -1.
    10030    2    1    2    0    0  0.00000000000E+00  0.00000000000E+00  0.54112097419E+02  0.10261963345E+04  0.10247686558E+04 0.  0.
        4    1    3    3  502    0  0.23724322965E+03  0.42114973759E+03 -0.14313553059E+03  0.50412383846E+03  0.12699999809E+01 0. -1.
       -4    1    3    3    0  502 -0.23724322965E+03 -0.42114973759E+03  0.19724762801E+03  0.52207249606E+03  0.12699999809E+01 0.  1.
</event>
<event>
 5   0  0.8875655E-03  0.7607587E+03  0.7818609E-02  0.9618621E-01
       -2   -1    0    0    0  501  0.00000000000E+00  0.00000000000E+00  0.15589801156E+03  0.15589801158E+03  0.25500000920E-02 0. -1.
        2   -1    0    0  501    0  0.00000000000E+00  0.00000000000E+00 -0.92809676779E+03  0.92809676779E+03  0.25500000920E-02 0.  1.
    10030    2    1    2    0    0  0.00000000000E+00  0.00000000000E+00 -0.77219875623E+03  0.10839947794E+04  0.76075867566E+03 0.  0.
        4    1    3    3  502    0 -0.15296906675E+03 -0.22200019758E+03 -0.37536961279E+01  0.26962812584E+03  0.12699999809E+01 0. -1.
       -4    1    3    3    0  502  0.15296906675E+03  0.22200019758E+03 -0.76844506010E+03  0.81436665354E+03  0.12699999809E+01 0.  1.
</event>
<event>
 5   0  0.5310275E-03  0.9923309E+03  0.7818609E-02  0.9316996E-01
        1   -1    0    0  501    0  0.00000000000E+00  0.00000000000E+00  0.12288680008E+04  0.12288680008E+04  0.50400001928E-02 0. -1.
       -1   -1    0    0    0  501  0.00000000000E+00  0.00000000000E+00 -0.20033083622E+03  0.20033083628E+03  0.50400001928E-02 0.  1.
    10030    2    1    2    0    0  0.00000000000E+00  0.00000000000E+00  0.10285371645E+04  0.14291988370E+04  0.99233090095E+03 0.  0.
        1    1    3    3  502    0 -0.46162839889E+03 -0.11810046589E+03  0.71347916913E+03  0.85796329963E+03  0.50400001928E-02 0. -1.
       -1    1    3    3    0  502  0.46162839889E+03  0.11810046589E+03  0.31505799541E+03  0.57123553741E+03  0.50400001928E-02 0.  1.
</event>
<event>
 5   0  0.8907355E-03  0.9537555E+03  0.7818609E-02  0.9360772E-01
       -2   -1    0    0    0  501  0.00000000000E+00  0.00000000000E+00  0.15866515823E+03  0.15866515825E+03  0.25500000920E-02 0.  1.
        2   -1    0    0  501    0  0.00000000000E+00  0.00000000000E+00 -0.14332848900E+04  0.14332848900E+04  0.25500000920E-02 0. -1.
    10030    2    1    2    0    0  0.00000000000E+00  0.00000000000E+00 -0.12746197318E+04  0.15919500483E+04  0.95375546948E+03 0.  0.
        5    1    3    3  502    0 -0.44861792245E+03  0.39818475185E+02 -0.37579929993E+03  0.58659249496E+03  0.46999998093E+01 0.  1.
       -5    1    3    3    0  502  0.44861792245E+03 -0.39818475185E+02 -0.89882043187E+03  0.10053575533E+04  0.46999998093E+01 0. -1.
</event>
<event>
 5   0  0.3513625E-03  0.1002532E+04  0.7818609E-02  0.9305772E-01
        3   -1    0    0  501    0  0.00000000000E+00  0.00000000000E+00  0.88744861946E+02  0.88744919420E+02  0.10100000352E+00 0.  1.
       -3   -1    0    0    0  501  0.00000000000E+00  0.00000000000E+00 -0.28313482054E+04  0.28313482072E+04  0.10100000352E+00 0. -1.
    10030    2    1    2    0    0  0.00000000000E+00  0.00000000000E+00 -0.27426033434E+04  0.29200931266E+04  0.10025321783E+04 0.  0.
        4    1    3    3  502    0  0.24654838614E+03 -0.43434639967E+03 -0.14956708812E+04  0.15768563345E+04  0.12699999809E+01 0. -1.
       -4    1    3    3    0  502 -0.24654838614E+03  0.43434639967E+03 -0.12469324622E+04  0.13432367921E+04  0.12699999809E+01 0.  1.
</event>
<event>
 5   0  0.9040674E-03  0.1002954E+04  0.7818609E-02  0.9305311E-01
       -2   -1    0    0    0  501  0.00000000000E+00  0.00000000000E+00  0.25461231910E+03  0.25461231911E+03  0.25500000920E-02 0. -1.
        2   -1    0    0  501    0  0.00000000000E+00  0.00000000000E+00 -0.98769386554E+03  0.98769386554E+03  0.25500000920E-02 0.  1.
    10030    2    1    2    0    0  0.00000000000E+00  0.00000000000E+00 -0.73308154644E+03  0.12423061847E+04  0.10029536892E+04 0.  0.
        1    1    3    3  502    0  0.13385038228E+03  0.27836085062E+03 -0.85589019844E+03  0.90991687522E+03  0.50400001928E-02 0.  1.
       -1    1    3    3    0  502 -0.13385038228E+03 -0.27836085062E+03  0.12280865200E+03  0.33238930943E+03  0.50400001928E-02 0. -1.
</event>
<event>
 5   0  0.9243773E-03  0.1008029E+04  0.7818609E-02  0.9299782E-01
       -2   -1    0    0    0  501  0.00000000000E+00  0.00000000000E+00  0.11410474934E+03  0.11410474937E+03  0.25500000920E-02 0.  1.
        2   -1    0    0  501    0  0.00000000000E+00  0.00000000000E+00 -0.22262936522E+04  0.22262936522E+04  0.25500000920E-02 0. -1.
    10030    2    1    2    0    0  0.00000000000E+00  0.00000000000E+00 -0.21121889028E+04  0.23403984016E+04  0.10080291249E+04 0.  0.
        3    1    3    3  502    0  0.41237826457E+03 -0.11761930254E+03 -0.16709898616E+04  0.17251368818E+04  0.10100000352E+00 0. -1.
       -3    1    3    3    0  502 -0.41237826457E+03  0.11761930254E+03 -0.44119904127E+03  0.61526151972E+03  0.10100000352E+00 0.  1.
</event>
<event>
 5   0  0.5310275E-03  0.9924254E+03  0.7818609E-02  0.9316892E-01
       -1   -1    0    0    0  501  0.00000000000E+00  0.00000000000E+00  0.50995868549E+03  0.50995868552E+03  0.50400001928E-02 0.  1.
        1   -1    0    0  501    0  0.00000000000E+00  0.00000000000E+00 -0.48283721199E+03  0.48283721202E+03  0.50400001928E-02 0. -1.
    10030    2    1    2    0    0  0.00000000000E+00  0.00000000000E+00  0.27121473500E+02  0.99279589753E+03  0.99242537242E+03 0.  0.
        1    1    3    3  502    0 -0.27120216056E+03 -0.37013963035E+03 -0.17538294364E+03  0.49123633294E+03  0.50400001928E-02 0. -1.
       -1    1    3    3    0  502  0.27120216056E+03  0.37013963035E+03  0.20250441714E+03  0.50155956460E+03  0.50400001928E-02 0.  1.
</event>
<event>
 5   0  0.3513625E-03  0.9981583E+03  0.7818609E-02  0.9310567E-01
       -4   -1    0    0    0  501  0.00000000000E+00  0.00000000000E+00  0.18298264414E+03  0.18298705133E+03  0.12699999809E+01 0. -1.
        4   -1    0    0  501    0  0.00000000000E+00  0.00000000000E+00 -0.13612007887E+04  0.13612013811E+04  0.12699999809E+01 0.  1.
    10030    2    1    2    0    0  0.00000000000E+00  0.00000000000E+00 -0.11782181445E+04  0.15441884324E+04  0.99815826341E+03 0.  0.
        5    1    3    3  502    0  0.28077403435E+03 -0.24817307302E+03 -0.10990075180E+04  0.11611475131E+04  0.46999998093E+01 0.  1.
       -5    1    3    3    0  502 -0.28077403435E+03  0.24817307302E+03 -0.79210626502E+02  0.38304091934E+03  0.46999998093E+01 0. -1.
</event>
<event>
 5   0  0.9040674E-03  0.9925307E+03  0.7818609E-02  0.9316775E-01
       -2   -1    0    0    0  501  0.00000000000E+00  0.00000000000E+00  0.16239800757E+03  0.16239800759E+03  0.25500000920E-02 0. -1.
        2   -1    0    0  501    0  0.00000000000E+00  0.00000000000E+00 -0.15165168356E+04  0.15165168356E+04  0.25500000920E-02 0.  1.
    10030    2    1    2    0    0  0.00000000000E+00  0.00000000000E+00 -0.13541188281E+04  0.16789148432E+04  0.99253073016E+03 0.  0.
        1    1    3    3  502    0  0.33436025211E+03  0.28027646805E+03 -0.10770943650E+04  0.11621032432E+04  0.50400001928E-02 0.  1.
       -1    1    3    3    0  502 -0.33436025211E+03 -0.28027646805E+03 -0.27702446301E+03  0.51681159998E+03  0.50400001928E-02 0. -1.
</event>
<event>
 5   0  0.9243773E-03  0.9646158E+03  0.7818609E-02  0.9348228E-01
       -2   -1    0    0    0  501  0.00000000000E+00  0.00000000000E+00  0.49286785211E+03  0.49286785212E+03  0.25500000920E-02 0. -1.
        2   -1    0    0  501    0  0.00000000000E+00  0.00000000000E+00 -0.47197416347E+03  0.47197416348E+03  0.25500000920E-02 0.  1.
    10030    2    1    2    0    0  0.00000000000E+00  0.00000000000E+00  0.20893688639E+02  0.96484201559E+03  0.96461576227E+03 0.  0.
        3    1    3    3  502    0 -0.39477482872E+03  0.95800672724E+02  0.27050003326E+03  0.48805246898E+03  0.10100000352E+00 0. -1.
       -3    1    3    3    0  502  0.39477482872E+03 -0.95800672724E+02 -0.24960634462E+03  0.47678954661E+03  0.10100000352E+00 0.  1.
</event>
<event>
 5   0  0.5072205E-03  0.1010248E+04  0.7818609E-02  0.9297376E-01
       -1   -1    0    0    0  501  0.00000000000E+00  0.00000000000E+00  0.17440578812E+03  0.17440578820E+03  0.50400001928E-02 0. -1.
        1   -1    0    0  501    0  0.00000000000E+00  0.00000000000E+00 -0.14629689761E+04  0.14629689761E+04  0.50400001928E-02 0.  1.
    10030    2    1    2    0    0  0.00000000000E+00  0.00000000000E+00 -0.12885631880E+04  0.16373747643E+04  0.10102480039E+04 0.  0.
        5    1    3    3  502    0 -0.23003664657E+03  0.93388421293E+02  0.68652287189E+02  0.25763051553E+03  0.46999998093E+01 0. -1.
       -5    1    3    3    0  502  0.23003664657E+03 -0.93388421293E+02 -0.13572154752E+04  0.13797442488E+04  0.46999998093E+01 0.  1.
</event>
<event>
 5   0  0.9243773E-03  0.9929028E+03  0.7818609E-02  0.9316363E-01
        2   -1    0    0  501    0  0.00000000000E+00  0.00000000000E+00  0.42072547754E+03  0.42072547755E+03  0.25500000920E-02 0. -1.
       -2   -1    0    0    0  501  0.00000000000E+00  0.00000000000E+00 -0.58580719429E+03  0.58580719430E+03  0.25500000920E-02 0.  1.
    10030    2    1    2    0    0  0.00000000000E+00  0.00000000000E+00 -0.16508171675E+03  0.10065326718E+04  0.99290283829E+03 0.  0.
        3    1    3    3  502    0  0.15989149613E+03  0.97487929367E+02  0.38354753621E+03  0.42682304254E+03  0.10100000352E+00 0. -1.
       -3    1    3    3    0  502 -0.15989149613E+03 -0.97487929367E+02 -0.54862925296E+03  0.57970962931E+03  0.10100000352E+00 0.  1.
</event>
<event>
 5   0  0.5201968E-03  0.1002085E+04  0.7818609E-02  0.9306261E-01
       -1   -1    0    0    0  501  0.00000000000E+00  0.00000000000E+00  0.53142396606E+03  0.53142396608E+03  0.50400001928E-02 0.  1.
        1   -1    0    0  501    0  0.00000000000E+00  0.00000000000E+00 -0.47239756664E+03  0.47239756666E+03  0.50400001928E-02 0. -1.
    10030    2    1    2    0    0  0.00000000000E+00  0.00000000000E+00  0.59026399423E+02  0.10038215327E+04  0.10020846041E+04 0.  0.
        2    1    3    3  502    0 -0.72056065621E+01  0.38048893715E+03 -0.29696525249E+03  0.48271328266E+03  0.25500000920E-02 0. -1.
       -2    1    3    3    0  502  0.72056065621E+01 -0.38048893715E+03  0.35599165192E+03  0.52110825008E+03  0.25500000920E-02 0.  1.
</event>
<event>
 5   0  0.5349685E-03  0.1031965E+04  0.7818609E-02  0.9274164E-01
        1   -1    0    0  501    0  0.00000000000E+00  0.00000000000E+00  0.52712782431E+03  0.52712782433E+03  0.50400001928E-02 0. -1.
       -1   -1    0    0    0  501  0.00000000000E+00  0.00000000000E+00 -0.50507312705E+03  0.50507312708E+03  0.50400001928E-02 0.  1.
    10030    2    1    2    0    0  0.00000000000E+00  0.00000000000E+00  0.22054697256E+02  0.10322009514E+04  0.10319653068E+04 0.  0.
        4    1    3    3  502    0 -0.28130866469E+03  0.10124258497E+03  0.43166096085E+03  0.52508801535E+03  0.12699999809E+01 0. -1.
       -4    1    3    3    0  502  0.28130866469E+03 -0.10124258497E+03 -0.40960626359E+03  0.50711293606E+03  0.12699999809E+01 0.  1.
</event>
<event>
 5   0  0.9243773E-03  0.9952636E+03  0.7818609E-02  0.9313755E-01
        2   -1    0    0  501    0  0.00000000000E+00  0.00000000000E+00  0.82557094490E+03  0.82557094490E+03  0.25500000920E-02 0.  1.
       -2   -1    0    0    0  501  0.00000000000E+00  0.00000000000E+00 -0.29995899651E+03  0.29995899652E+03  0.25500000920E-02 0. -1.
    10030    2    1    2    0    0  0.00000000000E+00  0.00000000000E+00  0.52561194838E+03  0.11255299414E+04  0.99526364786E+03 0.  0.
        3    1    3    3  502    0 -0.37857666204E+03 -0.53607252175E+02 -0.97383319423E+02  0.39455994174E+03  0.10100000352E+00 0. -1.
       -3    1    3    3    0  502  0.37857666204E+03  0.53607252175E+02  0.62299526781E+03  0.73096999968E+03  0.10100000352E+00 0.  1.
</event>
<event>
 5   0  0.5189877E-03  0.1016301E+04  0.7818609E-02  0.9290844E-01
        1   -1    0    0  501    0  0.00000000000E+00  0.00000000000E+00  0.47634758787E+03  0.47634758789E+03  0.50400001928E-02 0. -1.
       -1   -1    0    0    0  501  0.00000000000E+00  0.00000000000E+00 -0.54207712462E+03  0.54207712465E+03  0.50400001928E-02 0.  1.
    10030    2    1    2    0    0  0.00000000000E+00  0.00000000000E+00 -0.65729536755E+02  0.10184247125E+04  0.10163013938E+04 0.  0.
        3    1    3    3  502    0 -0.14964593189E+03  0.71987745008E+02 -0.51411909335E+03  0.54027270217E+03  0.10100000352E+00 0.  1.
       -3    1    3    3    0  502  0.14964593189E+03 -0.71987745008E+02  0.44838955659E+03  0.47815201037E+03  0.10100000352E+00 0. -1.
</event>
<event>
 5   0  0.5310275E-03  0.9992254E+03  0.7818609E-02  0.9309395E-01
       -1   -1    0    0    0  501  0.00000000000E+00  0.00000000000E+00  0.70186859014E+03  0.70186859016E+03  0.50400001928E-02 0. -1.
        1   -1    0    0  501    0  0.00000000000E+00  0.00000000000E+00 -0.35564041460E+03  0.35564041464E+03  0.50400001928E-02 0.  1.
    10030    2    1    2    0    0  0.00000000000E+00  0.00000000000E+00  0.34622817554E+03  0.10575090048E+04  0.99922537282E+03 0.  0.
        1    1    3    3  502    0  0.58147545796E+02  0.49208752042E+03  0.24072772955E+03  0.55089119129E+03  0.50400001928E-02 0. -1.
       -1    1    3    3    0  502 -0.58147545796E+02 -0.49208752042E+03  0.10550044599E+03  0.50661781351E+03  0.50400001928E-02 0.  1.
</event>
<event>
 5   0  0.5349685E-03  0.9818060E+03  0.7818609E-02  0.9328728E-01
       -1   -1    0    0    0  501  0.00000000000E+00  0.00000000000E+00  0.26942476095E+03  0.26942476100E+03  0.50400001928E-02 0.  1.
        1   -1    0    0  501    0  0.00000000000E+00  0.00000000000E+00 -0.89444540321E+03  0.89444540322E+03  0.50400001928E-02 0. -1.
    10030    2    1    2    0    0  0.00000000000E+00  0.00000000000E+00 -0.62502064226E+03  0.11638701642E+04  0.98180596653E+03 0.  0.
        4    1    3    3  502    0  0.22369176501E+03 -0.41609141830E+03 -0.47072990048E+03  0.66690203645E+03  0.12699999809E+01 0. -1.
       -4    1    3    3    0  502 -0.22369176501E+03  0.41609141830E+03 -0.15429074178E+03  0.49696812777E+03  0.12699999809E+01 0.  1.
</event>
<event>
 5   0  0.8968798E-03  0.1007776E+04  0.7818609E-02  0.9300057E-01
        2   -1    0    0  501    0  0.00000000000E+00  0.00000000000E+00  0.23604409929E+04  0.23604409929E+04  0.25500000920E-02 0. -1.
       -2   -1    0    0    0  501  0.00000000000E+00  0.00000000000E+00 -0.10756599925E+03  0.10756599928E+03  0.25500000920E-02 0.  1.
    10030    2    1    2    0    0  0.00000000000E+00  0.00000000000E+00  0.22528749937E+04  0.24680069922E+04  0.10077761539E+04 0.  0.
        2    1    3    3  502    0 -0.33789770342E+03 -0.17564389910E+02  0.20408551038E+04  0.20687128657E+04  0.25500000920E-02 0. -1.
       -2    1    3    3    0  502  0.33789770342E+03  0.17564389910E+02  0.21201988981E+03  0.39929412649E+03  0.25500000920E-02 0.  1.
</event>
<event>
 5   0  0.8968798E-03  0.1101604E+04  0.7818609E-02  0.9203630E-01
       -2   -1    0    0    0  501  0.00000000000E+00  0.00000000000E+00  0.12478499776E+04  0.12478499776E+04  0.25500000920E-02 0.  1.
        2   -1    0    0  501    0  0.00000000000E+00  0.00000000000E+00 -0.24312450651E+03  0.24312450652E+03  0.25500000920E-02 0. -1.
    10030    2    1    2    0    0  0.00000000000E+00  0.00000000000E+00  0.10047254711E+04  0.14909744842E+04  0.11016041213E+04 0.  0.
        2    1    3    3  502    0  0.45707165538E+03 -0.95676635209E+02  0.10703634010E+03  0.47908798230E+03  0.25500000920E-02 0. -1.
       -2    1    3    3    0  502 -0.45707165538E+03  0.95676635209E+02  0.89768913102E+03  0.10118865019E+04  0.25500000920E-02 0.  1.
</event>
<event>
 5   0  0.8968798E-03  0.9965387E+03  0.7818609E-02  0.9312349E-01
        2   -1    0    0  501    0  0.00000000000E+00  0.00000000000E+00  0.12026203772E+04  0.12026203772E+04  0.25500000920E-02 0.  1.
       -2   -1    0    0    0  501  0.00000000000E+00  0.00000000000E+00 -0.20644281712E+03  0.20644281714E+03  0.25500000920E-02 0. -1.
    10030    2    1    2    0    0  0.00000000000E+00  0.00000000000E+00  0.99617756012E+03  0.14090631944E+04  0.99653868690E+03 0.  0.
        2    1    3    3  502    0  0.52294450583E+02  0.23378435117E+03  0.11158481936E+04  0.11412742982E+04  0.25500000920E-02 0.  1.
       -2    1    3    3    0  502 -0.52294450583E+02 -0.23378435117E+03 -0.11967063351E+03  0.26778889623E+03  0.25500000920E-02 0. -1.
</event>
<event>
 5   0  0.5201968E-03  0.9717244E+03  0.7818609E-02  0.9340112E-01
        1   -1    0    0  501    0  0.00000000000E+00  0.00000000000E+00  0.10202988934E+04  0.10202988934E+04  0.50400001928E-02 0.  1.
       -1   -1    0    0    0  501  0.00000000000E+00  0.00000000000E+00 -0.23136559448E+03  0.23136559454E+03  0.50400001928E-02 0. -1.
    10030    2    1    2    0    0  0.00000000000E+00  0.00000000000E+00  0.78893329889E+03  0.12516644879E+04  0.97172436433E+03 0.  0.
        2    1    3    3  502    0 -0.68473126152E+02 -0.31150417314E+03  0.86657894818E+03  0.92340808547E+03  0.25500000920E-02 0.  1.
       -2    1    3    3    0  502  0.68473126152E+02  0.31150417314E+03 -0.77645649287E+02  0.32825640245E+03  0.25500000920E-02 0. -1.
</event>
<event>
 5   0  0.5349685E-03  0.1081671E+04  0.7818609E-02  0.9223243E-01
       -1   -1    0    0    0  501  0.00000000000E+00  0.00000000000E+00  0.14512673465E+03  0.14512673474E+03  0.50400001928E-02 0. -1.
        1   -1    0    0  501    0  0.00000000000E+00  0.00000000000E+00 -0.20155015948E+04  0.20155015948E+04  0.50400001928E-02 0.  1.
    10030    2    1    2    0    0  0.00000000000E+00  0.00000000000E+00 -0.18703748602E+04  0.21606283296E+04  0.10816712352E+04 0.  0.
        4    1    3    3  502    0  0.20338587055E+03 -0.22772545970E+03 -0.18268760329E+04  0.18522155247E+04  0.12699999809E+01 0.  1.
       -4    1    3    3    0  502 -0.20338587055E+03  0.22772545970E+03 -0.43498827235E+02  0.30841280487E+03  0.12699999809E+01 0. -1.
</event>
<event>
 5   0  0.5189877E-03  0.1006220E+04  0.7818609E-02  0.9301749E-01
       -1   -1    0    0    0  501  0.00000000000E+00  0.00000000000E+00  0.21420816480E+03  0.21420816486E+03  0.50400001928E-02 0.  1.
        1   -1    0    0  501    0  0.00000000000E+00  0.00000000000E+00 -0.11816535598E+04  0.11816535598E+04  0.50400001928E-02 0. -1.
    10030    2    1    2    0    0  0.00000000000E+00  0.00000000000E+00 -0.96744539498E+03  0.13958617247E+04  0.10062203348E+04 0.  0.
        3    1    3    3  502    0 -0.13555395215E+03  0.48087371304E+03 -0.56585610945E+03  0.75485597874E+03  0.10100000352E+00 0.  1.
       -3    1    3    3    0  502  0.13555395215E+03 -0.48087371304E+03 -0.40158928553E+03  0.64100574591E+03  0.10100000352E+00 0. -1.
</event>
<event>
 5   0  0.8907355E-03  0.1006723E+04  0.7818609E-02  0.9301202E-01
        2   -1    0    0  501    0  0.00000000000E+00  0.00000000000E+00  0.17620631330E+04  0.17620631330E+04  0.25500000920E-02 0. -1.
       -2   -1    0    0    0  501  0.00000000000E+00  0.00000000000E+00 -0.14379328883E+03  0.14379328885E+03  0.25500000920E-02 0.  1.
    10030    2    1    2    0    0  0.00000000000E+00  0.00000000000E+00  0.16182698441E+04  0.19058564218E+04  0.10067231060E+04 0.  0.
        5    1    3    3  502    0  0.34030928657E+02  0.33845643076E+03  0.10678696597E+03  0.35656192411E+03  0.46999998093E+01 0.  1.
       -5    1    3    3    0  502 -0.34030928657E+02 -0.33845643076E+03  0.15114828782E+04  0.15492944977E+04  0.46999998093E+01 0. -1.
</event>
<event>
 5   0  0.5349685E-03  0.1011244E+04  0.7818609E-02  0.9296297E-01
       -1   -1    0    0    0  501  0.00000000000E+00  0.00000000000E+00  0.34206682445E+03  0.34206682449E+03  0.50400001928E-02 0.  1.
        1   -1    0    0  501    0  0.00000000000E+00  0.00000000000E+00 -0.74737977931E+03  0.74737977932E+03  0.50400001928E-02 0. -1.
    10030    2    1    2    0    0  0.00000000000E+00  0.00000000000E+00 -0.40531295486E+03  0.10894466038E+04  0.10112444369E+04 0.  0.
        4    1    3    3  502    0 -0.43409350787E+01 -0.31164222578E+03 -0.63158166895E+03  0.70429875625E+03  0.12699999809E+01 0. -1.
       -4    1    3    3    0  502  0.43409350787E+01  0.31164222578E+03  0.22626871409E+03  0.38514784756E+03  0.12699999809E+01 0.  1.
</event>
<event>
 5   0  0.8907355E-03  0.9945133E+03  0.7818609E-02  0.9314583E-01
        2   -1    0    0  501    0  0.00000000000E+00  0.00000000000E+00  0.11870617189E+04  0.11870617189E+04  0.25500000920E-02 0.  1.
       -2   -1    0    0    0  501  0.00000000000E+00  0.00000000000E+00 -0.20829935576E+03  0.20829935578E+03  0.25500000920E-02 0. -1.
    10030    2    1    2    0    0  0.00000000000E+00  0.00000000000E+00  0.97876236312E+03  0.13953610747E+04  0.99451333084E+03 0.  0.
        5    1    3    3  502    0 -0.54699048786E+02  0.43259123871E+03  0.82469452822E+03  0.93288280112E+03  0.46999998093E+01 0.  1.
       -5    1    3    3    0  502  0.54699048786E+02 -0.43259123871E+03  0.15406783490E+03  0.46247827354E+03  0.46999998093E+01 0. -1.
</event>
<event>
 5   0  0.5349685E-03  0.1058029E+04  0.7818609E-02  0.9247094E-01
       -1   -1    0    0    0  501  0.00000000000E+00  0.00000000000E+00  0.41743164011E+03  0.41743164014E+03  0.50400001928E-02 0.  1.
        1   -1    0    0  501    0  0.00000000000E+00  0.00000000000E+00 -0.67042442117E+03  0.67042442119E+03  0.50400001928E-02 0. -1.
    10030    2    1    2    0    0  0.00000000000E+00  0.00000000000E+00 -0.25299278106E+03  0.10878560613E+04  0.10580290463E+04 0.  0.
        4    1    3    3  502    0 -0.43375395285E+02 -0.25650625337E+03 -0.60010968840E+03  0.65407196389E+03  0.12699999809E+01 0. -1.
       -4    1    3    3    0  502  0.43375395285E+02  0.25650625337E+03  0.34711690734E+03  0.43378409744E+03  0.12699999809E+01 0.  1.
</event>
<event>
 5   0  0.5072205E-03  0.1018088E+04  0.7818609E-02  0.9288926E-01
       -1   -1    0    0    0  501  0.00000000000E+00  0.00000000000E+00  0.20456786106E+03  0.20456786112E+03  0.50400001928E-02 0. -1.
        1   -1    0    0  501    0  0.00000000000E+00  0.00000000000E+00 -0.12666986423E+04  0.12666986424E+04  0.50400001928E-02 0.  1.
    10030    2    1    2    0    0  0.00000000000E+00  0.00000000000E+00 -0.10621307813E+04  0.14712665035E+04  0.10180880746E+04 0.  0.
        5    1    3    3  502    0  0.36619575603E+03  0.31696613276E+03 -0.75743372445E+03  0.89905216644E+03  0.46999998093E+01 0.  1.
       -5    1    3    3    0  502 -0.36619575603E+03 -0.31696613276E+03 -0.30469705684E+03  0.57221433703E+03  0.46999998093E+01 0. -1.
</event>
<event>
 5   0  0.5189877E-03  0.8747485E+03  0.7818609E-02  0.9457709E-01
       -1   -1    0    0    0  501  0.00000000000E+00  0.00000000000E+00  0.28838897464E+03  0.28838897469E+03  0.50400001928E-02 0. -1.
        1   -1    0    0  501    0  0.00000000000E+00  0.00000000000E+00 -0.66332708375E+03  0.66332708377E+03  0.50400001928E-02 0.  1.
    10030    2    1    2    0    0  0.00000000000E+00  0.00000000000E+00 -0.37493810910E+03  0.95171605846E+03  0.87474846114E+03 0.  0.
        3    1    3    3  502    0 -0.28952779075E+03  0.30429974843E+03 -0.32014800249E+03  0.52812823463E+03  0.10100000352E+00 0. -1.
       -3    1    3    3    0  502  0.28952779075E+03 -0.30429974843E+03 -0.54790106611E+02  0.42358782383E+03  0.10100000352E+00 0.  1.
</event>
<event>
 5   0  0.5310275E-03  0.1005023E+04  0.7818609E-02  0.9303053E-01
       -1   -1    0    0    0  501  0.00000000000E+00  0.00000000000E+00  0.39018371744E+03  0.39018371748E+03  0.50400001928E-02 0.  1.
        1   -1    0    0  501    0  0.00000000000E+00  0.00000000000E+00 -0.64717628321E+03  0.64717628323E+03  0.50400001928E-02 0. -1.
    10030    2    1    2    0    0  0.00000000000E+00  0.00000000000E+00 -0.25699256577E+03  0.10373600007E+04  0.10050226824E+04 0.  0.
        1    1    3    3  502    0  0.28125321454E+03 -0.63502384388E+02 -0.55329863205E+03  0.62391930550E+03  0.50400001928E-02 0. -1.
       -1    1    3    3    0  502 -0.28125321454E+03  0.63502384388E+02  0.29630606629E+03  0.41344069521E+03  0.50400001928E-02 0.  1.
</event>
<event>
 5   0  0.8875655E-03  0.1003208E+04  0.7818609E-02  0.9305033E-01
       -2   -1    0    0    0  501  0.00000000000E+00  0.00000000000E+00  0.31396643382E+03  0.31396643383E+03  0.25500000920E-02 0. -1.
        2   -1    0    0  501    0  0.00000000000E+00  0.00000000000E+00 -0.80138039040E+03  0.80138039041E+03  0.25500000920E-02 0.  1.
    10030    2    1    2    0    0  0.00000000000E+00  0.00000000000E+00 -0.48741395658E+03  0.11153468242E+04  0.10032079412E+04 0.  0.
        4    1    3    3  502    0  0.49948508214E+03  0.12796534233E+02 -0.29287522599E+03  0.57916026233E+03  0.12699999809E+01 0.  1.
       -4    1    3    3    0  502 -0.49948508214E+03 -0.12796534233E+02 -0.19453873059E+03  0.53618656190E+03  0.12699999809E+01 0. -1.
</event>
<event>
 5   0  0.8968798E-03  0.9539883E+03  0.7818609E-02  0.9360501E-01
        2   -1    0    0  501    0  0.00000000000E+00  0.00000000000E+00  0.68161901321E+03  0.68161901321E+03  0.25500000920E-02 0. -1.
       -2   -1    0    0    0  501  0.00000000000E+00  0.00000000000E+00 -0.33379848941E+03  0.33379848942E+03  0.25500000920E-02 0.  1.
    10030    2    1    2    0    0  0.00000000000E+00  0.00000000000E+00  0.34782052380E+03  0.10154175026E+04  0.95398825353E+03 0.  0.
        2    1    3    3  502    0  0.37494962147E+03  0.32520357975E+02 -0.13801037391E+03  0.40086363721E+03  0.25500000920E-02 0.  1.
       -2    1    3    3    0  502 -0.37494962147E+03 -0.32520357975E+02  0.48583089772E+03  0.61455386542E+03  0.25500000920E-02 0. -1.
</event>
<event>
 5   0  0.5189877E-03  0.1005114E+04  0.7818609E-02  0.9302954E-01
       -1   -1    0    0    0  501  0.00000000000E+00  0.00000000000E+00  0.52764127650E+03  0.52764127652E+03  0.50400001928E-02 0.  1.
        1   -1    0    0  501    0  0.00000000000E+00  0.00000000000E+00 -0.47866518054E+03  0.47866518057E+03  0.50400001928E-02 0. -1.
    10030    2    1    2    0    0  0.00000000000E+00  0.00000000000E+00  0.48976095959E+02  0.10063064571E+04  0.10051139376E+04 0.  0.
        3    1    3    3  502    0 -0.35608328524E+03  0.23754676495E+03  0.28812484218E+03  0.51598421143E+03  0.10100000352E+00 0.  1.
       -3    1    3    3    0  502  0.35608328524E+03 -0.23754676495E+03 -0.23914874622E+03  0.49032224566E+03  0.10100000352E+00 0. -1.
</event>
<event>
 5   0  0.9243773E-03  0.1002497E+04  0.7818609E-02  0.9305810E-01
       -2   -1    0    0    0  501  0.00000000000E+00  0.00000000000E+00  0.15535007926E+03  0.15535007928E+03  0.25500000920E-02 0. -1.
        2   -1    0    0  501    0  0.00000000000E+00  0.00000000000E+00 -0.16173156388E+04  0.16173156388E+04  0.25500000920E-02 0.  1.
    10030    2    1    2    0    0  0.00000000000E+00  0.00000000000E+00 -0.14619655595E+04  0.17726657181E+04  0.10024971076E+04 0.  0.
        3    1    3    3  502    0  0.28175876016E+03  0.37546184363E+03 -0.42020050612E+03  0.63002227777E+03  0.10100000352E+00 0. -1.
       -3    1    3    3    0  502 -0.28175876016E+03 -0.37546184363E+03 -0.10417650534E+04  0.11426434403E+04  0.10100000352E+00 0.  1.
</event>
<event>
 5   0  0.5310275E-03  0.1105524E+04  0.7818609E-02  0.9199824E-01
       -1   -1    0    0    0  501  0.00000000000E+00  0.00000000000E+00  0.11544908758E+03  0.11544908769E+03  0.50400001928E-02 0.  1.
        1   -1    0    0  501    0  0.00000000000E+00  0.00000000000E+00 -0.26465870120E+04  0.26465870120E+04  0.50400001928E-02 0. -1.
    10030    2    1    2    0    0  0.00000000000E+00  0.00000000000E+00 -0.25311379244E+04  0.27620360996E+04  0.11055244111E+04 0.  0.
        1    1    3    3  502    0 -0.18340089493E+03  0.52144030654E+03 -0.12735381441E+04  0.13883210313E+04  0.50400001928E-02 0. -1.
       -1    1    3    3    0  502  0.18340089493E+03 -0.52144030654E+03 -0.12575997803E+04  0.13737150683E+04  0.50400001928E-02 0.  1.
</event>
<event>
 5   0  0.5349685E-03  0.9731206E+03  0.7818609E-02  0.9338527E-01
       -1   -1    0    0    0  501  0.00000000000E+00  0.00000000000E+00  0.28196896595E+03  0.28196896599E+03  0.50400001928E-02 0. -1.
        1   -1    0    0  501    0  0.00000000000E+00  0.00000000000E+00 -0.83959931109E+03  0.83959931110E+03  0.50400001928E-02 0.  1.
    10030    2    1    2    0    0  0.00000000000E+00  0.00000000000E+00 -0.55763034514E+03  0.11215682771E+04  0.97312064944E+03 0.  0.
        4    1    3    3  502    0  0.25143972907E+02  0.47158323017E+03 -0.41379805359E+03  0.62789601400E+03  0.12699999809E+01 0.  1.
       -4    1    3    3    0  502 -0.25143972907E+02 -0.47158323017E+03 -0.14383229156E+03  0.49367226309E+03  0.12699999809E+01 0. -1.
</event>
<event>
 5   0  0.5072205E-03  0.9730785E+03  0.7818609E-02  0.9338575E-01
       -1   -1    0    0    0  501  0.00000000000E+00  0.00000000000E+00  0.48272260099E+03  0.48272260102E+03  0.50400001928E-02 0. -1.
        1   -1    0    0  501    0  0.00000000000E+00  0.00000000000E+00 -0.49038612188E+03  0.49038612190E+03  0.50400001928E-02 0.  1.
    10030    2    1    2    0    0  0.00000000000E+00  0.00000000000E+00 -0.76635208859E+01  0.97310872292E+03  0.97307854620E+03 0.  0.
        5    1    3    3  502    0 -0.17499067845E+03  0.76999119155E+02 -0.45122441390E+03  0.49007771179E+03  0.46999998093E+01 0.  1.
       -5    1    3    3    0  502  0.17499067845E+03 -0.76999119155E+02  0.44356089302E+03  0.48303101112E+03  0.46999998093E+01 0. -1.
</event>
<event>
 5   0  0.9243773E-03  0.1024871E+04  0.7818609E-02  0.9281680E-01
       -2   -1    0    0    0  501  0.00000000000E+00  0.00000000000E+00  0.38086939132E+03  0.38086939133E+03  0.25500000920E-02 0. -1.
        2   -1    0    0  501    0  0.00000000000E+00  0.00000000000E+00 -0.68944902425E+03  0.68944902426E+03  0.25500000920E-02 0.  1.
    10030    2    1    2    0    0  0.00000000000E+00  0.00000000000E+00 -0.30857963293E+03  0.10703184156E+04  0.10248707825E+04 0.  0.
        3    1    3    3  502    0 -0.50922885950E+03 -0.55831249427E+02 -0.16745271465E+03  0.53895415538E+03  0.10100000352E+00 0. -1.
       -3    1    3    3    0  502  0.50922885950E+03  0.55831249427E+02 -0.14112691828E+03  0.53136426020E+03  0.10100000352E+00 0.  1.
</event>
<event>
 5   0  0.5310275E-03  0.1003610E+04  0.7818609E-02  0.9304594E-01
        1   -1    0    0  501    0  0.00000000000E+00  0.00000000000E+00  0.85496100324E+03  0.85496100325E+03  0.50400001928E-02 0. -1.
       -1   -1    0    0    0  501  0.00000000000E+00  0.00000000000E+00 -0.29452611339E+03  0.29452611344E+03  0.50400001928E-02 0.  1.
    10030    2    1    2    0    0  0.00000000000E+00  0.00000000000E+00  0.56043488985E+03  0.11494871167E+04  0.10036101662E+04 0.  0.
        1    1    3    3  502    0  0.26757349008E+03 -0.24378185051E+03 -0.11783682111E+03  0.38067135388E+03  0.50400001928E-02 0.  1.
       -1    1    3    3    0  502 -0.26757349008E+03  0.24378185051E+03  0.67827171096E+03  0.76881576281E+03  0.50400001928E-02 0. -1.
</event>
<event>
 5   0  0.9040674E-03  0.1008368E+04  0.7818609E-02  0.9299414E-01
       -2   -1    0    0    0  501  0.00000000000E+00  0.00000000000E+00  0.15934774607E+03  0.15934774609E+03  0.25500000920E-02 0.  1.
        2   -1    0    0  501    0  0.00000000000E+00  0.00000000000E+00 -0.15952628788E+04  0.15952628788E+04  0.25500000920E-02 0. -1.
    10030    2    1    2    0    0  0.00000000000E+00  0.00000000000E+00 -0.14359151327E+04  0.17546106249E+04  0.10083680759E+04 0.  0.
        1    1    3    3  502    0  0.40680042160E+03  0.28111490659E+03 -0.88923866737E+03  0.10174760839E+04  0.50400001928E-02 0.  1.
       -1    1    3    3    0  502 -0.40680042160E+03 -0.28111490659E+03 -0.54667646533E+03  0.73713454098E+03  0.50400001928E-02 0. -1.
</event>
<event>
 5   0  0.5349685E-03  0.1007549E+04  0.7818609E-02  0.9300303E-01
       -1   -1    0    0    0  501  0.00000000000E+00  0.00000000000E+00  0.39783592741E+03  0.39783592745E+03  0.50400001928E-02 0. -1.
        1   -1    0    0  501    0  0.00000000000E+00  0.00000000000E+00 -0.63792347164E+03  0.63792347166E+03  0.50400001928E-02 0.  1.
    10030    2    1    2    0    0  0.00000000000E+00  0.00000000000E+00 -0.24008754422E+03  0.10357593991E+04  0.10075492563E+04 0.  0.
        4    1    3    3  502    0 -0.15480564154E+03 -0.34703948508E+03 -0.46003961763E+03  0.59669024925E+03  0.12699999809E+01 0.  1.
       -4    1    3    3    0  502  0.15480564154E+03  0.34703948508E+03  0.21995207340E+03  0.43906914986E+03  0.12699999809E+01 0. -1.
</event>
<event>
 5   0  0.5072205E-03  0.1019834E+04  0.7818609E-02  0.9287055E-01
       -1   -1    0    0    0  501  0.00000000000E+00  0.00000000000E+00  0.45041495542E+03  0.45041495544E+03  0.50400001928E-02 0. -1.
        1   -1    0    0  501    0  0.00000000000E+00  0.00000000000E+00 -0.57727922715E+03  0.57727922717E+03  0.50400001928E-02 0.  1.
    10030    2    1    2    0    0  0.00000000000E+00  0.00000000000E+00 -0.12686427173E+03  0.10276941826E+04  0.10198337068E+04 0.  0.
        5    1    3    3  502    0 -0.42603423403E+03 -0.57987517666E+02 -0.33963482100E+03  0.54794308318E+03  0.46999998093E+01 0. -1.
       -5    1    3    3    0  502  0.42603423403E+03  0.57987517666E+02  0.21277054927E+03  0.47975109943E+03  0.46999998093E+01 0.  1.
</event>
<event>
 5   0  0.3513625E-03  0.1003271E+04  0.7818609E-02  0.9304964E-01
        3   -1    0    0  501    0  0.00000000000E+00  0.00000000000E+00  0.33104362417E+03  0.33104363957E+03  0.10100000352E+00 0. -1.
       -3   -1    0    0    0  501  0.00000000000E+00  0.00000000000E+00 -0.76013661512E+03  0.76013662183E+03  0.10100000352E+00 0.  1.
    10030    2    1    2    0    0  0.00000000000E+00  0.00000000000E+00 -0.42909299095E+03  0.10911802614E+04  0.10032714329E+04 0.  0.
        3    1    3    3  502    0 -0.44877918660E+02  0.39726645627E+03 -0.54408653360E+03  0.67517762930E+03  0.10100000352E+00 0.  1.
       -3    1    3    3    0  502  0.44877918660E+02 -0.39726645627E+03  0.11499354265E+03  0.41600263210E+03  0.10100000352E+00 0. -1.
</event>
<event>
 5   0  0.5201968E-03  0.9965310E+03  0.7818609E-02  0.9312358E-01
       -1   -1    0    0    0  501  0.00000000000E+00  0.00000000000E+00  0.15249585041E+03  0.15249585049E+03  0.50400001928E-02 0. -1.
        1   -1    0    0  501    0  0.00000000000E+00  0.00000000000E+00 -0.16280344193E+04  0.16280344193E+04  0.50400001928E-02 0.  1.
    10030    2    1    2    0    0  0.00000000000E+00  0.00000000000E+00 -0.14755385689E+04  0.17805302698E+04  0.99653096960E+03 0.  0.
        2    1    3    3  502    0 -0.36095238583E+03 -0.27782466310E+03 -0.37688849816E+03  0.59120056522E+03  0.25500000920E-02 0. -1.
       -2    1    3    3    0  502  0.36095238583E+03  0.27782466310E+03 -0.10986500707E+04  0.11893297046E+04  0.25500000920E-02 0.  1.
</event>
<event>
 5   0  0.5201968E-03  0.9819315E+03  0.7818609E-02  0.9328587E-01
       -1   -1    0    0    0  501  0.00000000000E+00  0.00000000000E+00  0.13649182929E+03  0.13649182938E+03  0.50400001928E-02 0.  1.
        1   -1    0    0  501    0  0.00000000000E+00  0.00000000000E+00 -0.17660204791E+04  0.17660204791E+04  0.50400001928E-02 0. -1.
    10030    2    1    2    0    0  0.00000000000E+00  0.00000000000E+00 -0.16295286498E+04  0.19025123085E+04  0.98193149629E+03 0.  0.
        2    1    3    3  502    0  0.21744088263E+03  0.36402598983E+03 -0.12942836256E+04  0.13619712046E+04  0.25500000920E-02 0. -1.
       -2    1    3    3    0  502 -0.21744088263E+03 -0.36402598983E+03 -0.33524502422E+03  0.54054110388E+03  0.25500000920E-02 0.  1.
</event>
<event>
 5   0  0.3513625E-03  0.7850912E+03  0.7818609E-02  0.9581851E-01
        3   -1    0    0  501    0  0.00000000000E+00  0.00000000000E+00  0.23086946391E+03  0.23086948600E+03  0.10100000352E+00 0.  1.
       -3   -1    0    0    0  501  0.00000000000E+00  0.00000000000E+00 -0.66744231806E+03  0.66744232571E+03  0.10100000352E+00 0. -1.
    10030    2    1    2    0    0  0.00000000000E+00  0.00000000000E+00 -0.43657285415E+03  0.89831181171E+03  0.78509123933E+03 0.  0.
        5    1    3    3  502    0 -0.15010892407E+02  0.31030519994E+03  0.56218251814E+02  0.31574867512E+03  0.46999998093E+01 0.  1.
       -5    1    3    3    0  502  0.15010892407E+02 -0.31030519994E+03 -0.49279110597E+03  0.58256313660E+03  0.46999998093E+01 0. -1.
</event>
<event>
 5   0  0.5072205E-03  0.9294419E+03  0.7818609E-02  0.9389508E-01
       -1   -1    0    0    0  501  0.00000000000E+00  0.00000000000E+00  0.31588540185E+03  0.31588540189E+03  0.50400001928E-02 0.  1.
        1   -1    0    0  501    0  0.00000000000E+00  0.00000000000E+00 -0.68368330039E+03  0.68368330041E+03  0.50400001928E-02 0. -1.
    10030    2    1    2    0    0  0.00000000000E+00  0.00000000000E+00 -0.36779789854E+03  0.99956870231E+03  0.92944192743E+03 0.  0.
        5    1    3    3  502    0  0.44999633215E+03  0.88995862325E+02 -0.10394934325E+03  0.47036636616E+03  0.46999998093E+01 0. -1.
       -5    1    3    3    0  502 -0.44999633215E+03 -0.88995862325E+02 -0.26384855528E+03  0.52920233614E+03  0.46999998093E+01 0.  1.
</event>
<event>
 5   0  0.8968798E-03  0.9970668E+03  0.7818609E-02  0.9311768E-01
        2   -1    0    0  501    0  0.00000000000E+00  0.00000000000E+00  0.15076543268E+04  0.15076543269E+04  0.25500000920E-02 0. -1.
       -2   -1    0    0    0  501  0.00000000000E+00  0.00000000000E+00 -0.16484915983E+03  0.16484915985E+03  0.25500000920E-02 0.  1.
    10030    2    1    2    0    0  0.00000000000E+00  0.00000000000E+00  0.13428051670E+04  0.16725034867E+04  0.99706679640E+03 0.  0.
        2    1    3    3  502    0 -0.14057567334E+03 -0.47012993188E+03  0.52371424803E+03  0.71767700700E+03  0.25500000920E-02 0.  1.
       -2    1    3    3    0  502  0.14057567334E+03  0.47012993188E+03  0.81909091898E+03  0.95482647971E+03  0.25500000920E-02 0. -1.
</event>
<event>
 5   0  0.5349685E-03  0.9880213E+03  0.7818609E-02  0.9321781E-01
       -1   -1    0    0    0  501  0.00000000000E+00  0.00000000000E+00  0.44406908805E+03  0.44406908808E+03  0.50400001928E-02 0.  1.
        1   -1    0    0  501    0  0.00000000000E+00  0.00000000000E+00 -0.54956880719E+03  0.54956880721E+03  0.50400001928E-02 0. -1.
    10030    2    1    2    0    0  0.00000000000E+00  0.00000000000E+00 -0.10549971914E+03  0.99363789529E+03  0.98802129341E+03 0.  0.
        4    1    3    3  502    0  0.40641423643E+03 -0.27895338796E+03 -0.20047598309E+02  0.49334677796E+03  0.12699999809E+01 0.  1.
       -4    1    3    3    0  502 -0.40641423643E+03  0.27895338796E+03 -0.85452120828E+02  0.50029111733E+03  0.12699999809E+01 0. -1.
</event>
<event>
 5   0  0.5310275E-03  0.9923758E+03  0.7818609E-02  0.9316947E-01
       -1   -1    0    0    0  501  0.00000000000E+00  0.00000000000E+00  0.11438065426E+03  0.11438065437E+03  0.50400001928E-02 0. -1.
        1   -1    0    0  501    0  0.00000000000E+00  0.00000000000E+00 -0.21524829949E+04  0.21524829949E+04  0.50400001928E-02 0.  1.
    10030    2    1    2    0    0  0.00000000000E+00  0.00000000000E+00 -0.20381023406E+04  0.22668636492E+04  0.99237576225E+03 0.  0.
        1    1    3    3  502    0  0.19137026140E+03  0.12898257306E+02 -0.20643767014E+04  0.20732679777E+04  0.50400001928E-02 0.  1.
       -1    1    3    3    0  502 -0.19137026140E+03 -0.12898257306E+02  0.26274360782E+02  0.19359567157E+03  0.50400001928E-02 0. -1.
</event>
<event>
 5   0  0.5310275E-03  0.9979044E+03  0.7818609E-02  0.9310846E-01
        1   -1    0    0  501    0  0.00000000000E+00  0.00000000000E+00  0.48909305056E+03  0.48909305059E+03  0.50400001928E-02 0.  1.
       -1   -1    0    0    0  501  0.00000000000E+00  0.00000000000E+00 -0.50901011402E+03  0.50901011404E+03  0.50400001928E-02 0. -1.
    10030    2    1    2    0    0  0.00000000000E+00  0.00000000000E+00 -0.19917063453E+02  0.99810316463E+03  0.99790442320E+03 0.  0.
        1    1    3    3  502    0  0.27227434147E+03 -0.10815143308E+03  0.39400711194E+03  0.49099048238E+03  0.50400001928E-02 0.  1.
       -1    1    3    3    0  502 -0.27227434147E+03  0.10815143308E+03 -0.41392417539E+03  0.50711268225E+03  0.50400001928E-02 0. -1.
</event>
<event>
 5   0  0.3513625E-03  0.1036769E+04  0.7818609E-02  0.9269112E-01
       -3   -1    0    0    0  501  0.00000000000E+00  0.00000000000E+00  0.33438594995E+03  0.33438596520E+03  0.10100000352E+00 0.  1.
        3   -1    0    0  501    0  0.00000000000E+00  0.00000000000E+00 -0.80362902714E+03  0.80362903349E+03  0.10100000352E+00 0. -1.
    10030    2    1    2    0    0  0.00000000000E+00  0.00000000000E+00 -0.46924307720E+03  0.11380149987E+04  0.10367685719E+04 0.  0.
        1    1    3    3  502    0 -0.12293554319E+03 -0.88423581620E+02  0.30956602413E+03  0.34462008196E+03  0.50400001928E-02 0.  1.
       -1    1    3    3    0  502  0.12293554319E+03  0.88423581620E+02 -0.77880910133E+03  0.79339491674E+03  0.50400001928E-02 0. -1.
</event>
<event>
 5   0  0.8875655E-03  0.1028654E+04  0.7818609E-02  0.9277664E-01
       -2   -1    0    0    0  501  0.00000000000E+00  0.00000000000E+00  0.20398180980E+03  0.20398180982E+03  0.25500000920E-02 0.  1.
        2   -1    0    0  501    0  0.00000000000E+00  0.00000000000E+00 -0.12968418437E+04  0.12968418437E+04  0.25500000920E-02 0. -1.
    10030    2    1    2    0    0  0.00000000000E+00  0.00000000000E+00 -0.10928600339E+04  0.15008236535E+04  0.10286537733E+04 0.  0.
        4    1    3    3  502    0 -0.42417826914E+03  0.11059939049E+03 -0.15392696157E+03  0.46460149762E+03  0.12699999809E+01 0.  1.
       -4    1    3    3    0  502  0.42417826914E+03 -0.11059939049E+03 -0.93893307233E+03  0.10362221559E+04  0.12699999809E+01 0. -1.
</event>
<event>
 5   0  0.5310275E-03  0.1006415E+04  0.7818609E-02  0.9301537E-01
        1   -1    0    0  501    0  0.00000000000E+00  0.00000000000E+00  0.79239091940E+03  0.79239091942E+03  0.50400001928E-02 0.  1.
       -1   -1    0    0    0  501  0.00000000000E+00  0.00000000000E+00 -0.31956185462E+03  0.31956185466E+03  0.50400001928E-02 0. -1.
    10030    2    1    2    0    0  0.00000000000E+00  0.00000000000E+00  0.47282906478E+03  0.11119527741E+04  0.10064152459E+04 0.  0.
        1    1    3    3  502    0  0.17125886679E+03  0.34306235021E+03  0.59646577270E+03  0.70907883455E+03  0.50400001928E-02 0.  1.
       -1    1    3    3    0  502 -0.17125886679E+03 -0.34306235021E+03 -0.12363670791E+03  0.40287393953E+03  0.50400001928E-02 0. -1.
</event>
<event>
 5   0  0.8875655E-03  0.1007326E+04  0.7818609E-02  0.9300546E-01
        2   -1    0    0  501    0  0.00000000000E+00  0.00000000000E+00  0.17029360967E+04  0.17029360967E+04  0.25500000920E-02 0.  1.
       -2   -1    0    0    0  501  0.00000000000E+00  0.00000000000E+00 -0.14896420206E+03  0.14896420208E+03  0.25500000920E-02 0. -1.
    10030    2    1    2    0    0  0.00000000000E+00  0.00000000000E+00  0.15539718946E+04  0.18519002987E+04  0.10073261971E+04 0.  0.
        4    1    3    3  502    0 -0.10483240407E+03 -0.92799537171E+02 -0.11246792006E+03  0.17958906700E+03  0.12699999809E+01 0. -1.
       -4    1    3    3    0  502  0.10483240407E+03  0.92799537171E+02  0.16664398147E+04  0.16723112317E+04  0.12699999809E+01 0.  1.
</event>
<event>
 5   0  0.9243773E-03  0.9238098E+03  0.7818609E-02  0.9396298E-01
        2   -1    0    0  501    0  0.00000000000E+00  0.00000000000E+00  0.61172915909E+03  0.61172915910E+03  0.25500000920E-02 0.  1.
       -2   -1    0    0    0  501  0.00000000000E+00  0.00000000000E+00 -0.34877545692E+03  0.34877545693E+03  0.25500000920E-02 0. -1.
    10030    2    1    2    0    0  0.00000000000E+00  0.00000000000E+00  0.26295370217E+03  0.96050461603E+03  0.92380975743E+03 0.  0.
        3    1    3    3  502    0  0.41827576110E+03  0.27629516050E+02 -0.70234706077E+02  0.42503050081E+03  0.10100000352E+00 0.  1.
       -3    1    3    3    0  502 -0.41827576110E+03 -0.27629516050E+02  0.33318840824E+03  0.53547411522E+03  0.10100000352E+00 0. -1.
</event>
<event>
 5   0  0.9040674E-03  0.1011373E+04  0.7818609E-02  0.9296159E-01
        2   -1    0    0  501    0  0.00000000000E+00  0.00000000000E+00  0.74504580978E+03  0.74504580979E+03  0.25500000920E-02 0. -1.
       -2   -1    0    0    0  501  0.00000000000E+00  0.00000000000E+00 -0.34322547406E+03  0.34322547407E+03  0.25500000920E-02 0.  1.
    10030    2    1    2    0    0  0.00000000000E+00  0.00000000000E+00  0.40182033572E+03  0.10882712839E+04  0.10113727330E+04 0.  0.
        1    1    3    3  502    0  0.14880938762E+03 -0.31796310045E+03 -0.19073353309E+03  0.39952978333E+03  0.50400001928E-02 0.  1.
       -1    1    3    3    0  502 -0.14880938762E+03  0.31796310045E+03  0.59255386881E+03  0.68874150053E+03  0.50400001928E-02 0. -1.
</event>
<event>
 5   0  0.8875655E-03  0.9868007E+03  0.7818609E-02  0.9323141E-01
        2   -1    0    0  501    0  0.00000000000E+00  0.00000000000E+00  0.93192822084E+03  0.93192822084E+03  0.25500000920E-02 0. -1.
       -2   -1    0    0    0  501  0.00000000000E+00  0.00000000000E+00 -0.26122602009E+03  0.26122602010E+03  0.25500000920E-02 0.  1.
    10030    2    1    2    0    0  0.00000000000E+00  0.00000000000E+00  0.67070220075E+03  0.11931542409E+04  0.98680068939E+03 0.  0.
        4    1    3    3  502    0 -0.10272520729E+03  0.24014346909E+03 -0.17077663813E+03  0.31206990721E+03  0.12699999809E+01 0.  1.
       -4    1    3    3    0  502  0.10272520729E+03 -0.24014346909E+03  0.84147883888E+03  0.88108433373E+03  0.12699999809E+01 0. -1.
</event>
<event>
 5   0  0.5310275E-03  0.9772627E+03  0.7818609E-02  0.9333840E-01
       -1   -1    0    0    0  501  0.00000000000E+00  0.00000000000E+00  0.83367450855E+02  0.83367451007E+02  0.50400001928E-02 0. -1.
        1   -1    0    0  501    0  0.00000000000E+00  0.00000000000E+00 -0.28639547727E+04  0.28639547727E+04  0.50400001928E-02 0.  1.
    10030    2    1    2    0    0  0.00000000000E+00  0.00000000000E+00 -0.27805873219E+04  0.29473222237E+04  0.97726272619E+03 0.  0.
        1    1    3    3  502    0  0.27931182415E+03 -0.89312920871E+02 -0.21151165306E+03  0.36156475541E+03  0.50400001928E-02 0. -1.
       -1    1    3    3    0  502 -0.27931182415E+03  0.89312920871E+02 -0.25690756688E+04  0.25857574683E+04  0.50400001928E-02 0.  1.
</event>
<event>
 5   0  0.9243773E-03  0.9774777E+03  0.7818609E-02  0.9333598E-01
       -2   -1    0    0    0  501  0.00000000000E+00  0.00000000000E+00  0.88673211842E+03  0.88673211842E+03  0.25500000920E-02 0. -1.
        2   -1    0    0  501    0  0.00000000000E+00  0.00000000000E+00 -0.26937749928E+03  0.26937749929E+03  0.25500000920E-02 0.  1.
    10030    2    1    2    0    0  0.00000000000E+00  0.00000000000E+00  0.61735461914E+03  0.11561096177E+04  0.97747773498E+03 0.  0.
        3    1    3    3  502    0  0.18924763567E+03 -0.17699484439E+03 -0.18144832843E+03  0.31633107441E+03  0.10100000352E+00 0.  1.
       -3    1    3    3    0  502 -0.18924763567E+03  0.17699484439E+03  0.79880294757E+03  0.83977854330E+03  0.10100000352E+00 0. -1.
</event>
<event>
 5   0  0.5310275E-03  0.9902808E+03  0.7818609E-02  0.9319269E-01
        1   -1    0    0  501    0  0.00000000000E+00  0.00000000000E+00  0.70303192928E+03  0.70303192930E+03  0.50400001928E-02 0. -1.
       -1   -1    0    0    0  501  0.00000000000E+00  0.00000000000E+00 -0.34872385691E+03  0.34872385695E+03  0.50400001928E-02 0.  1.
    10030    2    1    2    0    0  0.00000000000E+00  0.00000000000E+00  0.35430807236E+03  0.10517557862E+04  0.99028078026E+03 0.  0.
        1    1    3    3  502    0 -0.18646088632E+03 -0.15783491810E+02 -0.30972198927E+03  0.36186253108E+03  0.50400001928E-02 0.  1.
       -1    1    3    3    0  502  0.18646088632E+03  0.15783491810E+02  0.66403006163E+03  0.68989325516E+03  0.50400001928E-02 0. -1.
</event>
<event>
 5   0  0.8875655E-03  0.9940834E+03  0.7818609E-02  0.9315058E-01
        2   -1    0    0  501    0  0.00000000000E+00  0.00000000000E+00  0.45724890449E+03  0.45724890450E+03  0.25500000920E-02 0. -1.
       -2   -1    0    0    0  501  0.00000000000E+00  0.00000000000E+00 -0.54029756507E+03  0.54029756508E+03  0.25500000920E-02 0.  1.
    10030    2    1    2    0    0  0.00000000000E+00  0.00000000000E+00 -0.83048660581E+02  0.99754646958E+03  0.99408343661E+03 0.  0.
        4    1    3    3  502    0  0.27345866955E+03  0.38747449464E+03  0.10776465987E+03  0.48634448981E+03  0.12699999809E+01 0. -1.
       -4    1    3    3    0  502 -0.27345866955E+03 -0.38747449464E+03 -0.19081332045E+03  0.51120197976E+03  0.12699999809E+01 0.  1.
</event>
<event>
 5   0  0.8968798E-03  0.9945108E+03  0.7818609E-02  0.9314586E-01
        2   -1    0    0  501    0  0.00000000000E+00  0.00000000000E+00  0.20404460661E+04  0.20404460661E+04  0.25500000920E-02 0. -1.
       -2   -1    0    0    0  501  0.00000000000E+00  0.00000000000E+00 -0.12118081631E+03  0.12118081633E+03  0.25500000920E-02 0.  1.
    10030    2    1    2    0    0  0.00000000000E+00  0.00000000000E+00  0.19192652498E+04  0.21616268825E+04  0.99451077410E+03 0.  0.
        2    1    3    3  502    0 -0.44290791296E+03 -0.64373136284E+02  0.48865916125E+03  0.66264552811E+03  0.25500000920E-02 0.  1.
       -2    1    3    3    0  502  0.44290791296E+03  0.64373136284E+02  0.14306060886E+04  0.14989813544E+04  0.25500000920E-02 0. -1.
</event>
<event>
 5   0  0.9040674E-03  0.1021070E+04  0.7818609E-02  0.9285733E-01
        2   -1    0    0  501    0  0.00000000000E+00  0.00000000000E+00  0.99946721447E+03  0.99946721447E+03  0.25500000920E-02 0.  1.
       -2   -1    0    0    0  501  0.00000000000E+00  0.00000000000E+00 -0.26078472969E+03  0.26078472970E+03  0.25500000920E-02 0. -1.
    10030    2    1    2    0    0  0.00000000000E+00  0.00000000000E+00  0.73868248478E+03  0.12602519442E+04  0.10210696105E+04 0.  0.
        1    1    3    3  502    0  0.25359853542E+03 -0.10728628585E+03 -0.16127470102E+03  0.31911141238E+03  0.50400001928E-02 0. -1.
       -1    1    3    3    0  502 -0.25359853542E+03  0.10728628585E+03  0.89995718579E+03  0.94114053179E+03  0.50400001928E-02 0.  1.
</event>
<event>
 5   0  0.9243773E-03  0.9962082E+03  0.7818609E-02  0.9312713E-01
       -2   -1    0    0    0  501  0.00000000000E+00  0.00000000000E+00  0.27706977632E+03  0.27706977633E+03  0.25500000920E-02 0. -1.
        2   -1    0    0  501    0  0.00000000000E+00  0.00000000000E+00 -0.89547014281E+03  0.89547014281E+03  0.25500000920E-02 0.  1.
    10030    2    1    2    0    0  0.00000000000E+00  0.00000000000E+00 -0.61840036648E+03  0.11725399191E+04  0.99620823562E+03 0.  0.
        3    1    3    3  502    0  0.23432996192E+03  0.57120092870E+02  0.20375497267E+03  0.31573617967E+03  0.10100000352E+00 0. -1.
       -3    1    3    3    0  502 -0.23432996192E+03 -0.57120092870E+02 -0.82215533916E+03  0.85680373947E+03  0.10100000352E+00 0.  1.
</event>
<event>
 5   0  0.3513625E-03  0.9686436E+03  0.7818609E-02  0.9343621E-01
       -3   -1    0    0    0  501  0.00000000000E+00  0.00000000000E+00  0.11683101073E+04  0.11683101117E+04  0.10100000352E+00 0. -1.
        3   -1    0    0  501    0  0.00000000000E+00  0.00000000000E+00 -0.20077512492E+03  0.20077515033E+03  0.10100000352E+00 0.  1.
    10030    2    1    2    0    0  0.00000000000E+00  0.00000000000E+00  0.96753498237E+03  0.13690852620E+04  0.96864364576E+03 0.  0.
        1    1    3    3  502    0  0.43862089944E+03  0.25539706936E+02  0.77179372382E+03  0.88809128034E+03  0.50400001928E-02 0. -1.
       -1    1    3    3    0  502 -0.43862089944E+03 -0.25539706936E+02  0.19574125855E+03  0.48099398165E+03  0.50400001928E-02 0.  1.
</event>
<event>
 5   0  0.8968798E-03  0.9538918E+03  0.7818609E-02  0.9360613E-01
       -2   -1    0    0    0  501  0.00000000000E+00  0.00000000000E+00  0.13082424845E+03  0.13082424848E+03  0.25500000920E-02 0. -1.
        2   -1    0    0  501    0  0.00000000000E+00  0.00000000000E+00 -0.17388015456E+04  0.17388015456E+04  0.25500000920E-02 0.  1.
    10030    2    1    2    0    0  0.00000000000E+00  0.00000000000E+00 -0.16079772971E+04  0.18696257940E+04  0.95389182915E+03 0.  0.
        2    1    3    3  502    0  0.43944510412E+02 -0.47472876805E+03 -0.77777429582E+03  0.91226716397E+03  0.25500000920E-02 0. -1.
       -2    1    3    3    0  502 -0.43944510412E+02  0.47472876805E+03 -0.83020300129E+03  0.95735863007E+03  0.25500000920E-02 0.  1.
</event>
<event>
 5   0  0.5201968E-03  0.9980952E+03  0.7818609E-02  0.9310636E-01
       -1   -1    0    0    0  501  0.00000000000E+00  0.00000000000E+00  0.20992227481E+03  0.20992227487E+03  0.50400001928E-02 0.  1.
        1   -1    0    0  501    0  0.00000000000E+00  0.00000000000E+00 -0.11863843189E+04  0.11863843189E+04  0.50400001928E-02 0. -1.
    10030    2    1    2    0    0  0.00000000000E+00  0.00000000000E+00 -0.97646204407E+03  0.13963065938E+04  0.99809517595E+03 0.  0.
        2    1    3    3  502    0 -0.25253717612E+03  0.21396372024E+02 -0.10896515146E+04  0.11187373478E+04  0.25500000920E-02 0. -1.
       -2    1    3    3    0  502  0.25253717612E+03 -0.21396372024E+02  0.11318947053E+03  0.27756924596E+03  0.25500000920E-02 0.  1.
</event>
<event>
 5   0  0.5201968E-03  0.9540518E+03  0.7818609E-02  0.9360427E-01
       -1   -1    0    0    0  501  0.00000000000E+00  0.00000000000E+00  0.37065594542E+03  0.37065594545E+03  0.50400001928E-02 0.  1.
        1   -1    0    0  501    0  0.00000000000E+00  0.00000000000E+00 -0.61392167882E+03  0.61392167884E+03  0.50400001928E-02 0. -1.
    10030    2    1    2    0    0  0.00000000000E+00  0.00000000000E+00 -0.24326573340E+03  0.98457762429E+03  0.95405182313E+03 0.  0.
        2    1    3    3  502    0  0.17159361475E+03 -0.15645097415E+03  0.30839186692E+03  0.38603991960E+03  0.25500000920E-02 0.  1.
       -2    1    3    3    0  502 -0.17159361475E+03  0.15645097415E+03 -0.55165760032E+03  0.59853770469E+03  0.25500000920E-02 0. -1.
</event>
<event>
 5   0  0.5349685E-03  0.9787054E+03  0.7818609E-02  0.9332214E-01
        1   -1    0    0  501    0  0.00000000000E+00  0.00000000000E+00  0.23723890795E+03  0.23723890801E+03  0.50400001928E-02 0.  1.
       -1   -1    0    0    0  501  0.00000000000E+00  0.00000000000E+00 -0.10093878539E+04  0.10093878539E+04  0.50400001928E-02 0. -1.
    10030    2    1    2    0    0  0.00000000000E+00  0.00000000000E+00 -0.77214894596E+03  0.12466267619E+04  0.97870541473E+03 0.  0.
        4    1    3    3  502    0 -0.41936144158E+03  0.20778409361E+03 -0.56811930830E+03  0.73607024774E+03  0.12699999809E+01 0. -1.
       -4    1    3    3    0  502  0.41936144158E+03 -0.20778409361E+03 -0.20402963765E+03  0.51055651419E+03  0.12699999809E+01 0.  1.
</event>
<event>
 5   0  0.5072205E-03  0.9667305E+03  0.7818609E-02  0.9345806E-01
       -1   -1    0    0    0  501  0.00000000000E+00  0.00000000000E+00  0.34913354583E+03  0.34913354587E+03  0.50400001928E-02 0.  1.
        1   -1    0    0  501    0  0.00000000000E+00  0.00000000000E+00 -0.66920511581E+03  0.66920511583E+03  0.50400001928E-02 0. -1.
    10030    2    1    2    0    0  0.00000000000E+00  0.00000000000E+00 -0.32007156998E+03  0.10183386617E+04  0.96673047951E+03 0.  0.
        5    1    3    3  502    0  0.23856884909E+03  0.93082622667E+02 -0.59184675097E+03  0.64489079466E+03  0.46999998093E+01 0. -1.
       -5    1    3    3    0  502 -0.23856884909E+03 -0.93082622667E+02  0.27177518099E+03  0.37344786704E+03  0.46999998093E+01 0.  1.
</event>
<event>
 5   0  0.5072205E-03  0.1023714E+04  0.7818609E-02  0.9282911E-01
       -1   -1    0    0    0  501  0.00000000000E+00  0.00000000000E+00  0.57267681370E+03  0.57267681372E+03  0.50400001928E-02 0.  1.
        1   -1    0    0  501    0  0.00000000000E+00  0.00000000000E+00 -0.45749659850E+03  0.45749659853E+03  0.50400001928E-02 0. -1.
    10030    2    1    2    0    0  0.00000000000E+00  0.00000000000E+00  0.11518021520E+03  0.10301734122E+04  0.10237142069E+04 0.  0.
        5    1    3    3  502    0  0.95053140313E+02  0.25298152608E+03  0.49500598358E+03  0.56399270013E+03  0.46999998093E+01 0.  1.
       -5    1    3    3    0  502 -0.95053140313E+02 -0.25298152608E+03 -0.37982576838E+03  0.46618071211E+03  0.46999998093E+01 0. -1.
</event>
<event>
 5   0  0.9243773E-03  0.1000336E+04  0.7818609E-02  0.9308176E-01
        2   -1    0    0  501    0  0.00000000000E+00  0.00000000000E+00  0.13892600825E+04  0.13892600825E+04  0.25500000920E-02 0.  1.
       -2   -1    0    0    0  501  0.00000000000E+00  0.00000000000E+00 -0.18007288913E+03  0.18007288914E+03  0.25500000920E-02 0. -1.
    10030    2    1    2    0    0  0.00000000000E+00  0.00000000000E+00  0.12091871934E+04  0.15693329716E+04  0.10003360972E+04 0.  0.
        3    1    3    3  502    0  0.19040287080E+03 -0.32107261546E+03  0.11268602749E+04  0.11870783323E+04  0.10100000352E+00 0.  1.
       -3    1    3    3    0  502 -0.19040287080E+03  0.32107261546E+03  0.82326918455E+02  0.38225463936E+03  0.10100000352E+00 0. -1.
</event>
<event>
 5   0  0.9243773E-03  0.1002775E+04  0.7818609E-02  0.9305506E-01
       -2   -1    0    0    0  501  0.00000000000E+00  0.00000000000E+00  0.27074468235E+03  0.27074468236E+03  0.25500000920E-02 0.  1.
        2   -1    0    0  501    0  0.00000000000E+00  0.00000000000E+00 -0.92851097718E+03  0.92851097719E+03  0.25500000920E-02 0. -1.
    10030    2    1    2    0    0  0.00000000000E+00  0.00000000000E+00 -0.65776629484E+03  0.11992556595E+04  0.10027749689E+04 0.  0.
        3    1    3    3  502    0  0.42823201153E+03 -0.19839346993E+03 -0.53129976283E+03  0.71064905037E+03  0.10100000352E+00 0. -1.
       -3    1    3    3    0  502 -0.42823201153E+03  0.19839346993E+03 -0.12646653201E+03  0.48860660917E+03  0.10100000352E+00 0.  1.
</event>
<event>
 5   0  0.5072205E-03  0.1008599E+04  0.7818609E-02  0.9299164E-01
        1   -1    0    0  501    0  0.00000000000E+00  0.00000000000E+00  0.32389101327E+03  0.32389101331E+03  0.50400001928E-02 0.  1.
       -1   -1    0    0    0  501  0.00000000000E+00  0.00000000000E+00 -0.78519556465E+03  0.78519556467E+03  0.50400001928E-02 0. -1.
    10030    2    1    2    0    0  0.00000000000E+00  0.00000000000E+00 -0.46130455138E+03  0.11090865780E+04  0.10085986062E+04 0.  0.
        5    1    3    3  502    0  0.36413261480E+02 -0.70891840916E+02  0.31689798642E+03  0.32679963666E+03  0.46999998093E+01 0.  1.
       -5    1    3    3    0  502 -0.36413261480E+02  0.70891840916E+02 -0.77820253781E+03  0.78228694133E+03  0.46999998093E+01 0. -1.
</event>
<event>
 5   0  0.9040674E-03  0.9703156E+03  0.7818609E-02  0.9341715E-01
        2   -1    0    0  501    0  0.00000000000E+00  0.00000000000E+00  0.59464121372E+03  0.59464121373E+03  0.25500000920E-02 0.  1.
       -2   -1    0    0    0  501  0.00000000000E+00  0.00000000000E+00 -0.39583215322E+03  0.39583215323E+03  0.25500000920E-02 0. -1.
    10030    2    1    2    0    0  0.00000000000E+00  0.00000000000E+00  0.19880906051E+03  0.99047336695E+03  0.97031564354E+03 0.  0.
        1    1    3    3  502    0 -0.11581358721E+03  0.15420520770E+03 -0.35502478680E+03  0.40402305916E+03  0.50400001928E-02 0. -1.
       -1    1    3    3    0  502  0.11581358721E+03 -0.15420520770E+03  0.55383384731E+03  0.58645030780E+03  0.50400001928E-02 0.  1.
</event>
<event>
 5   0  0.5201968E-03  0.9917461E+03  0.7818609E-02  0.9317644E-01
       -1   -1    0    0    0  501  0.00000000000E+00  0.00000000000E+00  0.11006661465E+04  0.11006661465E+04  0.50400001928E-02 0. -1.
        1   -1    0    0  501    0  0.00000000000E+00  0.00000000000E+00 -0.22340112958E+03  0.22340112964E+03  0.50400001928E-02 0.  1.
    10030    2    1    2    0    0  0.00000000000E+00  0.00000000000E+00  0.87726501689E+03  0.13240672761E+04  0.99174605713E+03 0.  0.
        2    1    3    3  502    0 -0.13116094527E+03 -0.26824071120E+03 -0.89923342044E+02  0.31183726551E+03  0.25500000920E-02 0.  1.
       -2    1    3    3    0  502  0.13116094527E+03  0.26824071120E+03  0.96718835894E+03  0.10122300106E+04  0.25500000920E-02 0. -1.
</event>
<event>
 5   0  0.9243773E-03  0.1072223E+04  0.7818609E-02  0.9232696E-01
       -2   -1    0    0    0  501  0.00000000000E+00  0.00000000000E+00  0.10320466807E+04  0.10320466808E+04  0.25500000920E-02 0.  1.
        2   -1    0    0  501    0  0.00000000000E+00  0.00000000000E+00 -0.27849087456E+03  0.27849087457E+03  0.25500000920E-02 0. -1.
    10030    2    1    2    0    0  0.00000000000E+00  0.00000000000E+00  0.75355580619E+03  0.13105375553E+04  0.10722230789E+04 0.  0.
        3    1    3    3  502    0 -0.15239512924E+03 -0.50775484961E+03  0.27917808135E+03  0.59914912503E+03  0.10100000352E+00 0. -1.
       -3    1    3    3    0  502  0.15239512924E+03  0.50775484961E+03  0.47437772484E+03  0.71138843029E+03  0.10100000352E+00 0.  1.
</event>
<event>
 5   0  0.8875655E-03  0.1006400E+04  0.7818609E-02  0.9301554E-01
        2   -1    0    0  501    0  0.00000000000E+00  0.00000000000E+00  0.12839269327E+04  0.12839269327E+04  0.25500000920E-02 0. -1.
       -2   -1    0    0    0  501  0.00000000000E+00  0.00000000000E+00 -0.19721530764E+03  0.19721530765E+03  0.25500000920E-02 0.  1.
    10030    2    1    2    0    0  0.00000000000E+00  0.00000000000E+00  0.10867116250E+04  0.14811422403E+04  0.10063996125E+04 0.  0.
        4    1    3    3  502    0 -0.39624914045E+03  0.30537194472E+03  0.62319633505E+03  0.79914998020E+03  0.12699999809E+01 0. -1.
       -4    1    3    3    0  502  0.39624914045E+03 -0.30537194472E+03  0.46351528998E+03  0.68199226012E+03  0.12699999809E+01 0.  1.
</event>
<event>
 5   0  0.8907355E-03  0.9278967E+03  0.7818609E-02  0.9391366E-01
        2   -1    0    0  501    0  0.00000000000E+00  0.00000000000E+00  0.66419302206E+03  0.66419302206E+03  0.25500000920E-02 0.  1.
       -2   -1    0    0    0  501  0.00000000000E+00  0.00000000000E+00 -0.32407458858E+03  0.32407458859E+03  0.25500000920E-02 0. -1.
    10030    2    1    2    0    0  0.00000000000E+00  0.00000000000E+00  0.34011843348E+03  0.98826761066E+03  0.92789671919E+03 0.  0.
        5    1    3    3  502    0 -0.42203424286E+03 -0.65377157198E-01 -0.35122398759E+02  0.42351927857E+03  0.46999998093E+01 0. -1.
       -5    1    3    3    0  502  0.42203424286E+03  0.65377157198E-01  0.37524083224E+03  0.56474833209E+03  0.46999998093E+01 0.  1.
</event>
<event>
 5   0  0.5310275E-03  0.1000638E+04  0.7818609E-02  0.9307846E-01
        1   -1    0    0  501    0  0.00000000000E+00  0.00000000000E+00  0.42408224681E+03  0.42408224684E+03  0.50400001928E-02 0.  1.
       -1   -1    0    0    0  501  0.00000000000E+00  0.00000000000E+00 -0.59026035862E+03  0.59026035864E+03  0.50400001928E-02 0. -1.
    10030    2    1    2    0    0  0.00000000000E+00  0.00000000000E+00 -0.16617811181E+03  0.10143426055E+04  0.10006376749E+04 0.  0.
        1    1    3    3  502    0  0.36525539999E+03  0.88176209435E+02  0.25178742427E+03  0.45230902951E+03  0.50400001928E-02 0.  1.
       -1    1    3    3    0  502 -0.36525539999E+03 -0.88176209435E+02 -0.41796553608E+03  0.56203357596E+03  0.50400001928E-02 0. -1.
</event>
<event>
 5   0  0.5189877E-03  0.9725580E+03  0.7818609E-02  0.9339166E-01
       -1   -1    0    0    0  501  0.00000000000E+00  0.00000000000E+00  0.21177109959E+03  0.21177109965E+03  0.50400001928E-02 0.  1.
        1   -1    0    0  501    0  0.00000000000E+00  0.00000000000E+00 -0.11166172428E+04  0.11166172428E+04  0.50400001928E-02 0. -1.
    10030    2    1    2    0    0  0.00000000000E+00  0.00000000000E+00 -0.90484614318E+03  0.13283883424E+04  0.97255799081E+03 0.  0.
        3    1    3    3  502    0  0.10173373586E+03  0.27535848071E+03  0.77096616366E+02  0.30350608621E+03  0.10100000352E+00 0.  1.
       -3    1    3    3    0  502 -0.10173373586E+03 -0.27535848071E+03 -0.98194275955E+03  0.10248822562E+04  0.10100000352E+00 0. -1.
</event>
<event>
 5   0  0.5349685E-03  0.1012462E+04  0.7818609E-02  0.9294981E-01
        1   -1    0    0  501    0  0.00000000000E+00  0.00000000000E+00  0.25166927243E+03  0.25166927248E+03  0.50400001928E-02 0. -1.
       -1   -1    0    0    0  501  0.00000000000E+00  0.00000000000E+00 -0.10182804603E+04  0.10182804603E+04  0.50400001928E-02 0.  1.
    10030    2    1    2    0    0  0.00000000000E+00  0.00000000000E+00 -0.76661118789E+03  0.12699497328E+04  0.10124621526E+04 0.  0.
        4    1    3    3  502    0 -0.42931444264E+03 -0.96002883463E+02 -0.69748876352E+03  0.82463302895E+03  0.12699999809E+01 0. -1.
       -4    1    3    3    0  502  0.42931444264E+03  0.96002883463E+02 -0.69122424363E+02  0.44531670386E+03  0.12699999809E+01 0.  1.
</event>
<event>
 5   0  0.5072205E-03  0.9973774E+03  0.7818609E-02  0.9311426E-01
       -1   -1    0    0    0  501  0.00000000000E+00  0.00000000000E+00  0.24085833452E+03  0.24085833457E+03  0.50400001928E-02 0.  1.
        1   -1    0    0  501    0  0.00000000000E+00  0.00000000000E+00 -0.10325174016E+04  0.10325174016E+04  0.50400001928E-02 0. -1.
    10030    2    1    2    0    0  0.00000000000E+00  0.00000000000E+00 -0.79165906707E+03  0.12733757362E+04  0.99737740449E+03 0.  0.
        5    1    3    3  502    0  0.39193548664E+03  0.84945202969E+02 -0.77422095063E+03  0.87193421976E+03  0.46999998093E+01 0. -1.
       -5    1    3    3    0  502 -0.39193548664E+03 -0.84945202969E+02 -0.17438116437E+02  0.40144151641E+03  0.46999998093E+01 0.  1.
</event>
<event>
 5   0  0.9243773E-03  0.1003041E+04  0.7818609E-02  0.9305215E-01
       -2   -1    0    0    0  501  0.00000000000E+00  0.00000000000E+00  0.18306508735E+03  0.18306508737E+03  0.25500000920E-02 0. -1.
        2   -1    0    0  501    0  0.00000000000E+00  0.00000000000E+00 -0.13739540440E+04  0.13739540440E+04  0.25500000920E-02 0.  1.
    10030    2    1    2    0    0  0.00000000000E+00  0.00000000000E+00 -0.11908889566E+04  0.15570191314E+04  0.10030414091E+04 0.  0.
        3    1    3    3  502    0  0.20489390582E+03 -0.33643012010E+02  0.11320910915E+03  0.23649456124E+03  0.10100000352E+00 0. -1.
       -3    1    3    3    0  502 -0.20489390582E+03  0.33643012010E+02 -0.13040980658E+04  0.13205245701E+04  0.10100000352E+00 0.  1.
</event>
<event>
 5   0  0.5201968E-03  0.7897434E+03  0.7818609E-02  0.9574983E-01
        1   -1    0    0  501    0  0.00000000000E+00  0.00000000000E+00  0.61183325758E+03  0.61183325760E+03  0.50400001928E-02 0.  1.
       -1   -1    0    0    0  501  0.00000000000E+00  0.00000000000E+00 -0.25484664480E+03  0.25484664485E+03  0.50400001928E-02 0. -1.
    10030    2    1    2    0    0  0.00000000000E+00  0.00000000000E+00  0.35698661279E+03  0.86667990245E+03  0.78974338339E+03 0.  0.
        2    1    3    3  502    0 -0.15632067546E+03  0.15674421572E+03 -0.18034571734E+03  0.28553367666E+03  0.25500000920E-02 0. -1.
       -2    1    3    3    0  502  0.15632067546E+03 -0.15674421572E+03  0.53733233013E+03  0.58114622579E+03  0.25500000920E-02 0.  1.
</event>
<event>
 5   0  0.5349685E-03  0.1004413E+04  0.7818609E-02  0.9303717E-01
       -1   -1    0    0    0  501  0.00000000000E+00  0.00000000000E+00  0.48261358843E+03  0.48261358845E+03  0.50400001928E-02 0. -1.
        1   -1    0    0  501    0  0.00000000000E+00  0.00000000000E+00 -0.52259535391E+03  0.52259535394E+03  0.50400001928E-02 0.  1.
    10030    2    1    2    0    0  0.00000000000E+00  0.00000000000E+00 -0.39981765486E+02  0.10052089424E+04  0.10044134987E+04 0.  0.
        4    1    3    3  502    0 -0.40906984090E+03  0.30455091359E+02  0.26997009861E+03  0.49107139437E+03  0.12699999809E+01 0. -1.
       -4    1    3    3    0  502  0.40906984090E+03 -0.30455091359E+02 -0.30995186410E+03  0.51413754802E+03  0.12699999809E+01 0.  1.
</event>
<event>
 5   0  0.5189877E-03  0.9989751E+03  0.7818609E-02  0.9309670E-01
       -1   -1    0    0    0  501  0.00000000000E+00  0.00000000000E+00  0.20195898959E+03  0.20195898965E+03  0.50400001928E-02 0. -1.
        1   -1    0    0  501    0  0.00000000000E+00  0.00000000000E+00 -0.12353389005E+04  0.12353389005E+04  0.50400001928E-02 0.  1.
    10030    2    1    2    0    0  0.00000000000E+00  0.00000000000E+00 -0.10333799109E+04  0.14372978901E+04  0.99897506714E+03 0.  0.
        3    1    3    3  502    0 -0.42518752497E+03  0.11290670751E+03 -0.85703016171E+03  0.96334472764E+03  0.10100000352E+00 0. -1.
       -3    1    3    3    0  502  0.42518752497E+03 -0.11290670751E+03 -0.17634974915E+03  0.47395316248E+03  0.10100000352E+00 0.  1.
</event>
<event>
 5   0  0.5349685E-03  0.1005584E+04  0.7818609E-02  0.9302441E-01
        1   -1    0    0  501    0  0.00000000000E+00  0.00000000000E+00  0.41899155238E+03  0.41899155241E+03  0.50400001928E-02 0.  1.
       -1   -1    0    0    0  501  0.00000000000E+00  0.00000000000E+00 -0.60335351539E+03  0.60335351541E+03  0.50400001928E-02 0. -1.
    10030    2    1    2    0    0  0.00000000000E+00  0.00000000000E+00 -0.18436196301E+03  0.10223450678E+04  0.10055844591E+04 0.  0.
        4    1    3    3  502    0 -0.32106214490E+03  0.38615383083E+03 -0.67221198964E+02  0.50667147585E+03  0.12699999809E+01 0.  1.
       -4    1    3    3    0  502  0.32106214490E+03 -0.38615383083E+03 -0.11714076404E+03  0.51567359197E+03  0.12699999809E+01 0. -1.
</event>
<event>
 5   0  0.8968798E-03  0.1020545E+04  0.7818609E-02  0.9286294E-01
        2   -1    0    0  501    0  0.00000000000E+00  0.00000000000E+00  0.73975244957E+03  0.73975244957E+03  0.25500000920E-02 0. -1.
       -2   -1    0    0    0  501  0.00000000000E+00  0.00000000000E+00 -0.35197972419E+03  0.35197972420E+03  0.25500000920E-02 0.  1.
    10030    2    1    2    0    0  0.00000000000E+00  0.00000000000E+00  0.38777272538E+03  0.10917321738E+04  0.10205446843E+04 0.  0.
        2    1    3    3  502    0  0.16749504497E+03 -0.16474158217E+03 -0.29068225517E+03  0.37375199326E+03  0.25500000920E-02 0.  1.
       -2    1    3    3    0  502 -0.16749504497E+03  0.16474158217E+03  0.67845498055E+03  0.71798018052E+03  0.25500000920E-02 0. -1.
</event>
<event>
 5   0  0.8907355E-03  0.1001275E+04  0.7818609E-02  0.9307147E-01
       -2   -1    0    0    0  501  0.00000000000E+00  0.00000000000E+00  0.24828497565E+03  0.24828497566E+03  0.25500000920E-02 0.  1.
        2   -1    0    0  501    0  0.00000000000E+00  0.00000000000E+00 -0.10094771536E+04  0.10094771536E+04  0.25500000920E-02 0. -1.
    10030    2    1    2    0    0  0.00000000000E+00  0.00000000000E+00 -0.76119217792E+03  0.12577621292E+04  0.10012752079E+04 0.  0.
        5    1    3    3  502    0 -0.30990127559E+03  0.34322274252E+02 -0.87258629671E+03  0.92663140155E+03  0.46999998093E+01 0. -1.
       -5    1    3    3    0  502  0.30990127559E+03 -0.34322274252E+02  0.11139411879E+03  0.33113072769E+03  0.46999998093E+01 0.  1.
</event>
<event>
 5   0  0.9243773E-03  0.1005901E+04  0.7818609E-02  0.9302097E-01
        2   -1    0    0  501    0  0.00000000000E+00  0.00000000000E+00  0.20463363809E+03  0.20463363810E+03  0.25500000920E-02 0.  1.
       -2   -1    0    0    0  501  0.00000000000E+00  0.00000000000E+00 -0.12361553943E+04  0.12361553943E+04  0.25500000920E-02 0. -1.
    10030    2    1    2    0    0  0.00000000000E+00  0.00000000000E+00 -0.10315217562E+04  0.14407890324E+04  0.10059005430E+04 0.  0.
        3    1    3    3  502    0 -0.13166102186E+03 -0.60441497212E+02  0.17410132999E+03  0.22649300777E+03  0.10100000352E+00 0.  1.
       -3    1    3    3    0  502  0.13166102186E+03  0.60441497212E+02 -0.12056230862E+04  0.12142960246E+04  0.10100000352E+00 0. -1.
</event>
<event>
 5   0  0.8907355E-03  0.1005745E+04  0.7818609E-02  0.9302266E-01
       -2   -1    0    0    0  501  0.00000000000E+00  0.00000000000E+00  0.16192770045E+03  0.16192770047E+03  0.25500000920E-02 0.  1.
        2   -1    0    0  501    0  0.00000000000E+00  0.00000000000E+00 -0.15616904969E+04  0.15616904970E+04  0.25500000920E-02 0. -1.
    10030    2    1    2    0    0  0.00000000000E+00  0.00000000000E+00 -0.13997627965E+04  0.17236181974E+04  0.10057453972E+04 0.  0.
        5    1    3    3  502    0 -0.33861621424E+03 -0.36778130199E+03 -0.79272346828E+03  0.93720681485E+03  0.46999998093E+01 0. -1.
       -5    1    3    3    0  502  0.33861621424E+03  0.36778130199E+03 -0.60703932822E+03  0.78641138258E+03  0.46999998093E+01 0.  1.
</event>
<event>
 5   0  0.5349685E-03  0.1004577E+04  0.7818609E-02  0.9303539E-01
        1   -1    0    0  501    0  0.00000000000E+00  0.00000000000E+00  0.88655199232E+03  0.88655199234E+03  0.50400001928E-02 0.  1.
       -1   -1    0    0    0  501  0.00000000000E+00  0.00000000000E+00 -0.28457860869E+03  0.28457860874E+03  0.50400001928E-02 0. -1.
    10030    2    1    2    0    0  0.00000000000E+00  0.00000000000E+00  0.60197338363E+03  0.11711306011E+04  0.10045769907E+04 0.  0.
        4    1    3    3  502    0  0.37156541938E+03  0.24828231691E+03  0.33647938096E+02  0.44815038370E+03  0.12699999809E+01 0. -1.
       -4    1    3    3    0  502 -0.37156541938E+03 -0.24828231691E+03  0.56832544553E+03  0.72298021737E+03  0.12699999809E+01 0.  1.
</event>
<event>
 5   0  0.5189877E-03  0.1000455E+04  0.7818609E-02  0.9308046E-01
        1   -1    0    0  501    0  0.00000000000E+00  0.00000000000E+00  0.77407327030E+03  0.77407327032E+03  0.50400001928E-02 0. -1.
       -1   -1    0    0    0  501  0.00000000000E+00  0.00000000000E+00 -0.32326089886E+03  0.32326089890E+03  0.50400001928E-02 0.  1.
    10030    2    1    2    0    0  0.00000000000E+00  0.00000000000E+00  0.45081237144E+03  0.10973341692E+04  0.10004551388E+04 0.  0.
        3    1    3    3  502    0  0.22198933563E+01  0.22926116273E+03 -0.26223780706E+03  0.34833071400E+03  0.10100000352E+00 0.  1.
       -3    1    3    3    0  502 -0.22198933563E+01 -0.22926116273E+03  0.71305017850E+03  0.74900345522E+03  0.10100000352E+00 0. -1.
</event>
<event>
 5   0  0.5189877E-03  0.1011397E+04  0.7818609E-02  0.9296133E-01
        1   -1    0    0  501    0  0.00000000000E+00  0.00000000000E+00  0.20911638995E+03  0.20911639001E+03  0.50400001928E-02 0. -1.
       -1   -1    0    0    0  501  0.00000000000E+00  0.00000000000E+00 -0.12229109372E+04  0.12229109372E+04  0.50400001928E-02 0.  1.
    10030    2    1    2    0    0  0.00000000000E+00  0.00000000000E+00 -0.10137945472E+04  0.14320273272E+04  0.10113965008E+04 0.  0.
        3    1    3    3  502    0 -0.25352936255E+03 -0.26594520349E+03 -0.14935269492E+02  0.36773232304E+03  0.10100000352E+00 0. -1.
       -3    1    3    3    0  502  0.25352936255E+03  0.26594520349E+03 -0.99885927776E+03  0.10642950042E+04  0.10100000352E+00 0.  1.
</event>
<event>
 5   0  0.5072205E-03  0.9702527E+03  0.7818609E-02  0.9341787E-01
        1   -1    0    0  501    0  0.00000000000E+00  0.00000000000E+00  0.10964379790E+04  0.10964379790E+04  0.50400001928E-02 0.  1.
       -1   -1    0    0    0  501  0.00000000000E+00  0.00000000000E+00 -0.21464741573E+03  0.21464741579E+03  0.50400001928E-02 0. -1.
    10030    2    1    2    0    0  0.00000000000E+00  0.00000000000E+00  0.88179056329E+03  0.13110853948E+04  0.97025270677E+03 0.  0.
        5    1    3    3  502    0  0.10488804002E+03 -0.44607164083E+03  0.65601705721E+03  0.80022614244E+03  0.46999998093E+01 0.  1.
       -5    1    3    3    0  502 -0.10488804002E+03  0.44607164083E+03  0.22577350607E+03  0.51085925237E+03  0.46999998093E+01 0. -1.
</event>
<event>
 5   0  0.8968798E-03  0.9774537E+03  0.7818609E-02  0.9333625E-01
       -2   -1    0    0    0  501  0.00000000000E+00  0.00000000000E+00  0.29609844229E+03  0.29609844230E+03  0.25500000920E-02 0.  1.
        2   -1    0    0  501    0  0.00000000000E+00  0.00000000000E+00 -0.80667076844E+03  0.80667076844E+03  0.25500000920E-02 0. -1.
    10030    2    1    2    0    0  0.00000000000E+00  0.00000000000E+00 -0.51057232615E+03  0.11027692107E+04  0.97745374925E+03 0.  0.
        2    1    3    3  502    0  0.16010264493E+03  0.23187360868E+03 -0.70580035996E+03  0.75996866741E+03  0.25500000920E-02 0. -1.
       -2    1    3    3    0  502 -0.16010264493E+03 -0.23187360868E+03  0.19522803381E+03  0.34280054333E+03  0.25500000920E-02 0.  1.
</event>
<event>
 5   0  0.9243773E-03  0.9400625E+03  0.7818609E-02  0.9376842E-01
       -2   -1    0    0    0  501  0.00000000000E+00  0.00000000000E+00  0.33135524975E+03  0.33135524976E+03  0.25500000920E-02 0. -1.
        2   -1    0    0  501    0  0.00000000000E+00  0.00000000000E+00 -0.66674476398E+03  0.66674476398E+03  0.25500000920E-02 0.  1.
    10030    2    1    2    0    0  0.00000000000E+00  0.00000000000E+00 -0.33538951423E+03  0.99810001374E+03  0.94006250386E+03 0.  0.
        3    1    3    3  502    0  0.24964560719E+03 -0.62535617067E+02 -0.58529092177E+03  0.63937399533E+03  0.10100000352E+00 0.  1.
       -3    1    3    3    0  502 -0.24964560719E+03  0.62535617067E+02  0.24990140754E+03  0.35872601841E+03  0.10100000352E+00 0. -1.
</event>
<event>
 5   0  0.9243773E-03  0.9945866E+03  0.7818609E-02  0.9314502E-01
        2   -1    0    0  501    0  0.00000000000E+00  0.00000000000E+00  0.51595176999E+03  0.51595177000E+03  0.25500000920E-02 0.  1.
       -2   -1    0    0    0  501  0.00000000000E+00  0.00000000000E+00 -0.47930962550E+03  0.47930962550E+03  0.25500000920E-02 0. -1.
    10030    2    1    2    0    0  0.00000000000E+00  0.00000000000E+00  0.36642144498E+02  0.99526139550E+03  0.99458664712E+03 0.  0.
        3    1    3    3  502    0 -0.27264372157E+03 -0.87302406818E+01 -0.39776123590E+03  0.48231196026E+03  0.10100000352E+00 0. -1.
       -3    1    3    3    0  502  0.27264372157E+03  0.87302406818E+01  0.43440338040E+03  0.51294943525E+03  0.10100000352E+00 0.  1.
</event>
<event>
 5   0  0.5201968E-03  0.9977220E+03  0.7818609E-02  0.9311047E-01
       -1   -1    0    0    0  501  0.00000000000E+00  0.00000000000E+00  0.36387011738E+03  0.36387011741E+03  0.50400001928E-02 0. -1.
        1   -1    0    0  501    0  0.00000000000E+00  0.00000000000E+00 -0.68393164828E+03  0.68393164830E+03  0.50400001928E-02 0.  1.
    10030    2    1    2    0    0  0.00000000000E+00  0.00000000000E+00 -0.32006153091E+03  0.10478017657E+04  0.99772198365E+03 0.  0.
        2    1    3    3  502    0 -0.34558713834E+03  0.11545285519E+02  0.21759913176E+03  0.40855005317E+03  0.25500000920E-02 0. -1.
       -2    1    3    3    0  502  0.34558713834E+03 -0.11545285519E+02 -0.53766066266E+03  0.63925171254E+03  0.25500000920E-02 0.  1.
</event>
<event>
 5   0  0.8875655E-03  0.1034895E+04  0.7818609E-02  0.9271080E-01
       -2   -1    0    0    0  501  0.00000000000E+00  0.00000000000E+00  0.21391131577E+03  0.21391131579E+03  0.25500000920E-02 0. -1.
        2   -1    0    0  501    0  0.00000000000E+00  0.00000000000E+00 -0.12516949026E+04  0.12516949026E+04  0.25500000920E-02 0.  1.
    10030    2    1    2    0    0  0.00000000000E+00  0.00000000000E+00 -0.10377835868E+04  0.14656062184E+04  0.10348945909E+04 0.  0.
        4    1    3    3  502    0  0.47883811314E+03  0.16494822135E+03 -0.36864065062E+03  0.62641152329E+03  0.12699999809E+01 0. -1.
       -4    1    3    3    0  502 -0.47883811314E+03 -0.16494822135E+03 -0.66914293623E+03  0.83919469512E+03  0.12699999809E+01 0.  1.
</event>
<event>
 5   0  0.9243773E-03  0.9983493E+03  0.7818609E-02  0.9310357E-01
       -2   -1    0    0    0  501  0.00000000000E+00  0.00000000000E+00  0.19619042388E+03  0.19619042390E+03  0.25500000920E-02 0.  1.
        2   -1    0    0  501    0  0.00000000000E+00  0.00000000000E+00 -0.12700688039E+04  0.12700688039E+04  0.25500000920E-02 0. -1.
    10030    2    1    2    0    0  0.00000000000E+00  0.00000000000E+00 -0.10738783800E+04  0.14662592278E+04  0.99834931165E+03 0.  0.
        3    1    3    3  502    0  0.16247058153E+03 -0.43341759718E+03 -0.81142127045E+03  0.93415844039E+03  0.10100000352E+00 0. -1.
       -3    1    3    3    0  502 -0.16247058153E+03  0.43341759718E+03 -0.26245710959E+03  0.53210078743E+03  0.10100000352E+00 0.  1.
</event>
<event>
 5   0  0.9243773E-03  0.1006572E+04  0.7818609E-02  0.9301366E-01
        2   -1    0    0  501    0  0.00000000000E+00  0.00000000000E+00  0.49975086764E+03  0.49975086765E+03  0.25500000920E-02 0. -1.
       -2   -1    0    0    0  501  0.00000000000E+00  0.00000000000E+00 -0.50684654110E+03  0.50684654111E+03  0.25500000920E-02 0.  1.
    10030    2    1    2    0    0  0.00000000000E+00  0.00000000000E+00 -0.70956734640E+01  0.10065974088E+04  0.10065723992E+04 0.  0.
        3    1    3    3  502    0  0.33139977139E+03  0.13111647410E+03  0.35181947391E+03  0.50079366078E+03  0.10100000352E+00 0. -1.
       -3    1    3    3    0  502 -0.33139977139E+03 -0.13111647410E+03 -0.35891514737E+03  0.50580374798E+03  0.10100000352E+00 0.  1.
</event>
<event>
 5   0  0.3513625E-03  0.1007931E+04  0.7818609E-02  0.9299889E-01
        3   -1    0    0  501    0  0.00000000000E+00  0.00000000000E+00  0.25254738771E+03  0.25254740791E+03  0.10100000352E+00 0. -1.
       -3   -1    0    0    0  501  0.00000000000E+00  0.00000000000E+00 -0.10056774001E+04  0.10056774052E+04  0.10100000352E+00 0.  1.
    10030    2    1    2    0    0  0.00000000000E+00  0.00000000000E+00 -0.75313001243E+03  0.12582248131E+04  0.10079309821E+04 0.  0.
        1    1    3    3  502    0 -0.20971428573E+03  0.18189825188E+03 -0.90162478178E+03  0.94339509371E+03  0.50400001928E-02 0.  1.
       -1    1    3    3    0  502  0.20971428573E+03 -0.18189825188E+03  0.14849476936E+03  0.31482971942E+03  0.50400001928E-02 0. -1.
</event>
<event>
 5   0  0.9243773E-03  0.1003230E+04  0.7818609E-02  0.9305009E-01
       -2   -1    0    0    0  501  0.00000000000E+00  0.00000000000E+00  0.20264293178E+03  0.20264293179E+03  0.25500000920E-02 0.  1.
        2   -1    0    0  501    0  0.00000000000E+00  0.00000000000E+00 -0.12416802089E+04  0.12416802089E+04  0.25500000920E-02 0. -1.
    10030    2    1    2    0    0  0.00000000000E+00  0.00000000000E+00 -0.10390372772E+04  0.14443231407E+04  0.10032302186E+04 0.  0.
        3    1    3    3  502    0  0.37904854972E+03 -0.26810918477E+03 -0.24614238624E+03  0.52549635823E+03  0.10100000352E+00 0.  1.
       -3    1    3    3    0  502 -0.37904854972E+03  0.26810918477E+03 -0.79289489093E+03  0.91882678251E+03  0.10100000352E+00 0. -1.
</event>
<event>
 5   0  0.8907355E-03  0.1009812E+04  0.7818609E-02  0.9297848E-01
       -2   -1    0    0    0  501  0.00000000000E+00  0.00000000000E+00  0.27304231448E+03  0.27304231449E+03  0.25500000920E-02 0. -1.
        2   -1    0    0  501    0  0.00000000000E+00  0.00000000000E+00 -0.93366578524E+03  0.93366578524E+03  0.25500000920E-02 0.  1.
    10030    2    1    2    0    0  0.00000000000E+00  0.00000000000E+00 -0.66062347076E+03  0.12067080997E+04  0.10098123924E+04 0.  0.
        5    1    3    3  502    0  0.38159768305E+03 -0.24685349896E+03 -0.67538555300E+02  0.45949645060E+03  0.46999998093E+01 0. -1.
       -5    1    3    3    0  502 -0.38159768305E+03  0.24685349896E+03 -0.59308491546E+03  0.74721164914E+03  0.46999998093E+01 0.  1.
</event>
<event>
 5   0  0.5189877E-03  0.9949308E+03  0.7818609E-02  0.9314122E-01
       -1   -1    0    0    0  501  0.00000000000E+00  0.00000000000E+00  0.30395106676E+03  0.30395106680E+03  0.50400001928E-02 0.  1.
        1   -1    0    0  501    0  0.00000000000E+00  0.00000000000E+00 -0.81418312605E+03  0.81418312606E+03  0.50400001928E-02 0. -1.
    10030    2    1    2    0    0  0.00000000000E+00  0.00000000000E+00 -0.51023205929E+03  0.11181341929E+04  0.99493081113E+03 0.  0.
        3    1    3    3  502    0 -0.14954968986E+03  0.46373762778E+03 -0.14242920747E+03  0.50764533534E+03  0.10100000352E+00 0.  1.
       -3    1    3    3    0  502  0.14954968986E+03 -0.46373762778E+03 -0.36780285182E+03  0.61048885752E+03  0.10100000352E+00 0. -1.
</event>
<event>
 5   0  0.3513625E-03  0.1010586E+04  0.7818609E-02  0.9297010E-01
        3   -1    0    0  501    0  0.00000000000E+00  0.00000000000E+00  0.32057807431E+03  0.32057809022E+03  0.10100000352E+00 0.  1.
       -3   -1    0    0    0  501  0.00000000000E+00  0.00000000000E+00 -0.79643925875E+03  0.79643926515E+03  0.10100000352E+00 0. -1.
    10030    2    1    2    0    0  0.00000000000E+00  0.00000000000E+00 -0.47586118443E+03  0.11170173554E+04  0.10105859218E+04 0.  0.
        4    1    3    3  502    0  0.26559625821E+03 -0.18644401995E+03  0.19018038419E+03  0.37612888267E+03  0.12699999809E+01 0.  1.
       -4    1    3    3    0  502 -0.26559625821E+03  0.18644401995E+03 -0.66604156862E+03  0.74088847270E+03  0.12699999809E+01 0. -1.
</event>
<event>
 5   0  0.5201968E-03  0.1015095E+04  0.7818609E-02  0.9292142E-01
        1   -1    0    0  501    0  0.00000000000E+00  0.00000000000E+00  0.46087731963E+03  0.46087731966E+03  0.50400001928E-02 0. -1.
       -1   -1    0    0    0  501  0.00000000000E+00  0.00000000000E+00 -0.55894399677E+03  0.55894399679E+03  0.50400001928E-02 0.  1.
    10030    2    1    2    0    0  0.00000000000E+00  0.00000000000E+00 -0.98066677137E+02  0.10198213164E+04  0.10150952883E+04 0.  0.
        2    1    3    3  502    0  0.19099237342E+03 -0.40948793611E+02  0.42160227715E+03  0.46465403313E+03  0.25500000920E-02 0. -1.
       -2    1    3    3    0  502 -0.19099237342E+03  0.40948793611E+02 -0.51966895429E+03  0.55516728331E+03  0.25500000920E-02 0.  1.
</event>
<event>
 5   0  0.5349685E-03  0.1020507E+04  0.7818609E-02  0.9286335E-01
       -1   -1    0    0    0  501  0.00000000000E+00  0.00000000000E+00  0.23591105892E+03  0.23591105898E+03  0.50400001928E-02 0.  1.
        1   -1    0    0  501    0  0.00000000000E+00  0.00000000000E+00 -0.11036301760E+04  0.11036301760E+04  0.50400001928E-02 0. -1.
    10030    2    1    2    0    0  0.00000000000E+00  0.00000000000E+00 -0.86771911710E+03  0.13395412350E+04  0.10205068614E+04 0.  0.
        4    1    3    3  502    0  0.22298523279E+03  0.94481747745E+02  0.15566436683E+03  0.28789272777E+03  0.12699999809E+01 0.  1.
       -4    1    3    3    0  502 -0.22298523279E+03 -0.94481747745E+02 -0.10233834839E+04  0.10516485072E+04  0.12699999809E+01 0. -1.
</event>
<event>
 5   0  0.9243773E-03  0.9980937E+03  0.7818609E-02  0.9310638E-01
       -2   -1    0    0    0  501  0.00000000000E+00  0.00000000000E+00  0.33646949472E+03  0.33646949473E+03  0.25500000920E-02 0.  1.
        2   -1    0    0  501    0  0.00000000000E+00  0.00000000000E+00 -0.74017929410E+03  0.74017929411E+03  0.25500000920E-02 0. -1.
    10030    2    1    2    0    0  0.00000000000E+00  0.00000000000E+00 -0.40370979938E+03  0.10766487888E+04  0.99809368918E+03 0.  0.
        3    1    3    3  502    0 -0.85999236528E+02 -0.11368158208E+03 -0.71775161898E+03  0.73176961370E+03  0.10100000352E+00 0. -1.
       -3    1    3    3    0  502  0.85999236528E+02  0.11368158208E+03  0.31404181959E+03  0.34487917513E+03  0.10100000352E+00 0.  1.
</event>
<event>
 5   0  0.9243773E-03  0.1002170E+04  0.7818609E-02  0.9306168E-01
        2   -1    0    0  501    0  0.00000000000E+00  0.00000000000E+00  0.13714178451E+04  0.13714178451E+04  0.25500000920E-02 0.  1.
       -2   -1    0    0    0  501  0.00000000000E+00  0.00000000000E+00 -0.18308517048E+03  0.18308517050E+03  0.25500000920E-02 0. -1.
    10030    2    1    2    0    0  0.00000000000E+00  0.00000000000E+00  0.11883326747E+04  0.15545030156E+04  0.10021701851E+04 0.  0.
        3    1    3    3  502    0 -0.17039762912E+03 -0.20366591701E+03 -0.64968422444E+02  0.27337897482E+03  0.10100000352E+00 0. -1.
       -3    1    3    3    0  502  0.17039762912E+03  0.20366591701E+03  0.12533010971E+04  0.12811240408E+04  0.10100000352E+00 0.  1.
</event>
<event>
 5   0  0.9040674E-03  0.9997425E+03  0.7818609E-02  0.9308827E-01
        2   -1    0    0  501    0  0.00000000000E+00  0.00000000000E+00  0.14086077250E+04  0.14086077250E+04  0.25500000920E-02 0.  1.
       -2   -1    0    0    0  501  0.00000000000E+00  0.00000000000E+00 -0.17738881354E+03  0.17738881356E+03  0.25500000920E-02 0. -1.
    10030    2    1    2    0    0  0.00000000000E+00  0.00000000000E+00  0.12312189115E+04  0.15859965386E+04  0.99974247304E+03 0.  0.
        1    1    3    3  502    0 -0.23123872713E+02 -0.79342035674E+02  0.13976949019E+04  0.14001360330E+04  0.50400001928E-02 0.  1.
       -1    1    3    3    0  502  0.23123872713E+02  0.79342035674E+02 -0.16647599043E+03  0.18586050556E+03  0.50400001928E-02 0. -1.
</event>
<event>
 5   0  0.5310275E-03  0.1013788E+04  0.7818609E-02  0.9293550E-01
       -1   -1    0    0    0  501  0.00000000000E+00  0.00000000000E+00  0.33866036140E+03  0.33866036144E+03  0.50400001928E-02 0.  1.
        1   -1    0    0  501    0  0.00000000000E+00  0.00000000000E+00 -0.75870033065E+03  0.75870033067E+03  0.50400001928E-02 0. -1.
    10030    2    1    2    0    0  0.00000000000E+00  0.00000000000E+00 -0.42003996926E+03  0.10973606921E+04  0.10137883965E+04 0.  0.
        1    1    3    3  502    0  0.15760837878E+03 -0.13944456444E+03  0.28914194595E+03  0.35761467049E+03  0.50400001928E-02 0.  1.
       -1    1    3    3    0  502 -0.15760837878E+03  0.13944456444E+03 -0.70918191521E+03  0.73974602162E+03  0.50400001928E-02 0. -1.
</event>
<event>
 5   0  0.8968798E-03  0.9961513E+03  0.7818609E-02  0.9312776E-01
        2   -1    0    0  501    0  0.00000000000E+00  0.00000000000E+00  0.93201511865E+03  0.93201511866E+03  0.25500000920E-02 0.  1.
       -2   -1    0    0    0  501  0.00000000000E+00  0.00000000000E+00 -0.26617526374E+03  0.26617526375E+03  0.25500000920E-02 0. -1.
    10030    2    1    2    0    0  0.00000000000E+00  0.00000000000E+00  0.66583985492E+03  0.11981903824E+04  0.99615133393E+03 0.  0.
        2    1    3    3  502    0  0.11235894385E+03 -0.40789577111E+03  0.64904847378E+03  0.77476926480E+03  0.25500000920E-02 0.  1.
       -2    1    3    3    0  502 -0.11235894385E+03  0.40789577111E+03  0.16791381138E+02  0.42342111761E+03  0.25500000920E-02 0. -1.
</event>
<event>
 5   0  0.9243773E-03  0.9953280E+03  0.7818609E-02  0.9313684E-01
       -2   -1    0    0    0  501  0.00000000000E+00  0.00000000000E+00  0.20629243275E+03  0.20629243277E+03  0.25500000920E-02 0. -1.
        2   -1    0    0  501    0  0.00000000000E+00  0.00000000000E+00 -0.12005747193E+04  0.12005747193E+04  0.25500000920E-02 0.  1.
    10030    2    1    2    0    0  0.00000000000E+00  0.00000000000E+00 -0.99428228656E+03  0.14068671521E+04  0.99532804555E+03 0.  0.
        3    1    3    3  502    0  0.15601204303E+03  0.43580013311E+03 -0.75549312626E+03  0.88601997021E+03  0.10100000352E+00 0. -1.
       -3    1    3    3    0  502 -0.15601204303E+03 -0.43580013311E+03 -0.23878916030E+03  0.52084718187E+03  0.10100000352E+00 0.  1.
</event>
<event>
 5   0  0.5310275E-03  0.9951626E+03  0.7818609E-02  0.9313866E-01
       -1   -1    0    0    0  501  0.00000000000E+00  0.00000000000E+00  0.28472636288E+03  0.28472636292E+03  0.50400001928E-02 0. -1.
        1   -1    0    0  501    0  0.00000000000E+00  0.00000000000E+00 -0.86956172603E+03  0.86956172604E+03  0.50400001928E-02 0.  1.
    10030    2    1    2    0    0  0.00000000000E+00  0.00000000000E+00 -0.58483536315E+03  0.11542880890E+04  0.99516259492E+03 0.  0.
        1    1    3    3  502    0  0.98589453605E+02 -0.46224403525E+03 -0.11198824809E+03  0.48572707998E+03  0.50400001928E-02 0. -1.
       -1    1    3    3    0  502 -0.98589453605E+02  0.46224403525E+03 -0.47284711506E+03  0.66856100898E+03  0.50400001928E-02 0.  1.
</event>
<event>
 5   0  0.8875655E-03  0.1002118E+04  0.7818609E-02  0.9306225E-01
       -2   -1    0    0    0  501  0.00000000000E+00  0.00000000000E+00  0.15378793410E+03  0.15378793412E+03  0.25500000920E-02 0. -1.
        2   -1    0    0  501    0  0.00000000000E+00  0.00000000000E+00 -0.16325074158E+04  0.16325074158E+04  0.25500000920E-02 0.  1.
    10030    2    1    2    0    0  0.00000000000E+00  0.00000000000E+00 -0.14787194817E+04  0.17862953499E+04  0.10021176436E+04 0.  0.
        4    1    3    3  502    0 -0.23038287896E+03 -0.37409757252E+03 -0.11687698996E+04  0.12486192197E+04  0.12699999809E+01 0.  1.
       -4    1    3    3    0  502  0.23038287896E+03  0.37409757252E+03 -0.30994958210E+03  0.53767613023E+03  0.12699999809E+01 0. -1.
</event>
<event>
 5   0  0.5072205E-03  0.1003473E+04  0.7818609E-02  0.9304744E-01
        1   -1    0    0  501    0  0.00000000000E+00  0.00000000000E+00  0.74638466928E+03  0.74638466930E+03  0.50400001928E-02 0.  1.
       -1   -1    0    0    0  501  0.00000000000E+00  0.00000000000E+00 -0.33727854441E+03  0.33727854445E+03  0.50400001928E-02 0. -1.
    10030    2    1    2    0    0  0.00000000000E+00  0.00000000000E+00  0.40910612487E+03  0.10836632137E+04  0.10034730387E+04 0.  0.
        5    1    3    3  502    0  0.33652103969E+03  0.19023285048E+03  0.54992677907E+03  0.67221759862E+03  0.46999998093E+01 0.  1.
       -5    1    3    3    0  502 -0.33652103969E+03 -0.19023285048E+03 -0.14082065420E+03  0.41144561512E+03  0.46999998093E+01 0. -1.
</event>
<event>
 5   0  0.8907355E-03  0.1032551E+04  0.7818609E-02  0.9273547E-01
        2   -1    0    0  501    0  0.00000000000E+00  0.00000000000E+00  0.63930346187E+03  0.63930346188E+03  0.25500000920E-02 0. -1.
       -2   -1    0    0    0  501  0.00000000000E+00  0.00000000000E+00 -0.41692297822E+03  0.41692297823E+03  0.25500000920E-02 0.  1.
    10030    2    1    2    0    0  0.00000000000E+00  0.00000000000E+00  0.22238048365E+03  0.10562264401E+04  0.10325508284E+04 0.  0.
        5    1    3    3  502    0  0.16921813428E+03  0.38350252311E+03  0.41944560573E+03  0.59301405411E+03  0.46999998093E+01 0. -1.
       -5    1    3    3    0  502 -0.16921813428E+03 -0.38350252311E+03 -0.19706512208E+03  0.46321238600E+03  0.46999998093E+01 0.  1.
</event>
<event>
 5   0  0.8875655E-03  0.9966705E+03  0.7818609E-02  0.9312204E-01
        2   -1    0    0  501    0  0.00000000000E+00  0.00000000000E+00  0.86452428070E+03  0.86452428070E+03  0.25500000920E-02 0.  1.
       -2   -1    0    0    0  501  0.00000000000E+00  0.00000000000E+00 -0.28725398113E+03  0.28725398114E+03  0.25500000920E-02 0. -1.
    10030    2    1    2    0    0  0.00000000000E+00  0.00000000000E+00  0.57727029957E+03  0.11517782618E+04  0.99667054019E+03 0.  0.
        4    1    3    3  502    0  0.13350898198E+03 -0.45735665667E+03  0.45743830674E+03  0.66049313172E+03  0.12699999809E+01 0.  1.
       -4    1    3    3    0  502 -0.13350898198E+03  0.45735665667E+03  0.11983199282E+03  0.49128513012E+03  0.12699999809E+01 0. -1.
</event>
<event>
 5   0  0.9243773E-03  0.9936413E+03  0.7818609E-02  0.9315547E-01
        2   -1    0    0  501    0  0.00000000000E+00  0.00000000000E+00  0.26575231422E+04  0.26575231422E+04  0.25500000920E-02 0. -1.
       -2   -1    0    0    0  501  0.00000000000E+00  0.00000000000E+00 -0.92879996268E+02  0.92879996303E+02  0.25500000920E-02 0.  1.
    10030    2    1    2    0    0  0.00000000000E+00  0.00000000000E+00  0.25646431459E+04  0.27504031385E+04  0.99364126239E+03 0.  0.
        3    1    3    3  502    0 -0.29536331400E+03 -0.99115267093E+02  0.21110966739E+03  0.37633844514E+03  0.10100000352E+00 0.  1.
       -3    1    3    3    0  502  0.29536331400E+03  0.99115267093E+02  0.23535334785E+04  0.23740646934E+04  0.10100000352E+00 0. -1.
</event>
<event>
 5   0  0.9243773E-03  0.1001092E+04  0.7818609E-02  0.9307348E-01
        2   -1    0    0  501    0  0.00000000000E+00  0.00000000000E+00  0.62045749674E+03  0.62045749674E+03  0.25500000920E-02 0. -1.
       -2   -1    0    0    0  501  0.00000000000E+00  0.00000000000E+00 -0.40380926080E+03  0.40380926080E+03  0.25500000920E-02 0.  1.
    10030    2    1    2    0    0  0.00000000000E+00  0.00000000000E+00  0.21664823594E+03  0.10242667575E+04  0.10010923696E+04 0.  0.
        3    1    3    3  502    0 -0.29154828444E+03 -0.37284129952E+03 -0.58343812125E+02  0.47688053787E+03  0.10100000352E+00 0.  1.
       -3    1    3    3    0  502  0.29154828444E+03  0.37284129952E+03  0.27499204807E+03  0.54738621967E+03  0.10100000352E+00 0. -1.
</event>
<event>
 5   0  0.8875655E-03  0.9835901E+03  0.7818609E-02  0.9326728E-01
       -2   -1    0    0    0  501  0.00000000000E+00  0.00000000000E+00  0.56131475597E+03  0.56131475598E+03  0.25500000920E-02 0.  1.
        2   -1    0    0  501    0  0.00000000000E+00  0.00000000000E+00 -0.43088548966E+03  0.43088548967E+03  0.25500000920E-02 0. -1.
    10030    2    1    2    0    0  0.00000000000E+00  0.00000000000E+00  0.13042926631E+03  0.99220024564E+03  0.98359012497E+03 0.  0.
        4    1    3    3  502    0 -0.24897982009E+03 -0.16778306337E+03 -0.32770585452E+03  0.44444892524E+03  0.12699999809E+01 0. -1.
       -4    1    3    3    0  502  0.24897982009E+03  0.16778306337E+03  0.45813512083E+03  0.54775132040E+03  0.12699999809E+01 0.  1.
</event>
<event>
 5   0  0.9243773E-03  0.1056604E+04  0.7818609E-02  0.9248552E-01
       -2   -1    0    0    0  501  0.00000000000E+00  0.00000000000E+00  0.41190941344E+03  0.41190941345E+03  0.25500000920E-02 0.  1.
        2   -1    0    0  501    0  0.00000000000E+00  0.00000000000E+00 -0.67758394109E+03  0.67758394110E+03  0.25500000920E-02 0. -1.
    10030    2    1    2    0    0  0.00000000000E+00  0.00000000000E+00 -0.26567452765E+03  0.10894933545E+04  0.10566043796E+04 0.  0.
        3    1    3    3  502    0  0.22381689665E+02  0.24919776194E+02 -0.67648794595E+03  0.67731668110E+03  0.10100000352E+00 0. -1.
       -3    1    3    3    0  502 -0.22381689665E+02 -0.24919776194E+02  0.41081341830E+03  0.41217667345E+03  0.10100000352E+00 0.  1.
</event>
<event>
 5   0  0.3513625E-03  0.9877157E+03  0.7818609E-02  0.9322122E-01
       -3   -1    0    0    0  501  0.00000000000E+00  0.00000000000E+00  0.29919929692E+03  0.29919931397E+03  0.10100000352E+00 0.  1.
        3   -1    0    0  501    0  0.00000000000E+00  0.00000000000E+00 -0.81516088039E+03  0.81516088664E+03  0.10100000352E+00 0. -1.
    10030    2    1    2    0    0  0.00000000000E+00  0.00000000000E+00 -0.51596158346E+03  0.11143602006E+04  0.98771569852E+03 0.  0.
        1    1    3    3  502    0 -0.14305393224E+03  0.27826964755E+03  0.17310710222E+03  0.35758144966E+03  0.50400001928E-02 0.  1.
       -1    1    3    3    0  502  0.14305393224E+03 -0.27826964755E+03 -0.68906868569E+03  0.75677875095E+03  0.50400001928E-02 0. -1.
</event>
<event>
 5   0  0.5072205E-03  0.9905288E+03  0.7818609E-02  0.9318994E-01
        1   -1    0    0  501    0  0.00000000000E+00  0.00000000000E+00  0.41421840066E+03  0.41421840069E+03  0.50400001928E-02 0.  1.
       -1   -1    0    0    0  501  0.00000000000E+00  0.00000000000E+00 -0.59216782162E+03  0.59216782164E+03  0.50400001928E-02 0. -1.
    10030    2    1    2    0    0  0.00000000000E+00  0.00000000000E+00 -0.17794942096E+03  0.10063862223E+04  0.99052876388E+03 0.  0.
        5    1    3    3  502    0  0.20874315456E+03  0.41514236678E+03  0.85079919020E+02  0.47241673541E+03  0.46999998093E+01 0.  1.
       -5    1    3    3    0  502 -0.20874315456E+03 -0.41514236678E+03 -0.26302933998E+03  0.53396948692E+03  0.46999998093E+01 0. -1.
</event>
<event>
 5   0  0.9040674E-03  0.9660218E+03  0.7818609E-02  0.9346617E-01
       -2   -1    0    0    0  501  0.00000000000E+00  0.00000000000E+00  0.28889745463E+03  0.28889745464E+03  0.25500000920E-02 0.  1.
        2   -1    0    0  501    0  0.00000000000E+00  0.00000000000E+00 -0.80755140776E+03  0.80755140776E+03  0.25500000920E-02 0. -1.
    10030    2    1    2    0    0  0.00000000000E+00  0.00000000000E+00 -0.51865395312E+03  0.10964488624E+04  0.96602183452E+03 0.  0.
        1    1    3    3  502    0 -0.44281639923E+03 -0.56867336788E+02 -0.50104383374E+02  0.44925572526E+03  0.50400001928E-02 0. -1.
       -1    1    3    3    0  502  0.44281639923E+03  0.56867336788E+02 -0.46854956975E+03  0.64719313714E+03  0.50400001928E-02 0.  1.
</event>
<event>
 5   0  0.5310275E-03  0.1001512E+04  0.7818609E-02  0.9306888E-01
       -1   -1    0    0    0  501  0.00000000000E+00  0.00000000000E+00  0.74312969732E+03  0.74312969734E+03  0.50400001928E-02 0.  1.
        1   -1    0    0  501    0  0.00000000000E+00  0.00000000000E+00 -0.33743312211E+03  0.33743312215E+03  0.50400001928E-02 0. -1.
    10030    2    1    2    0    0  0.00000000000E+00  0.00000000000E+00  0.40569657521E+03  0.10805628195E+04  0.10015120048E+04 0.  0.
        1    1    3    3  502    0 -0.14706638786E+03 -0.40027208188E+03  0.48607614605E+03  0.64661911645E+03  0.50400001928E-02 0.  1.
       -1    1    3    3    0  502  0.14706638786E+03  0.40027208188E+03 -0.80379570841E+02  0.43394370304E+03  0.50400001928E-02 0. -1.
</event>
<event>
 5   0  0.8875655E-03  0.1017262E+04  0.7818609E-02  0.9289812E-01
        2   -1    0    0  501    0  0.00000000000E+00  0.00000000000E+00  0.51753223111E+03  0.51753223111E+03  0.25500000920E-02 0.  1.
       -2   -1    0    0    0  501  0.00000000000E+00  0.00000000000E+00 -0.49988308356E+03  0.49988308357E+03  0.25500000920E-02 0. -1.
    10030    2    1    2    0    0  0.00000000000E+00  0.00000000000E+00  0.17649147546E+02  0.10174153147E+04  0.10172622229E+04 0.  0.
        4    1    3    3  502    0 -0.42721773497E+03 -0.13428566322E+03 -0.23236802123E+03  0.50452367894E+03  0.12699999809E+01 0. -1.
       -4    1    3    3    0  502  0.42721773497E+03  0.13428566322E+03  0.25001716878E+03  0.51289163574E+03  0.12699999809E+01 0.  1.
</event>
<event>
 5   0  0.8875655E-03  0.1016905E+04  0.7818609E-02  0.9290195E-01
        2   -1    0    0  501    0  0.00000000000E+00  0.00000000000E+00  0.51573373890E+03  0.51573373891E+03  0.25500000920E-02 0. -1.
       -2   -1    0    0    0  501  0.00000000000E+00  0.00000000000E+00 -0.50127440157E+03  0.50127440158E+03  0.25500000920E-02 0.  1.
    10030    2    1    2    0    0  0.00000000000E+00  0.00000000000E+00  0.14459337331E+02  0.10170081405E+04  0.10169053473E+04 0.  0.
        4    1    3    3  502    0  0.22328383079E+03 -0.47635727992E+02  0.46158570309E+03  0.51496388793E+03  0.12699999809E+01 0. -1.
       -4    1    3    3    0  502 -0.22328383079E+03  0.47635727992E+02 -0.44712636576E+03  0.50204425256E+03  0.12699999809E+01 0.  1.
</event>
<event>
 5   0  0.5072205E-03  0.9989947E+03  0.7818609E-02  0.9309648E-01
        1   -1    0    0  501    0  0.00000000000E+00  0.00000000000E+00  0.61714830951E+03  0.61714830954E+03  0.50400001928E-02 0.  1.
       -1   -1    0    0    0  501  0.00000000000E+00  0.00000000000E+00 -0.40427493331E+03  0.40427493334E+03  0.50400001928E-02 0. -1.
    10030    2    1    2    0    0  0.00000000000E+00  0.00000000000E+00  0.21287337621E+03  0.10214232429E+04  0.99899467805E+03 0.  0.
        5    1    3    3  502    0 -0.36280631772E+03  0.25370056350E+03 -0.13001959254E+03  0.46143210177E+03  0.46999998093E+01 0. -1.
       -5    1    3    3    0  502  0.36280631772E+03 -0.25370056350E+03  0.34289296875E+03  0.55999114110E+03  0.46999998093E+01 0.  1.
</event>
<event>
 5   0  0.8875655E-03  0.1048470E+04  0.7818609E-02  0.9256925E-01
       -2   -1    0    0    0  501  0.00000000000E+00  0.00000000000E+00  0.37759281861E+03  0.37759281862E+03  0.25500000920E-02 0. -1.
        2   -1    0    0  501    0  0.00000000000E+00  0.00000000000E+00 -0.72782772814E+03  0.72782772814E+03  0.25500000920E-02 0.  1.
    10030    2    1    2    0    0  0.00000000000E+00  0.00000000000E+00 -0.35023490953E+03  0.11054205468E+04  0.10484703588E+04 0.  0.
        4    1    3    3  502    0  0.46629371627E+03 -0.16334211640E+03 -0.35988017591E+03  0.61124940142E+03  0.12699999809E+01 0.  1.
       -4    1    3    3    0  502 -0.46629371627E+03  0.16334211640E+03  0.96452663806E+01  0.49417114534E+03  0.12699999809E+01 0. -1.
</event>
<event>
 5   0  0.9040674E-03  0.1020534E+04  0.7818609E-02  0.9286306E-01
        2   -1    0    0  501    0  0.00000000000E+00  0.00000000000E+00  0.44272151140E+03  0.44272151141E+03  0.25500000920E-02 0.  1.
       -2   -1    0    0    0  501  0.00000000000E+00  0.00000000000E+00 -0.58811752979E+03  0.58811752980E+03  0.25500000920E-02 0. -1.
    10030    2    1    2    0    0  0.00000000000E+00  0.00000000000E+00 -0.14539601839E+03  0.10308390412E+04  0.10205337460E+04 0.  0.
        1    1    3    3  502    0 -0.41018307549E+03 -0.26356025422E+03  0.79348135066E+02  0.49397397663E+03  0.50400001928E-02 0. -1.
       -1    1    3    3    0  502  0.41018307549E+03  0.26356025422E+03 -0.22474415346E+03  0.53686506458E+03  0.50400001928E-02 0.  1.
</event>
<event>
 5   0  0.5349685E-03  0.1003152E+04  0.7818609E-02  0.9305094E-01
        1   -1    0    0  501    0  0.00000000000E+00  0.00000000000E+00  0.78716808956E+03  0.78716808957E+03  0.50400001928E-02 0. -1.
       -1   -1    0    0    0  501  0.00000000000E+00  0.00000000000E+00 -0.31959951777E+03  0.31959951781E+03  0.50400001928E-02 0.  1.
    10030    2    1    2    0    0  0.00000000000E+00  0.00000000000E+00  0.46756857179E+03  0.11067676074E+04  0.10031521158E+04 0.  0.
        4    1    3    3  502    0 -0.29021727117E+03 -0.38850690089E+03  0.37513140811E+03  0.61309775956E+03  0.12699999809E+01 0. -1.
       -4    1    3    3    0  502  0.29021727117E+03  0.38850690089E+03  0.92437163676E+02  0.49366984782E+03  0.12699999809E+01 0.  1.
</event>
<event>
 5   0  0.3513625E-03  0.1012307E+04  0.7818609E-02  0.9295148E-01
       -3   -1    0    0    0  501  0.00000000000E+00  0.00000000000E+00  0.55533168196E+03  0.55533169114E+03  0.10100000352E+00 0. -1.
        3   -1    0    0  501    0  0.00000000000E+00  0.00000000000E+00 -0.46133075470E+03  0.46133076576E+03  0.10100000352E+00 0.  1.
    10030    2    1    2    0    0  0.00000000000E+00  0.00000000000E+00  0.94000927255E+02  0.10166624569E+04  0.10123074518E+04 0.  0.
        2    1    3    3  502    0  0.26527688400E+03  0.42235041308E+03 -0.39625450810E+02  0.50032176944E+03  0.25500000920E-02 0.  1.
       -2    1    3    3    0  502 -0.26527688400E+03 -0.42235041308E+03  0.13362637807E+03  0.51634068747E+03  0.25500000920E-02 0. -1.
</event>
<event>
 5   0  0.5189877E-03  0.1000223E+04  0.7818609E-02  0.9308301E-01
        1   -1    0    0  501    0  0.00000000000E+00  0.00000000000E+00  0.20157888409E+03  0.20157888415E+03  0.50400001928E-02 0.  1.
       -1   -1    0    0    0  501  0.00000000000E+00  0.00000000000E+00 -0.12407613492E+04  0.12407613492E+04  0.50400001928E-02 0. -1.
    10030    2    1    2    0    0  0.00000000000E+00  0.00000000000E+00 -0.10391824651E+04  0.14423402334E+04  0.10002225517E+04 0.  0.
        3    1    3    3  502    0 -0.25025508137E+03 -0.25729795984E+03 -0.17401031616E+02  0.35935031931E+03  0.10100000352E+00 0.  1.
       -3    1    3    3    0  502  0.25025508137E+03  0.25729795984E+03 -0.10217814335E+04  0.10829899141E+04  0.10100000352E+00 0. -1.
</event>
<event>
 5   0  0.8875655E-03  0.9164891E+03  0.7818609E-02  0.9405201E-01
       -2   -1    0    0    0  501  0.00000000000E+00  0.00000000000E+00  0.33259626183E+03  0.33259626184E+03  0.25500000920E-02 0. -1.
        2   -1    0    0  501    0  0.00000000000E+00  0.00000000000E+00 -0.63136027811E+03  0.63136027812E+03  0.25500000920E-02 0.  1.
    10030    2    1    2    0    0  0.00000000000E+00  0.00000000000E+00 -0.29876401628E+03  0.96395653995E+03  0.91648910168E+03 0.  0.
        4    1    3    3  502    0  0.32142760981E+03  0.42091446202E+02  0.19127391279E+03  0.37639702550E+03  0.12699999809E+01 0. -1.
       -4    1    3    3    0  502 -0.32142760981E+03 -0.42091446202E+02 -0.49003792907E+03  0.58755951445E+03  0.12699999809E+01 0.  1.
</event>
<event>
 5   0  0.9040674E-03  0.1021308E+04  0.7818609E-02  0.9285478E-01
       -2   -1    0    0    0  501  0.00000000000E+00  0.00000000000E+00  0.11576682668E+03  0.11576682671E+03  0.25500000920E-02 0.  1.
        2   -1    0    0  501    0  0.00000000000E+00  0.00000000000E+00 -0.22525234269E+04  0.22525234269E+04  0.25500000920E-02 0. -1.
    10030    2    1    2    0    0  0.00000000000E+00  0.00000000000E+00 -0.21367566002E+04  0.23682902536E+04  0.10213079637E+04 0.  0.
        1    1    3    3  502    0 -0.41081002483E+03 -0.39835477787E+02 -0.37110947617E+03  0.55504412898E+03  0.50400001928E-02 0.  1.
       -1    1    3    3    0  502  0.41081002483E+03  0.39835477787E+02 -0.17656471241E+04  0.18132461246E+04  0.50400001928E-02 0. -1.
</event>
<event>
 5   0  0.8968798E-03  0.1006538E+04  0.7818609E-02  0.9301403E-01
       -2   -1    0    0    0  501  0.00000000000E+00  0.00000000000E+00  0.19523113729E+03  0.19523113731E+03  0.25500000920E-02 0.  1.
        2   -1    0    0  501    0  0.00000000000E+00  0.00000000000E+00 -0.12973312018E+04  0.12973312018E+04  0.25500000920E-02 0. -1.
    10030    2    1    2    0    0  0.00000000000E+00  0.00000000000E+00 -0.11021000645E+04  0.14925623391E+04  0.10065375224E+04 0.  0.
        2    1    3    3  502    0 -0.32086254993E+03  0.38707152056E+03 -0.58428441078E+03  0.77082125727E+03  0.25500000920E-02 0. -1.
       -2    1    3    3    0  502  0.32086254993E+03 -0.38707152056E+03 -0.51781565376E+03  0.72174108187E+03  0.25500000920E-02 0.  1.
</event>
<event>
 5   0  0.8907355E-03  0.1013771E+04  0.7818609E-02  0.9293569E-01
       -2   -1    0    0    0  501  0.00000000000E+00  0.00000000000E+00  0.11622273766E+03  0.11622273769E+03  0.25500000920E-02 0.  1.
        2   -1    0    0  501    0  0.00000000000E+00  0.00000000000E+00 -0.22106945356E+04  0.22106945356E+04  0.25500000920E-02 0. -1.
    10030    2    1    2    0    0  0.00000000000E+00  0.00000000000E+00 -0.20944717979E+04  0.23269172733E+04  0.10137711203E+04 0.  0.
        5    1    3    3  502    0 -0.13245550828E+03 -0.15581002829E+03 -0.21117484574E+04  0.21216325940E+04  0.46999998093E+01 0. -1.
       -5    1    3    3    0  502  0.13245550828E+03  0.15581002829E+03  0.17276659461E+02  0.20528467928E+03  0.46999998093E+01 0.  1.
</event>
<event>
 5   0  0.8968798E-03  0.1005060E+04  0.7818609E-02  0.9303013E-01
        2   -1    0    0  501    0  0.00000000000E+00  0.00000000000E+00  0.18723931576E+04  0.18723931576E+04  0.25500000920E-02 0.  1.
       -2   -1    0    0    0  501  0.00000000000E+00  0.00000000000E+00 -0.13487355170E+03  0.13487355173E+03  0.25500000920E-02 0. -1.
    10030    2    1    2    0    0  0.00000000000E+00  0.00000000000E+00  0.17375196059E+04  0.20072667093E+04  0.10050598298E+04 0.  0.
        2    1    3    3  502    0  0.15363999165E+03  0.37869278249E+03  0.28470414458E+03  0.49806618084E+03  0.25500000920E-02 0. -1.
       -2    1    3    3    0  502 -0.15363999165E+03 -0.37869278249E+03  0.14528154613E+04  0.15092005285E+04  0.25500000920E-02 0.  1.
</event>
<event>
 5   0  0.5189877E-03  0.9156830E+03  0.7818609E-02  0.9406187E-01
       -1   -1    0    0    0  501  0.00000000000E+00  0.00000000000E+00  0.38458480764E+03  0.38458480767E+03  0.50400001928E-02 0.  1.
        1   -1    0    0  501    0  0.00000000000E+00  0.00000000000E+00 -0.54505225900E+03  0.54505225902E+03  0.50400001928E-02 0. -1.
    10030    2    1    2    0    0  0.00000000000E+00  0.00000000000E+00 -0.16046745136E+03  0.92963706669E+03  0.91568295431E+03 0.  0.
        3    1    3    3  502    0 -0.27639720706E+03  0.61151941457E+02  0.28508848221E+03  0.40175916779E+03  0.10100000352E+00 0.  1.
       -3    1    3    3    0  502  0.27639720706E+03 -0.61151941457E+02 -0.44555593357E+03  0.52787789890E+03  0.10100000352E+00 0. -1.
</event>
<event>
 5   0  0.9040674E-03  0.9996151E+03  0.7818609E-02  0.9308967E-01
        2   -1    0    0  501    0  0.00000000000E+00  0.00000000000E+00  0.11929716770E+04  0.11929716770E+04  0.25500000920E-02 0. -1.
       -2   -1    0    0    0  501  0.00000000000E+00  0.00000000000E+00 -0.20939943099E+03  0.20939943100E+03  0.25500000920E-02 0.  1.
    10030    2    1    2    0    0  0.00000000000E+00  0.00000000000E+00  0.98357224601E+03  0.14023711080E+04  0.99961510665E+03 0.  0.
        1    1    3    3  502    0 -0.21048380485E+03 -0.31510853550E+03  0.34577490379E+02  0.38051599719E+03  0.50400001928E-02 0.  1.
       -1    1    3    3    0  502  0.21048380485E+03  0.31510853550E+03  0.94899475563E+03  0.10218551108E+04  0.50400001928E-02 0. -1.
</event>
<event>
 5   0  0.5201968E-03  0.1009242E+04  0.7818609E-02  0.9298466E-01
        1   -1    0    0  501    0  0.00000000000E+00  0.00000000000E+00  0.96334145109E+03  0.96334145110E+03  0.50400001928E-02 0.  1.
       -1   -1    0    0    0  501  0.00000000000E+00  0.00000000000E+00 -0.26433240916E+03  0.26433240920E+03  0.50400001928E-02 0. -1.
    10030    2    1    2    0    0  0.00000000000E+00  0.00000000000E+00  0.69900904193E+03  0.12276738603E+04  0.10092420258E+04 0.  0.
        2    1    3    3  502    0 -0.39366666019E+03  0.26096293982E+03  0.13337892498E+03  0.49078002500E+03  0.25500000920E-02 0. -1.
       -2    1    3    3    0  502  0.39366666019E+03 -0.26096293982E+03  0.56563011695E+03  0.73689383531E+03  0.25500000920E-02 0.  1.
</event>
<event>
 5   0  0.5349685E-03  0.9963896E+03  0.7818609E-02  0.9312514E-01
        1   -1    0    0  501    0  0.00000000000E+00  0.00000000000E+00  0.32337060551E+03  0.32337060555E+03  0.50400001928E-02 0.  1.
       -1   -1    0    0    0  501  0.00000000000E+00  0.00000000000E+00 -0.76753435701E+03  0.76753435703E+03  0.50400001928E-02 0. -1.
    10030    2    1    2    0    0  0.00000000000E+00  0.00000000000E+00 -0.44416375150E+03  0.10909049626E+04  0.99638958206E+03 0.  0.
        4    1    3    3  502    0  0.20628164478E+03 -0.79340673889E+02 -0.71092012628E+03  0.74448377978E+03  0.12699999809E+01 0. -1.
       -4    1    3    3    0  502 -0.20628164478E+03  0.79340673889E+02  0.26675637478E+03  0.34642118280E+03  0.12699999809E+01 0.  1.
</event>
<event>
 5   0  0.9243773E-03  0.1009269E+04  0.7818609E-02  0.9298436E-01
        2   -1    0    0  501    0  0.00000000000E+00  0.00000000000E+00  0.71462625693E+03  0.71462625693E+03  0.25500000920E-02 0. -1.
       -2   -1    0    0    0  501  0.00000000000E+00  0.00000000000E+00 -0.35634870796E+03  0.35634870797E+03  0.25500000920E-02 0.  1.
    10030    2    1    2    0    0  0.00000000000E+00  0.00000000000E+00  0.35827754896E+03  0.10709749649E+04  0.10092693265E+04 0.  0.
        3    1    3    3  502    0  0.31337878154E+03 -0.38892550304E+03  0.25556159522E+03  0.56105351508E+03  0.10100000352E+00 0.  1.
       -3    1    3    3    0  502 -0.31337878154E+03  0.38892550304E+03  0.10271595375E+03  0.50992144982E+03  0.10100000352E+00 0. -1.
</event>
<event>
 5   0  0.8907355E-03  0.9926213E+03  0.7818609E-02  0.9316675E-01
       -2   -1    0    0    0  501  0.00000000000E+00  0.00000000000E+00  0.11545109567E+04  0.11545109567E+04  0.25500000920E-02 0. -1.
        2   -1    0    0  501    0  0.00000000000E+00  0.00000000000E+00 -0.21335809402E+03  0.21335809403E+03  0.25500000920E-02 0.  1.
    10030    2    1    2    0    0  0.00000000000E+00  0.00000000000E+00  0.94115286269E+03  0.13678690507E+04  0.99262129185E+03 0.  0.
        5    1    3    3  502    0  0.15980634720E+03 -0.29378475694E+03  0.97587584450E+03  0.10316023003E+04  0.46999998093E+01 0. -1.
       -5    1    3    3    0  502 -0.15980634720E+03  0.29378475694E+03 -0.34722981816E+02  0.33626675048E+03  0.46999998093E+01 0.  1.
</event>
<event>
 5   0  0.3513625E-03  0.9702371E+03  0.7818609E-02  0.9341804E-01
       -3   -1    0    0    0  501  0.00000000000E+00  0.00000000000E+00  0.14438245596E+03  0.14438249129E+03  0.10100000352E+00 0. -1.
        3   -1    0    0  501    0  0.00000000000E+00  0.00000000000E+00 -0.16299763427E+04  0.16299763458E+04  0.10100000352E+00 0.  1.
    10030    2    1    2    0    0  0.00000000000E+00  0.00000000000E+00 -0.14855938867E+04  0.17743588371E+04  0.97023712901E+03 0.  0.
        1    1    3    3  502    0 -0.29179922405E+03  0.31658241108E+03 -0.11515990013E+04  0.12294516948E+04  0.50400001928E-02 0.  1.
       -1    1    3    3    0  502  0.29179922405E+03 -0.31658241108E+03 -0.33399488545E+03  0.54490714227E+03  0.50400001928E-02 0. -1.
</event>
<event>
 5   0  0.3513625E-03  0.9901569E+03  0.7818609E-02  0.9319407E-01
       -3   -1    0    0    0  501  0.00000000000E+00  0.00000000000E+00  0.35230399915E+03  0.35230401363E+03  0.10100000352E+00 0. -1.
        3   -1    0    0  501    0  0.00000000000E+00  0.00000000000E+00 -0.69571347581E+03  0.69571348314E+03  0.10100000352E+00 0.  1.
    10030    2    1    2    0    0  0.00000000000E+00  0.00000000000E+00 -0.34340947665E+03  0.10480174968E+04  0.99015685872E+03 0.  0.
        2    1    3    3  502    0 -0.40829677326E+02 -0.31541190313E+03 -0.57328444265E+03  0.65559650958E+03  0.25500000920E-02 0.  1.
       -2    1    3    3    0  502  0.40829677326E+02  0.31541190313E+03  0.22987496600E+03  0.39242098718E+03  0.25500000920E-02 0. -1.
</event>
<event>
 5   0  0.8907355E-03  0.9942118E+03  0.7818609E-02  0.9314916E-01
        2   -1    0    0  501    0  0.00000000000E+00  0.00000000000E+00  0.39742009503E+03  0.39742009504E+03  0.25500000920E-02 0. -1.
       -2   -1    0    0    0  501  0.00000000000E+00  0.00000000000E+00 -0.62179609588E+03  0.62179609589E+03  0.25500000920E-02 0.  1.
    10030    2    1    2    0    0  0.00000000000E+00  0.00000000000E+00 -0.22437600086E+03  0.10192161909E+04  0.99421177527E+03 0.  0.
        5    1    3    3  502    0 -0.65297623047E+01  0.49118697910E+03 -0.19015931609E+03  0.52677314067E+03  0.46999998093E+01 0.  1.
       -5    1    3    3    0  502  0.65297623047E+01 -0.49118697910E+03 -0.34216684767E+02  0.49244305026E+03  0.46999998093E+01 0. -1.
</event>
<event>
 5   0  0.9040674E-03  0.9894279E+03  0.7818609E-02  0.9320217E-01
        2   -1    0    0  501    0  0.00000000000E+00  0.00000000000E+00  0.74056995006E+03  0.74056995006E+03  0.25500000920E-02 0.  1.
       -2   -1    0    0    0  501  0.00000000000E+00  0.00000000000E+00 -0.33047777318E+03  0.33047777319E+03  0.25500000920E-02 0. -1.
    10030    2    1    2    0    0  0.00000000000E+00  0.00000000000E+00  0.41009217688E+03  0.10710477233E+04  0.98942793166E+03 0.  0.
        1    1    3    3  502    0  0.45540327024E+03  0.19214742282E+03  0.22747059000E+03  0.54410995211E+03  0.50400001928E-02 0.  1.
       -1    1    3    3    0  502 -0.45540327024E+03 -0.19214742282E+03  0.18262158688E+03  0.52693777115E+03  0.50400001928E-02 0. -1.
</event>
<event>
 5   0  0.5349685E-03  0.1009504E+04  0.7818609E-02  0.9298182E-01
       -1   -1    0    0    0  501  0.00000000000E+00  0.00000000000E+00  0.38766522319E+03  0.38766522323E+03  0.50400001928E-02 0. -1.
        1   -1    0    0  501    0  0.00000000000E+00  0.00000000000E+00 -0.65720285632E+03  0.65720285634E+03  0.50400001928E-02 0.  1.
    10030    2    1    2    0    0  0.00000000000E+00  0.00000000000E+00 -0.26953763313E+03  0.10448680796E+04  0.10095042189E+04 0.  0.
        4    1    3    3  502    0  0.46090253507E+03 -0.88409187375E+02 -0.32708900276E+03  0.57204559248E+03  0.12699999809E+01 0.  1.
       -4    1    3    3    0  502 -0.46090253507E+03  0.88409187375E+02  0.57551369632E+02  0.47282248709E+03  0.12699999809E+01 0. -1.
</event>
<event>
 5   0  0.5072205E-03  0.1075851E+04  0.7818609E-02  0.9229054E-01
       -1   -1    0    0    0  501  0.00000000000E+00  0.00000000000E+00  0.51212190486E+03  0.51212190488E+03  0.50400001928E-02 0.  1.
        1   -1    0    0  501    0  0.00000000000E+00  0.00000000000E+00 -0.56502940346E+03  0.56502940348E+03  0.50400001928E-02 0. -1.
    10030    2    1    2    0    0  0.00000000000E+00  0.00000000000E+00 -0.52907498599E+02  0.10771513084E+04  0.10758511689E+04 0.  0.
        5    1    3    3  502    0  0.26043614034E+03  0.28997306935E+03  0.34471042413E+03  0.52034481898E+03  0.46999998093E+01 0. -1.
       -5    1    3    3    0  502 -0.26043614034E+03 -0.28997306935E+03 -0.39761792273E+03  0.55680648938E+03  0.46999998093E+01 0.  1.
</event>
<event>
 5   0  0.8907355E-03  0.1018429E+04  0.7818609E-02  0.9288560E-01
        2   -1    0    0  501    0  0.00000000000E+00  0.00000000000E+00  0.11784424228E+04  0.11784424228E+04  0.25500000920E-02 0.  1.
       -2   -1    0    0    0  501  0.00000000000E+00  0.00000000000E+00 -0.22003557893E+03  0.22003557895E+03  0.25500000920E-02 0. -1.
    10030    2    1    2    0    0  0.00000000000E+00  0.00000000000E+00  0.95840684389E+03  0.13984780018E+04  0.10184287128E+04 0.  0.
        5    1    3    3  502    0 -0.16336213466E+03  0.21688701468E+03  0.10707044330E+04  0.11046072773E+04  0.46999998093E+01 0.  1.
       -5    1    3    3    0  502  0.16336213466E+03 -0.21688701468E+03 -0.11229758913E+03  0.29387072447E+03  0.46999998093E+01 0. -1.
</event>
<event>
 5   0  0.8968798E-03  0.1005446E+04  0.7818609E-02  0.9302592E-01
        2   -1    0    0  501    0  0.00000000000E+00  0.00000000000E+00  0.54331944399E+03  0.54331944400E+03  0.25500000920E-02 0. -1.
       -2   -1    0    0    0  501  0.00000000000E+00  0.00000000000E+00 -0.46515988593E+03  0.46515988593E+03  0.25500000920E-02 0.  1.
    10030    2    1    2    0    0  0.00000000000E+00  0.00000000000E+00  0.78159558064E+02  0.10084793299E+04  0.10054459918E+04 0.  0.
        2    1    3    3  502    0  0.46450958251E+03  0.10022525917E+03  0.20363617632E+03  0.51699317900E+03  0.25500000920E-02 0.  1.
       -2    1    3    3    0  502 -0.46450958251E+03 -0.10022525917E+03 -0.12547661825E+03  0.49148615093E+03  0.25500000920E-02 0. -1.
</event>
<event>
 5   0  0.9243773E-03  0.9685056E+03  0.7818609E-02  0.9343778E-01
        2   -1    0    0  501    0  0.00000000000E+00  0.00000000000E+00  0.45345825732E+03  0.45345825733E+03  0.25500000920E-02 0.  1.
       -2   -1    0    0    0  501  0.00000000000E+00  0.00000000000E+00 -0.51713858057E+03  0.51713858058E+03  0.25500000920E-02 0. -1.
    10030    2    1    2    0    0  0.00000000000E+00  0.00000000000E+00 -0.63680323252E+02  0.97059683790E+03  0.96850556951E+03 0.  0.
        3    1    3    3  502    0  0.15973754527E+03 -0.15353929672E+03  0.39968262816E+03  0.45698644670E+03  0.10100000352E+00 0.  1.
       -3    1    3    3    0  502 -0.15973754527E+03  0.15353929672E+03 -0.46336295142E+03  0.51361039121E+03  0.10100000352E+00 0. -1.
</event>
<event>
 5   0  0.5310275E-03  0.9783577E+03  0.7818609E-02  0.9332605E-01
        1   -1    0    0  501    0  0.00000000000E+00  0.00000000000E+00  0.13853863924E+04  0.13853863925E+04  0.50400001928E-02 0. -1.
       -1   -1    0    0    0  501  0.00000000000E+00  0.00000000000E+00 -0.17272868099E+03  0.17272868107E+03  0.50400001928E-02 0.  1.
    10030    2    1    2    0    0  0.00000000000E+00  0.00000000000E+00  0.12126577115E+04  0.15581150735E+04  0.97835773477E+03 0.  0.
        1    1    3    3  502    0  0.19096084335E+03 -0.13057267592E+03  0.12927681561E+04  0.13133030012E+04  0.50400001928E-02 0. -1.
       -1    1    3    3    0  502 -0.19096084335E+03  0.13057267592E+03 -0.80110444671E+02  0.24481207234E+03  0.50400001928E-02 0.  1.
</event>
<event>
 5   0  0.9243773E-03  0.8959169E+03  0.7818609E-02  0.9430700E-01
        2   -1    0    0  501    0  0.00000000000E+00  0.00000000000E+00  0.12961929907E+04  0.12961929907E+04  0.25500000920E-02 0. -1.
       -2   -1    0    0    0  501  0.00000000000E+00  0.00000000000E+00 -0.15481240869E+03  0.15481240871E+03  0.25500000920E-02 0.  1.
    10030    2    1    2    0    0  0.00000000000E+00  0.00000000000E+00  0.11413805820E+04  0.14510053994E+04  0.89591686899E+03 0.  0.
        3    1    3    3  502    0 -0.34815423555E+03  0.28048043195E+03  0.52528134456E+03  0.68978340484E+03  0.10100000352E+00 0.  1.
       -3    1    3    3    0  502  0.34815423555E+03 -0.28048043195E+03  0.61609923745E+03  0.76122199458E+03  0.10100000352E+00 0. -1.
</event>
<event>
 5   0  0.8907355E-03  0.9985766E+03  0.7818609E-02  0.9310107E-01
        2   -1    0    0  501    0  0.00000000000E+00  0.00000000000E+00  0.11180124003E+04  0.11180124003E+04  0.25500000920E-02 0.  1.
       -2   -1    0    0    0  501  0.00000000000E+00  0.00000000000E+00 -0.22297498864E+03  0.22297498865E+03  0.25500000920E-02 0. -1.
    10030    2    1    2    0    0  0.00000000000E+00  0.00000000000E+00  0.89503741170E+03  0.13409873890E+04  0.99857659150E+03 0.  0.
        5    1    3    3  502    0 -0.10865577137E+03  0.28255228453E+03  0.98067635553E+03  0.10263479305E+04  0.46999998093E+01 0.  1.
       -5    1    3    3    0  502  0.10865577137E+03 -0.28255228453E+03 -0.85638943831E+02  0.31463945850E+03  0.46999998093E+01 0. -1.
</event>
<event>
 5   0  0.5310275E-03  0.9931152E+03  0.7818609E-02  0.9316128E-01
        1   -1    0    0  501    0  0.00000000000E+00  0.00000000000E+00  0.12442794433E+04  0.12442794433E+04  0.50400001928E-02 0.  1.
       -1   -1    0    0    0  501  0.00000000000E+00  0.00000000000E+00 -0.19816243838E+03  0.19816243844E+03  0.50400001928E-02 0. -1.
    10030    2    1    2    0    0  0.00000000000E+00  0.00000000000E+00  0.10461170049E+04  0.14424418818E+04  0.99311519686E+03 0.  0.
        1    1    3    3  502    0 -0.13879337615E+03  0.41656790101E+03  0.18623909512E+03  0.47694592774E+03  0.50400001928E-02 0. -1.
       -1    1    3    3    0  502  0.13879337615E+03 -0.41656790101E+03  0.85987790982E+03  0.96549595402E+03  0.50400001928E-02 0.  1.
</event>
<event>
 5   0  0.5201968E-03  0.9636851E+03  0.7818609E-02  0.9349296E-01
       -1   -1    0    0    0  501  0.00000000000E+00  0.00000000000E+00  0.18620642784E+03  0.18620642791E+03  0.50400001928E-02 0.  1.
        1   -1    0    0  501    0  0.00000000000E+00  0.00000000000E+00 -0.12468541035E+04  0.12468541035E+04  0.50400001928E-02 0. -1.
    10030    2    1    2    0    0  0.00000000000E+00  0.00000000000E+00 -0.10606476756E+04  0.14330605314E+04  0.96368511186E+03 0.  0.
        2    1    3    3  502    0 -0.42286509360E+03  0.18145175828E+03 -0.31775900166E+03  0.55920516012E+03  0.25500000920E-02 0.  1.
       -2    1    3    3    0  502  0.42286509360E+03 -0.18145175828E+03 -0.74288867397E+03  0.87385537127E+03  0.25500000920E-02 0. -1.
</event>
<event>
 5   0  0.8875655E-03  0.9909409E+03  0.7818609E-02  0.9318537E-01
       -2   -1    0    0    0  501  0.00000000000E+00  0.00000000000E+00  0.25852595322E+03  0.25852595324E+03  0.25500000920E-02 0. -1.
        2   -1    0    0  501    0  0.00000000000E+00  0.00000000000E+00 -0.94957953034E+03  0.94957953034E+03  0.25500000920E-02 0.  1.
    10030    2    1    2    0    0  0.00000000000E+00  0.00000000000E+00 -0.69105357712E+03  0.12081054836E+04  0.99094087261E+03 0.  0.
        4    1    3    3  502    0 -0.19400538382E+03  0.27663710216E+03  0.96275320226E+02  0.35133563074E+03  0.12699999809E+01 0. -1.
       -4    1    3    3    0  502  0.19400538382E+03 -0.27663710216E+03 -0.78732889734E+03  0.85676985284E+03  0.12699999809E+01 0.  1.
</event>
<event>
 5   0  0.8875655E-03  0.9941470E+03  0.7818609E-02  0.9314988E-01
       -2   -1    0    0    0  501  0.00000000000E+00  0.00000000000E+00  0.12870144903E+03  0.12870144905E+03  0.25500000920E-02 0.  1.
        2   -1    0    0  501    0  0.00000000000E+00  0.00000000000E+00 -0.19198078656E+04  0.19198078656E+04  0.25500000920E-02 0. -1.
    10030    2    1    2    0    0  0.00000000000E+00  0.00000000000E+00 -0.17911064166E+04  0.20485093147E+04  0.99414697944E+03 0.  0.
        4    1    3    3  502    0  0.11034165224E+03 -0.11651989821E+03  0.73852995579E+02  0.17665798808E+03  0.12699999809E+01 0.  1.
       -4    1    3    3    0  502 -0.11034165224E+03  0.11651989821E+03 -0.18649594122E+04  0.18718513266E+04  0.12699999809E+01 0. -1.
</event>
<event>
 5   0  0.8968798E-03  0.1041716E+04  0.7818609E-02  0.9263938E-01
        2   -1    0    0  501    0  0.00000000000E+00  0.00000000000E+00  0.33303369756E+03  0.33303369757E+03  0.25500000920E-02 0.  1.
       -2   -1    0    0    0  501  0.00000000000E+00  0.00000000000E+00 -0.81461202283E+03  0.81461202283E+03  0.25500000920E-02 0. -1.
    10030    2    1    2    0    0  0.00000000000E+00  0.00000000000E+00 -0.48157832527E+03  0.11476457204E+04  0.10417163799E+04 0.  0.
        2    1    3    3  502    0  0.92166525129E+02 -0.16354026585E+03  0.29446895734E+03  0.34921634234E+03  0.25500000920E-02 0.  1.
       -2    1    3    3    0  502 -0.92166525129E+02  0.16354026585E+03 -0.77604728261E+03  0.79842937807E+03  0.25500000920E-02 0. -1.
</event>
<event>
 5   0  0.9040674E-03  0.1006966E+04  0.7818609E-02  0.9300938E-01
        2   -1    0    0  501    0  0.00000000000E+00  0.00000000000E+00  0.49816816415E+03  0.49816816416E+03  0.25500000920E-02 0.  1.
       -2   -1    0    0    0  501  0.00000000000E+00  0.00000000000E+00 -0.50885438313E+03  0.50885438314E+03  0.25500000920E-02 0. -1.
    10030    2    1    2    0    0  0.00000000000E+00  0.00000000000E+00 -0.10686218979E+02  0.10070225473E+04  0.10069658462E+04 0.  0.
        1    1    3    3  502    0 -0.59459483793E+02  0.42727982647E+03 -0.26495659761E+03  0.50626621353E+03  0.50400001928E-02 0. -1.
       -1    1    3    3    0  502  0.59459483793E+02 -0.42727982647E+03  0.25427037863E+03  0.50075633376E+03  0.50400001928E-02 0.  1.
</event>
<event>
 5   0  0.8875655E-03  0.1038231E+04  0.7818609E-02  0.9267580E-01
        2   -1    0    0  501    0  0.00000000000E+00  0.00000000000E+00  0.46995457508E+03  0.46995457508E+03  0.25500000920E-02 0.  1.
       -2   -1    0    0    0  501  0.00000000000E+00  0.00000000000E+00 -0.57341858316E+03  0.57341858317E+03  0.25500000920E-02 0. -1.
    10030    2    1    2    0    0  0.00000000000E+00  0.00000000000E+00 -0.10346400808E+03  0.10433731583E+04  0.10382305844E+04 0.  0.
        4    1    3    3  502    0 -0.18754983313E+03  0.27805316332E+03  0.34645091658E+03  0.48220156785E+03  0.12699999809E+01 0.  1.
       -4    1    3    3    0  502  0.18754983313E+03 -0.27805316332E+03 -0.44991492466E+03  0.56117159040E+03  0.12699999809E+01 0. -1.
</event>
<event>
 5   0  0.9243773E-03  0.1012769E+04  0.7818609E-02  0.9294650E-01
       -2   -1    0    0    0  501  0.00000000000E+00  0.00000000000E+00  0.35599411121E+03  0.35599411122E+03  0.25500000920E-02 0. -1.
        2   -1    0    0  501    0  0.00000000000E+00  0.00000000000E+00 -0.72030774851E+03  0.72030774851E+03  0.25500000920E-02 0.  1.
    10030    2    1    2    0    0  0.00000000000E+00  0.00000000000E+00 -0.36431363730E+03  0.10763018597E+04  0.10127691084E+04 0.  0.
        3    1    3    3  502    0 -0.21076449137E+03  0.45336359859E+02  0.30478802839E+03  0.37332667839E+03  0.10100000352E+00 0. -1.
       -3    1    3    3    0  502  0.21076449137E+03 -0.45336359859E+02 -0.66910166569E+03  0.70297518134E+03  0.10100000352E+00 0.  1.
</event>
<event>
 5   0  0.5310275E-03  0.9803917E+03  0.7818609E-02  0.9330316E-01
        1   -1    0    0  501    0  0.00000000000E+00  0.00000000000E+00  0.12727401202E+04  0.12727401202E+04  0.50400001928E-02 0. -1.
       -1   -1    0    0    0  501  0.00000000000E+00  0.00000000000E+00 -0.18879892839E+03  0.18879892846E+03  0.50400001928E-02 0.  1.
    10030    2    1    2    0    0  0.00000000000E+00  0.00000000000E+00  0.10839411918E+04  0.14615390487E+04  0.98039169903E+03 0.  0.
        1    1    3    3  502    0  0.20476058965E+03  0.31572423124E+03  0.10102796876E+04  0.10780880003E+04  0.50400001928E-02 0. -1.
       -1    1    3    3    0  502 -0.20476058965E+03 -0.31572423124E+03  0.73661504250E+02  0.38345104838E+03  0.50400001928E-02 0.  1.
</event>
<event>
 5   0  0.5310275E-03  0.9991004E+03  0.7818609E-02  0.9309532E-01
        1   -1    0    0  501    0  0.00000000000E+00  0.00000000000E+00  0.40145209545E+03  0.40145209548E+03  0.50400001928E-02 0.  1.
       -1   -1    0    0    0  501  0.00000000000E+00  0.00000000000E+00 -0.62161941844E+03  0.62161941846E+03  0.50400001928E-02 0. -1.
    10030    2    1    2    0    0  0.00000000000E+00  0.00000000000E+00 -0.22016732299E+03  0.10230715139E+04  0.99910043165E+03 0.  0.
        1    1    3    3  502    0 -0.44549289514E+03  0.21154560348E+03 -0.28581589093E+02  0.49399632512E+03  0.50400001928E-02 0.  1.
       -1    1    3    3    0  502  0.44549289514E+03 -0.21154560348E+03 -0.19158573390E+03  0.52907518882E+03  0.50400001928E-02 0. -1.
</event>
<event>
 5   0  0.5349685E-03  0.9897778E+03  0.7818609E-02  0.9319828E-01
        1   -1    0    0  501    0  0.00000000000E+00  0.00000000000E+00  0.10275056635E+04  0.10275056635E+04  0.50400001928E-02 0. -1.
       -1   -1    0    0    0  501  0.00000000000E+00  0.00000000000E+00 -0.23835882253E+03  0.23835882258E+03  0.50400001928E-02 0.  1.
    10030    2    1    2    0    0  0.00000000000E+00  0.00000000000E+00  0.78914684094E+03  0.12658644861E+04  0.98977783392E+03 0.  0.
        4    1    3    3  502    0 -0.23234823135E+03 -0.43157374892E+03  0.48198979994E+03  0.68742809189E+03  0.12699999809E+01 0. -1.
       -4    1    3    3    0  502  0.23234823135E+03  0.43157374892E+03  0.30715704101E+03  0.57843639418E+03  0.12699999809E+01 0.  1.
</event>
<event>
 5   0  0.5310275E-03  0.1002941E+04  0.7818609E-02  0.9305325E-01
       -1   -1    0    0    0  501  0.00000000000E+00  0.00000000000E+00  0.15937416642E+03  0.15937416650E+03  0.50400001928E-02 0. -1.
        1   -1    0    0  501    0  0.00000000000E+00  0.00000000000E+00 -0.15778760921E+04  0.15778760921E+04  0.50400001928E-02 0.  1.
    10030    2    1    2    0    0  0.00000000000E+00  0.00000000000E+00 -0.14185019256E+04  0.17372502586E+04  0.10029410490E+04 0.  0.
        1    1    3    3  502    0 -0.47701678235E+03 -0.14316692500E+03 -0.60779174565E+03  0.78578151236E+03  0.50400001928E-02 0. -1.
       -1    1    3    3    0  502  0.47701678235E+03  0.14316692500E+03 -0.81071017998E+03  0.95146874620E+03  0.50400001928E-02 0.  1.
</event>
<event>
 5   0  0.9040674E-03  0.1056858E+04  0.7818609E-02  0.9248292E-01
        2   -1    0    0  501    0  0.00000000000E+00  0.00000000000E+00  0.67992201722E+03  0.67992201722E+03  0.25500000920E-02 0. -1.
       -2   -1    0    0    0  501  0.00000000000E+00  0.00000000000E+00 -0.41069026296E+03  0.41069026297E+03  0.25500000920E-02 0.  1.
    10030    2    1    2    0    0  0.00000000000E+00  0.00000000000E+00  0.26923175426E+03  0.10906122802E+04  0.10568582725E+04 0.  0.
        1    1    3    3  502    0 -0.21996381130E+03 -0.47001031003E+03  0.31713580753E+02  0.51990337665E+03  0.50400001928E-02 0.  1.
       -1    1    3    3    0  502  0.21996381130E+03  0.47001031003E+03  0.23751817350E+03  0.57070890355E+03  0.50400001928E-02 0. -1.
</event>
<event>
 5   0  0.8875655E-03  0.9743550E+03  0.7818609E-02  0.9337128E-01
       -2   -1    0    0    0  501  0.00000000000E+00  0.00000000000E+00  0.13291021796E+04  0.13291021796E+04  0.25500000920E-02 0.  1.
        2   -1    0    0  501    0  0.00000000000E+00  0.00000000000E+00 -0.17857312473E+03  0.17857312475E+03  0.25500000920E-02 0. -1.
    10030    2    1    2    0    0  0.00000000000E+00  0.00000000000E+00  0.11505290549E+04  0.15076753043E+04  0.97435502628E+03 0.  0.
        4    1    3    3  502    0  0.90189659476E+02 -0.82259505611E+02 -0.15452320976E+03  0.19692596628E+03  0.12699999809E+01 0. -1.
       -4    1    3    3    0  502 -0.90189659476E+02  0.82259505611E+02  0.13050522646E+04  0.13107493381E+04  0.12699999809E+01 0.  1.
</event>
<event>
 5   0  0.8968798E-03  0.9773870E+03  0.7818609E-02  0.9333700E-01
       -2   -1    0    0    0  501  0.00000000000E+00  0.00000000000E+00  0.35334612566E+03  0.35334612567E+03  0.25500000920E-02 0.  1.
        2   -1    0    0  501    0  0.00000000000E+00  0.00000000000E+00 -0.67588490651E+03  0.67588490651E+03  0.25500000920E-02 0. -1.
    10030    2    1    2    0    0  0.00000000000E+00  0.00000000000E+00 -0.32253878085E+03  0.10292310322E+04  0.97738695124E+03 0.  0.
        2    1    3    3  502    0  0.43897414073E+03  0.21471091597E+03 -0.16623540777E+03  0.51617175869E+03  0.25500000920E-02 0.  1.
       -2    1    3    3    0  502 -0.43897414073E+03 -0.21471091597E+03 -0.15630337308E+03  0.51305927349E+03  0.25500000920E-02 0. -1.
</event>
<event>
 5   0  0.5072205E-03  0.1009976E+04  0.7818609E-02  0.9297671E-01
       -1   -1    0    0    0  501  0.00000000000E+00  0.00000000000E+00  0.13184125743E+03  0.13184125753E+03  0.50400001928E-02 0. -1.
        1   -1    0    0  501    0  0.00000000000E+00  0.00000000000E+00 -0.19342408992E+04  0.19342408992E+04  0.50400001928E-02 0.  1.
    10030    2    1    2    0    0  0.00000000000E+00  0.00000000000E+00 -0.18023996418E+04  0.20660821567E+04  0.10099757471E+04 0.  0.
        5    1    3    3  502    0  0.15586274392E+02  0.30180018296E+03 -0.73612693473E+02  0.31107426930E+03  0.46999998093E+01 0. -1.
       -5    1    3    3    0  502 -0.15586274392E+02 -0.30180018296E+03 -0.17287869483E+04  0.17550078874E+04  0.46999998093E+01 0.  1.
</event>
<event>
 5   0  0.5189877E-03  0.9963605E+03  0.7818609E-02  0.9312546E-01
       -1   -1    0    0    0  501  0.00000000000E+00  0.00000000000E+00  0.19917444977E+03  0.19917444983E+03  0.50400001928E-02 0. -1.
        1   -1    0    0  501    0  0.00000000000E+00  0.00000000000E+00 -0.12460611897E+04  0.12460611897E+04  0.50400001928E-02 0.  1.
    10030    2    1    2    0    0  0.00000000000E+00  0.00000000000E+00 -0.10468867399E+04  0.14452356395E+04  0.99636048073E+03 0.  0.
        3    1    3    3  502    0  0.27985566384E+03 -0.37092487663E+03 -0.78404838982E+03  0.91139253040E+03  0.10100000352E+00 0.  1.
       -3    1    3    3    0  502 -0.27985566384E+03  0.37092487663E+03 -0.26283835012E+03  0.53384310915E+03  0.10100000352E+00 0. -1.
</event>
<event>
 5   0  0.9040674E-03  0.1016609E+04  0.7818609E-02  0.9290513E-01
        2   -1    0    0  501    0  0.00000000000E+00  0.00000000000E+00  0.23483083254E+04  0.23483083254E+04  0.25500000920E-02 0.  1.
       -2   -1    0    0    0  501  0.00000000000E+00  0.00000000000E+00 -0.11002541210E+03  0.11002541213E+03  0.25500000920E-02 0. -1.
    10030    2    1    2    0    0  0.00000000000E+00  0.00000000000E+00  0.22382829133E+04  0.24583337375E+04  0.10166092490E+04 0.  0.
        1    1    3    3  502    0 -0.39373305265E+03 -0.29340231775E+03  0.14368613054E+04  0.15184469196E+04  0.50400001928E-02 0. -1.
       -1    1    3    3    0  502  0.39373305265E+03  0.29340231775E+03  0.80142160794E+03  0.93988681792E+03  0.50400001928E-02 0.  1.
</event>
<event>
 5   0  0.5349685E-03  0.1009284E+04  0.7818609E-02  0.9298421E-01
       -1   -1    0    0    0  501  0.00000000000E+00  0.00000000000E+00  0.29845546544E+03  0.29845546548E+03  0.50400001928E-02 0.  1.
        1   -1    0    0  501    0  0.00000000000E+00  0.00000000000E+00 -0.85327107554E+03  0.85327107556E+03  0.50400001928E-02 0. -1.
    10030    2    1    2    0    0  0.00000000000E+00  0.00000000000E+00 -0.55481561011E+03  0.11517265410E+04  0.10092837382E+04 0.  0.
        4    1    3    3  502    0 -0.94244458361E+02 -0.23929464915E+03  0.21805646966E+03  0.33718568164E+03  0.12699999809E+01 0.  1.
       -4    1    3    3    0  502  0.94244458361E+02  0.23929464915E+03 -0.77287207977E+03  0.81454085940E+03  0.12699999809E+01 0. -1.
</event>
<event>
 5   0  0.5189877E-03  0.1018725E+04  0.7818609E-02  0.9288243E-01
       -1   -1    0    0    0  501  0.00000000000E+00  0.00000000000E+00  0.13839679219E+03  0.13839679228E+03  0.50400001928E-02 0.  1.
        1   -1    0    0  501    0  0.00000000000E+00  0.00000000000E+00 -0.18746819564E+04  0.18746819564E+04  0.50400001928E-02 0. -1.
    10030    2    1    2    0    0  0.00000000000E+00  0.00000000000E+00 -0.17362851642E+04  0.20130787487E+04  0.10187246325E+04 0.  0.
        3    1    3    3  502    0  0.29124098017E+03  0.40050816906E+03 -0.63248462369E+03  0.80328382992E+03  0.10100000352E+00 0.  1.
       -3    1    3    3    0  502 -0.29124098017E+03 -0.40050816906E+03 -0.11038005405E+04  0.12097949188E+04  0.10100000352E+00 0. -1.
</event>
<event>
 5   0  0.5310275E-03  0.9755298E+03  0.7818609E-02  0.9335798E-01
       -1   -1    0    0    0  501  0.00000000000E+00  0.00000000000E+00  0.30651003261E+03  0.30651003265E+03  0.50400001928E-02 0. -1.
        1   -1    0    0  501    0  0.00000000000E+00  0.00000000000E+00 -0.77620497989E+03  0.77620497990E+03  0.50400001928E-02 0.  1.
    10030    2    1    2    0    0  0.00000000000E+00  0.00000000000E+00 -0.46969494728E+03  0.10827150126E+04  0.97552983292E+03 0.  0.
        1    1    3    3  502    0  0.28141018345E+03 -0.11322159769E+01  0.20732497144E+03  0.34953771910E+03  0.50400001928E-02 0. -1.
       -1    1    3    3    0  502 -0.28141018345E+03  0.11322159769E+01 -0.67701991872E+03  0.73317729345E+03  0.50400001928E-02 0.  1.
</event>
<event>
 5   0  0.3513625E-03  0.9935879E+03  0.7818609E-02  0.9315606E-01
       -3   -1    0    0    0  501  0.00000000000E+00  0.00000000000E+00  0.11120323594E+04  0.11120323639E+04  0.10100000352E+00 0. -1.
        3   -1    0    0  501    0  0.00000000000E+00  0.00000000000E+00 -0.22193978615E+03  0.22193980913E+03  0.10100000352E+00 0.  1.
    10030    2    1    2    0    0  0.00000000000E+00  0.00000000000E+00  0.89009257321E+03  0.13339721731E+04  0.99358792748E+03 0.  0.
        1    1    3    3  502    0 -0.29548940300E+03  0.24207143209E+03  0.87149630190E+03  0.95153474439E+03  0.50400001928E-02 0. -1.
       -1    1    3    3    0  502  0.29548940300E+03 -0.24207143209E+03  0.18596271308E+02  0.38243742868E+03  0.50400001928E-02 0.  1.
</event>
<event>
 5   0  0.5072205E-03  0.1039091E+04  0.7818609E-02  0.9266680E-01
        1   -1    0    0  501    0  0.00000000000E+00  0.00000000000E+00  0.83414739106E+03  0.83414739107E+03  0.50400001928E-02 0.  1.
       -1   -1    0    0    0  501  0.00000000000E+00  0.00000000000E+00 -0.32359703342E+03  0.32359703346E+03  0.50400001928E-02 0. -1.
    10030    2    1    2    0    0  0.00000000000E+00  0.00000000000E+00  0.51055035764E+03  0.11577444245E+04  0.10390911822E+04 0.  0.
        5    1    3    3  502    0  0.47491730978E+03 -0.17091199511E+03  0.39240727805E+03  0.63934569918E+03  0.46999998093E+01 0.  1.
       -5    1    3    3    0  502 -0.47491730978E+03  0.17091199511E+03  0.11814307959E+03  0.51839872535E+03  0.46999998093E+01 0. -1.
</event>
<event>
 5   0  0.5189877E-03  0.9976565E+03  0.7818609E-02  0.9311119E-01
        1   -1    0    0  501    0  0.00000000000E+00  0.00000000000E+00  0.29359751704E+03  0.29359751708E+03  0.50400001928E-02 0.  1.
       -1   -1    0    0    0  501  0.00000000000E+00  0.00000000000E+00 -0.84751955783E+03  0.84751955785E+03  0.50400001928E-02 0. -1.
    10030    2    1    2    0    0  0.00000000000E+00  0.00000000000E+00 -0.55392204080E+03  0.11411170749E+04  0.99765652978E+03 0.  0.
        3    1    3    3  502    0  0.19325212739E+02  0.13589274367E+03 -0.82549431687E+03  0.83682804626E+03  0.10100000352E+00 0. -1.
       -3    1    3    3    0  502 -0.19325212739E+02 -0.13589274367E+03  0.27157227607E+03  0.30428902866E+03  0.10100000352E+00 0.  1.
</event>
<event>
 5   0  0.8875655E-03  0.1016610E+04  0.7818609E-02  0.9290513E-01
       -2   -1    0    0    0  501  0.00000000000E+00  0.00000000000E+00  0.22333257838E+03  0.22333257840E+03  0.25500000920E-02 0.  1.
        2   -1    0    0  501    0  0.00000000000E+00  0.00000000000E+00 -0.11569022102E+04  0.11569022102E+04  0.25500000920E-02 0. -1.
    10030    2    1    2    0    0  0.00000000000E+00  0.00000000000E+00 -0.93356963185E+03  0.13802347886E+04  0.10166099617E+04 0.  0.
        4    1    3    3  502    0 -0.17126008260E+02  0.50124094557E+03 -0.35452682539E+03  0.61418781208E+03  0.12699999809E+01 0. -1.
       -4    1    3    3    0  502  0.17126008260E+02 -0.50124094557E+03 -0.57904280646E+03  0.76604697656E+03  0.12699999809E+01 0.  1.
</event>
<event>
 5   0  0.9040674E-03  0.1003769E+04  0.7818609E-02  0.9304421E-01
        2   -1    0    0  501    0  0.00000000000E+00  0.00000000000E+00  0.86511128374E+03  0.86511128375E+03  0.25500000920E-02 0.  1.
       -2   -1    0    0    0  501  0.00000000000E+00  0.00000000000E+00 -0.29116239311E+03  0.29116239312E+03  0.25500000920E-02 0. -1.
    10030    2    1    2    0    0  0.00000000000E+00  0.00000000000E+00  0.57394889063E+03  0.11562736769E+04  0.10037686420E+04 0.  0.
        1    1    3    3  502    0  0.45994883521E+03 -0.19752804565E+03  0.32878835320E+03  0.59889234513E+03  0.50400001928E-02 0. -1.
       -1    1    3    3    0  502 -0.45994883521E+03  0.19752804565E+03  0.24516053743E+03  0.55738133174E+03  0.50400001928E-02 0.  1.
</event>
<event>
 5   0  0.5349685E-03  0.1007101E+04  0.7818609E-02  0.9300791E-01
        1   -1    0    0  501    0  0.00000000000E+00  0.00000000000E+00  0.40558900217E+03  0.40558900220E+03  0.50400001928E-02 0. -1.
       -1   -1    0    0    0  501  0.00000000000E+00  0.00000000000E+00 -0.62517224837E+03  0.62517224839E+03  0.50400001928E-02 0.  1.
    10030    2    1    2    0    0  0.00000000000E+00  0.00000000000E+00 -0.21958324619E+03  0.10307612506E+04  0.10071007664E+04 0.  0.
        4    1    3    3  502    0  0.33770145320E+03  0.18402336686E+03 -0.44247351766E+03  0.58625190641E+03  0.12699999809E+01 0.  1.
       -4    1    3    3    0  502 -0.33770145320E+03 -0.18402336686E+03  0.22289027146E+03  0.44450934418E+03  0.12699999809E+01 0. -1.
</event>
<event>
 5   0  0.8907355E-03  0.9512203E+03  0.7818609E-02  0.9363725E-01
       -2   -1    0    0    0  501  0.00000000000E+00  0.00000000000E+00  0.36403090906E+03  0.36403090907E+03  0.25500000920E-02 0. -1.
        2   -1    0    0  501    0  0.00000000000E+00  0.00000000000E+00 -0.62138954027E+03  0.62138954027E+03  0.25500000920E-02 0.  1.
    10030    2    1    2    0    0  0.00000000000E+00  0.00000000000E+00 -0.25735863121E+03  0.98542044934E+03  0.95122026730E+03 0.  0.
        5    1    3    3  502    0 -0.95449684442E+01 -0.37328553530E+03  0.17644336847E+03  0.41302245649E+03  0.46999998093E+01 0. -1.
       -5    1    3    3    0  502  0.95449684442E+01  0.37328553530E+03 -0.43380199969E+03  0.57239799285E+03  0.46999998093E+01 0.  1.
</event>
<event>
 5   0  0.5349685E-03  0.9974157E+03  0.7818609E-02  0.9311384E-01
       -1   -1    0    0    0  501  0.00000000000E+00  0.00000000000E+00  0.73923021995E+03  0.73923021997E+03  0.50400001928E-02 0.  1.
        1   -1    0    0  501    0  0.00000000000E+00  0.00000000000E+00 -0.33644391964E+03  0.33644391968E+03  0.50400001928E-02 0. -1.
    10030    2    1    2    0    0  0.00000000000E+00  0.00000000000E+00  0.40278630031E+03  0.10756741396E+04  0.99741568615E+03 0.  0.
        4    1    3    3  502    0  0.36572155789E+03 -0.20179111035E+03  0.49523373880E+03  0.64786571067E+03  0.12699999809E+01 0.  1.
       -4    1    3    3    0  502 -0.36572155789E+03  0.20179111035E+03 -0.92447438482E+02  0.42780842898E+03  0.12699999809E+01 0. -1.
</event>
<event>
 5   0  0.5310275E-03  0.1004832E+04  0.7818609E-02  0.9303261E-01
        1   -1    0    0  501    0  0.00000000000E+00  0.00000000000E+00  0.14173373659E+04  0.14173373659E+04  0.50400001928E-02 0. -1.
       -1   -1    0    0    0  501  0.00000000000E+00  0.00000000000E+00 -0.17809586719E+03  0.17809586727E+03  0.50400001928E-02 0.  1.
    10030    2    1    2    0    0  0.00000000000E+00  0.00000000000E+00  0.12392414987E+04  0.15954332332E+04  0.10048321797E+04 0.  0.
        1    1    3    3  502    0  0.36230111760E+03 -0.26045334676E+03  0.25297557159E+03  0.51292756360E+03  0.50400001928E-02 0. -1.
       -1    1    3    3    0  502 -0.36230111760E+03  0.26045334676E+03  0.98626592714E+03  0.10825056696E+04  0.50400001928E-02 0.  1.
</event>
<event>
 5   0  0.5310275E-03  0.9698395E+03  0.7818609E-02  0.9342257E-01
        1   -1    0    0  501    0  0.00000000000E+00  0.00000000000E+00  0.40866601720E+03  0.40866601723E+03  0.50400001928E-02 0.  1.
       -1   -1    0    0    0  501  0.00000000000E+00  0.00000000000E+00 -0.57540181618E+03  0.57540181620E+03  0.50400001928E-02 0. -1.
    10030    2    1    2    0    0  0.00000000000E+00  0.00000000000E+00 -0.16673579898E+03  0.98406783342E+03  0.96983950946E+03 0.  0.
        1    1    3    3  502    0 -0.18649244080E+03  0.29853928798E+02  0.36981239014E+03  0.41524919201E+03  0.50400001928E-02 0.  1.
       -1    1    3    3    0  502  0.18649244080E+03 -0.29853928798E+02 -0.53654818912E+03  0.56881864141E+03  0.50400001928E-02 0. -1.
</event>
<event>
 5   0  0.5189877E-03  0.9883644E+03  0.7818609E-02  0.9321399E-01
       -1   -1    0    0    0  501  0.00000000000E+00  0.00000000000E+00  0.12701712363E+03  0.12701712373E+03  0.50400001928E-02 0. -1.
        1   -1    0    0  501    0  0.00000000000E+00  0.00000000000E+00 -0.19227016398E+04  0.19227016398E+04  0.50400001928E-02 0.  1.
    10030    2    1    2    0    0  0.00000000000E+00  0.00000000000E+00 -0.17956845161E+04  0.20497187635E+04  0.98836437006E+03 0.  0.
        3    1    3    3  502    0 -0.40392332776E+03 -0.18753362168E+03 -0.45356822524E+03  0.63564696107E+03  0.10100000352E+00 0. -1.
       -3    1    3    3    0  502  0.40392332776E+03  0.18753362168E+03 -0.13421162909E+04  0.14140718024E+04  0.10100000352E+00 0.  1.
</event>
<event>
 5   0  0.8907355E-03  0.9932675E+03  0.7818609E-02  0.9315960E-01
        2   -1    0    0  501    0  0.00000000000E+00  0.00000000000E+00  0.92470965616E+03  0.92470965617E+03  0.25500000920E-02 0.  1.
       -2   -1    0    0    0  501  0.00000000000E+00  0.00000000000E+00 -0.26672707870E+03  0.26672707871E+03  0.25500000920E-02 0. -1.
    10030    2    1    2    0    0  0.00000000000E+00  0.00000000000E+00  0.65798257747E+03  0.11914367349E+04  0.99326754752E+03 0.  0.
        5    1    3    3  502    0 -0.11931260284E+03 -0.20513466445E+03  0.85226925672E+03  0.88470373781E+03  0.46999998093E+01 0.  1.
       -5    1    3    3    0  502  0.11931260284E+03  0.20513466445E+03 -0.19428667925E+03  0.30673299706E+03  0.46999998093E+01 0. -1.
</event>
<event>
 5   0  0.9040674E-03  0.9948442E+03  0.7818609E-02  0.9314218E-01
       -2   -1    0    0    0  501  0.00000000000E+00  0.00000000000E+00  0.50906268064E+03  0.50906268065E+03  0.25500000920E-02 0.  1.
        2   -1    0    0  501    0  0.00000000000E+00  0.00000000000E+00 -0.48604769850E+03  0.48604769851E+03  0.25500000920E-02 0. -1.
    10030    2    1    2    0    0  0.00000000000E+00  0.00000000000E+00  0.23014982143E+02  0.99511037915E+03  0.99484419750E+03 0.  0.
        1    1    3    3  502    0 -0.23053691851E+03 -0.51227220640E+02 -0.42639640153E+03  0.48742731786E+03  0.50400001928E-02 0. -1.
       -1    1    3    3    0  502  0.23053691851E+03  0.51227220640E+02  0.44941138367E+03  0.50768306130E+03  0.50400001928E-02 0.  1.
</event>
<event>
 5   0  0.5349685E-03  0.9851719E+03  0.7818609E-02  0.9324959E-01
        1   -1    0    0  501    0  0.00000000000E+00  0.00000000000E+00  0.50419433180E+03  0.50419433183E+03  0.50400001928E-02 0. -1.
       -1   -1    0    0    0  501  0.00000000000E+00  0.00000000000E+00 -0.48124486310E+03  0.48124486313E+03  0.50400001928E-02 0.  1.
    10030    2    1    2    0    0  0.00000000000E+00  0.00000000000E+00  0.22949468695E+02  0.98543919496E+03  0.98517192857E+03 0.  0.
        4    1    3    3  502    0  0.88254046449E+02 -0.13412715160E+03  0.47728384708E+03  0.50356762514E+03  0.12699999809E+01 0. -1.
       -4    1    3    3    0  502 -0.88254046449E+02  0.13412715160E+03 -0.45433437838E+03  0.48187156981E+03  0.12699999809E+01 0.  1.
</event>
<event>
 5   0  0.5189877E-03  0.1004572E+04  0.7818609E-02  0.9303545E-01
        1   -1    0    0  501    0  0.00000000000E+00  0.00000000000E+00  0.15001339162E+04  0.15001339162E+04  0.50400001928E-02 0. -1.
       -1   -1    0    0    0  501  0.00000000000E+00  0.00000000000E+00 -0.16817901766E+03  0.16817901773E+03  0.50400001928E-02 0.  1.
    10030    2    1    2    0    0  0.00000000000E+00  0.00000000000E+00  0.13319548986E+04  0.16683129340E+04  0.10045716469E+04 0.  0.
        3    1    3    3  502    0  0.16809436824E+03  0.12460122512E+03  0.14243103436E+04  0.14395975642E+04  0.10100000352E+00 0. -1.
       -3    1    3    3    0  502 -0.16809436824E+03 -0.12460122512E+03 -0.92355444993E+02  0.22871536974E+03  0.10100000352E+00 0.  1.
</event>
<event>
 5   0  0.8907355E-03  0.1005711E+04  0.7818609E-02  0.9302304E-01
        2   -1    0    0  501    0  0.00000000000E+00  0.00000000000E+00  0.11323667229E+04  0.11323667229E+04  0.25500000920E-02 0.  1.
       -2   -1    0    0    0  501  0.00000000000E+00  0.00000000000E+00 -0.22330527968E+03  0.22330527969E+03  0.25500000920E-02 0. -1.
    10030    2    1    2    0    0  0.00000000000E+00  0.00000000000E+00  0.90906144322E+03  0.13556720026E+04  0.10057106299E+04 0.  0.
        5    1    3    3  502    0 -0.43621067814E+03 -0.22672537011E+03  0.31214719284E+03  0.58235908954E+03  0.46999998093E+01 0.  1.
       -5    1    3    3    0  502  0.43621067814E+03  0.22672537011E+03  0.59691425038E+03  0.77331291304E+03  0.46999998093E+01 0. -1.
</event>
<event>
 5   0  0.5189877E-03  0.9853124E+03  0.7818609E-02  0.9324802E-01
        1   -1    0    0  501    0  0.00000000000E+00  0.00000000000E+00  0.35712696837E+03  0.35712696841E+03  0.50400001928E-02 0. -1.
       -1   -1    0    0    0  501  0.00000000000E+00  0.00000000000E+00 -0.67961858055E+03  0.67961858057E+03  0.50400001928E-02 0.  1.
    10030    2    1    2    0    0  0.00000000000E+00  0.00000000000E+00 -0.32249161218E+03  0.10367455490E+04  0.98531238366E+03 0.  0.
        3    1    3    3  502    0 -0.15540719263E+03 -0.40955890520E+03  0.75955192011E+02  0.44458867929E+03  0.10100000352E+00 0. -1.
       -3    1    3    3    0  502  0.15540719263E+03  0.40955890520E+03 -0.39844680419E+03  0.59215686969E+03  0.10100000352E+00 0.  1.
</event>
<event>
 5   0  0.5310275E-03  0.9747151E+03  0.7818609E-02  0.9336720E-01
       -1   -1    0    0    0  501  0.00000000000E+00  0.00000000000E+00  0.28184275589E+03  0.28184275594E+03  0.50400001928E-02 0.  1.
        1   -1    0    0  501    0  0.00000000000E+00  0.00000000000E+00 -0.84273013639E+03  0.84273013641E+03  0.50400001928E-02 0. -1.
    10030    2    1    2    0    0  0.00000000000E+00  0.00000000000E+00 -0.56088738050E+03  0.11245728923E+04  0.97471510535E+03 0.  0.
        1    1    3    3  502    0  0.61904409109E+02  0.64300845746E+02 -0.83321966397E+03  0.83798673204E+03  0.50400001928E-02 0. -1.
       -1    1    3    3    0  502 -0.61904409109E+02 -0.64300845746E+02  0.27233228347E+03  0.28658616030E+03  0.50400001928E-02 0.  1.
</event>
<event>
 5   0  0.8875655E-03  0.1007812E+04  0.7818609E-02  0.9300018E-01
        2   -1    0    0  501    0  0.00000000000E+00  0.00000000000E+00  0.88363110468E+03  0.88363110468E+03  0.25500000920E-02 0.  1.
       -2   -1    0    0    0  501  0.00000000000E+00  0.00000000000E+00 -0.28736126042E+03  0.28736126044E+03  0.25500000920E-02 0. -1.
    10030    2    1    2    0    0  0.00000000000E+00  0.00000000000E+00  0.59626984425E+03  0.11709923651E+04  0.10078121809E+04 0.  0.
        4    1    3    3  502    0 -0.34702827094E+03  0.24838769443E+02  0.72167519265E+03  0.80116308071E+03  0.12699999809E+01 0.  1.
       -4    1    3    3    0  502  0.34702827094E+03 -0.24838769443E+02 -0.12540534840E+03  0.36982928441E+03  0.12699999809E+01 0. -1.
</event>
<event>
 5   0  0.8968798E-03  0.1040825E+04  0.7818609E-02  0.9264869E-01
       -2   -1    0    0    0  501  0.00000000000E+00  0.00000000000E+00  0.24754986256E+03  0.24754986258E+03  0.25500000920E-02 0.  1.
        2   -1    0    0  501    0  0.00000000000E+00  0.00000000000E+00 -0.10940381926E+04  0.10940381926E+04  0.25500000920E-02 0. -1.
    10030    2    1    2    0    0  0.00000000000E+00  0.00000000000E+00 -0.84648833004E+03  0.13415880552E+04  0.10408246812E+04 0.  0.
        2    1    3    3  502    0  0.50740641889E+03 -0.78581144756E+02 -0.53256139036E+03  0.73976881845E+03  0.25500000920E-02 0. -1.
       -2    1    3    3    0  502 -0.50740641889E+03  0.78581144756E+02 -0.31392693969E+03  0.60181923674E+03  0.25500000920E-02 0.  1.
</event>
<event>
 5   0  0.5201968E-03  0.1001405E+04  0.7818609E-02  0.9307005E-01
       -1   -1    0    0    0  501  0.00000000000E+00  0.00000000000E+00  0.49592806567E+03  0.49592806569E+03  0.50400001928E-02 0.  1.
        1   -1    0    0  501    0  0.00000000000E+00  0.00000000000E+00 -0.50552321156E+03  0.50552321158E+03  0.50400001928E-02 0. -1.
    10030    2    1    2    0    0  0.00000000000E+00  0.00000000000E+00 -0.95951458881E+01  0.10014512773E+04  0.10014053095E+04 0.  0.
        2    1    3    3  502    0  0.48334908752E+03  0.12633957063E+03  0.28597386861E+02  0.50040567348E+03  0.25500000920E-02 0. -1.
       -2    1    3    3    0  502 -0.48334908752E+03 -0.12633957063E+03 -0.38192532750E+02  0.50104560379E+03  0.25500000920E-02 0.  1.
</event>
<event>
 5   0  0.8968798E-03  0.9937911E+03  0.7818609E-02  0.9315381E-01
        2   -1    0    0  501    0  0.00000000000E+00  0.00000000000E+00  0.41744177489E+03  0.41744177489E+03  0.25500000920E-02 0.  1.
       -2   -1    0    0    0  501  0.00000000000E+00  0.00000000000E+00 -0.59147211180E+03  0.59147211180E+03  0.25500000920E-02 0. -1.
    10030    2    1    2    0    0  0.00000000000E+00  0.00000000000E+00 -0.17403033691E+03  0.10089138867E+04  0.99379106084E+03 0.  0.
        2    1    3    3  502    0 -0.33318509680E+03  0.34372161795E+03  0.48234902480E+02  0.48112728586E+03  0.25500000920E-02 0. -1.
       -2    1    3    3    0  502  0.33318509680E+03 -0.34372161795E+03 -0.22226523939E+03  0.52778660084E+03  0.25500000920E-02 0.  1.
</event>
<event>
 5   0  0.5201968E-03  0.1005544E+04  0.7818609E-02  0.9302485E-01
       -1   -1    0    0    0  501  0.00000000000E+00  0.00000000000E+00  0.40927446688E+03  0.40927446691E+03  0.50400001928E-02 0. -1.
        1   -1    0    0  501    0  0.00000000000E+00  0.00000000000E+00 -0.61762899128E+03  0.61762899130E+03  0.50400001928E-02 0.  1.
    10030    2    1    2    0    0  0.00000000000E+00  0.00000000000E+00 -0.20835452440E+03  0.10269034582E+04  0.10055441833E+04 0.  0.
        2    1    3    3  502    0  0.28121972291E+02 -0.26593822751E+03  0.33061958102E+03  0.42523322253E+03  0.25500000920E-02 0. -1.
       -2    1    3    3    0  502 -0.28121972291E+02  0.26593822751E+03 -0.53897410542E+03  0.60167023568E+03  0.25500000920E-02 0.  1.
</event>
<event>
 5   0  0.5072205E-03  0.9944563E+03  0.7818609E-02  0.9314646E-01
        1   -1    0    0  501    0  0.00000000000E+00  0.00000000000E+00  0.13287151733E+04  0.13287151733E+04  0.50400001928E-02 0. -1.
       -1   -1    0    0    0  501  0.00000000000E+00  0.00000000000E+00 -0.18607134119E+03  0.18607134125E+03  0.50400001928E-02 0.  1.
    10030    2    1    2    0    0  0.00000000000E+00  0.00000000000E+00  0.11426438321E+04  0.15147865146E+04  0.99445626231E+03 0.  0.
        5    1    3    3  502    0  0.40282131708E+02 -0.27254940146E+03 -0.59133581828E+02  0.28182387562E+03  0.46999998093E+01 0.  1.
       -5    1    3    3    0  502 -0.40282131708E+02  0.27254940146E+03  0.12017774140E+04  0.12329626390E+04  0.46999998093E+01 0. -1.
</event>
<event>
 5   0  0.5310275E-03  0.1006481E+04  0.7818609E-02  0.9301465E-01
        1   -1    0    0  501    0  0.00000000000E+00  0.00000000000E+00  0.34951984636E+03  0.34951984639E+03  0.50400001928E-02 0. -1.
       -1   -1    0    0    0  501  0.00000000000E+00  0.00000000000E+00 -0.72456811777E+03  0.72456811778E+03  0.50400001928E-02 0.  1.
    10030    2    1    2    0    0  0.00000000000E+00  0.00000000000E+00 -0.37504827141E+03  0.10740879642E+04  0.10064808736E+04 0.  0.
        1    1    3    3  502    0 -0.23748041186E+03  0.43358005874E+03 -0.28798759580E+03  0.57212364810E+03  0.50400001928E-02 0.  1.
       -1    1    3    3    0  502  0.23748041186E+03 -0.43358005874E+03 -0.87060675612E+02  0.50196431608E+03  0.50400001928E-02 0. -1.
</event>
<event>
 5   0  0.8968798E-03  0.1197527E+04  0.7818609E-02  0.9115024E-01
       -2   -1    0    0    0  501  0.00000000000E+00  0.00000000000E+00  0.27467174055E+03  0.27467174056E+03  0.25500000920E-02 0.  1.
        2   -1    0    0  501    0  0.00000000000E+00  0.00000000000E+00 -0.13052580785E+04  0.13052580785E+04  0.25500000920E-02 0. -1.
    10030    2    1    2    0    0  0.00000000000E+00  0.00000000000E+00 -0.10305863380E+04  0.15799298191E+04  0.11975266315E+04 0.  0.
        2    1    3    3  502    0 -0.71631826490E+02  0.10875111503E+03  0.25576271199E+03  0.28700607736E+03  0.25500000920E-02 0.  1.
       -2    1    3    3    0  502  0.71631826490E+02 -0.10875111503E+03 -0.12863490499E+04  0.12929237417E+04  0.25500000920E-02 0. -1.
</event>
<event>
 5   0  0.8875655E-03  0.1007550E+04  0.7818609E-02  0.9300302E-01
       -2   -1    0    0    0  501  0.00000000000E+00  0.00000000000E+00  0.44908271043E+03  0.44908271044E+03  0.25500000920E-02 0. -1.
        2   -1    0    0  501    0  0.00000000000E+00  0.00000000000E+00 -0.56512858024E+03  0.56512858025E+03  0.25500000920E-02 0.  1.
    10030    2    1    2    0    0  0.00000000000E+00  0.00000000000E+00 -0.11604586981E+03  0.10142112907E+04  0.10075504445E+04 0.  0.
        4    1    3    3  502    0  0.32752356405E+03  0.27479648139E+03  0.21020265369E+03  0.47641532271E+03  0.12699999809E+01 0. -1.
       -4    1    3    3    0  502 -0.32752356405E+03 -0.27479648139E+03 -0.32624852350E+03  0.53779596798E+03  0.12699999809E+01 0.  1.
</event>
<event>
 5   0  0.9040674E-03  0.1018123E+04  0.7818609E-02  0.9288889E-01
        2   -1    0    0  501    0  0.00000000000E+00  0.00000000000E+00  0.10128856229E+04  0.10128856229E+04  0.25500000920E-02 0. -1.
       -2   -1    0    0    0  501  0.00000000000E+00  0.00000000000E+00 -0.25584668620E+03  0.25584668621E+03  0.25500000920E-02 0.  1.
    10030    2    1    2    0    0  0.00000000000E+00  0.00000000000E+00  0.75703893665E+03  0.12687323091E+04  0.10181226451E+04 0.  0.
        1    1    3    3  502    0  0.66172942048E+02  0.26716064144E+03  0.91217061589E+03  0.95279006035E+03  0.50400001928E-02 0. -1.
       -1    1    3    3    0  502 -0.66172942048E+02 -0.26716064144E+03 -0.15513167924E+03  0.31594224871E+03  0.50400001928E-02 0.  1.
</event>
<event>
 5   0  0.9040674E-03  0.9957066E+03  0.7818609E-02  0.9313266E-01
        2   -1    0    0  501    0  0.00000000000E+00  0.00000000000E+00  0.70278096264E+03  0.70278096264E+03  0.25500000920E-02 0.  1.
       -2   -1    0    0    0  501  0.00000000000E+00  0.00000000000E+00 -0.35268161184E+03  0.35268161185E+03  0.25500000920E-02 0. -1.
    10030    2    1    2    0    0  0.00000000000E+00  0.00000000000E+00  0.35009935080E+03  0.10554625745E+04  0.99570662884E+03 0.  0.
        1    1    3    3  502    0 -0.28567903791E+02 -0.21026734103E+03  0.65244365598E+03  0.68608396285E+03  0.50400001928E-02 0.  1.
       -1    1    3    3    0  502  0.28567903791E+02  0.21026734103E+03 -0.30234430518E+03  0.36937861163E+03  0.50400001928E-02 0. -1.
</event>
<event>
 5   0  0.5201968E-03  0.7262908E+03  0.7818609E-02  0.9673298E-01
        1   -1    0    0  501    0  0.00000000000E+00  0.00000000000E+00  0.65072684261E+03  0.65072684262E+03  0.50400001928E-02 0.  1.
       -1   -1    0    0    0  501  0.00000000000E+00  0.00000000000E+00 -0.20265736963E+03  0.20265736969E+03  0.50400001928E-02 0. -1.
    10030    2    1    2    0    0  0.00000000000E+00  0.00000000000E+00  0.44806947298E+03  0.85338421232E+03  0.72629082413E+03 0.  0.
        2    1    3    3  502    0  0.14600858487E+03  0.32137927300E+03  0.12384010596E+03  0.37408490456E+03  0.25500000920E-02 0. -1.
       -2    1    3    3    0  502 -0.14600858487E+03 -0.32137927300E+03  0.32422936702E+03  0.47929930776E+03  0.25500000920E-02 0.  1.
</event>
<event>
 5   0  0.3513625E-03  0.1003882E+04  0.7818609E-02  0.9304298E-01
       -4   -1    0    0    0  501  0.00000000000E+00  0.00000000000E+00  0.10742837518E+03  0.10743588178E+03  0.12699999809E+01 0. -1.
        4   -1    0    0  501    0  0.00000000000E+00  0.00000000000E+00 -0.23451435904E+04  0.23451439343E+04  0.12699999809E+01 0.  1.
    10030    2    1    2    0    0  0.00000000000E+00  0.00000000000E+00 -0.22377152153E+04  0.24525798161E+04  0.10038816512E+04 0.  0.
        4    1    3    3  502    0 -0.31572436494E+03 -0.28039046041E+03 -0.45587171157E+03  0.62138660689E+03  0.12699999809E+01 0. -1.
       -4    1    3    3    0  502  0.31572436494E+03  0.28039046041E+03 -0.17818435037E+04  0.18311932092E+04  0.12699999809E+01 0.  1.
</event>
<event>
 5   0  0.9040674E-03  0.1012762E+04  0.7818609E-02  0.9294658E-01
       -2   -1    0    0    0  501  0.00000000000E+00  0.00000000000E+00  0.10915083810E+03  0.10915083813E+03  0.25500000920E-02 0.  1.
        2   -1    0    0  501    0  0.00000000000E+00  0.00000000000E+00 -0.23492398243E+04  0.23492398243E+04  0.25500000920E-02 0. -1.
    10030    2    1    2    0    0  0.00000000000E+00  0.00000000000E+00 -0.22400889862E+04  0.24583906624E+04  0.10127615628E+04 0.  0.
        1    1    3    3  502    0 -0.37507550743E+03 -0.33646900105E+03 -0.99798469214E+03  0.11179742710E+04  0.50400001928E-02 0. -1.
       -1    1    3    3    0  502  0.37507550743E+03  0.33646900105E+03 -0.12421042940E+04  0.13404163914E+04  0.50400001928E-02 0.  1.
</event>
<event>
 5   0  0.8907355E-03  0.1004459E+04  0.7818609E-02  0.9303668E-01
       -2   -1    0    0    0  501  0.00000000000E+00  0.00000000000E+00  0.11296205122E+03  0.11296205125E+03  0.25500000920E-02 0.  1.
        2   -1    0    0  501    0  0.00000000000E+00  0.00000000000E+00 -0.22329120799E+04  0.22329120799E+04  0.25500000920E-02 0. -1.
    10030    2    1    2    0    0  0.00000000000E+00  0.00000000000E+00 -0.21199500287E+04  0.23458741312E+04  0.10044587175E+04 0.  0.
        5    1    3    3  502    0  0.24164937950E+03  0.34312662432E+03 -0.41578588617E+03  0.59078786046E+03  0.46999998093E+01 0.  1.
       -5    1    3    3    0  502 -0.24164937950E+03 -0.34312662432E+03 -0.17041641425E+04  0.17550862707E+04  0.46999998093E+01 0. -1.
</event>
<event>
 5   0  0.8875655E-03  0.9949233E+03  0.7818609E-02  0.9314130E-01
       -2   -1    0    0    0  501  0.00000000000E+00  0.00000000000E+00  0.13054754134E+03  0.13054754136E+03  0.25500000920E-02 0. -1.
        2   -1    0    0  501    0  0.00000000000E+00  0.00000000000E+00 -0.18956166675E+04  0.18956166675E+04  0.25500000920E-02 0.  1.
    10030    2    1    2    0    0  0.00000000000E+00  0.00000000000E+00 -0.17650691261E+04  0.20261642088E+04  0.99492330415E+03 0.  0.
        4    1    3    3  502    0  0.35612158116E+03 -0.13125731988E+02 -0.17568432963E+03  0.39731783497E+03  0.12699999809E+01 0. -1.
       -4    1    3    3    0  502 -0.35612158116E+03  0.13125731988E+02 -0.15893847965E+04  0.16288463739E+04  0.12699999809E+01 0.  1.
</event>
<event>
 5   0  0.5310275E-03  0.1022602E+04  0.7818609E-02  0.9284096E-01
       -1   -1    0    0    0  501  0.00000000000E+00  0.00000000000E+00  0.36711540593E+03  0.36711540597E+03  0.50400001928E-02 0.  1.
        1   -1    0    0  501    0  0.00000000000E+00  0.00000000000E+00 -0.71211653237E+03  0.71211653239E+03  0.50400001928E-02 0. -1.
    10030    2    1    2    0    0  0.00000000000E+00  0.00000000000E+00 -0.34500112644E+03  0.10792319384E+04  0.10226024641E+04 0.  0.
        1    1    3    3  502    0  0.44782873945E+03 -0.79016871592E+02  0.74184157906E+02  0.46075756661E+03  0.50400001928E-02 0.  1.
       -1    1    3    3    0  502 -0.44782873945E+03  0.79016871592E+02 -0.41918528435E+03  0.61847437175E+03  0.50400001928E-02 0. -1.
</event>
<event>
 5   0  0.9243773E-03  0.9977559E+03  0.7818609E-02  0.9311009E-01
       -2   -1    0    0    0  501  0.00000000000E+00  0.00000000000E+00  0.11509696211E+03  0.11509696214E+03  0.25500000920E-02 0. -1.
        2   -1    0    0  501    0  0.00000000000E+00  0.00000000000E+00 -0.21623440499E+04  0.21623440499E+04  0.25500000920E-02 0.  1.
    10030    2    1    2    0    0  0.00000000000E+00  0.00000000000E+00 -0.20472470878E+04  0.22774410121E+04  0.99775594455E+03 0.  0.
        3    1    3    3  502    0 -0.26868813587E+02  0.37402828974E+03 -0.27259390240E+03  0.46360170458E+03  0.10100000352E+00 0. -1.
       -3    1    3    3    0  502  0.26868813587E+02 -0.37402828974E+03 -0.17746531854E+04  0.18138393075E+04  0.10100000352E+00 0.  1.
</event>
<event>
 5   0  0.9040674E-03  0.9871209E+03  0.7818609E-02  0.9322784E-01
        2   -1    0    0  501    0  0.00000000000E+00  0.00000000000E+00  0.72819292724E+03  0.72819292724E+03  0.25500000920E-02 0. -1.
       -2   -1    0    0    0  501  0.00000000000E+00  0.00000000000E+00 -0.33452937904E+03  0.33452937905E+03  0.25500000920E-02 0.  1.
    10030    2    1    2    0    0  0.00000000000E+00  0.00000000000E+00  0.39366354820E+03  0.10627223063E+04  0.98712092021E+03 0.  0.
        1    1    3    3  502    0 -0.55788032485E+02  0.11733834604E+03 -0.31578833193E+03  0.34147161321E+03  0.50400001928E-02 0.  1.
       -1    1    3    3    0  502  0.55788032485E+02 -0.11733834604E+03  0.70945188013E+03  0.72125069308E+03  0.50400001928E-02 0. -1.
</event>
<event>
 5   0  0.5349685E-03  0.9925555E+03  0.7818609E-02  0.9316748E-01
       -1   -1    0    0    0  501  0.00000000000E+00  0.00000000000E+00  0.19275434768E+03  0.19275434775E+03  0.50400001928E-02 0.  1.
        1   -1    0    0  501    0  0.00000000000E+00  0.00000000000E+00 -0.12777486464E+04  0.12777486464E+04  0.50400001928E-02 0. -1.
    10030    2    1    2    0    0  0.00000000000E+00  0.00000000000E+00 -0.10849942987E+04  0.14705029942E+04  0.99255550353E+03 0.  0.
        4    1    3    3  502    0 -0.14498136082E+03 -0.31385597722E+03 -0.10699826073E+04  0.11244507825E+04  0.12699999809E+01 0. -1.
       -4    1    3    3    0  502  0.14498136082E+03  0.31385597722E+03 -0.15011691429E+02  0.34605221167E+03  0.12699999809E+01 0.  1.
</event>
<event>
 5   0  0.9243773E-03  0.9764063E+03  0.7818609E-02  0.9334807E-01
       -2   -1    0    0    0  501  0.00000000000E+00  0.00000000000E+00  0.21360640000E+03  0.21360640001E+03  0.25500000920E-02 0.  1.
        2   -1    0    0  501    0  0.00000000000E+00  0.00000000000E+00 -0.11158012876E+04  0.11158012877E+04  0.25500000920E-02 0. -1.
    10030    2    1    2    0    0  0.00000000000E+00  0.00000000000E+00 -0.90219488765E+03  0.13294076877E+04  0.97640626007E+03 0.  0.
        3    1    3    3  502    0 -0.41837351090E+03  0.20636089694E+03 -0.25510752364E+03  0.53169641077E+03  0.10100000352E+00 0. -1.
       -3    1    3    3    0  502  0.41837351090E+03 -0.20636089694E+03 -0.64708736402E+03  0.79771127689E+03  0.10100000352E+00 0.  1.
</event>
<event>
 5   0  0.9040674E-03  0.1005946E+04  0.7818609E-02  0.9302047E-01
       -2   -1    0    0    0  501  0.00000000000E+00  0.00000000000E+00  0.94548216140E+03  0.94548216141E+03  0.25500000920E-02 0.  1.
        2   -1    0    0  501    0  0.00000000000E+00  0.00000000000E+00 -0.26756911450E+03  0.26756911452E+03  0.25500000920E-02 0. -1.
    10030    2    1    2    0    0  0.00000000000E+00  0.00000000000E+00  0.67791304690E+03  0.12130512759E+04  0.10059459721E+04 0.  0.
        1    1    3    3  502    0 -0.15743398736E+03 -0.23585550179E+03 -0.16198302923E+03  0.32657584094E+03  0.50400001928E-02 0. -1.
       -1    1    3    3    0  502  0.15743398736E+03  0.23585550179E+03  0.83989607613E+03  0.88647543498E+03  0.50400001928E-02 0.  1.
</event>
<event>
 5   0  0.5201968E-03  0.9826278E+03  0.7818609E-02  0.9327806E-01
       -1   -1    0    0    0  501  0.00000000000E+00  0.00000000000E+00  0.24266226579E+03  0.24266226584E+03  0.50400001928E-02 0.  1.
        1   -1    0    0  501    0  0.00000000000E+00  0.00000000000E+00 -0.99475442671E+03  0.99475442672E+03  0.50400001928E-02 0. -1.
    10030    2    1    2    0    0  0.00000000000E+00  0.00000000000E+00 -0.75209216092E+03  0.12374166926E+04  0.98262783012E+03 0.  0.
        2    1    3    3  502    0 -0.35238877572E+03 -0.34075140283E+03 -0.41781202743E+03  0.64409336129E+03  0.25500000920E-02 0. -1.
       -2    1    3    3    0  502  0.35238877572E+03  0.34075140283E+03 -0.33428013349E+03  0.59332333128E+03  0.25500000920E-02 0.  1.
</event>
<event>
 5   0  0.8907355E-03  0.1018744E+04  0.7818609E-02  0.9288223E-01
       -2   -1    0    0    0  501  0.00000000000E+00  0.00000000000E+00  0.33264345330E+03  0.33264345330E+03  0.25500000920E-02 0. -1.
        2   -1    0    0  501    0  0.00000000000E+00  0.00000000000E+00 -0.77999311154E+03  0.77999311155E+03  0.25500000920E-02 0.  1.
    10030    2    1    2    0    0  0.00000000000E+00  0.00000000000E+00 -0.44734965825E+03  0.11126365649E+04  0.10187435441E+04 0.  0.
        5    1    3    3  502    0  0.48347411246E+03  0.38033775560E+02 -0.53620321544E+02  0.48794570844E+03  0.46999998093E+01 0. -1.
       -5    1    3    3    0  502 -0.48347411246E+03 -0.38033775560E+02 -0.39372933670E+03  0.62469085641E+03  0.46999998093E+01 0.  1.
</event>
<event>
 5   0  0.5310275E-03  0.1056526E+04  0.7818609E-02  0.9248632E-01
        1   -1    0    0  501    0  0.00000000000E+00  0.00000000000E+00  0.60245533620E+03  0.60245533622E+03  0.50400001928E-02 0. -1.
       -1   -1    0    0    0  501  0.00000000000E+00  0.00000000000E+00 -0.46320731757E+03  0.46320731760E+03  0.50400001928E-02 0.  1.
    10030    2    1    2    0    0  0.00000000000E+00  0.00000000000E+00  0.13924801863E+03  0.10656626538E+04  0.10565258544E+04 0.  0.
        1    1    3    3  502    0  0.37049318821E+03 -0.36018124617E+03  0.18041923716E+03  0.54730871888E+03  0.50400001928E-02 0. -1.
       -1    1    3    3    0  502 -0.37049318821E+03  0.36018124617E+03 -0.41171218534E+02  0.51835393494E+03  0.50400001928E-02 0.  1.
</event>
<event>
 5   0  0.9040674E-03  0.1004150E+04  0.7818609E-02  0.9304004E-01
       -2   -1    0    0    0  501  0.00000000000E+00  0.00000000000E+00  0.13555787765E+03  0.13555787767E+03  0.25500000920E-02 0.  1.
        2   -1    0    0  501    0  0.00000000000E+00  0.00000000000E+00 -0.18595708681E+04  0.18595708681E+04  0.25500000920E-02 0. -1.
    10030    2    1    2    0    0  0.00000000000E+00  0.00000000000E+00 -0.17240129904E+04  0.19951287457E+04  0.10041503478E+04 0.  0.
        1    1    3    3  502    0 -0.14861983463E+03  0.11928916261E+03 -0.17849165582E+04  0.17950612467E+04  0.50400001928E-02 0. -1.
       -1    1    3    3    0  502  0.14861983463E+03 -0.11928916261E+03  0.60903567834E+02  0.20006749901E+03  0.50400001928E-02 0.  1.
</event>
<event>
 5   0  0.8968798E-03  0.1002337E+04  0.7818609E-02  0.9305986E-01
        2   -1    0    0  501    0  0.00000000000E+00  0.00000000000E+00  0.18260748911E+04  0.18260748911E+04  0.25500000920E-02 0.  1.
       -2   -1    0    0    0  501  0.00000000000E+00  0.00000000000E+00 -0.13754624997E+03  0.13754624999E+03  0.25500000920E-02 0. -1.
    10030    2    1    2    0    0  0.00000000000E+00  0.00000000000E+00  0.16885286411E+04  0.19636211411E+04  0.10023367766E+04 0.  0.
        2    1    3    3  502    0  0.26777603265E+03  0.30043628509E+03  0.25915679589E+03  0.47867338543E+03  0.25500000920E-02 0. -1.
       -2    1    3    3    0  502 -0.26777603265E+03 -0.30043628509E+03  0.14293718452E+04  0.14849477556E+04  0.25500000920E-02 0.  1.
</event>
<event>
 5   0  0.5072205E-03  0.1000351E+04  0.7818609E-02  0.9308160E-01
        1   -1    0    0  501    0  0.00000000000E+00  0.00000000000E+00  0.10425998623E+04  0.10425998623E+04  0.50400001928E-02 0.  1.
       -1   -1    0    0    0  501  0.00000000000E+00  0.00000000000E+00 -0.23995357903E+03  0.23995357909E+03  0.50400001928E-02 0. -1.
    10030    2    1    2    0    0  0.00000000000E+00  0.00000000000E+00  0.80264628323E+03  0.12825534414E+04  0.10003510754E+04 0.  0.
        5    1    3    3  502    0 -0.33198208677E+03 -0.33930612155E+03  0.19936550108E+03  0.51488779659E+03  0.46999998093E+01 0. -1.
       -5    1    3    3    0  502  0.33198208677E+03  0.33930612155E+03  0.60328078215E+03  0.76766564477E+03  0.46999998093E+01 0.  1.
</event>
<event>
 5   0  0.5189877E-03  0.9956380E+03  0.7818609E-02  0.9313342E-01
        1   -1    0    0  501    0  0.00000000000E+00  0.00000000000E+00  0.16590860891E+04  0.16590860891E+04  0.50400001928E-02 0.  1.
       -1   -1    0    0    0  501  0.00000000000E+00  0.00000000000E+00 -0.14937365081E+03  0.14937365090E+03  0.50400001928E-02 0. -1.
    10030    2    1    2    0    0  0.00000000000E+00  0.00000000000E+00  0.15097124383E+04  0.18084597400E+04  0.99563797885E+03 0.  0.
        3    1    3    3  502    0  0.98661566076E+02 -0.45084919167E+03  0.10938179701E+04  0.11871970604E+04  0.10100000352E+00 0.  1.
       -3    1    3    3    0  502 -0.98661566076E+02  0.45084919167E+03  0.41589446822E+03  0.62126267966E+03  0.10100000352E+00 0. -1.
</event>
<event>
 5   0  0.9243773E-03  0.9804900E+03  0.7818609E-02  0.9330206E-01
        2   -1    0    0  501    0  0.00000000000E+00  0.00000000000E+00  0.93224108403E+03  0.93224108403E+03  0.25500000920E-02 0. -1.
       -2   -1    0    0    0  501  0.00000000000E+00  0.00000000000E+00 -0.25780901064E+03  0.25780901065E+03  0.25500000920E-02 0.  1.
    10030    2    1    2    0    0  0.00000000000E+00  0.00000000000E+00  0.67443207339E+03  0.11900500947E+04  0.98048998273E+03 0.  0.
        3    1    3    3  502    0  0.24768234116E+03  0.56621323311E+02 -0.17166495802E+03  0.30662906644E+03  0.10100000352E+00 0.  1.
       -3    1    3    3    0  502 -0.24768234116E+03 -0.56621323311E+02  0.84609703141E+03  0.88342102824E+03  0.10100000352E+00 0. -1.
</event>
<event>
 5   0  0.8907355E-03  0.9887895E+03  0.7818609E-02  0.9320926E-01
        2   -1    0    0  501    0  0.00000000000E+00  0.00000000000E+00  0.25709722355E+03  0.25709722356E+03  0.25500000920E-02 0. -1.
       -2   -1    0    0    0  501  0.00000000000E+00  0.00000000000E+00 -0.95071492937E+03  0.95071492938E+03  0.25500000920E-02 0.  1.
    10030    2    1    2    0    0  0.00000000000E+00  0.00000000000E+00 -0.69361770583E+03  0.12078121529E+04  0.98878949982E+03 0.  0.
        5    1    3    3  502    0  0.17117521749E+03 -0.28890372548E+03  0.96376902133E+02  0.34939507000E+03  0.46999998093E+01 0. -1.
       -5    1    3    3    0  502 -0.17117521749E+03  0.28890372548E+03 -0.78999460796E+03  0.85841708294E+03  0.46999998093E+01 0.  1.
</event>
<event>
 5   0  0.5072205E-03  0.9955026E+03  0.7818609E-02  0.9313491E-01
       -1   -1    0    0    0  501  0.00000000000E+00  0.00000000000E+00  0.27193498586E+03  0.27193498590E+03  0.50400001928E-02 0.  1.
        1   -1    0    0  501    0  0.00000000000E+00  0.00000000000E+00 -0.91108675604E+03  0.91108675605E+03  0.50400001928E-02 0. -1.
    10030    2    1    2    0    0  0.00000000000E+00  0.00000000000E+00 -0.63915177018E+03  0.11830217420E+04  0.99550261507E+03 0.  0.
        5    1    3    3  502    0  0.32299485738E+03 -0.12858359067E+03 -0.74286597715E+03  0.82020202858E+03  0.46999998093E+01 0. -1.
       -5    1    3    3    0  502 -0.32299485738E+03  0.12858359067E+03  0.10371420697E+03  0.36281971337E+03  0.46999998093E+01 0.  1.
</event>
<event>
 5   0  0.9040674E-03  0.1026256E+04  0.7818609E-02  0.9280207E-01
        2   -1    0    0  501    0  0.00000000000E+00  0.00000000000E+00  0.15749278946E+04  0.15749278946E+04  0.25500000920E-02 0. -1.
       -2   -1    0    0    0  501  0.00000000000E+00  0.00000000000E+00 -0.16718263632E+03  0.16718263634E+03  0.25500000920E-02 0.  1.
    10030    2    1    2    0    0  0.00000000000E+00  0.00000000000E+00  0.14077452583E+04  0.17421105309E+04  0.10262564932E+04 0.  0.
        1    1    3    3  502    0 -0.66840182474E+02 -0.45711191912E+03  0.10830045295E+04  0.11774199452E+04  0.50400001928E-02 0. -1.
       -1    1    3    3    0  502  0.66840182474E+02  0.45711191912E+03  0.32474072881E+03  0.56469058569E+03  0.50400001928E-02 0.  1.
</event>
<event>
 5   0  0.5349685E-03  0.9949842E+03  0.7818609E-02  0.9314063E-01
       -1   -1    0    0    0  501  0.00000000000E+00  0.00000000000E+00  0.85919588390E+03  0.85919588391E+03  0.50400001928E-02 0. -1.
        1   -1    0    0  501    0  0.00000000000E+00  0.00000000000E+00 -0.28805818872E+03  0.28805818876E+03  0.50400001928E-02 0.  1.
    10030    2    1    2    0    0  0.00000000000E+00  0.00000000000E+00  0.57113769518E+03  0.11472540727E+04  0.99498424129E+03 0.  0.
        4    1    3    3  502    0 -0.26491044330E+03 -0.41990329224E+03  0.32203983160E+03  0.59178339267E+03  0.12699999809E+01 0.  1.
       -4    1    3    3    0  502  0.26491044330E+03  0.41990329224E+03  0.24909786357E+03  0.55547068000E+03  0.12699999809E+01 0. -1.
</event>
<event>
 5   0  0.9243773E-03  0.1085124E+04  0.7818609E-02  0.9219813E-01
       -2   -1    0    0    0  501  0.00000000000E+00  0.00000000000E+00  0.42252748986E+03  0.42252748987E+03  0.25500000920E-02 0.  1.
        2   -1    0    0  501    0  0.00000000000E+00  0.00000000000E+00 -0.69669721307E+03  0.69669721307E+03  0.25500000920E-02 0. -1.
    10030    2    1    2    0    0  0.00000000000E+00  0.00000000000E+00 -0.27416972321E+03  0.11192247029E+04  0.10851243701E+04 0.  0.
        3    1    3    3  502    0  0.30625932172E+03 -0.10198421521E+03  0.31271373186E+03  0.44942790366E+03  0.10100000352E+00 0.  1.
       -3    1    3    3    0  502 -0.30625932172E+03  0.10198421521E+03 -0.58688345507E+03  0.66979679928E+03  0.10100000352E+00 0. -1.
</event>
<event>
 5   0  0.8875655E-03  0.9452838E+03  0.7818609E-02  0.9370680E-01
       -2   -1    0    0    0  501  0.00000000000E+00  0.00000000000E+00  0.26363041397E+03  0.26363041399E+03  0.25500000920E-02 0. -1.
        2   -1    0    0  501    0  0.00000000000E+00  0.00000000000E+00 -0.84736189190E+03  0.84736189191E+03  0.25500000920E-02 0.  1.
    10030    2    1    2    0    0  0.00000000000E+00  0.00000000000E+00 -0.58373147793E+03  0.11109923059E+04  0.94528380153E+03 0.  0.
        4    1    3    3  502    0 -0.16804129239E+03 -0.26261228195E+02  0.22641532840E+03  0.28318375993E+03  0.12699999809E+01 0. -1.
       -4    1    3    3    0  502  0.16804129239E+03  0.26261228195E+02 -0.81014680633E+03  0.82780854596E+03  0.12699999809E+01 0.  1.
</event>
<event>
 5   0  0.8968798E-03  0.9812177E+03  0.7818609E-02  0.9329388E-01
        2   -1    0    0  501    0  0.00000000000E+00  0.00000000000E+00  0.48489115500E+03  0.48489115501E+03  0.25500000920E-02 0. -1.
       -2   -1    0    0    0  501  0.00000000000E+00  0.00000000000E+00 -0.49639400776E+03  0.49639400777E+03  0.25500000920E-02 0.  1.
    10030    2    1    2    0    0  0.00000000000E+00  0.00000000000E+00 -0.11502852762E+02  0.98128516277E+03  0.98121774090E+03 0.  0.
        2    1    3    3  502    0  0.95657863732E+02  0.21351123194E+03 -0.43701137937E+03  0.49569791080E+03  0.25500000920E-02 0.  1.
       -2    1    3    3    0  502 -0.95657863732E+02 -0.21351123194E+03  0.42550852661E+03  0.48558725198E+03  0.25500000920E-02 0. -1.
</event>
<event>
 5   0  0.8968798E-03  0.9909991E+03  0.7818609E-02  0.9318472E-01
       -2   -1    0    0    0  501  0.00000000000E+00  0.00000000000E+00  0.30780050535E+03  0.30780050536E+03  0.25500000920E-02 0.  1.
        2   -1    0    0  501    0  0.00000000000E+00  0.00000000000E+00 -0.79765892376E+03  0.79765892376E+03  0.25500000920E-02 0. -1.
    10030    2    1    2    0    0  0.00000000000E+00  0.00000000000E+00 -0.48985841841E+03  0.11054594291E+04  0.99099913186E+03 0.  0.
        2    1    3    3  502    0 -0.14766008356E+03  0.37314561204E+03  0.79293233048E+02  0.40905814363E+03  0.25500000920E-02 0.  1.
       -2    1    3    3    0  502  0.14766008356E+03 -0.37314561204E+03 -0.56915165146E+03  0.69640128549E+03  0.25500000920E-02 0. -1.
</event>
<event>
 5   0  0.9040674E-03  0.1101849E+04  0.7818609E-02  0.9203391E-01
        2   -1    0    0  501    0  0.00000000000E+00  0.00000000000E+00  0.10237858932E+04  0.10237858932E+04  0.25500000920E-02 0.  1.
       -2   -1    0    0    0  501  0.00000000000E+00  0.00000000000E+00 -0.29646615141E+03  0.29646615142E+03  0.25500000920E-02 0. -1.
    10030    2    1    2    0    0  0.00000000000E+00  0.00000000000E+00  0.72731974174E+03  0.13202520446E+04  0.11018491070E+04 0.  0.
        1    1    3    3  502    0  0.13791568698E+03 -0.22648318477E+02 -0.27487085296E+03  0.30836288505E+03  0.50400001928E-02 0. -1.
       -1    1    3    3    0  502 -0.13791568698E+03  0.22648318477E+02  0.10021905947E+04  0.10118891595E+04  0.50400001928E-02 0.  1.
</event>
<event>
 5   0  0.5072205E-03  0.9775698E+03  0.7818609E-02  0.9333494E-01
       -1   -1    0    0    0  501  0.00000000000E+00  0.00000000000E+00  0.45011363352E+03  0.45011363355E+03  0.50400001928E-02 0. -1.
        1   -1    0    0  501    0  0.00000000000E+00  0.00000000000E+00 -0.53077862726E+03  0.53077862728E+03  0.50400001928E-02 0.  1.
    10030    2    1    2    0    0  0.00000000000E+00  0.00000000000E+00 -0.80664993740E+02  0.98089226083E+03  0.97756983697E+03 0.  0.
        5    1    3    3  502    0 -0.87607864043E+02  0.29627187985E+03  0.33968471465E+03  0.45919490415E+03  0.46999998093E+01 0. -1.
       -5    1    3    3    0  502  0.87607864043E+02 -0.29627187985E+03 -0.42034970839E+03  0.52169735668E+03  0.46999998093E+01 0.  1.
</event>
<event>
 5   0  0.5310275E-03  0.1038000E+04  0.7818609E-02  0.9267822E-01
        1   -1    0    0  501    0  0.00000000000E+00  0.00000000000E+00  0.15341007148E+04  0.15341007148E+04  0.50400001928E-02 0. -1.
       -1   -1    0    0    0  501  0.00000000000E+00  0.00000000000E+00 -0.17558223979E+03  0.17558223986E+03  0.50400001928E-02 0.  1.
    10030    2    1    2    0    0  0.00000000000E+00  0.00000000000E+00  0.13585184750E+04  0.17096829547E+04  0.10379996910E+04 0.  0.
        1    1    3    3  502    0  0.41594514163E+03  0.26178517349E+03  0.95397851036E+03  0.10731341184E+04  0.50400001928E-02 0.  1.
       -1    1    3    3    0  502 -0.41594514163E+03 -0.26178517349E+03  0.40453996469E+03  0.63654883627E+03  0.50400001928E-02 0. -1.
</event>
<event>
 5   0  0.9040674E-03  0.1005871E+04  0.7818609E-02  0.9302129E-01
       -2   -1    0    0    0  501  0.00000000000E+00  0.00000000000E+00  0.12414093643E+03  0.12414093646E+03  0.25500000920E-02 0. -1.
        2   -1    0    0  501    0  0.00000000000E+00  0.00000000000E+00 -0.20375549561E+04  0.20375549561E+04  0.25500000920E-02 0.  1.
    10030    2    1    2    0    0  0.00000000000E+00  0.00000000000E+00 -0.19134140197E+04  0.21616958926E+04  0.10058707279E+04 0.  0.
        1    1    3    3  502    0  0.20515262752E+03  0.23998366010E+03 -0.17980494967E+04  0.18255579285E+04  0.50400001928E-02 0.  1.
       -1    1    3    3    0  502 -0.20515262752E+03 -0.23998366010E+03 -0.11536452296E+03  0.33613796405E+03  0.50400001928E-02 0. -1.
</event>
<event>
 5   0  0.5201968E-03  0.9940558E+03  0.7818609E-02  0.9315088E-01
        1   -1    0    0  501    0  0.00000000000E+00  0.00000000000E+00  0.16303047979E+04  0.16303047979E+04  0.50400001928E-02 0.  1.
       -1   -1    0    0    0  501  0.00000000000E+00  0.00000000000E+00 -0.15152792887E+03  0.15152792895E+03  0.50400001928E-02 0. -1.
    10030    2    1    2    0    0  0.00000000000E+00  0.00000000000E+00  0.14787768690E+04  0.17818327268E+04  0.99405575201E+03 0.  0.
        2    1    3    3  502    0  0.34298711297E+03  0.84948665134E+02  0.13659398801E+04  0.14109033246E+04  0.25500000920E-02 0.  1.
       -2    1    3    3    0  502 -0.34298711297E+03 -0.84948665134E+02  0.11283698895E+03  0.37092940225E+03  0.25500000920E-02 0. -1.
</event>
<event>
 5   0  0.5189877E-03  0.1006255E+04  0.7818609E-02  0.9301711E-01
        1   -1    0    0  501    0  0.00000000000E+00  0.00000000000E+00  0.11477009513E+04  0.11477009513E+04  0.50400001928E-02 0.  1.
       -1   -1    0    0    0  501  0.00000000000E+00  0.00000000000E+00 -0.22056041625E+03  0.22056041630E+03  0.50400001928E-02 0. -1.
    10030    2    1    2    0    0  0.00000000000E+00  0.00000000000E+00  0.92714053504E+03  0.13682613676E+04  0.10062552352E+04 0.  0.
        3    1    3    3  502    0  0.31745356860E+03 -0.25757586454E+03  0.86236439475E+03  0.95435551748E+03  0.10100000352E+00 0.  1.
       -3    1    3    3    0  502 -0.31745356860E+03  0.25757586454E+03  0.64776140284E+02  0.41390585012E+03  0.10100000352E+00 0. -1.
</event>
<event>
 5   0  0.5349685E-03  0.1005771E+04  0.7818609E-02  0.9302238E-01
       -1   -1    0    0    0  501  0.00000000000E+00  0.00000000000E+00  0.19334842481E+03  0.19334842487E+03  0.50400001928E-02 0. -1.
        1   -1    0    0  501    0  0.00000000000E+00  0.00000000000E+00 -0.13079681513E+04  0.13079681513E+04  0.50400001928E-02 0.  1.
    10030    2    1    2    0    0  0.00000000000E+00  0.00000000000E+00 -0.11146197265E+04  0.15013165762E+04  0.10057705142E+04 0.  0.
        4    1    3    3  502    0  0.34856420319E+03  0.14327931687E+02 -0.10979685800E+04  0.11520585527E+04  0.12699999809E+01 0. -1.
       -4    1    3    3    0  502 -0.34856420319E+03 -0.14327931687E+02 -0.16651146516E+02  0.34925802347E+03  0.12699999809E+01 0.  1.
</event>
<event>
 5   0  0.9040674E-03  0.1007456E+04  0.7818609E-02  0.9300404E-01
        2   -1    0    0  501    0  0.00000000000E+00  0.00000000000E+00  0.78933540266E+03  0.78933540266E+03  0.25500000920E-02 0.  1.
       -2   -1    0    0    0  501  0.00000000000E+00  0.00000000000E+00 -0.32146298105E+03  0.32146298106E+03  0.25500000920E-02 0. -1.
    10030    2    1    2    0    0  0.00000000000E+00  0.00000000000E+00  0.46787242161E+03  0.11107983837E+04  0.10074564241E+04 0.  0.
        1    1    3    3  502    0  0.43663890290E+03 -0.15206891302E+02  0.51036733194E+03  0.67183301095E+03  0.50400001928E-02 0.  1.
       -1    1    3    3    0  502 -0.43663890290E+03  0.15206891302E+02 -0.42494910325E+02  0.43896537277E+03  0.50400001928E-02 0. -1.
</event>
<event>
 5   0  0.5201968E-03  0.1000598E+04  0.7818609E-02  0.9307889E-01
        1   -1    0    0  501    0  0.00000000000E+00  0.00000000000E+00  0.15489609140E+03  0.15489609148E+03  0.50400001928E-02 0. -1.
       -1   -1    0    0    0  501  0.00000000000E+00  0.00000000000E+00 -0.16159164027E+04  0.16159164027E+04  0.50400001928E-02 0.  1.
    10030    2    1    2    0    0  0.00000000000E+00  0.00000000000E+00 -0.14610203113E+04  0.17708124941E+04  0.10005980909E+04 0.  0.
        2    1    3    3  502    0 -0.23801527301E+03  0.32993801692E+03 -0.12458361789E+04  0.13105793185E+04  0.25500000920E-02 0.  1.
       -2    1    3    3    0  502  0.23801527301E+03 -0.32993801692E+03 -0.21518413232E+03  0.46023317569E+03  0.25500000920E-02 0. -1.
</event>
<event>
 5   0  0.5189877E-03  0.1012069E+04  0.7818609E-02  0.9295406E-01
       -1   -1    0    0    0  501  0.00000000000E+00  0.00000000000E+00  0.27615192956E+03  0.27615192961E+03  0.50400001928E-02 0.  1.
        1   -1    0    0  501    0  0.00000000000E+00  0.00000000000E+00 -0.92728323346E+03  0.92728323348E+03  0.50400001928E-02 0. -1.
    10030    2    1    2    0    0  0.00000000000E+00  0.00000000000E+00 -0.65113130390E+03  0.12034351631E+04  0.10120692747E+04 0.  0.
        3    1    3    3  502    0 -0.49888421943E+03 -0.31481250777E+02 -0.23197856014E+03  0.55108129719E+03  0.10100000352E+00 0. -1.
       -3    1    3    3    0  502  0.49888421943E+03  0.31481250777E+02 -0.41915274376E+03  0.65235386590E+03  0.10100000352E+00 0.  1.
</event>
<event>
 5   0  0.5072205E-03  0.9975724E+03  0.7818609E-02  0.9311211E-01
       -1   -1    0    0    0  501  0.00000000000E+00  0.00000000000E+00  0.70279837159E+03  0.70279837161E+03  0.50400001928E-02 0. -1.
        1   -1    0    0  501    0  0.00000000000E+00  0.00000000000E+00 -0.35399579169E+03  0.35399579172E+03  0.50400001928E-02 0.  1.
    10030    2    1    2    0    0  0.00000000000E+00  0.00000000000E+00  0.34880257990E+03  0.10567941633E+04  0.99757238530E+03 0.  0.
        5    1    3    3  502    0  0.63037334853E+02 -0.30643963648E+03  0.58590272293E+03  0.66421611478E+03  0.46999998093E+01 0. -1.
       -5    1    3    3    0  502 -0.63037334853E+02  0.30643963648E+03 -0.23710014303E+03  0.39257804856E+03  0.46999998093E+01 0.  1.
</event>
<event>
 5   0  0.9040674E-03  0.1024124E+04  0.7818609E-02  0.9282475E-01
        2   -1    0    0  501    0  0.00000000000E+00  0.00000000000E+00  0.33770835792E+03  0.33770835793E+03  0.25500000920E-02 0. -1.
       -2   -1    0    0    0  501  0.00000000000E+00  0.00000000000E+00 -0.77643150741E+03  0.77643150741E+03  0.25500000920E-02 0.  1.
    10030    2    1    2    0    0  0.00000000000E+00  0.00000000000E+00 -0.43872314949E+03  0.11141398653E+04  0.10241238390E+04 0.  0.
        1    1    3    3  502    0 -0.78965961124E+02  0.25032123282E+03  0.25895518381E+03  0.36871958161E+03  0.50400001928E-02 0. -1.
       -1    1    3    3    0  502  0.78965961124E+02 -0.25032123282E+03 -0.69767833330E+03  0.74542028373E+03  0.50400001928E-02 0.  1.
</event>
<event>
 5   0  0.3513625E-03  0.9920733E+03  0.7818609E-02  0.9317282E-01
        3   -1    0    0  501    0  0.00000000000E+00  0.00000000000E+00  0.81024332722E+03  0.81024333352E+03  0.10100000352E+00 0.  1.
       -3   -1    0    0    0  501  0.00000000000E+00  0.00000000000E+00 -0.30367709200E+03  0.30367710880E+03  0.10100000352E+00 0. -1.
    10030    2    1    2    0    0  0.00000000000E+00  0.00000000000E+00  0.50656623522E+03  0.11139204423E+04  0.99207328416E+03 0.  0.
        4    1    3    3  502    0 -0.41886323672E+03  0.15527219475E+02  0.55112331336E+03  0.69240596838E+03  0.12699999809E+01 0.  1.
       -4    1    3    3    0  502  0.41886323672E+03 -0.15527219475E+02 -0.44557078139E+02  0.42151447393E+03  0.12699999809E+01 0. -1.
</event>
<event>
 5   0  0.5072205E-03  0.9906808E+03  0.7818609E-02  0.9318825E-01
        1   -1    0    0  501    0  0.00000000000E+00  0.00000000000E+00  0.10355746937E+04  0.10355746938E+04  0.50400001928E-02 0. -1.
       -1   -1    0    0    0  501  0.00000000000E+00  0.00000000000E+00 -0.23693330525E+03  0.23693330531E+03  0.50400001928E-02 0.  1.
    10030    2    1    2    0    0  0.00000000000E+00  0.00000000000E+00  0.79864138849E+03  0.12725079991E+04  0.99068084683E+03 0.  0.
        5    1    3    3  502    0  0.19273273325E+03 -0.26072197325E+03 -0.81661428423E+02  0.33438381045E+03  0.46999998093E+01 0.  1.
       -5    1    3    3    0  502 -0.19273273325E+03  0.26072197325E+03  0.88030281692E+03  0.93812418862E+03  0.46999998093E+01 0. -1.
</event>
<event>
 5   0  0.3513625E-03  0.9925679E+03  0.7818609E-02  0.9316734E-01
        3   -1    0    0  501    0  0.00000000000E+00  0.00000000000E+00  0.96670734929E+03  0.96670735457E+03  0.10100000352E+00 0. -1.
       -3   -1    0    0    0  501  0.00000000000E+00  0.00000000000E+00 -0.25478002126E+03  0.25478004128E+03  0.10100000352E+00 0.  1.
    10030    2    1    2    0    0  0.00000000000E+00  0.00000000000E+00  0.71192732803E+03  0.12214873958E+04  0.99256785049E+03 0.  0.
        5    1    3    3  502    0 -0.33356854882E+03 -0.15972432030E+03  0.76318219655E+03  0.84808548530E+03  0.46999998093E+01 0. -1.
       -5    1    3    3    0  502  0.33356854882E+03  0.15972432030E+03 -0.51254868521E+02  0.37340191055E+03  0.46999998093E+01 0.  1.
</event>
<event>
 5   0  0.8968798E-03  0.1007886E+04  0.7818609E-02  0.9299938E-01
       -2   -1    0    0    0  501  0.00000000000E+00  0.00000000000E+00  0.66368184148E+03  0.66368184148E+03  0.25500000920E-02 0.  1.
        2   -1    0    0  501    0  0.00000000000E+00  0.00000000000E+00 -0.38265103935E+03  0.38265103936E+03  0.25500000920E-02 0. -1.
    10030    2    1    2    0    0  0.00000000000E+00  0.00000000000E+00  0.28103080213E+03  0.10463328808E+04  0.10078859984E+04 0.  0.
        2    1    3    3  502    0  0.47583060461E+03  0.15444598463E+03  0.20357984777E+03  0.54010469436E+03  0.25500000920E-02 0.  1.
       -2    1    3    3    0  502 -0.47583060461E+03 -0.15444598463E+03  0.77450954357E+02  0.50622818648E+03  0.25500000920E-02 0. -1.
</event>
<event>
 5   0  0.5201968E-03  0.1001151E+04  0.7818609E-02  0.9307283E-01
        1   -1    0    0  501    0  0.00000000000E+00  0.00000000000E+00  0.47386010290E+03  0.47386010293E+03  0.50400001928E-02 0.  1.
       -1   -1    0    0    0  501  0.00000000000E+00  0.00000000000E+00 -0.52879730056E+03  0.52879730059E+03  0.50400001928E-02 0. -1.
    10030    2    1    2    0    0  0.00000000000E+00  0.00000000000E+00 -0.54937197657E+02  0.10026574035E+04  0.10011512239E+04 0.  0.
        2    1    3    3  502    0 -0.44886045775E+03 -0.78584863057E+02  0.18002575045E+03  0.48995975556E+03  0.25500000920E-02 0. -1.
       -2    1    3    3    0  502  0.44886045775E+03  0.78584863057E+02 -0.23496294811E+03  0.51269764796E+03  0.25500000920E-02 0.  1.
</event>
<event>
 5   0  0.8907355E-03  0.8611399E+03  0.7818609E-02  0.9475506E-01
        2   -1    0    0  501    0  0.00000000000E+00  0.00000000000E+00  0.20400550627E+03  0.20400550628E+03  0.25500000920E-02 0.  1.
       -2   -1    0    0    0  501  0.00000000000E+00  0.00000000000E+00 -0.90875236299E+03  0.90875236299E+03  0.25500000920E-02 0. -1.
    10030    2    1    2    0    0  0.00000000000E+00  0.00000000000E+00 -0.70474685672E+03  0.11127578693E+04  0.86113990941E+03 0.  0.
        5    1    3    3  502    0  0.27875399604E+03  0.15444967657E+03 -0.72646215975E+03  0.79330186717E+03  0.46999998093E+01 0. -1.
       -5    1    3    3    0  502 -0.27875399604E+03 -0.15444967657E+03  0.21715303031E+02  0.31945600211E+03  0.46999998093E+01 0.  1.
</event>
<event>
 5   0  0.8875655E-03  0.9949728E+03  0.7818609E-02  0.9314076E-01
       -2   -1    0    0    0  501  0.00000000000E+00  0.00000000000E+00  0.22141626078E+03  0.22141626079E+03  0.25500000920E-02 0. -1.
        2   -1    0    0  501    0  0.00000000000E+00  0.00000000000E+00 -0.11177711809E+04  0.11177711809E+04  0.25500000920E-02 0.  1.
    10030    2    1    2    0    0  0.00000000000E+00  0.00000000000E+00 -0.89635492009E+03  0.13391874417E+04  0.99497279416E+03 0.  0.
        4    1    3    3  502    0  0.16086874476E+03 -0.34465290597E+03 -0.16575745286E+02  0.38071084416E+03  0.12699999809E+01 0. -1.
       -4    1    3    3    0  502 -0.16086874476E+03  0.34465290597E+03 -0.87977917480E+03  0.95847659749E+03  0.12699999809E+01 0.  1.
</event>
<event>
 5   0  0.8875655E-03  0.1025176E+04  0.7818609E-02  0.9281356E-01
       -2   -1    0    0    0  501  0.00000000000E+00  0.00000000000E+00  0.94978324102E+03  0.94978324102E+03  0.25500000920E-02 0.  1.
        2   -1    0    0  501    0  0.00000000000E+00  0.00000000000E+00 -0.27663818622E+03  0.27663818623E+03  0.25500000920E-02 0. -1.
    10030    2    1    2    0    0  0.00000000000E+00  0.00000000000E+00  0.67314505479E+03  0.12264214273E+04  0.10251757178E+04 0.  0.
        4    1    3    3  502    0 -0.25158307653E+03 -0.23243791952E+03 -0.11963071823E+03  0.36281476330E+03  0.12699999809E+01 0. -1.
       -4    1    3    3    0  502  0.25158307653E+03  0.23243791952E+03  0.79277577302E+03  0.86360666395E+03  0.12699999809E+01 0.  1.
</event>
<event>
 5   0  0.5072205E-03  0.9392414E+03  0.7818609E-02  0.9377815E-01
        1   -1    0    0  501    0  0.00000000000E+00  0.00000000000E+00  0.58583215640E+03  0.58583215642E+03  0.50400001928E-02 0.  1.
       -1   -1    0    0    0  501  0.00000000000E+00  0.00000000000E+00 -0.37646212377E+03  0.37646212380E+03  0.50400001928E-02 0. -1.
    10030    2    1    2    0    0  0.00000000000E+00  0.00000000000E+00  0.20937003263E+03  0.96229428022E+03  0.93924143392E+03 0.  0.
        5    1    3    3  502    0 -0.59450770650E+02  0.42535757570E+03 -0.89865272084E+02  0.43881809268E+03  0.46999998093E+01 0. -1.
       -5    1    3    3    0  502  0.59450770650E+02 -0.42535757570E+03  0.29923530471E+03  0.52347618754E+03  0.46999998093E+01 0.  1.
</event>
<event>
 5   0  0.5072205E-03  0.1054489E+04  0.7818609E-02  0.9250722E-01
       -1   -1    0    0    0  501  0.00000000000E+00  0.00000000000E+00  0.60908058585E+03  0.60908058587E+03  0.50400001928E-02 0. -1.
        1   -1    0    0  501    0  0.00000000000E+00  0.00000000000E+00 -0.45640351388E+03  0.45640351391E+03  0.50400001928E-02 0.  1.
    10030    2    1    2    0    0  0.00000000000E+00  0.00000000000E+00  0.15267707197E+03  0.10654840998E+04  0.10544885389E+04 0.  0.
        5    1    3    3  502    0 -0.12553651627E+03  0.39710510916E+03  0.40299354418E+03  0.57954962797E+03  0.46999998093E+01 0. -1.
       -5    1    3    3    0  502  0.12553651627E+03 -0.39710510916E+03 -0.25031647221E+03  0.48593447181E+03  0.46999998093E+01 0.  1.
</event>
<event>
 5   0  0.5072205E-03  0.1042870E+04  0.7818609E-02  0.9262736E-01
       -1   -1    0    0    0  501  0.00000000000E+00  0.00000000000E+00  0.28956905822E+03  0.28956905827E+03  0.50400001928E-02 0. -1.
        1   -1    0    0  501    0  0.00000000000E+00  0.00000000000E+00 -0.93896254252E+03  0.93896254254E+03  0.50400001928E-02 0.  1.
    10030    2    1    2    0    0  0.00000000000E+00  0.00000000000E+00 -0.64939348430E+03  0.12285316008E+04  0.10428700766E+04 0.  0.
        5    1    3    3  502    0 -0.97630285225E+02  0.43741604566E+03 -0.10783539841E+02  0.44833340755E+03  0.46999998093E+01 0. -1.
       -5    1    3    3    0  502  0.97630285225E+02 -0.43741604566E+03 -0.63860994446E+03  0.78019819325E+03  0.46999998093E+01 0.  1.
</event>
<event>
 5   0  0.8875655E-03  0.9976580E+03  0.7818609E-02  0.9311117E-01
        2   -1    0    0  501    0  0.00000000000E+00  0.00000000000E+00  0.97353837471E+03  0.97353837472E+03  0.25500000920E-02 0. -1.
       -2   -1    0    0    0  501  0.00000000000E+00  0.00000000000E+00 -0.25559379004E+03  0.25559379005E+03  0.25500000920E-02 0.  1.
    10030    2    1    2    0    0  0.00000000000E+00  0.00000000000E+00  0.71794458468E+03  0.12291321648E+04  0.99765798338E+03 0.  0.
        4    1    3    3  502    0 -0.37753172576E+03 -0.18481471485E+03  0.28061300648E+02  0.42127868718E+03  0.12699999809E+01 0.  1.
       -4    1    3    3    0  502  0.37753172576E+03  0.18481471485E+03  0.68988328403E+03  0.80785347759E+03  0.12699999809E+01 0. -1.
</event>
<event>
 5   0  0.8907355E-03  0.1027025E+04  0.7818609E-02  0.9279391E-01
       -2   -1    0    0    0  501  0.00000000000E+00  0.00000000000E+00  0.27156020814E+03  0.27156020815E+03  0.25500000920E-02 0.  1.
        2   -1    0    0  501    0  0.00000000000E+00  0.00000000000E+00 -0.97103695074E+03  0.97103695074E+03  0.25500000920E-02 0. -1.
    10030    2    1    2    0    0  0.00000000000E+00  0.00000000000E+00 -0.69947674260E+03  0.12425971589E+04  0.10270248224E+04 0.  0.
        5    1    3    3  502    0 -0.25069030102E+03  0.40666345372E+03 -0.57754716784E+03  0.74953559802E+03  0.46999998093E+01 0. -1.
       -5    1    3    3    0  502  0.25069030102E+03 -0.40666345372E+03 -0.12192957476E+03  0.49306156088E+03  0.46999998093E+01 0.  1.
</event>
<event>
 5   0  0.5189877E-03  0.1045618E+04  0.7818609E-02  0.9259880E-01
        1   -1    0    0  501    0  0.00000000000E+00  0.00000000000E+00  0.96863884738E+03  0.96863884739E+03  0.50400001928E-02 0. -1.
       -1   -1    0    0    0  501  0.00000000000E+00  0.00000000000E+00 -0.28217871839E+03  0.28217871844E+03  0.50400001928E-02 0.  1.
    10030    2    1    2    0    0  0.00000000000E+00  0.00000000000E+00  0.68646012898E+03  0.12508175658E+04  0.10456180346E+04 0.  0.
        3    1    3    3  502    0 -0.27755339451E+03 -0.23212758915E+03 -0.10820094101E+03  0.37765931510E+03  0.10100000352E+00 0.  1.
       -3    1    3    3    0  502  0.27755339451E+03  0.23212758915E+03  0.79466107000E+03  0.87315825073E+03  0.10100000352E+00 0. -1.
</event>
<event>
 5   0  0.8875655E-03  0.1008870E+04  0.7818609E-02  0.9298869E-01
        2   -1    0    0  501    0  0.00000000000E+00  0.00000000000E+00  0.14581758990E+04  0.14581758990E+04  0.25500000920E-02 0. -1.
       -2   -1    0    0    0  501  0.00000000000E+00  0.00000000000E+00 -0.17450204450E+03  0.17450204452E+03  0.25500000920E-02 0.  1.
    10030    2    1    2    0    0  0.00000000000E+00  0.00000000000E+00  0.12836738545E+04  0.16326779436E+04  0.10088700127E+04 0.  0.
        4    1    3    3  502    0 -0.34215666561E+03  0.35041609776E+03  0.83731563864E+03  0.97003181236E+03  0.12699999809E+01 0. -1.
       -4    1    3    3    0  502  0.34215666561E+03 -0.35041609776E+03  0.44635821588E+03  0.66264613119E+03  0.12699999809E+01 0.  1.
</event>
<event>
 5   0  0.9040674E-03  0.1028009E+04  0.7818609E-02  0.9278347E-01
       -2   -1    0    0    0  501  0.00000000000E+00  0.00000000000E+00  0.79479973485E+03  0.79479973485E+03  0.25500000920E-02 0. -1.
        2   -1    0    0  501    0  0.00000000000E+00  0.00000000000E+00 -0.33241175724E+03  0.33241175725E+03  0.25500000920E-02 0.  1.
    10030    2    1    2    0    0  0.00000000000E+00  0.00000000000E+00  0.46238797761E+03  0.11272114921E+04  0.10280092928E+04 0.  0.
        1    1    3    3  502    0  0.39011538401E+03  0.30646528174E+03  0.37867129184E+03  0.62410169767E+03  0.50400001928E-02 0. -1.
       -1    1    3    3    0  502 -0.39011538401E+03 -0.30646528174E+03  0.83716685770E+02  0.50310979443E+03  0.50400001928E-02 0.  1.
</event>
<event>
 5   0  0.3513625E-03  0.9849942E+03  0.7818609E-02  0.9325158E-01
       -3   -1    0    0    0  501  0.00000000000E+00  0.00000000000E+00  0.25499817883E+03  0.25499819883E+03  0.10100000352E+00 0.  1.
        3   -1    0    0  501    0  0.00000000000E+00  0.00000000000E+00 -0.95119659732E+03  0.95119660268E+03  0.10100000352E+00 0. -1.
    10030    2    1    2    0    0  0.00000000000E+00  0.00000000000E+00 -0.69619841849E+03  0.12061948015E+04  0.98499424430E+03 0.  0.
        5    1    3    3  502    0 -0.24823828565E+03  0.11633613063E+03 -0.84908918170E+03  0.89226166018E+03  0.46999998093E+01 0. -1.
       -5    1    3    3    0  502  0.24823828565E+03 -0.11633613063E+03  0.15289076321E+03  0.31393314133E+03  0.46999998093E+01 0.  1.
</event>
<event>
 5   0  0.5310275E-03  0.9909372E+03  0.7818609E-02  0.9318541E-01
       -1   -1    0    0    0  501  0.00000000000E+00  0.00000000000E+00  0.52010100096E+03  0.52010100098E+03  0.50400001928E-02 0.  1.
        1   -1    0    0  501    0  0.00000000000E+00  0.00000000000E+00 -0.47200282629E+03  0.47200282632E+03  0.50400001928E-02 0. -1.
    10030    2    1    2    0    0  0.00000000000E+00  0.00000000000E+00  0.48098174668E+02  0.99210382730E+03  0.99093721786E+03 0.  0.
        1    1    3    3  502    0  0.29933838964E+03 -0.37124594434E+03  0.15860269391E+03  0.50257520556E+03  0.50400001928E-02 0. -1.
       -1    1    3    3    0  502 -0.29933838964E+03  0.37124594434E+03 -0.11050451924E+03  0.48952862174E+03  0.50400001928E-02 0.  1.
</event>
<event>
 5   0  0.9243773E-03  0.9876041E+03  0.7818609E-02  0.9322246E-01
        2   -1    0    0  501    0  0.00000000000E+00  0.00000000000E+00  0.60187974283E+03  0.60187974283E+03  0.25500000920E-02 0.  1.
       -2   -1    0    0    0  501  0.00000000000E+00  0.00000000000E+00 -0.40513154635E+03  0.40513154635E+03  0.25500000920E-02 0. -1.
    10030    2    1    2    0    0  0.00000000000E+00  0.00000000000E+00  0.19674819648E+03  0.10070112892E+04  0.98760411286E+03 0.  0.
        3    1    3    3  502    0 -0.37891398676E+03  0.35368700668E+02  0.41922192966E+03  0.56619236207E+03  0.10100000352E+00 0.  1.
       -3    1    3    3    0  502  0.37891398676E+03 -0.35368700668E+02 -0.22247373318E+03  0.44081892712E+03  0.10100000352E+00 0. -1.
</event>
<event>
 5   0  0.5189877E-03  0.9897205E+03  0.7818609E-02  0.9319892E-01
       -1   -1    0    0    0  501  0.00000000000E+00  0.00000000000E+00  0.48001250390E+03  0.48001250393E+03  0.50400001928E-02 0.  1.
        1   -1    0    0  501    0  0.00000000000E+00  0.00000000000E+00 -0.51016725735E+03  0.51016725737E+03  0.50400001928E-02 0. -1.
    10030    2    1    2    0    0  0.00000000000E+00  0.00000000000E+00 -0.30154753448E+02  0.99017976130E+03  0.98972049111E+03 0.  0.
        3    1    3    3  502    0 -0.42262627581E+03  0.17167989250E+03  0.17684411489E+03  0.48924513863E+03  0.10100000352E+00 0.  1.
       -3    1    3    3    0  502  0.42262627581E+03 -0.17167989250E+03 -0.20699886834E+03  0.50093462267E+03  0.10100000352E+00 0. -1.
</event>
<event>
 5   0  0.5072205E-03  0.1011405E+04  0.7818609E-02  0.9296124E-01
        1   -1    0    0  501    0  0.00000000000E+00  0.00000000000E+00  0.68568932880E+03  0.68568932882E+03  0.50400001928E-02 0. -1.
       -1   -1    0    0    0  501  0.00000000000E+00  0.00000000000E+00 -0.37296014099E+03  0.37296014102E+03  0.50400001928E-02 0.  1.
    10030    2    1    2    0    0  0.00000000000E+00  0.00000000000E+00  0.31272918781E+03  0.10586494698E+04  0.10114045457E+04 0.  0.
        5    1    3    3  502    0 -0.47960133157E+02 -0.43146313740E+03 -0.11507935284E+03  0.44913913296E+03  0.46999998093E+01 0.  1.
       -5    1    3    3    0  502  0.47960133157E+02  0.43146313740E+03  0.42780854065E+03  0.60951033688E+03  0.46999998093E+01 0. -1.
</event>
<event>
 5   0  0.3513625E-03  0.9612011E+03  0.7818609E-02  0.9352153E-01
       -3   -1    0    0    0  501  0.00000000000E+00  0.00000000000E+00  0.30804449101E+03  0.30804450757E+03  0.10100000352E+00 0.  1.
        3   -1    0    0  501    0  0.00000000000E+00  0.00000000000E+00 -0.74981664704E+03  0.74981665384E+03  0.10100000352E+00 0. -1.
    10030    2    1    2    0    0  0.00000000000E+00  0.00000000000E+00 -0.44177215603E+03  0.10578611614E+04  0.96120112306E+03 0.  0.
        3    1    3    3  502    0  0.30670985450E+03 -0.15343851192E+03 -0.59143816146E+03  0.68367640066E+03  0.10100000352E+00 0. -1.
       -3    1    3    3    0  502 -0.30670985450E+03  0.15343851192E+03  0.14966600543E+03  0.37418476074E+03  0.10100000352E+00 0.  1.
</event>
<event>
 5   0  0.5310275E-03  0.1005123E+04  0.7818609E-02  0.9302943E-01
        1   -1    0    0  501    0  0.00000000000E+00  0.00000000000E+00  0.14042485292E+04  0.14042485292E+04  0.50400001928E-02 0.  1.
       -1   -1    0    0    0  501  0.00000000000E+00  0.00000000000E+00 -0.17986004480E+03  0.17986004487E+03  0.50400001928E-02 0. -1.
    10030    2    1    2    0    0  0.00000000000E+00  0.00000000000E+00  0.12243884844E+04  0.15841085740E+04  0.10051232828E+04 0.  0.
        1    1    3    3  502    0  0.37099663300E+03 -0.44243862646E+02  0.11419203411E+04  0.12014899444E+04  0.50400001928E-02 0.  1.
       -1    1    3    3    0  502 -0.37099663300E+03  0.44243862646E+02  0.82468143295E+02  0.38261862966E+03  0.50400001928E-02 0. -1.
</event>
<event>
 5   0  0.5310275E-03  0.1011640E+04  0.7818609E-02  0.9295869E-01
       -1   -1    0    0    0  501  0.00000000000E+00  0.00000000000E+00  0.33243281099E+03  0.33243281102E+03  0.50400001928E-02 0. -1.
        1   -1    0    0  501    0  0.00000000000E+00  0.00000000000E+00 -0.76964155423E+03  0.76964155425E+03  0.50400001928E-02 0.  1.
    10030    2    1    2    0    0  0.00000000000E+00  0.00000000000E+00 -0.43720874324E+03  0.11020743653E+04  0.10116404605E+04 0.  0.
        1    1    3    3  502    0 -0.25628098398E+03  0.23760862775E+03 -0.61696544114E+03  0.70907274543E+03  0.50400001928E-02 0.  1.
       -1    1    3    3    0  502  0.25628098398E+03 -0.23760862775E+03  0.17975669790E+03  0.39300161984E+03  0.50400001928E-02 0. -1.
</event>
<event>
 5   0  0.3513625E-03  0.9696844E+03  0.7818609E-02  0.9342434E-01
        3   -1    0    0  501    0  0.00000000000E+00  0.00000000000E+00  0.21992570154E+03  0.21992572473E+03  0.10100000352E+00 0.  1.
       -3   -1    0    0    0  501  0.00000000000E+00  0.00000000000E+00 -0.10688697096E+04  0.10688697143E+04  0.10100000352E+00 0. -1.
    10030    2    1    2    0    0  0.00000000000E+00  0.00000000000E+00 -0.84894400802E+03  0.12887954391E+04  0.96968435844E+03 0.  0.
        5    1    3    3  502    0 -0.42221649878E+03  0.15353662947E+03 -0.66667822515E+03  0.80394167345E+03  0.46999998093E+01 0. -1.
       -5    1    3    3    0  502  0.42221649878E+03 -0.15353662947E+03 -0.18226578288E+03  0.48485376562E+03  0.46999998093E+01 0.  1.
</event>
<event>
 5   0  0.9243773E-03  0.9958505E+03  0.7818609E-02  0.9313108E-01
       -2   -1    0    0    0  501  0.00000000000E+00  0.00000000000E+00  0.52597734282E+03  0.52597734282E+03  0.25500000920E-02 0.  1.
        2   -1    0    0  501    0  0.00000000000E+00  0.00000000000E+00 -0.47136923406E+03  0.47136923407E+03  0.25500000920E-02 0. -1.
    10030    2    1    2    0    0  0.00000000000E+00  0.00000000000E+00  0.54608108752E+02  0.99734657689E+03  0.99585046513E+03 0.  0.
        3    1    3    3  502    0 -0.22531814179E+03  0.43795805838E+03  0.10058502262E+03  0.50268567008E+03  0.10100000352E+00 0. -1.
       -3    1    3    3    0  502  0.22531814179E+03 -0.43795805838E+03 -0.45976913872E+02  0.49466090682E+03  0.10100000352E+00 0.  1.
</event>
<event>
 5   0  0.5310275E-03  0.8985187E+03  0.7818609E-02  0.9427435E-01
        1   -1    0    0  501    0  0.00000000000E+00  0.00000000000E+00  0.96692378345E+03  0.96692378346E+03  0.50400001928E-02 0. -1.
       -1   -1    0    0    0  501  0.00000000000E+00  0.00000000000E+00 -0.20873824149E+03  0.20873824155E+03  0.50400001928E-02 0.  1.
    10030    2    1    2    0    0  0.00000000000E+00  0.00000000000E+00  0.75818554196E+03  0.11756620250E+04  0.89851871489E+03 0.  0.
        1    1    3    3  502    0  0.65571301967E+02 -0.39711425206E+03  0.11794529016E+03  0.41941675733E+03  0.50400001928E-02 0.  1.
       -1    1    3    3    0  502 -0.65571301967E+02  0.39711425206E+03  0.64024025180E+03  0.75624526768E+03  0.50400001928E-02 0. -1.
</event>
<event>
 5   0  0.5201968E-03  0.1011463E+04  0.7818609E-02  0.9296061E-01
       -1   -1    0    0    0  501  0.00000000000E+00  0.00000000000E+00  0.28818372992E+03  0.28818372996E+03  0.50400001928E-02 0. -1.
        1   -1    0    0  501    0  0.00000000000E+00  0.00000000000E+00 -0.88750525548E+03  0.88750525550E+03  0.50400001928E-02 0.  1.
    10030    2    1    2    0    0  0.00000000000E+00  0.00000000000E+00 -0.59932152556E+03  0.11756889855E+04  0.10114634445E+04 0.  0.
        2    1    3    3  502    0  0.24959906617E+03  0.19717018880E+03 -0.75667661852E+03  0.82081379265E+03  0.25500000920E-02 0.  1.
       -2    1    3    3    0  502 -0.24959906617E+03 -0.19717018880E+03  0.15735509296E+03  0.35487519281E+03  0.25500000920E-02 0. -1.
</event>
<event>
 5   0  0.5189877E-03  0.1001026E+04  0.7818609E-02  0.9307420E-01
        1   -1    0    0  501    0  0.00000000000E+00  0.00000000000E+00  0.63751484162E+03  0.63751484164E+03  0.50400001928E-02 0.  1.
       -1   -1    0    0    0  501  0.00000000000E+00  0.00000000000E+00 -0.39295283773E+03  0.39295283776E+03  0.50400001928E-02 0. -1.
    10030    2    1    2    0    0  0.00000000000E+00  0.00000000000E+00  0.24456200389E+03  0.10304676794E+04  0.10010260059E+04 0.  0.
        3    1    3    3  502    0  0.20052314491E+03  0.16024995913E+03 -0.32003505971E+03  0.41025849253E+03  0.10100000352E+00 0. -1.
       -3    1    3    3    0  502 -0.20052314491E+03 -0.16024995913E+03  0.56459706360E+03  0.62020918687E+03  0.10100000352E+00 0.  1.
</event>
<event>
 5   0  0.8875655E-03  0.9843183E+03  0.7818609E-02  0.9325913E-01
       -2   -1    0    0    0  501  0.00000000000E+00  0.00000000000E+00  0.31857847987E+03  0.31857847988E+03  0.25500000920E-02 0.  1.
        2   -1    0    0  501    0  0.00000000000E+00  0.00000000000E+00 -0.76031700917E+03  0.76031700918E+03  0.25500000920E-02 0. -1.
    10030    2    1    2    0    0  0.00000000000E+00  0.00000000000E+00 -0.44173852930E+03  0.10788954891E+04  0.98431831642E+03 0.  0.
        4    1    3    3  502    0  0.13247284073E+03  0.23576890768E+02  0.29802444006E+03  0.32699404136E+03  0.12699999809E+01 0.  1.
       -4    1    3    3    0  502 -0.13247284073E+03 -0.23576890768E+02 -0.73976296936E+03  0.75190144770E+03  0.12699999809E+01 0. -1.
</event>
<event>
 5   0  0.9243773E-03  0.1001040E+04  0.7818609E-02  0.9307404E-01
       -2   -1    0    0    0  501  0.00000000000E+00  0.00000000000E+00  0.60667897944E+03  0.60667897945E+03  0.25500000920E-02 0.  1.
        2   -1    0    0  501    0  0.00000000000E+00  0.00000000000E+00 -0.41293751728E+03  0.41293751728E+03  0.25500000920E-02 0. -1.
    10030    2    1    2    0    0  0.00000000000E+00  0.00000000000E+00  0.19374146217E+03  0.10196164967E+04  0.10010404818E+04 0.  0.
        3    1    3    3  502    0  0.18136159785E+03 -0.10160928072E+03  0.56062623976E+03  0.59792831177E+03  0.10100000352E+00 0.  1.
       -3    1    3    3    0  502 -0.18136159785E+03  0.10160928072E+03 -0.36688477760E+03  0.42168818496E+03  0.10100000352E+00 0. -1.
</event>
<event>
 5   0  0.5349685E-03  0.9887959E+03  0.7818609E-02  0.9320919E-01
       -1   -1    0    0    0  501  0.00000000000E+00  0.00000000000E+00  0.99296306102E+03  0.99296306104E+03  0.50400001928E-02 0. -1.
        1   -1    0    0  501    0  0.00000000000E+00  0.00000000000E+00 -0.24616154861E+03  0.24616154866E+03  0.50400001928E-02 0.  1.
    10030    2    1    2    0    0  0.00000000000E+00  0.00000000000E+00  0.74680151242E+03  0.12391246097E+04  0.98879588359E+03 0.  0.
        4    1    3    3  502    0 -0.36883858933E+03  0.25557269800E+03  0.11333227776E+03  0.46282299750E+03  0.12699999809E+01 0.  1.
       -4    1    3    3    0  502  0.36883858933E+03 -0.25557269800E+03  0.63346923466E+03  0.77630161219E+03  0.12699999809E+01 0. -1.
</event>
<event>
 5   0  0.5201968E-03  0.1002878E+04  0.7818609E-02  0.9305394E-01
        1   -1    0    0  501    0  0.00000000000E+00  0.00000000000E+00  0.10640241827E+04  0.10640241827E+04  0.50400001928E-02 0. -1.
       -1   -1    0    0    0  501  0.00000000000E+00  0.00000000000E+00 -0.23631138043E+03  0.23631138049E+03  0.50400001928E-02 0.  1.
    10030    2    1    2    0    0  0.00000000000E+00  0.00000000000E+00  0.82771280226E+03  0.13003355632E+04  0.10028779058E+04 0.  0.
        2    1    3    3  502    0  0.26905934294E+03  0.38515886273E+03  0.18667026454E+03  0.50555520691E+03  0.25500000920E-02 0.  1.
       -2    1    3    3    0  502 -0.26905934294E+03 -0.38515886273E+03  0.64104253771E+03  0.79478035628E+03  0.25500000920E-02 0. -1.
</event>
<event>
 5   0  0.5349685E-03  0.9826825E+03  0.7818609E-02  0.9327745E-01
       -1   -1    0    0    0  501  0.00000000000E+00  0.00000000000E+00  0.64363576718E+03  0.64363576720E+03  0.50400001928E-02 0.  1.
        1   -1    0    0  501    0  0.00000000000E+00  0.00000000000E+00 -0.37508207715E+03  0.37508207719E+03  0.50400001928E-02 0. -1.
    10030    2    1    2    0    0  0.00000000000E+00  0.00000000000E+00  0.26855369002E+03  0.10187178444E+04  0.98268253370E+03 0.  0.
        4    1    3    3  502    0  0.26184943766E+03 -0.41330671238E+03  0.18095074564E+03  0.52166306343E+03  0.12699999809E+01 0.  1.
       -4    1    3    3    0  502 -0.26184943766E+03  0.41330671238E+03  0.87602944380E+02  0.49705478095E+03  0.12699999809E+01 0. -1.
</event>
<event>
 5   0  0.5310275E-03  0.9942896E+03  0.7818609E-02  0.9314830E-01
        1   -1    0    0  501    0  0.00000000000E+00  0.00000000000E+00  0.61729648061E+03  0.61729648063E+03  0.50400001928E-02 0.  1.
       -1   -1    0    0    0  501  0.00000000000E+00  0.00000000000E+00 -0.40037967101E+03  0.40037967105E+03  0.50400001928E-02 0. -1.
    10030    2    1    2    0    0  0.00000000000E+00  0.00000000000E+00  0.21691680960E+03  0.10176761517E+04  0.99428961948E+03 0.  0.
        1    1    3    3  502    0  0.10376647958E+03 -0.25906368706E+02 -0.38846527632E+03  0.40291921418E+03  0.50400001928E-02 0. -1.
       -1    1    3    3    0  502 -0.10376647958E+03  0.25906368706E+02  0.60538208592E+03  0.61475693750E+03  0.50400001928E-02 0.  1.
</event>
<event>
 5   0  0.5072205E-03  0.1226583E+04  0.7818609E-02  0.9089901E-01
        1   -1    0    0  501    0  0.00000000000E+00  0.00000000000E+00  0.93470483766E+03  0.93470483767E+03  0.50400001928E-02 0. -1.
       -1   -1    0    0    0  501  0.00000000000E+00  0.00000000000E+00 -0.40240149440E+03  0.40240149444E+03  0.50400001928E-02 0.  1.
    10030    2    1    2    0    0  0.00000000000E+00  0.00000000000E+00  0.53230334325E+03  0.13371063321E+04  0.12265832602E+04 0.  0.
        5    1    3    3  502    0 -0.30811859761E+03  0.17997169799E+03 -0.27756743392E+03  0.45209805645E+03  0.46999998093E+01 0.  1.
       -5    1    3    3    0  502  0.30811859761E+03 -0.17997169799E+03  0.80987077717E+03  0.88500827566E+03  0.46999998093E+01 0. -1.
</event>
<event>
 5   0  0.5349685E-03  0.1087017E+04  0.7818609E-02  0.9217939E-01
        1   -1    0    0  501    0  0.00000000000E+00  0.00000000000E+00  0.29724833083E+03  0.29724833087E+03  0.50400001928E-02 0.  1.
       -1   -1    0    0    0  501  0.00000000000E+00  0.00000000000E+00 -0.99378762611E+03  0.99378762612E+03  0.50400001928E-02 0. -1.
    10030    2    1    2    0    0  0.00000000000E+00  0.00000000000E+00 -0.69653929528E+03  0.12910359570E+04  0.10870174113E+04 0.  0.
        4    1    3    3  502    0 -0.28446533511E+02  0.22547147426E+03  0.23810782330E+03  0.32915579805E+03  0.12699999809E+01 0.  1.
       -4    1    3    3    0  502  0.28446533511E+02 -0.22547147426E+03 -0.93464711858E+03  0.96188015893E+03  0.12699999809E+01 0. -1.
</event>
<event>
 5   0  0.8875655E-03  0.1023074E+04  0.7818609E-02  0.9283593E-01
       -2   -1    0    0    0  501  0.00000000000E+00  0.00000000000E+00  0.23412474098E+03  0.23412474099E+03  0.25500000920E-02 0.  1.
        2   -1    0    0  501    0  0.00000000000E+00  0.00000000000E+00 -0.11176528348E+04  0.11176528348E+04  0.25500000920E-02 0. -1.
    10030    2    1    2    0    0  0.00000000000E+00  0.00000000000E+00 -0.88352809385E+03  0.13517775758E+04  0.10230741527E+04 0.  0.
        4    1    3    3  502    0 -0.45029185653E+03  0.15901964356E+03 -0.19950070288E+03  0.51754434249E+03  0.12699999809E+01 0. -1.
       -4    1    3    3    0  502  0.45029185653E+03 -0.15901964356E+03 -0.68402739096E+03  0.83423323332E+03  0.12699999809E+01 0.  1.
</event>
<event>
 5   0  0.3513625E-03  0.9852344E+03  0.7818609E-02  0.9324889E-01
        3   -1    0    0  501    0  0.00000000000E+00  0.00000000000E+00  0.18379165860E+03  0.18379168635E+03  0.10100000352E+00 0. -1.
       -3   -1    0    0    0  501  0.00000000000E+00  0.00000000000E+00 -0.13203627857E+04  0.13203627896E+04  0.10100000352E+00 0.  1.
    10030    2    1    2    0    0  0.00000000000E+00  0.00000000000E+00 -0.11365711271E+04  0.15041544759E+04  0.98523436830E+03 0.  0.
        1    1    3    3  502    0  0.76098706403E+02  0.31085922162E+03 -0.11400274628E+04  0.11840975825E+04  0.50400001928E-02 0.  1.
       -1    1    3    3    0  502 -0.76098706403E+02 -0.31085922162E+03  0.34563357048E+01  0.32005689348E+03  0.50400001928E-02 0. -1.
</event>
<event>
 5   0  0.8875655E-03  0.1017274E+04  0.7818609E-02  0.9289799E-01
        2   -1    0    0  501    0  0.00000000000E+00  0.00000000000E+00  0.14873272400E+04  0.14873272400E+04  0.25500000920E-02 0.  1.
       -2   -1    0    0    0  501  0.00000000000E+00  0.00000000000E+00 -0.17394394527E+03  0.17394394529E+03  0.25500000920E-02 0. -1.
    10030    2    1    2    0    0  0.00000000000E+00  0.00000000000E+00  0.13133832947E+04  0.16612711853E+04  0.10172739416E+04 0.  0.
        4    1    3    3  502    0  0.50251207819E+03  0.70556536390E+02  0.59980711983E+03  0.78566329140E+03  0.12699999809E+01 0. -1.
       -4    1    3    3    0  502 -0.50251207819E+03 -0.70556536390E+02  0.71357617488E+03  0.87560789387E+03  0.12699999809E+01 0.  1.
</event>
<event>
 5   0  0.5310275E-03  0.9992491E+03  0.7818609E-02  0.9309369E-01
        1   -1    0    0  501    0  0.00000000000E+00  0.00000000000E+00  0.14009817389E+04  0.14009817389E+04  0.50400001928E-02 0.  1.
       -1   -1    0    0    0  501  0.00000000000E+00  0.00000000000E+00 -0.17817840425E+03  0.17817840432E+03  0.50400001928E-02 0. -1.
    10030    2    1    2    0    0  0.00000000000E+00  0.00000000000E+00  0.12228033346E+04  0.15791601432E+04  0.99924909944E+03 0.  0.
        1    1    3    3  502    0  0.44761090702E+03  0.22107860152E+03  0.64274750017E+03  0.81385233374E+03  0.50400001928E-02 0. -1.
       -1    1    3    3    0  502 -0.44761090702E+03 -0.22107860152E+03  0.58005583445E+03  0.76530780947E+03  0.50400001928E-02 0.  1.
</event>
<event>
 5   0  0.5349685E-03  0.1034793E+04  0.7818609E-02  0.9271187E-01
        1   -1    0    0  501    0  0.00000000000E+00  0.00000000000E+00  0.11449559662E+04  0.11449559662E+04  0.50400001928E-02 0.  1.
       -1   -1    0    0    0  501  0.00000000000E+00  0.00000000000E+00 -0.23380739308E+03  0.23380739313E+03  0.50400001928E-02 0. -1.
    10030    2    1    2    0    0  0.00000000000E+00  0.00000000000E+00  0.91114857312E+03  0.13787633593E+04  0.10347930608E+04 0.  0.
        4    1    3    3  502    0 -0.21864849426E+03 -0.11479427157E+03 -0.15021246605E+03  0.28905066456E+03  0.12699999809E+01 0. -1.
       -4    1    3    3    0  502  0.21864849426E+03  0.11479427157E+03  0.10613610392E+04  0.10897126948E+04  0.12699999809E+01 0.  1.
</event>
<event>
 5   0  0.8875655E-03  0.9678010E+03  0.7818609E-02  0.9344583E-01
        2   -1    0    0  501    0  0.00000000000E+00  0.00000000000E+00  0.98420605947E+03  0.98420605947E+03  0.25500000920E-02 0.  1.
       -2   -1    0    0    0  501  0.00000000000E+00  0.00000000000E+00 -0.23791733391E+03  0.23791733392E+03  0.25500000920E-02 0. -1.
    10030    2    1    2    0    0  0.00000000000E+00  0.00000000000E+00  0.74628872556E+03  0.12221233934E+04  0.96780097477E+03 0.  0.
        4    1    3    3  502    0 -0.19643978715E+03 -0.37041259172E+03  0.67821576056E+03  0.79735331494E+03  0.12699999809E+01 0.  1.
       -4    1    3    3    0  502  0.19643978715E+03  0.37041259172E+03  0.68072965005E+02  0.42477007845E+03  0.12699999809E+01 0. -1.
</event>
<event>
 5   0  0.8875655E-03  0.9990591E+03  0.7818609E-02  0.9309577E-01
       -2   -1    0    0    0  501  0.00000000000E+00  0.00000000000E+00  0.48374136495E+03  0.48374136496E+03  0.25500000920E-02 0.  1.
        2   -1    0    0  501    0  0.00000000000E+00  0.00000000000E+00 -0.51583299427E+03  0.51583299428E+03  0.25500000920E-02 0. -1.
    10030    2    1    2    0    0  0.00000000000E+00  0.00000000000E+00 -0.32091629322E+02  0.99957435924E+03  0.99905907081E+03 0.  0.
        4    1    3    3  502    0 -0.14425817426E+03  0.33917283603E+03 -0.35338363696E+03  0.51061750980E+03  0.12699999809E+01 0. -1.
       -4    1    3    3    0  502  0.14425817426E+03 -0.33917283603E+03  0.32129200764E+03  0.48895684944E+03  0.12699999809E+01 0.  1.
</event>
<event>
 5   0  0.8907355E-03  0.9783155E+03  0.7818609E-02  0.9332653E-01
        2   -1    0    0  501    0  0.00000000000E+00  0.00000000000E+00  0.24456507758E+03  0.24456507759E+03  0.25500000920E-02 0. -1.
       -2   -1    0    0    0  501  0.00000000000E+00  0.00000000000E+00 -0.97837060282E+03  0.97837060282E+03  0.25500000920E-02 0.  1.
    10030    2    1    2    0    0  0.00000000000E+00  0.00000000000E+00 -0.73380552524E+03  0.12229356804E+04  0.97831545503E+03 0.  0.
        5    1    3    3  502    0 -0.49934366962E+02  0.45944011825E+03 -0.56720045482E+03  0.73165368119E+03  0.46999998093E+01 0. -1.
       -5    1    3    3    0  502  0.49934366962E+02 -0.45944011825E+03 -0.16660507042E+03  0.49128199921E+03  0.46999998093E+01 0.  1.
</event>
<event>
 5   0  0.9040674E-03  0.9967940E+03  0.7818609E-02  0.9312068E-01
        2   -1    0    0  501    0  0.00000000000E+00  0.00000000000E+00  0.11375927290E+04  0.11375927290E+04  0.25500000920E-02 0.  1.
       -2   -1    0    0    0  501  0.00000000000E+00  0.00000000000E+00 -0.21835545743E+03  0.21835545744E+03  0.25500000920E-02 0. -1.
    10030    2    1    2    0    0  0.00000000000E+00  0.00000000000E+00  0.91923727152E+03  0.13559481864E+04  0.99679402228E+03 0.  0.
        1    1    3    3  502    0 -0.38493069251E+03  0.16174613627E+03  0.82982808233E+03  0.92894999698E+03  0.50400001928E-02 0.  1.
       -1    1    3    3    0  502  0.38493069251E+03 -0.16174613627E+03  0.89409189191E+02  0.42699818942E+03  0.50400001928E-02 0. -1.
</event>
<event>
 5   0  0.5072205E-03  0.9979407E+03  0.7818609E-02  0.9310806E-01
       -1   -1    0    0    0  501  0.00000000000E+00  0.00000000000E+00  0.55703918740E+03  0.55703918743E+03  0.50400001928E-02 0. -1.
        1   -1    0    0  501    0  0.00000000000E+00  0.00000000000E+00 -0.44695495538E+03  0.44695495541E+03  0.50400001928E-02 0.  1.
    10030    2    1    2    0    0  0.00000000000E+00  0.00000000000E+00  0.11008423203E+03  0.10039941428E+04  0.99794073005E+03 0.  0.
        5    1    3    3  502    0  0.89401552900E+02  0.45962550090E+02 -0.43663922504E+03  0.44808603696E+03  0.46999998093E+01 0.  1.
       -5    1    3    3    0  502 -0.89401552900E+02 -0.45962550090E+02  0.54672345707E+03  0.55590810587E+03  0.46999998093E+01 0. -1.
</event>
<event>
 5   0  0.8907355E-03  0.9977184E+03  0.7818609E-02  0.9311051E-01
       -2   -1    0    0    0  501  0.00000000000E+00  0.00000000000E+00  0.20611138995E+03  0.20611138997E+03  0.25500000920E-02 0. -1.
        2   -1    0    0  501    0  0.00000000000E+00  0.00000000000E+00 -0.12074076952E+04  0.12074076952E+04  0.25500000920E-02 0.  1.
    10030    2    1    2    0    0  0.00000000000E+00  0.00000000000E+00 -0.10012963053E+04  0.14135190852E+04  0.99771835367E+03 0.  0.
        5    1    3    3  502    0 -0.22666140522E+03 -0.41170765692E+03 -0.26375050254E+03  0.53894805405E+03  0.46999998093E+01 0. -1.
       -5    1    3    3    0  502  0.22666140522E+03  0.41170765692E+03 -0.73754580273E+03  0.87457103114E+03  0.46999998093E+01 0.  1.
</event>
<event>
 5   0  0.3513625E-03  0.9984509E+03  0.7818609E-02  0.9310245E-01
       -4   -1    0    0    0  501  0.00000000000E+00  0.00000000000E+00  0.39275116204E+03  0.39275321537E+03  0.12699999809E+01 0. -1.
        4   -1    0    0  501    0  0.00000000000E+00  0.00000000000E+00 -0.63456039293E+03  0.63456166381E+03  0.12699999809E+01 0.  1.
    10030    2    1    2    0    0  0.00000000000E+00  0.00000000000E+00 -0.24180923089E+03  0.10273148792E+04  0.99845087853E+03 0.  0.
        5    1    3    3  502    0  0.49741385640E+02 -0.29541713025E+03 -0.53177104833E+03  0.61036712242E+03  0.46999998093E+01 0.  1.
       -5    1    3    3    0  502 -0.49741385640E+02  0.29541713025E+03  0.28996181744E+03  0.41694775676E+03  0.46999998093E+01 0. -1.
</event>
<event>
 5   0  0.8907355E-03  0.1009179E+04  0.7818609E-02  0.9298535E-01
       -2   -1    0    0    0  501  0.00000000000E+00  0.00000000000E+00  0.32175247759E+03  0.32175247760E+03  0.25500000920E-02 0. -1.
        2   -1    0    0  501    0  0.00000000000E+00  0.00000000000E+00 -0.79132378921E+03  0.79132378921E+03  0.25500000920E-02 0.  1.
    10030    2    1    2    0    0  0.00000000000E+00  0.00000000000E+00 -0.46957131162E+03  0.11130762668E+04  0.10091786557E+04 0.  0.
        5    1    3    3  502    0  0.86219723266E+02  0.49714574794E+03 -0.23561425327E+03  0.55688769220E+03  0.46999998093E+01 0.  1.
       -5    1    3    3    0  502 -0.86219723266E+02 -0.49714574794E+03 -0.23395705834E+03  0.55618857461E+03  0.46999998093E+01 0. -1.
</event>
<event>
 5   0  0.5189877E-03  0.1007171E+04  0.7818609E-02  0.9300715E-01
       -1   -1    0    0    0  501  0.00000000000E+00  0.00000000000E+00  0.18723331467E+03  0.18723331474E+03  0.50400001928E-02 0. -1.
        1   -1    0    0  501    0  0.00000000000E+00  0.00000000000E+00 -0.13544506419E+04  0.13544506419E+04  0.50400001928E-02 0.  1.
    10030    2    1    2    0    0  0.00000000000E+00  0.00000000000E+00 -0.11672173273E+04  0.15416839567E+04  0.10071708560E+04 0.  0.
        3    1    3    3  502    0 -0.44173051589E+03  0.23782472650E+03 -0.65053794267E+03  0.82151450033E+03  0.10100000352E+00 0.  1.
       -3    1    3    3    0  502  0.44173051589E+03 -0.23782472650E+03 -0.51667938460E+03  0.72016945636E+03  0.10100000352E+00 0. -1.
</event>
<event>
 5   0  0.5349685E-03  0.1025936E+04  0.7818609E-02  0.9280547E-01
        1   -1    0    0  501    0  0.00000000000E+00  0.00000000000E+00  0.70088996321E+03  0.70088996323E+03  0.50400001928E-02 0.  1.
       -1   -1    0    0    0  501  0.00000000000E+00  0.00000000000E+00 -0.37543160870E+03  0.37543160873E+03  0.50400001928E-02 0. -1.
    10030    2    1    2    0    0  0.00000000000E+00  0.00000000000E+00  0.32545835451E+03  0.10763215720E+04  0.10259361509E+04 0.  0.
        4    1    3    3  502    0  0.22169226962E+03  0.10808811523E+03  0.63460104511E+03  0.68084550554E+03  0.12699999809E+01 0.  1.
       -4    1    3    3    0  502 -0.22169226962E+03 -0.10808811523E+03 -0.30914269060E+03  0.39547606642E+03  0.12699999809E+01 0. -1.
</event>
<event>
 5   0  0.5189877E-03  0.1012954E+04  0.7818609E-02  0.9294450E-01
       -1   -1    0    0    0  501  0.00000000000E+00  0.00000000000E+00  0.69489642998E+03  0.69489642999E+03  0.50400001928E-02 0.  1.
        1   -1    0    0  501    0  0.00000000000E+00  0.00000000000E+00 -0.36914692186E+03  0.36914692189E+03  0.50400001928E-02 0. -1.
    10030    2    1    2    0    0  0.00000000000E+00  0.00000000000E+00  0.32574950812E+03  0.10640433519E+04  0.10129538551E+04 0.  0.
        3    1    3    3  502    0 -0.62389238044E+01  0.27837492131E+02  0.69405178393E+03  0.69463784745E+03  0.10100000352E+00 0.  1.
       -3    1    3    3    0  502  0.62389238044E+01 -0.27837492131E+02 -0.36830227581E+03  0.36940550443E+03  0.10100000352E+00 0. -1.
</event>
<event>
 5   0  0.5189877E-03  0.1001392E+04  0.7818609E-02  0.9307020E-01
        1   -1    0    0  501    0  0.00000000000E+00  0.00000000000E+00  0.52433666844E+03  0.52433666846E+03  0.50400001928E-02 0.  1.
       -1   -1    0    0    0  501  0.00000000000E+00  0.00000000000E+00 -0.47812103602E+03  0.47812103605E+03  0.50400001928E-02 0. -1.
    10030    2    1    2    0    0  0.00000000000E+00  0.00000000000E+00  0.46215632412E+02  0.10024577045E+04  0.10013918138E+04 0.  0.
        3    1    3    3  502    0  0.18461810350E+03 -0.82475434167E+02  0.48164595578E+03  0.52236852729E+03  0.10100000352E+00 0.  1.
       -3    1    3    3    0  502 -0.18461810350E+03  0.82475434167E+02 -0.43543032337E+03  0.48008917722E+03  0.10100000352E+00 0. -1.
</event>
<event>
 5   0  0.8968798E-03  0.9953187E+03  0.7818609E-02  0.9313694E-01
       -2   -1    0    0    0  501  0.00000000000E+00  0.00000000000E+00  0.20828394777E+03  0.20828394779E+03  0.25500000920E-02 0. -1.
        2   -1    0    0  501    0  0.00000000000E+00  0.00000000000E+00 -0.11890729953E+04  0.11890729953E+04  0.25500000920E-02 0.  1.
    10030    2    1    2    0    0  0.00000000000E+00  0.00000000000E+00 -0.98078904750E+03  0.13973569431E+04  0.99531867792E+03 0.  0.
        2    1    3    3  502    0  0.35549317796E+03  0.15947312124E+03 -0.55725391921E+02  0.39358911988E+03  0.25500000920E-02 0. -1.
       -2    1    3    3    0  502 -0.35549317796E+03 -0.15947312124E+03 -0.92506365558E+03  0.10037678232E+04  0.25500000920E-02 0.  1.
</event>
<event>
 5   0  0.5072205E-03  0.9913597E+03  0.7818609E-02  0.9318072E-01
        1   -1    0    0  501    0  0.00000000000E+00  0.00000000000E+00  0.97058703243E+03  0.97058703244E+03  0.50400001928E-02 0.  1.
       -1   -1    0    0    0  501  0.00000000000E+00  0.00000000000E+00 -0.25314421786E+03  0.25314421791E+03  0.50400001928E-02 0. -1.
    10030    2    1    2    0    0  0.00000000000E+00  0.00000000000E+00  0.71744281457E+03  0.12237312504E+04  0.99135966274E+03 0.  0.
        5    1    3    3  502    0  0.31010218313E+03  0.38664533356E+03  0.35342251054E+03  0.60875901546E+03  0.46999998093E+01 0. -1.
       -5    1    3    3    0  502 -0.31010218313E+03 -0.38664533356E+03  0.36402030403E+03  0.61497223489E+03  0.46999998093E+01 0.  1.
</event>
<event>
 5   0  0.5201968E-03  0.9939767E+03  0.7818609E-02  0.9315176E-01
       -1   -1    0    0    0  501  0.00000000000E+00  0.00000000000E+00  0.19048380833E+03  0.19048380840E+03  0.50400001928E-02 0.  1.
        1   -1    0    0  501    0  0.00000000000E+00  0.00000000000E+00 -0.12966845003E+04  0.12966845004E+04  0.50400001928E-02 0. -1.
    10030    2    1    2    0    0  0.00000000000E+00  0.00000000000E+00 -0.11062006920E+04  0.14871683088E+04  0.99397666349E+03 0.  0.
        2    1    3    3  502    0 -0.64837634889E+02  0.39002545899E+03 -0.10036310788E+04  0.10787025169E+04  0.25500000920E-02 0. -1.
       -2    1    3    3    0  502  0.64837634889E+02 -0.39002545899E+03 -0.10256961318E+03  0.40846579185E+03  0.25500000920E-02 0.  1.
</event>
<event>
 5   0  0.5189877E-03  0.1006946E+04  0.7818609E-02  0.9300959E-01
       -1   -1    0    0    0  501  0.00000000000E+00  0.00000000000E+00  0.43467340628E+03  0.43467340631E+03  0.50400001928E-02 0. -1.
        1   -1    0    0  501    0  0.00000000000E+00  0.00000000000E+00 -0.58316258964E+03  0.58316258966E+03  0.50400001928E-02 0.  1.
    10030    2    1    2    0    0  0.00000000000E+00  0.00000000000E+00 -0.14848918336E+03  0.10178359960E+04  0.10069464122E+04 0.  0.
        3    1    3    3  502    0 -0.24243218582E+03  0.10568136301E+03  0.35880812426E+03  0.44574117540E+03  0.10100000352E+00 0. -1.
       -3    1    3    3    0  502  0.24243218582E+03 -0.10568136301E+03 -0.50729730761E+03  0.57209482057E+03  0.10100000352E+00 0.  1.
</event>
<event>
 5   0  0.9040674E-03  0.1012104E+04  0.7818609E-02  0.9295368E-01
       -2   -1    0    0    0  501  0.00000000000E+00  0.00000000000E+00  0.19841993376E+03  0.19841993377E+03  0.25500000920E-02 0.  1.
        2   -1    0    0  501    0  0.00000000000E+00  0.00000000000E+00 -0.12906402632E+04  0.12906402632E+04  0.25500000920E-02 0. -1.
    10030    2    1    2    0    0  0.00000000000E+00  0.00000000000E+00 -0.10922203295E+04  0.14890601970E+04  0.10121042546E+04 0.  0.
        1    1    3    3  502    0 -0.29065198555E+03 -0.29994260068E+03 -0.96649861669E+03  0.10528835247E+04  0.50400001928E-02 0. -1.
       -1    1    3    3    0  502  0.29065198555E+03  0.29994260068E+03 -0.12572171278E+03  0.43617667234E+03  0.50400001928E-02 0.  1.
</event>
<event>
 5   0  0.8968798E-03  0.9993649E+03  0.7818609E-02  0.9309242E-01
       -2   -1    0    0    0  501  0.00000000000E+00  0.00000000000E+00  0.23998847612E+03  0.23998847613E+03  0.25500000920E-02 0. -1.
        2   -1    0    0  501    0  0.00000000000E+00  0.00000000000E+00 -0.10403939094E+04  0.10403939094E+04  0.25500000920E-02 0.  1.
    10030    2    1    2    0    0  0.00000000000E+00  0.00000000000E+00 -0.80040543331E+03  0.12803823856E+04  0.99936489612E+03 0.  0.
        2    1    3    3  502    0  0.29870884916E+03 -0.12507100671E+03 -0.88775264777E+03  0.94497327841E+03  0.25500000920E-02 0.  1.
       -2    1    3    3    0  502 -0.29870884916E+03  0.12507100671E+03  0.87347214456E+02  0.33540910716E+03  0.25500000920E-02 0. -1.
</event>
<event>
 5   0  0.5189877E-03  0.9930353E+03  0.7818609E-02  0.9316217E-01
       -1   -1    0    0    0  501  0.00000000000E+00  0.00000000000E+00  0.58813192998E+03  0.58813193000E+03  0.50400001928E-02 0. -1.
        1   -1    0    0  501    0  0.00000000000E+00  0.00000000000E+00 -0.41917429534E+03  0.41917429537E+03  0.50400001928E-02 0.  1.
    10030    2    1    2    0    0  0.00000000000E+00  0.00000000000E+00  0.16895763464E+03  0.10073062254E+04  0.99303532131E+03 0.  0.
        3    1    3    3  502    0 -0.77733857752E+02  0.30764828880E+03  0.47185666753E+03  0.56862883073E+03  0.10100000352E+00 0. -1.
       -3    1    3    3    0  502  0.77733857752E+02 -0.30764828880E+03 -0.30289903289E+03  0.43867739464E+03  0.10100000352E+00 0.  1.
</event>
<event>
 5   0  0.9040674E-03  0.1028859E+04  0.7818609E-02  0.9277447E-01
       -2   -1    0    0    0  501  0.00000000000E+00  0.00000000000E+00  0.22410723158E+03  0.22410723159E+03  0.25500000920E-02 0. -1.
        2   -1    0    0  501    0  0.00000000000E+00  0.00000000000E+00 -0.11808536024E+04  0.11808536024E+04  0.25500000920E-02 0.  1.
    10030    2    1    2    0    0  0.00000000000E+00  0.00000000000E+00 -0.95674637078E+03  0.14049608340E+04  0.10288592357E+04 0.  0.
        1    1    3    3  502    0 -0.11695643019E+02 -0.43210127350E+03 -0.97510136681E+02  0.44312134389E+03  0.50400001928E-02 0. -1.
       -1    1    3    3    0  502  0.11695643019E+02  0.43210127350E+03 -0.85923623410E+03  0.96183949007E+03  0.50400001928E-02 0.  1.
</event>
<event>
 5   0  0.5310275E-03  0.1026989E+04  0.7818609E-02  0.9279430E-01
       -1   -1    0    0    0  501  0.00000000000E+00  0.00000000000E+00  0.15057851309E+03  0.15057851317E+03  0.50400001928E-02 0. -1.
        1   -1    0    0  501    0  0.00000000000E+00  0.00000000000E+00 -0.17510887944E+04  0.17510887945E+04  0.50400001928E-02 0.  1.
    10030    2    1    2    0    0  0.00000000000E+00  0.00000000000E+00 -0.16005102814E+04  0.19016673076E+04  0.10269885044E+04 0.  0.
        1    1    3    3  502    0  0.48906202913E+02 -0.41324210358E+03 -0.13573516297E+04  0.14197057088E+04  0.50400001928E-02 0.  1.
       -1    1    3    3    0  502 -0.48906202913E+02  0.41324210358E+03 -0.24315865162E+03  0.48196159882E+03  0.50400001928E-02 0. -1.
</event>
<event>
 5   0  0.5189877E-03  0.8472489E+03  0.7818609E-02  0.9494037E-01
       -1   -1    0    0    0  501  0.00000000000E+00  0.00000000000E+00  0.22804554880E+03  0.22804554885E+03  0.50400001928E-02 0. -1.
        1   -1    0    0  501    0  0.00000000000E+00  0.00000000000E+00 -0.78693779868E+03  0.78693779870E+03  0.50400001928E-02 0.  1.
    10030    2    1    2    0    0  0.00000000000E+00  0.00000000000E+00 -0.55889224989E+03  0.10149833475E+04  0.84724887065E+03 0.  0.
        3    1    3    3  502    0  0.23033376695E+03  0.52089417684E+02  0.14187811180E+03  0.27549294082E+03  0.10100000352E+00 0. -1.
       -3    1    3    3    0  502 -0.23033376695E+03 -0.52089417684E+02 -0.70077036168E+03  0.73949040673E+03  0.10100000352E+00 0.  1.
</event>
<event>
 5   0  0.8875655E-03  0.9664254E+03  0.7818609E-02  0.9346155E-01
        2   -1    0    0  501    0  0.00000000000E+00  0.00000000000E+00  0.57247596932E+03  0.57247596933E+03  0.25500000920E-02 0.  1.
       -2   -1    0    0    0  501  0.00000000000E+00  0.00000000000E+00 -0.40786783192E+03  0.40786783192E+03  0.25500000920E-02 0. -1.
    10030    2    1    2    0    0  0.00000000000E+00  0.00000000000E+00  0.16460813741E+03  0.98034380125E+03  0.96642543931E+03 0.  0.
        4    1    3    3  502    0 -0.63243726901E+02  0.45992899898E+03  0.21824325860E+03  0.51299725722E+03  0.12699999809E+01 0.  1.
       -4    1    3    3    0  502  0.63243726901E+02 -0.45992899898E+03 -0.53635121195E+02  0.46734654403E+03  0.12699999809E+01 0. -1.
</event>
<event>
 5   0  0.8907355E-03  0.9679741E+03  0.7818609E-02  0.9344385E-01
       -2   -1    0    0    0  501  0.00000000000E+00  0.00000000000E+00  0.40596395837E+03  0.40596395838E+03  0.25500000920E-02 0. -1.
        2   -1    0    0  501    0  0.00000000000E+00  0.00000000000E+00 -0.57700557690E+03  0.57700557691E+03  0.25500000920E-02 0.  1.
    10030    2    1    2    0    0  0.00000000000E+00  0.00000000000E+00 -0.17104161853E+03  0.98296953529E+03  0.96797410711E+03 0.  0.
        5    1    3    3  502    0 -0.29261716068E+03  0.11342184868E+03  0.28860488634E+03  0.42638502425E+03  0.46999998093E+01 0. -1.
       -5    1    3    3    0  502  0.29261716068E+03 -0.11342184868E+03 -0.45964650488E+03  0.55658451104E+03  0.46999998093E+01 0.  1.
</event>
<event>
 5   0  0.3513625E-03  0.1002892E+04  0.7818609E-02  0.9305378E-01
       -3   -1    0    0    0  501  0.00000000000E+00  0.00000000000E+00  0.32056255165E+03  0.32056256756E+03  0.10100000352E+00 0. -1.
        3   -1    0    0  501    0  0.00000000000E+00  0.00000000000E+00 -0.78439666953E+03  0.78439667604E+03  0.10100000352E+00 0.  1.
    10030    2    1    2    0    0  0.00000000000E+00  0.00000000000E+00 -0.46383411789E+03  0.11049592436E+04  0.10028922380E+04 0.  0.
        2    1    3    3  502    0 -0.49912192710E+03 -0.48153016979E+02 -0.23478994195E+03  0.55368558588E+03  0.25500000920E-02 0.  1.
       -2    1    3    3    0  502  0.49912192710E+03  0.48153016979E+02 -0.22904417593E+03  0.55127365772E+03  0.25500000920E-02 0. -1.
</event>
<event>
 5   0  0.9040674E-03  0.9945364E+03  0.7818609E-02  0.9314558E-01
        2   -1    0    0  501    0  0.00000000000E+00  0.00000000000E+00  0.10654563834E+04  0.10654563834E+04  0.25500000920E-02 0.  1.
       -2   -1    0    0    0  501  0.00000000000E+00  0.00000000000E+00 -0.23208426998E+03  0.23208427000E+03  0.25500000920E-02 0. -1.
    10030    2    1    2    0    0  0.00000000000E+00  0.00000000000E+00  0.83337211341E+03  0.12975406534E+04  0.99453640848E+03 0.  0.
        1    1    3    3  502    0 -0.11722750501E+03  0.41050605471E+03  0.74935910520E+03  0.86243641937E+03  0.50400001928E-02 0.  1.
       -1    1    3    3    0  502  0.11722750501E+03 -0.41050605471E+03  0.84013008211E+02  0.43510423402E+03  0.50400001928E-02 0. -1.
</event>
<event>
 5   0  0.8907355E-03  0.9365217E+03  0.7818609E-02  0.9381045E-01
        2   -1    0    0  501    0  0.00000000000E+00  0.00000000000E+00  0.64361042101E+03  0.64361042102E+03  0.25500000920E-02 0. -1.
       -2   -1    0    0    0  501  0.00000000000E+00  0.00000000000E+00 -0.34068470739E+03  0.34068470740E+03  0.25500000920E-02 0.  1.
    10030    2    1    2    0    0  0.00000000000E+00  0.00000000000E+00  0.30292571362E+03  0.98429512842E+03  0.93652170923E+03 0.  0.
        5    1    3    3  502    0  0.54785791451E+02 -0.27130055105E+03  0.54840678718E+03  0.61431064305E+03  0.46999998093E+01 0. -1.
       -5    1    3    3    0  502 -0.54785791451E+02  0.27130055105E+03 -0.24548107356E+03  0.36998448537E+03  0.46999998093E+01 0.  1.
</event>
<event>
 5   0  0.8875655E-03  0.9751649E+03  0.7818609E-02  0.9336211E-01
       -2   -1    0    0    0  501  0.00000000000E+00  0.00000000000E+00  0.41135945866E+03  0.41135945867E+03  0.25500000920E-02 0. -1.
        2   -1    0    0  501    0  0.00000000000E+00  0.00000000000E+00 -0.57792916288E+03  0.57792916289E+03  0.25500000920E-02 0.  1.
    10030    2    1    2    0    0  0.00000000000E+00  0.00000000000E+00 -0.16656970422E+03  0.98928862156E+03  0.97516486318E+03 0.  0.
        4    1    3    3  502    0  0.16466755633E+03  0.29467296250E+03  0.27364534178E+03  0.43454682707E+03  0.12699999809E+01 0. -1.
       -4    1    3    3    0  502 -0.16466755633E+03 -0.29467296250E+03 -0.44021504600E+03  0.55474179450E+03  0.12699999809E+01 0.  1.
</event>
<event>
 5   0  0.5189877E-03  0.1060892E+04  0.7818609E-02  0.9244171E-01
       -1   -1    0    0    0  501  0.00000000000E+00  0.00000000000E+00  0.33023770325E+03  0.33023770329E+03  0.50400001928E-02 0. -1.
        1   -1    0    0  501    0  0.00000000000E+00  0.00000000000E+00 -0.85203084493E+03  0.85203084495E+03  0.50400001928E-02 0.  1.
    10030    2    1    2    0    0  0.00000000000E+00  0.00000000000E+00 -0.52179314168E+03  0.11822685482E+04  0.10608915295E+04 0.  0.
        3    1    3    3  502    0 -0.31735693895E+03 -0.38509591984E+03 -0.60431502041E+02  0.50265919948E+03  0.10100000352E+00 0. -1.
       -3    1    3    3    0  502  0.31735693895E+03  0.38509591984E+03 -0.46136163964E+03  0.67960934875E+03  0.10100000352E+00 0.  1.
</event>
<event>
 5   0  0.5189877E-03  0.9939698E+03  0.7818609E-02  0.9315183E-01
       -1   -1    0    0    0  501  0.00000000000E+00  0.00000000000E+00  0.14659001237E+03  0.14659001245E+03  0.50400001928E-02 0. -1.
        1   -1    0    0  501    0  0.00000000000E+00  0.00000000000E+00 -0.16849304391E+04  0.16849304391E+04  0.50400001928E-02 0.  1.
    10030    2    1    2    0    0  0.00000000000E+00  0.00000000000E+00 -0.15383404268E+04  0.18315204516E+04  0.99396976613E+03 0.  0.
        3    1    3    3  502    0 -0.17143198908E+03 -0.19964599065E+03  0.76833204804E+01  0.26326126201E+03  0.10100000352E+00 0. -1.
       -3    1    3    3    0  502  0.17143198908E+03  0.19964599065E+03 -0.15460237472E+04  0.15682591896E+04  0.10100000352E+00 0.  1.
</event>
<event>
 5   0  0.9243773E-03  0.9959401E+03  0.7818609E-02  0.9313009E-01
       -2   -1    0    0    0  501  0.00000000000E+00  0.00000000000E+00  0.23317375243E+03  0.23317375244E+03  0.25500000920E-02 0.  1.
        2   -1    0    0  501    0  0.00000000000E+00  0.00000000000E+00 -0.10634737433E+04  0.10634737433E+04  0.25500000920E-02 0. -1.
    10030    2    1    2    0    0  0.00000000000E+00  0.00000000000E+00 -0.83029999083E+03  0.12966474957E+04  0.99594008521E+03 0.  0.
        3    1    3    3  502    0  0.64145274507E+02 -0.29153943290E+03  0.10377174300E+03  0.31603550754E+03  0.10100000352E+00 0.  1.
       -3    1    3    3    0  502 -0.64145274507E+02  0.29153943290E+03 -0.93407173384E+03  0.98061198816E+03  0.10100000352E+00 0. -1.
</event>
<event>
 5   0  0.8875655E-03  0.9837340E+03  0.7818609E-02  0.9326567E-01
        2   -1    0    0  501    0  0.00000000000E+00  0.00000000000E+00  0.27670160106E+03  0.27670160107E+03  0.25500000920E-02 0. -1.
       -2   -1    0    0    0  501  0.00000000000E+00  0.00000000000E+00 -0.87434668766E+03  0.87434668766E+03  0.25500000920E-02 0.  1.
    10030    2    1    2    0    0  0.00000000000E+00  0.00000000000E+00 -0.59764508660E+03  0.11510482887E+04  0.98373396479E+03 0.  0.
        4    1    3    3  502    0 -0.42335009214E+03  0.32309732029E+02 -0.58937578398E+03  0.72638464118E+03  0.12699999809E+01 0.  1.
       -4    1    3    3    0  502  0.42335009214E+03 -0.32309732029E+02 -0.82693026163E+01  0.42466364756E+03  0.12699999809E+01 0. -1.
</event>
<event>
 5   0  0.5201968E-03  0.1032819E+04  0.7818609E-02  0.9273264E-01
        1   -1    0    0  501    0  0.00000000000E+00  0.00000000000E+00  0.11188698887E+04  0.11188698887E+04  0.50400001928E-02 0.  1.
       -1   -1    0    0    0  501  0.00000000000E+00  0.00000000000E+00 -0.23834664526E+03  0.23834664531E+03  0.50400001928E-02 0. -1.
    10030    2    1    2    0    0  0.00000000000E+00  0.00000000000E+00  0.88052324347E+03  0.13572165340E+04  0.10328192185E+04 0.  0.
        2    1    3    3  502    0  0.16977903259E+03 -0.15903401583E+03  0.10461153636E+04  0.10716688351E+04  0.25500000920E-02 0.  1.
       -2    1    3    3    0  502 -0.16977903259E+03  0.15903401583E+03 -0.16559212017E+03  0.28554769894E+03  0.25500000920E-02 0. -1.
</event>
<event>
 5   0  0.5310275E-03  0.9932338E+03  0.7818609E-02  0.9315997E-01
       -1   -1    0    0    0  501  0.00000000000E+00  0.00000000000E+00  0.20746555626E+03  0.20746555632E+03  0.50400001928E-02 0.  1.
        1   -1    0    0  501    0  0.00000000000E+00  0.00000000000E+00 -0.11887677154E+04  0.11887677154E+04  0.50400001928E-02 0. -1.
    10030    2    1    2    0    0  0.00000000000E+00  0.00000000000E+00 -0.98130215915E+03  0.13962332717E+04  0.99323382018E+03 0.  0.
        1    1    3    3  502    0 -0.15286743048E+03 -0.45212197608E+03 -0.68363082583E+03  0.83374686723E+03  0.50400001928E-02 0. -1.
       -1    1    3    3    0  502  0.15286743048E+03  0.45212197608E+03 -0.29767133331E+03  0.56248640451E+03  0.50400001928E-02 0.  1.
</event>
<event>
 5   0  0.5201968E-03  0.1007860E+04  0.7818609E-02  0.9299966E-01
       -1   -1    0    0    0  501  0.00000000000E+00  0.00000000000E+00  0.75620209537E+03  0.75620209538E+03  0.50400001928E-02 0. -1.
        1   -1    0    0  501    0  0.00000000000E+00  0.00000000000E+00 -0.33581664087E+03  0.33581664090E+03  0.50400001928E-02 0.  1.
    10030    2    1    2    0    0  0.00000000000E+00  0.00000000000E+00  0.42038545450E+03  0.10920187363E+04  0.10078596083E+04 0.  0.
        2    1    3    3  502    0 -0.25194511049E+03  0.23467580334E+03  0.60888080510E+03  0.69948903222E+03  0.25500000920E-02 0. -1.
       -2    1    3    3    0  502  0.25194511049E+03 -0.23467580334E+03 -0.18849535060E+03  0.39252970407E+03  0.25500000920E-02 0.  1.
</event>
<event>
 5   0  0.3513625E-03  0.1011607E+04  0.7818609E-02  0.9295905E-01
        3   -1    0    0  501    0  0.00000000000E+00  0.00000000000E+00  0.81523655068E+03  0.81523655693E+03  0.10100000352E+00 0.  1.
       -3   -1    0    0    0  501  0.00000000000E+00  0.00000000000E+00 -0.31381947378E+03  0.31381949003E+03  0.10100000352E+00 0. -1.
    10030    2    1    2    0    0  0.00000000000E+00  0.00000000000E+00  0.50141707690E+03  0.11290560470E+04  0.10116068763E+04 0.  0.
        4    1    3    3  502    0  0.23922367317E+03 -0.34429259873E+03  0.56652810851E+03  0.70478441383E+03  0.12699999809E+01 0.  1.
       -4    1    3    3    0  502 -0.23922367317E+03  0.34429259873E+03 -0.65111031607E+02  0.42427163314E+03  0.12699999809E+01 0. -1.
</event>
<event>
 5   0  0.8875655E-03  0.9963620E+03  0.7818609E-02  0.9312544E-01
        2   -1    0    0  501    0  0.00000000000E+00  0.00000000000E+00  0.55783347700E+03  0.55783347701E+03  0.25500000920E-02 0. -1.
       -2   -1    0    0    0  501  0.00000000000E+00  0.00000000000E+00 -0.44490750183E+03  0.44490750184E+03  0.25500000920E-02 0.  1.
    10030    2    1    2    0    0  0.00000000000E+00  0.00000000000E+00  0.11292597517E+03  0.10027409788E+04  0.99636197979E+03 0.  0.
        4    1    3    3  502    0 -0.21500104710E+03  0.18652181899E+03 -0.35501508004E+03  0.45503094309E+03  0.12699999809E+01 0.  1.
       -4    1    3    3    0  502  0.21500104710E+03 -0.18652181899E+03  0.46794105521E+03  0.54771003575E+03  0.12699999809E+01 0. -1.
</event>
<event>
 5   0  0.8875655E-03  0.1004734E+04  0.7818609E-02  0.9303367E-01
        2   -1    0    0  501    0  0.00000000000E+00  0.00000000000E+00  0.13329742337E+04  0.13329742337E+04  0.25500000920E-02 0. -1.
       -2   -1    0    0    0  501  0.00000000000E+00  0.00000000000E+00 -0.18933060608E+03  0.18933060610E+03  0.25500000920E-02 0.  1.
    10030    2    1    2    0    0  0.00000000000E+00  0.00000000000E+00  0.11436436276E+04  0.15223048398E+04  0.10047344317E+04 0.  0.
        4    1    3    3  502    0  0.27330143926E+03  0.30501390317E+03  0.10126288896E+04  0.10923122441E+04  0.12699999809E+01 0.  1.
       -4    1    3    3    0  502 -0.27330143926E+03 -0.30501390317E+03  0.13101473805E+03  0.42999259565E+03  0.12699999809E+01 0. -1.
</event>
<event>
 5   0  0.8907355E-03  0.1005183E+04  0.7818609E-02  0.9302878E-01
       -2   -1    0    0    0  501  0.00000000000E+00  0.00000000000E+00  0.23471197390E+03  0.23471197391E+03  0.25500000920E-02 0.  1.
        2   -1    0    0  501    0  0.00000000000E+00  0.00000000000E+00 -0.10762059994E+04  0.10762059994E+04  0.25500000920E-02 0. -1.
    10030    2    1    2    0    0  0.00000000000E+00  0.00000000000E+00 -0.84149402545E+03  0.13109179733E+04  0.10051834349E+04 0.  0.
        5    1    3    3  502    0  0.39532985266E+03 -0.10516246634E+03 -0.80148856874E+03  0.89986157411E+03  0.46999998093E+01 0. -1.
       -5    1    3    3    0  502 -0.39532985266E+03  0.10516246634E+03 -0.40005456709E+02  0.41105639916E+03  0.46999998093E+01 0.  1.
</event>
<event>
 5   0  0.3513625E-03  0.9363268E+03  0.7818609E-02  0.9381277E-01
       -3   -1    0    0    0  501  0.00000000000E+00  0.00000000000E+00  0.85206551383E+03  0.85206551982E+03  0.10100000352E+00 0. -1.
        3   -1    0    0  501    0  0.00000000000E+00  0.00000000000E+00 -0.25723016349E+03  0.25723018332E+03  0.10100000352E+00 0.  1.
    10030    2    1    2    0    0  0.00000000000E+00  0.00000000000E+00  0.59483535034E+03  0.11092957031E+04  0.93632679284E+03 0.  0.
        3    1    3    3  502    0 -0.17667193502E+03  0.32075268440E+03  0.64298920468E+03  0.73995296115E+03  0.10100000352E+00 0. -1.
       -3    1    3    3    0  502  0.17667193502E+03 -0.32075268440E+03 -0.48153854340E+02  0.36934274199E+03  0.10100000352E+00 0.  1.
</event>
<event>
 5   0  0.5189877E-03  0.1000988E+04  0.7818609E-02  0.9307462E-01
       -1   -1    0    0    0  501  0.00000000000E+00  0.00000000000E+00  0.27197526064E+03  0.27197526069E+03  0.50400001928E-02 0.  1.
        1   -1    0    0  501    0  0.00000000000E+00  0.00000000000E+00 -0.92101856014E+03  0.92101856016E+03  0.50400001928E-02 0. -1.
    10030    2    1    2    0    0  0.00000000000E+00  0.00000000000E+00 -0.64904329950E+03  0.11929938208E+04  0.10009880379E+04 0.  0.
        3    1    3    3  502    0 -0.23500460001E+03 -0.39227471645E+03 -0.56698417581E+03  0.72840763382E+03  0.10100000352E+00 0. -1.
       -3    1    3    3    0  502  0.23500460001E+03  0.39227471645E+03 -0.82059123693E+02  0.46458618702E+03  0.10100000352E+00 0.  1.
</event>
<event>
 5   0  0.5201968E-03  0.8354083E+03  0.7818609E-02  0.9510133E-01
       -1   -1    0    0    0  501  0.00000000000E+00  0.00000000000E+00  0.88890103258E+02  0.88890103401E+02  0.50400001928E-02 0. -1.
        1   -1    0    0  501    0  0.00000000000E+00  0.00000000000E+00 -0.19628367614E+04  0.19628367614E+04  0.50400001928E-02 0.  1.
    10030    2    1    2    0    0  0.00000000000E+00  0.00000000000E+00 -0.18739466581E+04  0.20517268648E+04  0.83540831346E+03 0.  0.
        2    1    3    3  502    0  0.36397764180E+03  0.20305417237E+03 -0.10049479844E+04  0.10879481477E+04  0.25500000920E-02 0.  1.
       -2    1    3    3    0  502 -0.36397764180E+03 -0.20305417237E+03 -0.86899867372E+03  0.96377871712E+03  0.25500000920E-02 0. -1.
</event>
<event>
 5   0  0.9040674E-03  0.9976186E+03  0.7818609E-02  0.9311161E-01
        2   -1    0    0  501    0  0.00000000000E+00  0.00000000000E+00  0.36519457808E+03  0.36519457809E+03  0.25500000920E-02 0.  1.
       -2   -1    0    0    0  501  0.00000000000E+00  0.00000000000E+00 -0.68131001670E+03  0.68131001670E+03  0.25500000920E-02 0. -1.
    10030    2    1    2    0    0  0.00000000000E+00  0.00000000000E+00 -0.31611543861E+03  0.10465045948E+04  0.99761861270E+03 0.  0.
        1    1    3    3  502    0 -0.15357348525E+03 -0.46134460265E+03 -0.27480877799E+03  0.55851904377E+03  0.50400001928E-02 0. -1.
       -1    1    3    3    0  502  0.15357348525E+03  0.46134460265E+03 -0.41306660622E+02  0.48798555102E+03  0.50400001928E-02 0.  1.
</event>
<event>
 5   0  0.5349685E-03  0.9885851E+03  0.7818609E-02  0.9321154E-01
        1   -1    0    0  501    0  0.00000000000E+00  0.00000000000E+00  0.91549662898E+03  0.91549662899E+03  0.50400001928E-02 0.  1.
       -1   -1    0    0    0  501  0.00000000000E+00  0.00000000000E+00 -0.26687716026E+03  0.26687716030E+03  0.50400001928E-02 0. -1.
    10030    2    1    2    0    0  0.00000000000E+00  0.00000000000E+00  0.64861946872E+03  0.11823737893E+04  0.98858513159E+03 0.  0.
        4    1    3    3  502    0 -0.48882408440E+03 -0.39639216862E+02  0.25054996218E+03  0.55072420452E+03  0.12699999809E+01 0. -1.
       -4    1    3    3    0  502  0.48882408440E+03  0.39639216862E+02  0.39806950654E+03  0.63164958477E+03  0.12699999809E+01 0.  1.
</event>
<event>
 5   0  0.8875655E-03  0.1043429E+04  0.7818609E-02  0.9262155E-01
        2   -1    0    0  501    0  0.00000000000E+00  0.00000000000E+00  0.32067412713E+03  0.32067412714E+03  0.25500000920E-02 0. -1.
       -2   -1    0    0    0  501  0.00000000000E+00  0.00000000000E+00 -0.84879240263E+03  0.84879240263E+03  0.25500000920E-02 0.  1.
    10030    2    1    2    0    0  0.00000000000E+00  0.00000000000E+00 -0.52811827550E+03  0.11694665298E+04  0.10434285080E+04 0.  0.
        4    1    3    3  502    0  0.46636008720E+03  0.15817749446E+03 -0.45712287055E+03  0.67191873196E+03  0.12699999809E+01 0. -1.
       -4    1    3    3    0  502 -0.46636008720E+03 -0.15817749446E+03 -0.70995404949E+02  0.49754779781E+03  0.12699999809E+01 0.  1.
</event>
<event>
 5   0  0.3513625E-03  0.9709416E+03  0.7818609E-02  0.9341002E-01
        3   -1    0    0  501    0  0.00000000000E+00  0.00000000000E+00  0.98650750401E+03  0.98650750918E+03  0.10100000352E+00 0. -1.
       -3   -1    0    0    0  501  0.00000000000E+00  0.00000000000E+00 -0.23890533137E+03  0.23890535272E+03  0.10100000352E+00 0.  1.
    10030    2    1    2    0    0  0.00000000000E+00  0.00000000000E+00  0.74760217264E+03  0.12254128619E+04  0.97094164273E+03 0.  0.
        2    1    3    3  502    0  0.22042654925E+03  0.40203032191E+03  0.17239763763E+03  0.48983383797E+03  0.25500000920E-02 0.  1.
       -2    1    3    3    0  502 -0.22042654925E+03 -0.40203032191E+03  0.57520453501E+03  0.73557902393E+03  0.25500000920E-02 0. -1.
</event>
<event>
 5   0  0.8968798E-03  0.9838230E+03  0.7818609E-02  0.9326468E-01
        2   -1    0    0  501    0  0.00000000000E+00  0.00000000000E+00  0.12026276673E+04  0.12026276673E+04  0.25500000920E-02 0. -1.
       -2   -1    0    0    0  501  0.00000000000E+00  0.00000000000E+00 -0.20120684934E+03  0.20120684935E+03  0.25500000920E-02 0.  1.
    10030    2    1    2    0    0  0.00000000000E+00  0.00000000000E+00  0.10014208179E+04  0.14038345166E+04  0.98382300007E+03 0.  0.
        2    1    3    3  502    0  0.43572800543E+03 -0.39100296196E+02  0.17976746384E+03  0.47297364508E+03  0.25500000920E-02 0.  1.
       -2    1    3    3    0  502 -0.43572800543E+03  0.39100296196E+02  0.82165335409E+03  0.93086087154E+03  0.25500000920E-02 0. -1.
</event>
<event>
 5   0  0.5349685E-03  0.1037806E+04  0.7818609E-02  0.9268025E-01
        1   -1    0    0  501    0  0.00000000000E+00  0.00000000000E+00  0.88694020005E+03  0.88694020006E+03  0.50400001928E-02 0. -1.
       -1   -1    0    0    0  501  0.00000000000E+00  0.00000000000E+00 -0.30358322463E+03  0.30358322468E+03  0.50400001928E-02 0.  1.
    10030    2    1    2    0    0  0.00000000000E+00  0.00000000000E+00  0.58335697541E+03  0.11905234247E+04  0.10378056967E+04 0.  0.
        4    1    3    3  502    0  0.33655611582E+03 -0.35457028976E+03  0.92098523624E+02  0.49746744660E+03  0.12699999809E+01 0.  1.
       -4    1    3    3    0  502 -0.33655611582E+03  0.35457028976E+03  0.49125845179E+03  0.69305597814E+03  0.12699999809E+01 0. -1.
</event>
<event>
 5   0  0.8875655E-03  0.9883908E+03  0.7818609E-02  0.9321370E-01
       -2   -1    0    0    0  501  0.00000000000E+00  0.00000000000E+00  0.43928104797E+03  0.43928104798E+03  0.25500000920E-02 0. -1.
        2   -1    0    0  501    0  0.00000000000E+00  0.00000000000E+00 -0.55597461667E+03  0.55597461668E+03  0.25500000920E-02 0.  1.
    10030    2    1    2    0    0  0.00000000000E+00  0.00000000000E+00 -0.11669356871E+03  0.99525566466E+03  0.98839083821E+03 0.  0.
        4    1    3    3  502    0  0.59412217529E+02  0.38038951201E+03 -0.37033987198E+03  0.53420897233E+03  0.12699999809E+01 0.  1.
       -4    1    3    3    0  502 -0.59412217529E+02 -0.38038951201E+03  0.25364630328E+03  0.46104669232E+03  0.12699999809E+01 0. -1.
</event>
<event>
 5   0  0.5189877E-03  0.1060651E+04  0.7818609E-02  0.9244416E-01
        1   -1    0    0  501    0  0.00000000000E+00  0.00000000000E+00  0.27058407976E+03  0.27058407981E+03  0.50400001928E-02 0.  1.
       -1   -1    0    0    0  501  0.00000000000E+00  0.00000000000E+00 -0.10394010856E+04  0.10394010856E+04  0.50400001928E-02 0. -1.
    10030    2    1    2    0    0  0.00000000000E+00  0.00000000000E+00 -0.76881700585E+03  0.13099851654E+04  0.10606514720E+04 0.  0.
        3    1    3    3  502    0 -0.21885791522E+03  0.40059379350E+03 -0.51003859468E+02  0.45932077933E+03  0.10100000352E+00 0.  1.
       -3    1    3    3    0  502  0.21885791522E+03 -0.40059379350E+03 -0.71781314638E+03  0.85066438609E+03  0.10100000352E+00 0. -1.
</event>
<event>
 5   0  0.8907355E-03  0.1014361E+04  0.7818609E-02  0.9292933E-01
        2   -1    0    0  501    0  0.00000000000E+00  0.00000000000E+00  0.66832949231E+03  0.66832949232E+03  0.25500000920E-02 0. -1.
       -2   -1    0    0    0  501  0.00000000000E+00  0.00000000000E+00 -0.38488792272E+03  0.38488792273E+03  0.25500000920E-02 0.  1.
    10030    2    1    2    0    0  0.00000000000E+00  0.00000000000E+00  0.28344156959E+03  0.10532174150E+04  0.10143607839E+04 0.  0.
        5    1    3    3  502    0  0.24820822862E+03 -0.11331460914E+03  0.58560421091E+03  0.64606648824E+03  0.46999998093E+01 0. -1.
       -5    1    3    3    0  502 -0.24820822862E+03  0.11331460914E+03 -0.30216264132E+03  0.40715092681E+03  0.46999998093E+01 0.  1.
</event>
<event>
 5   0  0.8907355E-03  0.9999516E+03  0.7818609E-02  0.9308598E-01
       -2   -1    0    0    0  501  0.00000000000E+00  0.00000000000E+00  0.46899544885E+03  0.46899544886E+03  0.25500000920E-02 0. -1.
        2   -1    0    0  501    0  0.00000000000E+00  0.00000000000E+00 -0.53300262813E+03  0.53300262814E+03  0.25500000920E-02 0.  1.
    10030    2    1    2    0    0  0.00000000000E+00  0.00000000000E+00 -0.64007179279E+02  0.10019980770E+04  0.99995161248E+03 0.  0.
        5    1    3    3  502    0 -0.34966615251E+03 -0.66953444320E+01 -0.39000563217E+03  0.52386804538E+03  0.46999998093E+01 0.  1.
       -5    1    3    3    0  502  0.34966615251E+03  0.66953444320E+01  0.32599845289E+03  0.47813003162E+03  0.46999998093E+01 0. -1.
</event>
<event>
 5   0  0.9040674E-03  0.9999231E+03  0.7818609E-02  0.9308629E-01
       -2   -1    0    0    0  501  0.00000000000E+00  0.00000000000E+00  0.31766474336E+03  0.31766474337E+03  0.25500000920E-02 0. -1.
        2   -1    0    0  501    0  0.00000000000E+00  0.00000000000E+00 -0.78687220348E+03  0.78687220349E+03  0.25500000920E-02 0.  1.
    10030    2    1    2    0    0  0.00000000000E+00  0.00000000000E+00 -0.46920746012E+03  0.11045369469E+04  0.99992311022E+03 0.  0.
        1    1    3    3  502    0  0.99596517502E+02 -0.31499901729E+03  0.17991320613E+03  0.37618161698E+03  0.50400001928E-02 0. -1.
       -1    1    3    3    0  502 -0.99596517502E+02  0.31499901729E+03 -0.64912066625E+03  0.72835532988E+03  0.50400001928E-02 0.  1.
</event>
<event>
 5   0  0.5201968E-03  0.9916684E+03  0.7818609E-02  0.9317730E-01
       -1   -1    0    0    0  501  0.00000000000E+00  0.00000000000E+00  0.67599206453E+03  0.67599206455E+03  0.50400001928E-02 0.  1.
        1   -1    0    0  501    0  0.00000000000E+00  0.00000000000E+00 -0.36369001752E+03  0.36369001755E+03  0.50400001928E-02 0. -1.
    10030    2    1    2    0    0  0.00000000000E+00  0.00000000000E+00  0.31230204702E+03  0.10396820821E+04  0.99166842406E+03 0.  0.
        2    1    3    3  502    0 -0.71972538129E+02  0.45029939917E+03  0.36026134654E+03  0.58115215990E+03  0.25500000920E-02 0.  1.
       -2    1    3    3    0  502  0.71972538129E+02 -0.45029939917E+03 -0.47959299526E+02  0.45852992220E+03  0.25500000920E-02 0. -1.
</event>
<event>
 5   0  0.5189877E-03  0.9424684E+03  0.7818609E-02  0.9373997E-01
        1   -1    0    0  501    0  0.00000000000E+00  0.00000000000E+00  0.84949816721E+03  0.84949816723E+03  0.50400001928E-02 0.  1.
       -1   -1    0    0    0  501  0.00000000000E+00  0.00000000000E+00 -0.26140333205E+03  0.26140333210E+03  0.50400001928E-02 0. -1.
    10030    2    1    2    0    0  0.00000000000E+00  0.00000000000E+00  0.58809483516E+03  0.11109014993E+04  0.94246835812E+03 0.  0.
        3    1    3    3  502    0 -0.93104264001E+02 -0.13526164711E+03  0.81468396780E+03  0.83106804460E+03  0.10100000352E+00 0.  1.
       -3    1    3    3    0  502  0.93104264001E+02  0.13526164711E+03 -0.22658913264E+03  0.27983345473E+03  0.10100000352E+00 0. -1.
</event>
<event>
 5   0  0.5310275E-03  0.1011460E+04  0.7818609E-02  0.9296064E-01
        1   -1    0    0  501    0  0.00000000000E+00  0.00000000000E+00  0.12385912412E+04  0.12385912412E+04  0.50400001928E-02 0.  1.
       -1   -1    0    0    0  501  0.00000000000E+00  0.00000000000E+00 -0.20649490135E+03  0.20649490141E+03  0.50400001928E-02 0. -1.
    10030    2    1    2    0    0  0.00000000000E+00  0.00000000000E+00  0.10320963398E+04  0.14450861426E+04  0.10114598879E+04 0.  0.
        1    1    3    3  502    0 -0.60622764560E+02  0.19985020678E+03 -0.14200969479E+03  0.25255094174E+03  0.50400001928E-02 0. -1.
       -1    1    3    3    0  502  0.60622764560E+02 -0.19985020678E+03  0.11741060346E+04  0.11925352009E+04  0.50400001928E-02 0.  1.
</event>
<event>
 5   0  0.8875655E-03  0.1042351E+04  0.7818609E-02  0.9263277E-01
        2   -1    0    0  501    0  0.00000000000E+00  0.00000000000E+00  0.29601156197E+03  0.29601156198E+03  0.25500000920E-02 0.  1.
       -2   -1    0    0    0  501  0.00000000000E+00  0.00000000000E+00 -0.91761317701E+03  0.91761317701E+03  0.25500000920E-02 0. -1.
    10030    2    1    2    0    0  0.00000000000E+00  0.00000000000E+00 -0.62160161504E+03  0.12136247390E+04  0.10423513991E+04 0.  0.
        4    1    3    3  502    0  0.25974664874E+03  0.44762793655E+03 -0.23918453227E+03  0.57013151509E+03  0.12699999809E+01 0.  1.
       -4    1    3    3    0  502 -0.25974664874E+03 -0.44762793655E+03 -0.38241708277E+03  0.64349322390E+03  0.12699999809E+01 0. -1.
</event>
<event>
 5   0  0.5072205E-03  0.1000289E+04  0.7818609E-02  0.9308227E-01
        1   -1    0    0  501    0  0.00000000000E+00  0.00000000000E+00  0.21016994086E+04  0.21016994086E+04  0.50400001928E-02 0.  1.
       -1   -1    0    0    0  501  0.00000000000E+00  0.00000000000E+00 -0.11902023458E+03  0.11902023468E+03  0.50400001928E-02 0. -1.
    10030    2    1    2    0    0  0.00000000000E+00  0.00000000000E+00  0.19826791740E+04  0.22207196433E+04  0.10002894716E+04 0.  0.
        5    1    3    3  502    0 -0.47044212438E+03 -0.22119710044E+02  0.13649304125E+04  0.14439051890E+04  0.46999998093E+01 0.  1.
       -5    1    3    3    0  502  0.47044212438E+03  0.22119710044E+02  0.61774876151E+03  0.77681445424E+03  0.46999998093E+01 0. -1.
</event>
<event>
 5   0  0.5349685E-03  0.1001181E+04  0.7818609E-02  0.9307251E-01
       -1   -1    0    0    0  501  0.00000000000E+00  0.00000000000E+00  0.26942478017E+03  0.26942478022E+03  0.50400001928E-02 0. -1.
        1   -1    0    0  501    0  0.00000000000E+00  0.00000000000E+00 -0.93009510725E+03  0.93009510727E+03  0.50400001928E-02 0.  1.
    10030    2    1    2    0    0  0.00000000000E+00  0.00000000000E+00 -0.66067032708E+03  0.11995198875E+04  0.10011806427E+04 0.  0.
        4    1    3    3  502    0 -0.31672916233E+03  0.36658749956E+03 -0.48134064661E+03  0.68293058804E+03  0.12699999809E+01 0.  1.
       -4    1    3    3    0  502  0.31672916233E+03 -0.36658749956E+03 -0.17932968047E+03  0.51658929944E+03  0.12699999809E+01 0. -1.
</event>
<event>
 5   0  0.5201968E-03  0.1084452E+04  0.7818609E-02  0.9220480E-01
       -1   -1    0    0    0  501  0.00000000000E+00  0.00000000000E+00  0.17434772333E+03  0.17434772340E+03  0.50400001928E-02 0. -1.
        1   -1    0    0  501    0  0.00000000000E+00  0.00000000000E+00 -0.16863357031E+04  0.16863357031E+04  0.50400001928E-02 0.  1.
    10030    2    1    2    0    0  0.00000000000E+00  0.00000000000E+00 -0.15119879797E+04  0.18606834265E+04  0.10844515493E+04 0.  0.
        2    1    3    3  502    0 -0.19779048596E+03 -0.34203602865E+03 -0.11884205908E+03  0.41259320916E+03  0.25500000920E-02 0. -1.
       -2    1    3    3    0  502  0.19779048596E+03  0.34203602865E+03 -0.13931459206E+04  0.14480902173E+04  0.25500000920E-02 0.  1.
</event>
<event>
 5   0  0.9243773E-03  0.1018996E+04  0.7818609E-02  0.9287952E-01
        2   -1    0    0  501    0  0.00000000000E+00  0.00000000000E+00  0.73490917659E+03  0.73490917659E+03  0.25500000920E-02 0. -1.
       -2   -1    0    0    0  501  0.00000000000E+00  0.00000000000E+00 -0.35322478058E+03  0.35322478058E+03  0.25500000920E-02 0.  1.
    10030    2    1    2    0    0  0.00000000000E+00  0.00000000000E+00  0.38168439601E+03  0.10881339572E+04  0.10189958443E+04 0.  0.
        3    1    3    3  502    0 -0.47594654046E+03  0.10583972867E+03  0.32955837352E+02  0.48868523096E+03  0.10100000352E+00 0.  1.
       -3    1    3    3    0  502  0.47594654046E+03 -0.10583972867E+03  0.34872855866E+03  0.59944872622E+03  0.10100000352E+00 0. -1.
</event>
<event>
 5   0  0.8875655E-03  0.1001684E+04  0.7818609E-02  0.9306700E-01
        2   -1    0    0  501    0  0.00000000000E+00  0.00000000000E+00  0.69450514034E+03  0.69450514034E+03  0.25500000920E-02 0.  1.
       -2   -1    0    0    0  501  0.00000000000E+00  0.00000000000E+00 -0.36118208757E+03  0.36118208758E+03  0.25500000920E-02 0. -1.
    10030    2    1    2    0    0  0.00000000000E+00  0.00000000000E+00  0.33332305277E+03  0.10556872279E+04  0.10016842146E+04 0.  0.
        4    1    3    3  502    0  0.45652228762E+02 -0.33150519347E+03  0.55939252566E+03  0.65184463636E+03  0.12699999809E+01 0.  1.
       -4    1    3    3    0  502 -0.45652228762E+02  0.33150519347E+03 -0.22606947289E+03  0.40384259156E+03  0.12699999809E+01 0. -1.
</event>
<event>
 5   0  0.9040674E-03  0.1008270E+04  0.7818609E-02  0.9299520E-01
        2   -1    0    0  501    0  0.00000000000E+00  0.00000000000E+00  0.46237777916E+03  0.46237777916E+03  0.25500000920E-02 0.  1.
       -2   -1    0    0    0  501  0.00000000000E+00  0.00000000000E+00 -0.54966356276E+03  0.54966356277E+03  0.25500000920E-02 0. -1.
    10030    2    1    2    0    0  0.00000000000E+00  0.00000000000E+00 -0.87285783607E+02  0.10120413419E+04  0.10082702365E+04 0.  0.
        1    1    3    3  502    0  0.42900089472E+02  0.38530687736E+03  0.27982070710E+03  0.47812282477E+03  0.50400001928E-02 0.  1.
       -1    1    3    3    0  502 -0.42900089472E+02 -0.38530687736E+03 -0.36710649071E+03  0.53391851716E+03  0.50400001928E-02 0. -1.
</event>
<event>
 5   0  0.9243773E-03  0.1023260E+04  0.7818609E-02  0.9283395E-01
        2   -1    0    0  501    0  0.00000000000E+00  0.00000000000E+00  0.12116550758E+04  0.12116550758E+04  0.25500000920E-02 0.  1.
       -2   -1    0    0    0  501  0.00000000000E+00  0.00000000000E+00 -0.21603951508E+03  0.21603951510E+03  0.25500000920E-02 0. -1.
    10030    2    1    2    0    0  0.00000000000E+00  0.00000000000E+00  0.99561556072E+03  0.14276945909E+04  0.10232602309E+04 0.  0.
        3    1    3    3  502    0  0.28771750001E+03  0.18191312927E+03  0.10307306890E+04  0.10854858405E+04  0.10100000352E+00 0.  1.
       -3    1    3    3    0  502 -0.28771750001E+03 -0.18191312927E+03 -0.35115128317E+02  0.34220875040E+03  0.10100000352E+00 0. -1.
</event>
<event>
 5   0  0.5072205E-03  0.9182074E+03  0.7818609E-02  0.9403103E-01
        1   -1    0    0  501    0  0.00000000000E+00  0.00000000000E+00  0.24976094675E+03  0.24976094680E+03  0.50400001928E-02 0. -1.
       -1   -1    0    0    0  501  0.00000000000E+00  0.00000000000E+00 -0.84391182779E+03  0.84391182780E+03  0.50400001928E-02 0.  1.
    10030    2    1    2    0    0  0.00000000000E+00  0.00000000000E+00 -0.59415088104E+03  0.10936727746E+04  0.91820742127E+03 0.  0.
        5    1    3    3  502    0 -0.28719417951E+03 -0.22005911732E+03 -0.63364712595E+03  0.72968300110E+03  0.46999998093E+01 0.  1.
       -5    1    3    3    0  502  0.28719417951E+03  0.22005911732E+03  0.39496244915E+02  0.36398977351E+03  0.46999998093E+01 0. -1.
</event>
<event>
 5   0  0.5349685E-03  0.1021094E+04  0.7818609E-02  0.9285707E-01
        1   -1    0    0  501    0  0.00000000000E+00  0.00000000000E+00  0.42819408276E+03  0.42819408279E+03  0.50400001928E-02 0.  1.
       -1   -1    0    0    0  501  0.00000000000E+00  0.00000000000E+00 -0.60873903539E+03  0.60873903541E+03  0.50400001928E-02 0. -1.
    10030    2    1    2    0    0  0.00000000000E+00  0.00000000000E+00 -0.18054495263E+03  0.10369331182E+04  0.10210944186E+04 0.  0.
        4    1    3    3  502    0  0.22851014501E+03 -0.28116933241E+03 -0.45555149498E+03  0.58206688391E+03  0.12699999809E+01 0.  1.
       -4    1    3    3    0  502 -0.22851014501E+03  0.28116933241E+03  0.27500654236E+03  0.45486623429E+03  0.12699999809E+01 0. -1.
</event>
<event>
 5   0  0.5072205E-03  0.9905388E+03  0.7818609E-02  0.9318983E-01
        1   -1    0    0  501    0  0.00000000000E+00  0.00000000000E+00  0.39364117053E+03  0.39364117056E+03  0.50400001928E-02 0.  1.
       -1   -1    0    0    0  501  0.00000000000E+00  0.00000000000E+00 -0.62313546509E+03  0.62313546511E+03  0.50400001928E-02 0. -1.
    10030    2    1    2    0    0  0.00000000000E+00  0.00000000000E+00 -0.22949429456E+03  0.10167766357E+04  0.99053879056E+03 0.  0.
        5    1    3    3  502    0  0.18726235879E+03 -0.18004638420E+03 -0.54756243898E+03  0.60607805279E+03  0.46999998093E+01 0. -1.
       -5    1    3    3    0  502 -0.18726235879E+03  0.18004638420E+03  0.31806814442E+03  0.41069858288E+03  0.46999998093E+01 0.  1.
</event>
<event>
 5   0  0.5310275E-03  0.9707259E+03  0.7818609E-02  0.9341248E-01
       -1   -1    0    0    0  501  0.00000000000E+00  0.00000000000E+00  0.57824456340E+03  0.57824456342E+03  0.50400001928E-02 0. -1.
        1   -1    0    0  501    0  0.00000000000E+00  0.00000000000E+00 -0.40740064642E+03  0.40740064645E+03  0.50400001928E-02 0.  1.
    10030    2    1    2    0    0  0.00000000000E+00  0.00000000000E+00  0.17084391698E+03  0.98564520987E+03  0.97072593237E+03 0.  0.
        1    1    3    3  502    0  0.40382013889E+03 -0.22451477726E+03 -0.65522223626E+02  0.46665913855E+03  0.50400001928E-02 0.  1.
       -1    1    3    3    0  502 -0.40382013889E+03  0.22451477726E+03  0.23636614060E+03  0.51898607132E+03  0.50400001928E-02 0. -1.
</event>
<event>
 5   0  0.8875655E-03  0.9386745E+03  0.7818609E-02  0.9378487E-01
       -2   -1    0    0    0  501  0.00000000000E+00  0.00000000000E+00  0.29425173736E+03  0.29425173738E+03  0.25500000920E-02 0. -1.
        2   -1    0    0  501    0  0.00000000000E+00  0.00000000000E+00 -0.74860198967E+03  0.74860198968E+03  0.25500000920E-02 0.  1.
    10030    2    1    2    0    0  0.00000000000E+00  0.00000000000E+00 -0.45435025231E+03  0.10428537271E+04  0.93867446128E+03 0.  0.
        4    1    3    3  502    0  0.23072836764E+03  0.13640259957E+03  0.20085657111E+03  0.33494212017E+03  0.12699999809E+01 0. -1.
       -4    1    3    3    0  502 -0.23072836764E+03 -0.13640259957E+03 -0.65520682342E+03  0.70791160688E+03  0.12699999809E+01 0.  1.
</event>
<event>
 5   0  0.9040674E-03  0.9788063E+03  0.7818609E-02  0.9332100E-01
       -2   -1    0    0    0  501  0.00000000000E+00  0.00000000000E+00  0.18907586315E+03  0.18907586317E+03  0.25500000920E-02 0.  1.
        2   -1    0    0  501    0  0.00000000000E+00  0.00000000000E+00 -0.12667691024E+04  0.12667691024E+04  0.25500000920E-02 0. -1.
    10030    2    1    2    0    0  0.00000000000E+00  0.00000000000E+00 -0.10776932392E+04  0.14558449655E+04  0.97880633724E+03 0.  0.
        1    1    3    3  502    0 -0.41892384657E+03  0.14261547297E+03 -0.22799352698E+03  0.49781262612E+03  0.50400001928E-02 0.  1.
       -1    1    3    3    0  502  0.41892384657E+03 -0.14261547297E+03 -0.84969971225E+03  0.95803233942E+03  0.50400001928E-02 0. -1.
</event>
<event>
 5   0  0.8968798E-03  0.7726538E+03  0.7818609E-02  0.9600465E-01
       -2   -1    0    0    0  501  0.00000000000E+00  0.00000000000E+00  0.43550654276E+03  0.43550654277E+03  0.25500000920E-02 0. -1.
        2   -1    0    0  501    0  0.00000000000E+00  0.00000000000E+00 -0.34270089384E+03  0.34270089385E+03  0.25500000920E-02 0.  1.
    10030    2    1    2    0    0  0.00000000000E+00  0.00000000000E+00  0.92805648919E+02  0.77820743662E+03  0.77265382025E+03 0.  0.
        2    1    3    3  502    0  0.18319980311E+03  0.33276006667E+03 -0.24509568732E+02  0.38064701338E+03  0.25500000920E-02 0.  1.
       -2    1    3    3    0  502 -0.18319980311E+03 -0.33276006667E+03  0.11731521765E+03  0.39756042324E+03  0.25500000920E-02 0. -1.
</event>
<event>
 5   0  0.5189877E-03  0.1080436E+04  0.7818609E-02  0.9224473E-01
       -1   -1    0    0    0  501  0.00000000000E+00  0.00000000000E+00  0.86747171838E+03  0.86747171840E+03  0.50400001928E-02 0. -1.
        1   -1    0    0  501    0  0.00000000000E+00  0.00000000000E+00 -0.33642065601E+03  0.33642065605E+03  0.50400001928E-02 0.  1.
    10030    2    1    2    0    0  0.00000000000E+00  0.00000000000E+00  0.53105106237E+03  0.12038923745E+04  0.10804358465E+04 0.  0.
        3    1    3    3  502    0  0.28210801327E+03 -0.90793861207E+02  0.76880724103E+03  0.82394965893E+03  0.10100000352E+00 0. -1.
       -3    1    3    3    0  502 -0.28210801327E+03  0.90793861207E+02 -0.23775617866E+03  0.37994271552E+03  0.10100000352E+00 0.  1.
</event>
<event>
 5   0  0.9243773E-03  0.1078640E+04  0.7818609E-02  0.9226264E-01
       -2   -1    0    0    0  501  0.00000000000E+00  0.00000000000E+00  0.15891827755E+03  0.15891827757E+03  0.25500000920E-02 0. -1.
        2   -1    0    0  501    0  0.00000000000E+00  0.00000000000E+00 -0.18302876730E+04  0.18302876730E+04  0.25500000920E-02 0.  1.
    10030    2    1    2    0    0  0.00000000000E+00  0.00000000000E+00 -0.16713693954E+04  0.19892059505E+04  0.10786401892E+04 0.  0.
        3    1    3    3  502    0 -0.39998244760E+03  0.33756293198E+03 -0.59571832200E+03  0.79297857525E+03  0.10100000352E+00 0.  1.
       -3    1    3    3    0  502  0.39998244760E+03 -0.33756293198E+03 -0.10756510734E+04  0.11962273753E+04  0.10100000352E+00 0. -1.
</event>
<event>
 5   0  0.8907355E-03  0.1003501E+04  0.7818609E-02  0.9304713E-01
       -2   -1    0    0    0  501  0.00000000000E+00  0.00000000000E+00  0.24794634848E+03  0.24794634849E+03  0.25500000920E-02 0.  1.
        2   -1    0    0  501    0  0.00000000000E+00  0.00000000000E+00 -0.10153558712E+04  0.10153558712E+04  0.25500000920E-02 0. -1.
    10030    2    1    2    0    0  0.00000000000E+00  0.00000000000E+00 -0.76740952268E+03  0.12633022197E+04  0.10035014313E+04 0.  0.
        5    1    3    3  502    0 -0.17472687265E+03  0.13795737574E+03  0.18233584774E+03  0.28780230874E+03  0.46999998093E+01 0.  1.
       -5    1    3    3    0  502  0.17472687265E+03 -0.13795737574E+03 -0.94974537042E+03  0.97549991091E+03  0.46999998093E+01 0. -1.
</event>
<event>
 5   0  0.9040674E-03  0.1009626E+04  0.7818609E-02  0.9298049E-01
        2   -1    0    0  501    0  0.00000000000E+00  0.00000000000E+00  0.14991326288E+04  0.14991326288E+04  0.25500000920E-02 0. -1.
       -2   -1    0    0    0  501  0.00000000000E+00  0.00000000000E+00 -0.16998919312E+03  0.16998919314E+03  0.25500000920E-02 0.  1.
    10030    2    1    2    0    0  0.00000000000E+00  0.00000000000E+00  0.13291434357E+04  0.16691218220E+04  0.10096263586E+04 0.  0.
        1    1    3    3  502    0  0.20906286454E+02 -0.95310872931E+02 -0.15425028633E+03  0.18252228952E+03  0.50400001928E-02 0.  1.
       -1    1    3    3    0  502 -0.20906286454E+02  0.95310872931E+02  0.14833937220E+04  0.14865995325E+04  0.50400001928E-02 0. -1.
</event>
<event>
 5   0  0.5189877E-03  0.1019920E+04  0.7818609E-02  0.9286963E-01
       -1   -1    0    0    0  501  0.00000000000E+00  0.00000000000E+00  0.18151127971E+03  0.18151127978E+03  0.50400001928E-02 0.  1.
        1   -1    0    0  501    0  0.00000000000E+00  0.00000000000E+00 -0.14327431934E+04  0.14327431934E+04  0.50400001928E-02 0. -1.
    10030    2    1    2    0    0  0.00000000000E+00  0.00000000000E+00 -0.12512319137E+04  0.16142544732E+04  0.10199197039E+04 0.  0.
        3    1    3    3  502    0 -0.48070001916E+03  0.12887792020E+03 -0.44953436673E+03  0.67064385765E+03  0.10100000352E+00 0.  1.
       -3    1    3    3    0  502  0.48070001916E+03 -0.12887792020E+03 -0.80169754697E+03  0.94361061554E+03  0.10100000352E+00 0. -1.
</event>
<event>
 5   0  0.5349685E-03  0.9992605E+03  0.7818609E-02  0.9309356E-01
       -1   -1    0    0    0  501  0.00000000000E+00  0.00000000000E+00  0.31409105192E+03  0.31409105196E+03  0.50400001928E-02 0.  1.
        1   -1    0    0  501    0  0.00000000000E+00  0.00000000000E+00 -0.79477081209E+03  0.79477081211E+03  0.50400001928E-02 0. -1.
    10030    2    1    2    0    0  0.00000000000E+00  0.00000000000E+00 -0.48067976017E+03  0.11088618641E+04  0.99926052746E+03 0.  0.
        4    1    3    3  502    0  0.40615668914E+03  0.20918610114E+03 -0.46477766431E+03  0.65172231141E+03  0.12699999809E+01 0. -1.
       -4    1    3    3    0  502 -0.40615668914E+03 -0.20918610114E+03 -0.15902095862E+02  0.45713955265E+03  0.12699999809E+01 0.  1.
</event>
<event>
 5   0  0.5189877E-03  0.7800219E+03  0.7818609E-02  0.9589393E-01
        1   -1    0    0  501    0  0.00000000000E+00  0.00000000000E+00  0.39907643576E+03  0.39907643579E+03  0.50400001928E-02 0.  1.
       -1   -1    0    0    0  501  0.00000000000E+00  0.00000000000E+00 -0.38115142534E+03  0.38115142537E+03  0.50400001928E-02 0. -1.
    10030    2    1    2    0    0  0.00000000000E+00  0.00000000000E+00  0.17925010415E+02  0.78022786116E+03  0.78002192875E+03 0.  0.
        3    1    3    3  502    0 -0.13582745592E+03  0.96962433916E+02  0.36155766912E+03  0.39821447697E+03  0.10100000352E+00 0.  1.
       -3    1    3    3    0  502  0.13582745592E+03 -0.96962433916E+02 -0.34363265870E+03  0.38201338419E+03  0.10100000352E+00 0. -1.
</event>
<event>
 5   0  0.8875655E-03  0.9240326E+03  0.7818609E-02  0.9396028E-01
       -2   -1    0    0    0  501  0.00000000000E+00  0.00000000000E+00  0.13845604806E+03  0.13845604808E+03  0.25500000920E-02 0. -1.
        2   -1    0    0  501    0  0.00000000000E+00  0.00000000000E+00 -0.15417098779E+04  0.15417098779E+04  0.25500000920E-02 0.  1.
    10030    2    1    2    0    0  0.00000000000E+00  0.00000000000E+00 -0.14032538299E+04  0.16801659260E+04  0.92403259027E+03 0.  0.
        4    1    3    3  502    0 -0.22654497142E+03 -0.39549141030E+03 -0.83916237605E+03  0.95495088144E+03  0.12699999809E+01 0.  1.
       -4    1    3    3    0  502  0.22654497142E+03  0.39549141030E+03 -0.56409145381E+03  0.72521504456E+03  0.12699999809E+01 0. -1.
</event>
<event>
 5   0  0.8907355E-03  0.9993446E+03  0.7818609E-02  0.9309264E-01
        2   -1    0    0  501    0  0.00000000000E+00  0.00000000000E+00  0.62204897062E+03  0.62204897063E+03  0.25500000920E-02 0.  1.
       -2   -1    0    0    0  501  0.00000000000E+00  0.00000000000E+00 -0.40137095125E+03  0.40137095126E+03  0.25500000920E-02 0. -1.
    10030    2    1    2    0    0  0.00000000000E+00  0.00000000000E+00  0.22067801937E+03  0.10234199219E+04  0.99934455934E+03 0.  0.
        5    1    3    3  502    0  0.85671381908E+02  0.84151107153E+02  0.60702776129E+03  0.61880997688E+03  0.46999998093E+01 0.  1.
       -5    1    3    3    0  502 -0.85671381908E+02 -0.84151107153E+02 -0.38634974192E+03  0.40460994500E+03  0.46999998093E+01 0. -1.
</event>
<event>
 5   0  0.8968798E-03  0.9994293E+03  0.7818609E-02  0.9309171E-01
        2   -1    0    0  501    0  0.00000000000E+00  0.00000000000E+00  0.11284293694E+03  0.11284293697E+03  0.25500000920E-02 0. -1.
       -2   -1    0    0    0  501  0.00000000000E+00  0.00000000000E+00 -0.22129407688E+04  0.22129407688E+04  0.25500000920E-02 0.  1.
    10030    2    1    2    0    0  0.00000000000E+00  0.00000000000E+00 -0.21000978319E+04  0.23257837058E+04  0.99942930850E+03 0.  0.
        2    1    3    3  502    0 -0.33334465540E+03  0.36999003215E+03 -0.11460955735E+04  0.12496184805E+04  0.25500000920E-02 0. -1.
       -2    1    3    3    0  502  0.33334465540E+03 -0.36999003215E+03 -0.95400225833E+03  0.10761652253E+04  0.25500000920E-02 0.  1.
</event>
<event>
 5   0  0.9243773E-03  0.1007731E+04  0.7818609E-02  0.9300106E-01
       -2   -1    0    0    0  501  0.00000000000E+00  0.00000000000E+00  0.20202230685E+03  0.20202230687E+03  0.25500000920E-02 0. -1.
        2   -1    0    0  501    0  0.00000000000E+00  0.00000000000E+00 -0.12566943137E+04  0.12566943137E+04  0.25500000920E-02 0.  1.
    10030    2    1    2    0    0  0.00000000000E+00  0.00000000000E+00 -0.10546720069E+04  0.14587166206E+04  0.10077306868E+04 0.  0.
        3    1    3    3  502    0  0.75074761053E+02 -0.33184036537E+03 -0.10653136201E+04  0.11183234626E+04  0.10100000352E+00 0.  1.
       -3    1    3    3    0  502 -0.75074761053E+02  0.33184036537E+03  0.10641613196E+02  0.34039315793E+03  0.10100000352E+00 0. -1.
</event>
<event>
 5   0  0.8968798E-03  0.1010936E+04  0.7818609E-02  0.9296631E-01
       -2   -1    0    0    0  501  0.00000000000E+00  0.00000000000E+00  0.41636508675E+03  0.41636508676E+03  0.25500000920E-02 0.  1.
        2   -1    0    0  501    0  0.00000000000E+00  0.00000000000E+00 -0.61363926732E+03  0.61363926733E+03  0.25500000920E-02 0. -1.
    10030    2    1    2    0    0  0.00000000000E+00  0.00000000000E+00 -0.19727418057E+03  0.10300043541E+04  0.10109361340E+04 0.  0.
        2    1    3    3  502    0  0.26781197962E+02  0.49074165422E+03  0.21715318649E+02  0.49195137851E+03  0.25500000920E-02 0.  1.
       -2    1    3    3    0  502 -0.26781197962E+02 -0.49074165422E+03 -0.21898949922E+03  0.53805297557E+03  0.25500000920E-02 0. -1.
</event>
<event>
 5   0  0.9243773E-03  0.8111191E+03  0.7818609E-02  0.9544061E-01
       -2   -1    0    0    0  501  0.00000000000E+00  0.00000000000E+00  0.56363662597E+03  0.56363662598E+03  0.25500000920E-02 0.  1.
        2   -1    0    0  501    0  0.00000000000E+00  0.00000000000E+00 -0.29181666629E+03  0.29181666630E+03  0.25500000920E-02 0. -1.
    10030    2    1    2    0    0  0.00000000000E+00  0.00000000000E+00  0.27181995968E+03  0.85545329228E+03  0.81111913107E+03 0.  0.
        3    1    3    3  502    0 -0.26599739844E+03 -0.19583038942E+03 -0.11226965940E+03  0.34886765975E+03  0.10100000352E+00 0. -1.
       -3    1    3    3    0  502  0.26599739844E+03  0.19583038942E+03  0.38408961908E+03  0.50658563253E+03  0.10100000352E+00 0.  1.
</event>
<event>
 5   0  0.9243773E-03  0.9121901E+03  0.7818609E-02  0.9410470E-01
        2   -1    0    0  501    0  0.00000000000E+00  0.00000000000E+00  0.42346131667E+03  0.42346131668E+03  0.25500000920E-02 0. -1.
       -2   -1    0    0    0  501  0.00000000000E+00  0.00000000000E+00 -0.49124364402E+03  0.49124364402E+03  0.25500000920E-02 0.  1.
    10030    2    1    2    0    0  0.00000000000E+00  0.00000000000E+00 -0.67782327351E+02  0.91470496070E+03  0.91219006859E+03 0.  0.
        3    1    3    3  502    0  0.68576661445E+02 -0.44144508013E+03  0.58265164557E+02  0.45052342543E+03  0.10100000352E+00 0. -1.
       -3    1    3    3    0  502 -0.68576661445E+02  0.44144508013E+03 -0.12604749191E+03  0.46418153526E+03  0.10100000352E+00 0.  1.
</event>
<event>
 5   0  0.8875655E-03  0.9567505E+03  0.7818609E-02  0.9357295E-01
        2   -1    0    0  501    0  0.00000000000E+00  0.00000000000E+00  0.26574913674E+04  0.26574913675E+04  0.25500000920E-02 0. -1.
       -2   -1    0    0    0  501  0.00000000000E+00  0.00000000000E+00 -0.86112371621E+02  0.86112371659E+02  0.25500000920E-02 0.  1.
    10030    2    1    2    0    0  0.00000000000E+00  0.00000000000E+00  0.25713789958E+04  0.27436037391E+04  0.95675050931E+03 0.  0.
        4    1    3    3  502    0 -0.58980705809E+02 -0.39567528952E+03  0.53349819770E+03  0.66682801249E+03  0.12699999809E+01 0.  1.
       -4    1    3    3    0  502  0.58980705809E+02  0.39567528952E+03  0.20378807981E+04  0.20767757266E+04  0.12699999809E+01 0. -1.
</event>
<event>
 5   0  0.5189877E-03  0.1006721E+04  0.7818609E-02  0.9301204E-01
       -1   -1    0    0    0  501  0.00000000000E+00  0.00000000000E+00  0.32494931770E+03  0.32494931774E+03  0.50400001928E-02 0.  1.
        1   -1    0    0  501    0  0.00000000000E+00  0.00000000000E+00 -0.77972737683E+03  0.77972737685E+03  0.50400001928E-02 0. -1.
    10030    2    1    2    0    0  0.00000000000E+00  0.00000000000E+00 -0.45477805914E+03  0.11046766946E+04  0.10067211712E+04 0.  0.
        3    1    3    3  502    0 -0.18338384533E+03  0.13986525680E+03 -0.71833790750E+03  0.75445429573E+03  0.10100000352E+00 0. -1.
       -3    1    3    3    0  502  0.18338384533E+03 -0.13986525680E+03  0.26355984836E+03  0.35022239886E+03  0.10100000352E+00 0.  1.
</event>
<event>
 5   0  0.5201968E-03  0.9751031E+03  0.7818609E-02  0.9336281E-01
        1   -1    0    0  501    0  0.00000000000E+00  0.00000000000E+00  0.39393142769E+03  0.39393142772E+03  0.50400001928E-02 0. -1.
       -1   -1    0    0    0  501  0.00000000000E+00  0.00000000000E+00 -0.60342108369E+03  0.60342108371E+03  0.50400001928E-02 0.  1.
    10030    2    1    2    0    0  0.00000000000E+00  0.00000000000E+00 -0.20948965600E+03  0.99735251144E+03  0.97510313100E+03 0.  0.
        2    1    3    3  502    0 -0.13134860232E+03  0.26714899270E+03 -0.49967091512E+03  0.58162880177E+03  0.25500000920E-02 0.  1.
       -2    1    3    3    0  502  0.13134860232E+03 -0.26714899270E+03  0.29018125911E+03  0.41572370966E+03  0.25500000920E-02 0. -1.
</event>
<event>
 5   0  0.5201968E-03  0.1032740E+04  0.7818609E-02  0.9273347E-01
       -1   -1    0    0    0  501  0.00000000000E+00  0.00000000000E+00  0.40425457560E+03  0.40425457563E+03  0.50400001928E-02 0. -1.
        1   -1    0    0  501    0  0.00000000000E+00  0.00000000000E+00 -0.65957964072E+03  0.65957964074E+03  0.50400001928E-02 0.  1.
    10030    2    1    2    0    0  0.00000000000E+00  0.00000000000E+00 -0.25532506512E+03  0.10638342164E+04  0.10327402147E+04 0.  0.
        2    1    3    3  502    0 -0.40160235524E+03 -0.28153571074E+03  0.38728744572E+02  0.49198244260E+03  0.25500000920E-02 0.  1.
       -2    1    3    3    0  502  0.40160235524E+03  0.28153571074E+03 -0.29405380969E+03  0.57185177377E+03  0.25500000920E-02 0. -1.
</event>
<event>
 5   0  0.5189877E-03  0.1033137E+04  0.7818609E-02  0.9272929E-01
        1   -1    0    0  501    0  0.00000000000E+00  0.00000000000E+00  0.54338290169E+03  0.54338290171E+03  0.50400001928E-02 0. -1.
       -1   -1    0    0    0  501  0.00000000000E+00  0.00000000000E+00 -0.49107714988E+03  0.49107714991E+03  0.50400001928E-02 0.  1.
    10030    2    1    2    0    0  0.00000000000E+00  0.00000000000E+00  0.52305751804E+02  0.10344600516E+04  0.10331368287E+04 0.  0.
        3    1    3    3  502    0 -0.15790502811E+03 -0.81094709770E+02  0.51188507790E+03  0.54179026664E+03  0.10100000352E+00 0. -1.
       -3    1    3    3    0  502  0.15790502811E+03  0.81094709770E+02 -0.45957932609E+03  0.49266978498E+03  0.10100000352E+00 0.  1.
</event>
<event>
 5   0  0.9040674E-03  0.1003283E+04  0.7818609E-02  0.9304951E-01
        2   -1    0    0  501    0  0.00000000000E+00  0.00000000000E+00  0.15295007126E+04  0.15295007126E+04  0.25500000920E-02 0.  1.
       -2   -1    0    0    0  501  0.00000000000E+00  0.00000000000E+00 -0.16452706330E+03  0.16452706332E+03  0.25500000920E-02 0. -1.
    10030    2    1    2    0    0  0.00000000000E+00  0.00000000000E+00  0.13649736493E+04  0.16940277760E+04  0.10032831317E+04 0.  0.
        1    1    3    3  502    0  0.87512475031E+02 -0.62154089930E+02  0.15098832156E+04  0.15136937897E+04  0.50400001928E-02 0.  1.
       -1    1    3    3    0  502 -0.87512475031E+02  0.62154089930E+02 -0.14490956627E+03  0.18033398627E+03  0.50400001928E-02 0. -1.
</event>
<event>
 5   0  0.5189877E-03  0.9988758E+03  0.7818609E-02  0.9309779E-01
       -1   -1    0    0    0  501  0.00000000000E+00  0.00000000000E+00  0.29755504686E+03  0.29755504690E+03  0.50400001928E-02 0.  1.
        1   -1    0    0  501    0  0.00000000000E+00  0.00000000000E+00 -0.83829259673E+03  0.83829259675E+03  0.50400001928E-02 0. -1.
    10030    2    1    2    0    0  0.00000000000E+00  0.00000000000E+00 -0.54073754987E+03  0.11358476437E+04  0.99887575391E+03 0.  0.
        3    1    3    3  502    0 -0.28438882276E+03 -0.37673497853E+03 -0.84797829381E+02  0.47957995019E+03  0.10100000352E+00 0.  1.
       -3    1    3    3    0  502  0.28438882276E+03  0.37673497853E+03 -0.45593972049E+03  0.65626769346E+03  0.10100000352E+00 0. -1.
</event>
<event>
 5   0  0.9243773E-03  0.1011289E+04  0.7818609E-02  0.9296249E-01
        2   -1    0    0  501    0  0.00000000000E+00  0.00000000000E+00  0.21005998015E+03  0.21005998016E+03  0.25500000920E-02 0. -1.
       -2   -1    0    0    0  501  0.00000000000E+00  0.00000000000E+00 -0.12171595930E+04  0.12171595930E+04  0.25500000920E-02 0.  1.
    10030    2    1    2    0    0  0.00000000000E+00  0.00000000000E+00 -0.10070996129E+04  0.14272195732E+04  0.10112893156E+04 0.  0.
        3    1    3    3  502    0 -0.18552046721E+02 -0.25917488869E+03 -0.11157308029E+04  0.11455876379E+04  0.10100000352E+00 0.  1.
       -3    1    3    3    0  502  0.18552046721E+02  0.25917488869E+03  0.10863118997E+03  0.28163193534E+03  0.10100000352E+00 0. -1.
</event>
<event>
 5   0  0.5310275E-03  0.1000734E+04  0.7818609E-02  0.9307740E-01
        1   -1    0    0  501    0  0.00000000000E+00  0.00000000000E+00  0.49554324234E+03  0.49554324237E+03  0.50400001928E-02 0. -1.
       -1   -1    0    0    0  501  0.00000000000E+00  0.00000000000E+00 -0.50523753829E+03  0.50523753832E+03  0.50400001928E-02 0.  1.
    10030    2    1    2    0    0  0.00000000000E+00  0.00000000000E+00 -0.96942959508E+01  0.10007807807E+04  0.10007338266E+04 0.  0.
        1    1    3    3  502    0 -0.31813363869E+02 -0.40028689296E+01  0.49451477805E+03  0.49555320482E+03  0.50400001928E-02 0. -1.
       -1    1    3    3    0  502  0.31813363869E+02  0.40028689296E+01 -0.50420907400E+03  0.50522757586E+03  0.50400001928E-02 0.  1.
</event>
<event>
 5   0  0.8875655E-03  0.9857306E+03  0.7818609E-02  0.9324335E-01
        2   -1    0    0  501    0  0.00000000000E+00  0.00000000000E+00  0.60309074692E+03  0.60309074693E+03  0.25500000920E-02 0.  1.
       -2   -1    0    0    0  501  0.00000000000E+00  0.00000000000E+00 -0.40278549157E+03  0.40278549158E+03  0.25500000920E-02 0. -1.
    10030    2    1    2    0    0  0.00000000000E+00  0.00000000000E+00  0.20030525535E+03  0.10058762385E+04  0.98573059802E+03 0.  0.
        4    1    3    3  502    0 -0.29543821614E+03  0.12159603928E+02  0.50252463498E+03  0.58306450517E+03  0.12699999809E+01 0. -1.
       -4    1    3    3    0  502  0.29543821614E+03 -0.12159603928E+02 -0.30221937963E+03  0.42281173334E+03  0.12699999809E+01 0.  1.
</event>
<event>
 5   0  0.8875655E-03  0.1007584E+04  0.7818609E-02  0.9300265E-01
        2   -1    0    0  501    0  0.00000000000E+00  0.00000000000E+00  0.46564789006E+03  0.46564789007E+03  0.25500000920E-02 0.  1.
       -2   -1    0    0    0  501  0.00000000000E+00  0.00000000000E+00 -0.54506094731E+03  0.54506094731E+03  0.25500000920E-02 0. -1.
    10030    2    1    2    0    0  0.00000000000E+00  0.00000000000E+00 -0.79413057245E+02  0.10107088374E+04  0.10075842001E+04 0.  0.
        4    1    3    3  502    0 -0.13915263136E+03 -0.48291578834E+03 -0.74940285658E+02  0.50812279299E+03  0.12699999809E+01 0. -1.
       -4    1    3    3    0  502  0.13915263136E+03  0.48291578834E+03 -0.44727715869E+01  0.50258604440E+03  0.12699999809E+01 0.  1.
</event>
<event>
 5   0  0.5072205E-03  0.1006983E+04  0.7818609E-02  0.9300919E-01
        1   -1    0    0  501    0  0.00000000000E+00  0.00000000000E+00  0.89851850931E+03  0.89851850932E+03  0.50400001928E-02 0. -1.
       -1   -1    0    0    0  501  0.00000000000E+00  0.00000000000E+00 -0.28213503558E+03  0.28213503562E+03  0.50400001928E-02 0.  1.
    10030    2    1    2    0    0  0.00000000000E+00  0.00000000000E+00  0.61638347373E+03  0.11806535449E+04  0.10069827240E+04 0.  0.
        5    1    3    3  502    0 -0.75294659855E+01  0.32353567644E+03 -0.14400572234E+03  0.35424816845E+03  0.46999998093E+01 0.  1.
       -5    1    3    3    0  502  0.75294659855E+01 -0.32353567644E+03  0.76038919607E+03  0.82640537649E+03  0.46999998093E+01 0. -1.
</event>
<event>
 5   0  0.5189877E-03  0.9991026E+03  0.7818609E-02  0.9309530E-01
       -1   -1    0    0    0  501  0.00000000000E+00  0.00000000000E+00  0.53527859044E+03  0.53527859046E+03  0.50400001928E-02 0. -1.
        1   -1    0    0  501    0  0.00000000000E+00  0.00000000000E+00 -0.46620864163E+03  0.46620864166E+03  0.50400001928E-02 0.  1.
    10030    2    1    2    0    0  0.00000000000E+00  0.00000000000E+00  0.69069948802E+02  0.10014872321E+04  0.99910260648E+03 0.  0.
        3    1    3    3  502    0  0.32931020531E+02  0.15999350820E+03 -0.43868195550E+03  0.46810708504E+03  0.10100000352E+00 0.  1.
       -3    1    3    3    0  502 -0.32931020531E+02 -0.15999350820E+03  0.50775190430E+03  0.53338014708E+03  0.10100000352E+00 0. -1.
</event>
<event>
 5   0  0.5201968E-03  0.1012416E+04  0.7818609E-02  0.9295031E-01
        1   -1    0    0  501    0  0.00000000000E+00  0.00000000000E+00  0.63365300790E+03  0.63365300792E+03  0.50400001928E-02 0. -1.
       -1   -1    0    0    0  501  0.00000000000E+00  0.00000000000E+00 -0.40439564434E+03  0.40439564437E+03  0.50400001928E-02 0.  1.
    10030    2    1    2    0    0  0.00000000000E+00  0.00000000000E+00  0.22925736356E+03  0.10380486523E+04  0.10124159549E+04 0.  0.
        2    1    3    3  502    0  0.90931286747E+02 -0.49718569303E+03  0.85912368811E+02  0.51268220896E+03  0.25500000920E-02 0.  1.
       -2    1    3    3    0  502 -0.90931286747E+02  0.49718569303E+03  0.14334499475E+03  0.52536644334E+03  0.25500000920E-02 0. -1.
</event>
<event>
 5   0  0.8875655E-03  0.9496483E+03  0.7818609E-02  0.9365562E-01
        2   -1    0    0  501    0  0.00000000000E+00  0.00000000000E+00  0.22869741988E+04  0.22869741988E+04  0.25500000920E-02 0. -1.
       -2   -1    0    0    0  501  0.00000000000E+00  0.00000000000E+00 -0.98583531055E+02  0.98583531088E+02  0.25500000920E-02 0.  1.
    10030    2    1    2    0    0  0.00000000000E+00  0.00000000000E+00  0.21883906678E+04  0.23855577299E+04  0.94964833911E+03 0.  0.
        4    1    3    3  502    0  0.59689236057E+02  0.11069705827E+02  0.22771811303E+04  0.22779905303E+04  0.12699999809E+01 0. -1.
       -4    1    3    3    0  502 -0.59689236057E+02 -0.11069705827E+02 -0.88790462522E+02  0.10756719957E+03  0.12699999809E+01 0.  1.
</event>
<event>
 5   0  0.5189877E-03  0.8852443E+03  0.7818609E-02  0.9444217E-01
        1   -1    0    0  501    0  0.00000000000E+00  0.00000000000E+00  0.40026831869E+03  0.40026831872E+03  0.50400001928E-02 0.  1.
       -1   -1    0    0    0  501  0.00000000000E+00  0.00000000000E+00 -0.48945754346E+03  0.48945754348E+03  0.50400001928E-02 0. -1.
    10030    2    1    2    0    0  0.00000000000E+00  0.00000000000E+00 -0.89189224771E+02  0.88972586220E+03  0.88524425559E+03 0.  0.
        3    1    3    3  502    0 -0.41832512172E+03  0.41682233781E+02 -0.18379132097E+03  0.45881649484E+03  0.10100000352E+00 0. -1.
       -3    1    3    3    0  502  0.41832512172E+03 -0.41682233781E+02  0.94602096201E+02  0.43090936736E+03  0.10100000352E+00 0.  1.
</event>
<event>
 5   0  0.8968798E-03  0.1011698E+04  0.7818609E-02  0.9295807E-01
        2   -1    0    0  501    0  0.00000000000E+00  0.00000000000E+00  0.58606758030E+03  0.58606758031E+03  0.25500000920E-02 0. -1.
       -2   -1    0    0    0  501  0.00000000000E+00  0.00000000000E+00 -0.43661006688E+03  0.43661006688E+03  0.25500000920E-02 0.  1.
    10030    2    1    2    0    0  0.00000000000E+00  0.00000000000E+00  0.14945751342E+03  0.10226776472E+04  0.10116975940E+04 0.  0.
        2    1    3    3  502    0 -0.31163493233E+01  0.49821844008E+03  0.16315199973E+03  0.52426129048E+03  0.25500000920E-02 0. -1.
       -2    1    3    3    0  502  0.31163493233E+01 -0.49821844008E+03 -0.13694486306E+02  0.49841635671E+03  0.25500000920E-02 0.  1.
</event>
<event>
 5   0  0.8875655E-03  0.9718916E+03  0.7818609E-02  0.9339922E-01
        2   -1    0    0  501    0  0.00000000000E+00  0.00000000000E+00  0.32402780342E+03  0.32402780343E+03  0.25500000920E-02 0. -1.
       -2   -1    0    0    0  501  0.00000000000E+00  0.00000000000E+00 -0.72877492489E+03  0.72877492489E+03  0.25500000920E-02 0.  1.
    10030    2    1    2    0    0  0.00000000000E+00  0.00000000000E+00 -0.40474712147E+03  0.10528027283E+04  0.97189163615E+03 0.  0.
        4    1    3    3  502    0  0.10574775817E+03  0.47406952018E+03 -0.21833918658E+03  0.53253930523E+03  0.12699999809E+01 0. -1.
       -4    1    3    3    0  502 -0.10574775817E+03 -0.47406952018E+03 -0.18640793489E+03  0.52026342309E+03  0.12699999809E+01 0.  1.
</event>
<event>
 5   0  0.5072205E-03  0.9762574E+03  0.7818609E-02  0.9334976E-01
       -1   -1    0    0    0  501  0.00000000000E+00  0.00000000000E+00  0.13516531290E+03  0.13516531300E+03  0.50400001928E-02 0. -1.
        1   -1    0    0  501    0  0.00000000000E+00  0.00000000000E+00 -0.17628014824E+04  0.17628014824E+04  0.50400001928E-02 0.  1.
    10030    2    1    2    0    0  0.00000000000E+00  0.00000000000E+00 -0.16276361695E+04  0.18979667954E+04  0.97625737189E+03 0.  0.
        5    1    3    3  502    0  0.41435408631E+03  0.22846701681E+03 -0.58083886257E+03  0.74918780081E+03  0.46999998093E+01 0.  1.
       -5    1    3    3    0  502 -0.41435408631E+03 -0.22846701681E+03 -0.10467973069E+04  0.11487789946E+04  0.46999998093E+01 0. -1.
</event>
<event>
 5   0  0.3513625E-03  0.1014522E+04  0.7818609E-02  0.9292759E-01
       -4   -1    0    0    0  501  0.00000000000E+00  0.00000000000E+00  0.44609110209E+03  0.44609290990E+03  0.12699999809E+01 0.  1.
        4   -1    0    0  501    0  0.00000000000E+00  0.00000000000E+00 -0.57681518732E+03  0.57681658543E+03  0.12699999809E+01 0. -1.
    10030    2    1    2    0    0  0.00000000000E+00  0.00000000000E+00 -0.13072408523E+03  0.10229094953E+04  0.10145220792E+04 0.  0.
        1    1    3    3  502    0  0.12205171998E+03  0.35279149012E+03 -0.41164765272E+03  0.55570877973E+03  0.50400001928E-02 0. -1.
       -1    1    3    3    0  502 -0.12205171998E+03 -0.35279149012E+03  0.28092356749E+03  0.46720071559E+03  0.50400001928E-02 0.  1.
</event>
<event>
 5   0  0.8968798E-03  0.9951137E+03  0.7818609E-02  0.9313920E-01
        2   -1    0    0  501    0  0.00000000000E+00  0.00000000000E+00  0.89142267057E+03  0.89142267057E+03  0.25500000920E-02 0.  1.
       -2   -1    0    0    0  501  0.00000000000E+00  0.00000000000E+00 -0.27771653885E+03  0.27771653886E+03  0.25500000920E-02 0. -1.
    10030    2    1    2    0    0  0.00000000000E+00  0.00000000000E+00  0.61370613172E+03  0.11691392094E+04  0.99511369950E+03 0.  0.
        2    1    3    3  502    0  0.77803741544E+02 -0.48974225668E+03  0.35474897135E+03  0.60971118807E+03  0.25500000920E-02 0. -1.
       -2    1    3    3    0  502 -0.77803741544E+02  0.48974225668E+03  0.25895716037E+03  0.55942802137E+03  0.25500000920E-02 0.  1.
</event>
<event>
 5   0  0.9243773E-03  0.1002236E+04  0.7818609E-02  0.9306096E-01
        2   -1    0    0  501    0  0.00000000000E+00  0.00000000000E+00  0.87690025324E+03  0.87690025324E+03  0.25500000920E-02 0. -1.
       -2   -1    0    0    0  501  0.00000000000E+00  0.00000000000E+00 -0.28637158239E+03  0.28637158240E+03  0.25500000920E-02 0.  1.
    10030    2    1    2    0    0  0.00000000000E+00  0.00000000000E+00  0.59052867085E+03  0.11632718356E+04  0.10022361261E+04 0.  0.
        3    1    3    3  502    0  0.36212134616E+03 -0.12553702692E+03  0.66998110561E+03  0.77185886439E+03  0.10100000352E+00 0. -1.
       -3    1    3    3    0  502 -0.36212134616E+03  0.12553702692E+03 -0.79452434761E+02  0.39141297125E+03  0.10100000352E+00 0.  1.
</event>
<event>
 5   0  0.8907355E-03  0.9715121E+03  0.7818609E-02  0.9340354E-01
       -2   -1    0    0    0  501  0.00000000000E+00  0.00000000000E+00  0.22548361452E+03  0.22548361453E+03  0.25500000920E-02 0.  1.
        2   -1    0    0  501    0  0.00000000000E+00  0.00000000000E+00 -0.10464571735E+04  0.10464571735E+04  0.25500000920E-02 0. -1.
    10030    2    1    2    0    0  0.00000000000E+00  0.00000000000E+00 -0.82097355903E+03  0.12719407881E+04  0.97151211199E+03 0.  0.
        5    1    3    3  502    0  0.36520756804E+03 -0.77090516934E+02 -0.81744161586E+03  0.89863919395E+03  0.46999998093E+01 0. -1.
       -5    1    3    3    0  502 -0.36520756804E+03  0.77090516934E+02 -0.35319431632E+01  0.37330159413E+03  0.46999998093E+01 0.  1.
</event>
<event>
 5   0  0.5201968E-03  0.9892463E+03  0.7818609E-02  0.9320419E-01
        1   -1    0    0  501    0  0.00000000000E+00  0.00000000000E+00  0.54361585840E+03  0.54361585843E+03  0.50400001928E-02 0.  1.
       -1   -1    0    0    0  501  0.00000000000E+00  0.00000000000E+00 -0.45004581317E+03  0.45004581320E+03  0.50400001928E-02 0. -1.
    10030    2    1    2    0    0  0.00000000000E+00  0.00000000000E+00  0.93570045236E+02  0.99366167162E+03  0.98924626069E+03 0.  0.
        2    1    3    3  502    0 -0.23486670078E+03  0.42979760311E+03 -0.22542560858E+02  0.49030247177E+03  0.25500000920E-02 0. -1.
       -2    1    3    3    0  502  0.23486670078E+03 -0.42979760311E+03  0.11611260609E+03  0.50335919985E+03  0.25500000920E-02 0.  1.
</event>
<event>
 5   0  0.8968798E-03  0.9780355E+03  0.7818609E-02  0.9332969E-01
       -2   -1    0    0    0  501  0.00000000000E+00  0.00000000000E+00  0.10764266952E+04  0.10764266952E+04  0.25500000920E-02 0. -1.
        2   -1    0    0  501    0  0.00000000000E+00  0.00000000000E+00 -0.22215945076E+03  0.22215945077E+03  0.25500000920E-02 0.  1.
    10030    2    1    2    0    0  0.00000000000E+00  0.00000000000E+00  0.85426724445E+03  0.12985861460E+04  0.97803550732E+03 0.  0.
        2    1    3    3  502    0 -0.30565495535E+03  0.35411154413E+02 -0.77515055330E+02  0.31731291401E+03  0.25500000920E-02 0.  1.
       -2    1    3    3    0  502  0.30565495535E+03 -0.35411154413E+02  0.93178229978E+03  0.98127323196E+03  0.25500000920E-02 0. -1.
</event>
<event>
 5   0  0.5201968E-03  0.1004397E+04  0.7818609E-02  0.9303735E-01
       -1   -1    0    0    0  501  0.00000000000E+00  0.00000000000E+00  0.38109767497E+03  0.38109767501E+03  0.50400001928E-02 0.  1.
        1   -1    0    0  501    0  0.00000000000E+00  0.00000000000E+00 -0.66178196192E+03  0.66178196194E+03  0.50400001928E-02 0. -1.
    10030    2    1    2    0    0  0.00000000000E+00  0.00000000000E+00 -0.28068428695E+03  0.10428796369E+04  0.10043974653E+04 0.  0.
        2    1    3    3  502    0  0.40512168736E+03 -0.12716359645E+03  0.13809131884E+03  0.44650125887E+03  0.25500000920E-02 0.  1.
       -2    1    3    3    0  502 -0.40512168736E+03  0.12716359645E+03 -0.41877560578E+03  0.59637837807E+03  0.25500000920E-02 0. -1.
</event>
<event>
 5   0  0.8907355E-03  0.9610412E+03  0.7818609E-02  0.9352337E-01
        2   -1    0    0  501    0  0.00000000000E+00  0.00000000000E+00  0.74268408811E+03  0.74268408812E+03  0.25500000920E-02 0.  1.
       -2   -1    0    0    0  501  0.00000000000E+00  0.00000000000E+00 -0.31089938732E+03  0.31089938733E+03  0.25500000920E-02 0. -1.
    10030    2    1    2    0    0  0.00000000000E+00  0.00000000000E+00  0.43178470079E+03  0.10535834755E+04  0.96104116036E+03 0.  0.
        5    1    3    3  502    0 -0.11982522106E+03  0.46122818162E+03  0.14841532069E+03  0.49913797344E+03  0.46999998093E+01 0. -1.
       -5    1    3    3    0  502  0.11982522106E+03 -0.46122818162E+03  0.28336938011E+03  0.55444550201E+03  0.46999998093E+01 0.  1.
</event>
<event>
 5   0  0.5349685E-03  0.9838089E+03  0.7818609E-02  0.9326483E-01
       -1   -1    0    0    0  501  0.00000000000E+00  0.00000000000E+00  0.15830128335E+03  0.15830128343E+03  0.50400001928E-02 0. -1.
        1   -1    0    0  501    0  0.00000000000E+00  0.00000000000E+00 -0.15285409947E+04  0.15285409947E+04  0.50400001928E-02 0.  1.
    10030    2    1    2    0    0  0.00000000000E+00  0.00000000000E+00 -0.13702397113E+04  0.16868422781E+04  0.98380892696E+03 0.  0.
        4    1    3    3  502    0  0.35954264751E+02  0.32796925171E+03 -0.59555382310E+02  0.33526854264E+03  0.12699999809E+01 0. -1.
       -4    1    3    3    0  502 -0.35954264751E+02 -0.32796925171E+03 -0.13106843290E+04  0.13515737355E+04  0.12699999809E+01 0.  1.
</event>
<event>
 5   0  0.5201968E-03  0.1004685E+04  0.7818609E-02  0.9303421E-01
        1   -1    0    0  501    0  0.00000000000E+00  0.00000000000E+00  0.87530360597E+03  0.87530360598E+03  0.50400001928E-02 0.  1.
       -1   -1    0    0    0  501  0.00000000000E+00  0.00000000000E+00 -0.28829791513E+03  0.28829791517E+03  0.50400001928E-02 0. -1.
    10030    2    1    2    0    0  0.00000000000E+00  0.00000000000E+00  0.58700569084E+03  0.11636015212E+04  0.10046854328E+04 0.  0.
        2    1    3    3  502    0 -0.47912524849E+03  0.13014362691E+03  0.38208496565E+03  0.62648805922E+03  0.25500000920E-02 0. -1.
       -2    1    3    3    0  502  0.47912524849E+03 -0.13014362691E+03  0.20492072519E+03  0.53711346193E+03  0.25500000920E-02 0.  1.
</event>
<event>
 5   0  0.5310275E-03  0.1008305E+04  0.7818609E-02  0.9299483E-01
       -1   -1    0    0    0  501  0.00000000000E+00  0.00000000000E+00  0.85353504836E+03  0.85353504837E+03  0.50400001928E-02 0.  1.
        1   -1    0    0  501    0  0.00000000000E+00  0.00000000000E+00 -0.29778461111E+03  0.29778461115E+03  0.50400001928E-02 0. -1.
    10030    2    1    2    0    0  0.00000000000E+00  0.00000000000E+00  0.55575043725E+03  0.11513196595E+04  0.10083047208E+04 0.  0.
        1    1    3    3  502    0  0.49842457266E+03  0.75681841385E+02  0.28226894723E+03  0.57778071476E+03  0.50400001928E-02 0. -1.
       -1    1    3    3    0  502 -0.49842457266E+03 -0.75681841385E+02  0.27348149001E+03  0.57353894476E+03  0.50400001928E-02 0.  1.
</event>
<event>
 5   0  0.8907355E-03  0.9256907E+03  0.7818609E-02  0.9394025E-01
       -2   -1    0    0    0  501  0.00000000000E+00  0.00000000000E+00  0.15493292586E+03  0.15493292589E+03  0.25500000920E-02 0.  1.
        2   -1    0    0  501    0  0.00000000000E+00  0.00000000000E+00 -0.13827003365E+04  0.13827003365E+04  0.25500000920E-02 0. -1.
    10030    2    1    2    0    0  0.00000000000E+00  0.00000000000E+00 -0.12277674106E+04  0.15376332624E+04  0.92569067997E+03 0.  0.
        5    1    3    3  502    0  0.14535017132E+02  0.46052565491E+03 -0.68645105862E+03  0.82676011723E+03  0.46999998093E+01 0.  1.
       -5    1    3    3    0  502 -0.14535017132E+02 -0.46052565491E+03 -0.54131635200E+03  0.71087314515E+03  0.46999998093E+01 0. -1.
</event>
<event>
 5   0  0.5072205E-03  0.1245825E+04  0.7818609E-02  0.9073665E-01
       -1   -1    0    0    0  501  0.00000000000E+00  0.00000000000E+00  0.50846033534E+03  0.50846033536E+03  0.50400001928E-02 0.  1.
        1   -1    0    0  501    0  0.00000000000E+00  0.00000000000E+00 -0.76312758133E+03  0.76312758134E+03  0.50400001928E-02 0. -1.
    10030    2    1    2    0    0  0.00000000000E+00  0.00000000000E+00 -0.25466724599E+03  0.12715879167E+04  0.12458251979E+04 0.  0.
        5    1    3    3  502    0 -0.58922154536E+02 -0.14949953680E+03  0.48692203591E+03  0.51277391787E+03  0.46999998093E+01 0.  1.
       -5    1    3    3    0  502  0.58922154536E+02  0.14949953680E+03 -0.74158928190E+03  0.75881399883E+03  0.46999998093E+01 0. -1.
</event>
<event>
 5   0  0.5189877E-03  0.9976893E+03  0.7818609E-02  0.9311083E-01
       -1   -1    0    0    0  501  0.00000000000E+00  0.00000000000E+00  0.52332142997E+03  0.52332142999E+03  0.50400001928E-02 0.  1.
        1   -1    0    0  501    0  0.00000000000E+00  0.00000000000E+00 -0.47551267587E+03  0.47551267590E+03  0.50400001928E-02 0. -1.
    10030    2    1    2    0    0  0.00000000000E+00  0.00000000000E+00  0.47808754095E+02  0.99883410589E+03  0.99768927734E+03 0.  0.
        3    1    3    3  502    0  0.41218897528E+03  0.13101543720E+03 -0.22493901520E+03  0.48750627369E+03  0.10100000352E+00 0. -1.
       -3    1    3    3    0  502 -0.41218897528E+03 -0.13101543720E+03  0.27274776929E+03  0.51132783220E+03  0.10100000352E+00 0.  1.
</event>
<event>
 5   0  0.9040674E-03  0.9687332E+03  0.7818609E-02  0.9343518E-01
       -2   -1    0    0    0  501  0.00000000000E+00  0.00000000000E+00  0.39411939814E+03  0.39411939815E+03  0.25500000920E-02 0. -1.
        2   -1    0    0  501    0  0.00000000000E+00  0.00000000000E+00 -0.59527897090E+03  0.59527897090E+03  0.25500000920E-02 0.  1.
    10030    2    1    2    0    0  0.00000000000E+00  0.00000000000E+00 -0.20115957275E+03  0.98939836905E+03  0.96873317223E+03 0.  0.
        1    1    3    3  502    0 -0.28250730893E+03  0.22445712494E+02  0.30060594495E+03  0.41313208998E+03  0.50400001928E-02 0. -1.
       -1    1    3    3    0  502  0.28250730893E+03 -0.22445712494E+02 -0.50176551770E+03  0.57626627907E+03  0.50400001928E-02 0.  1.
</event>
<event>
 5   0  0.5310275E-03  0.9965999E+03  0.7818609E-02  0.9312282E-01
        1   -1    0    0  501    0  0.00000000000E+00  0.00000000000E+00  0.72760496538E+03  0.72760496540E+03  0.50400001928E-02 0.  1.
       -1   -1    0    0    0  501  0.00000000000E+00  0.00000000000E+00 -0.34126052510E+03  0.34126052514E+03  0.50400001928E-02 0. -1.
    10030    2    1    2    0    0  0.00000000000E+00  0.00000000000E+00  0.38634444028E+03  0.10688654905E+04  0.99659992491E+03 0.  0.
        1    1    3    3  502    0  0.62580792523E+02 -0.45308617076E+03  0.40524618535E+03  0.61108747696E+03  0.50400001928E-02 0.  1.
       -1    1    3    3    0  502 -0.62580792523E+02  0.45308617076E+03 -0.18901745079E+02  0.45777801358E+03  0.50400001928E-02 0. -1.
</event>
<event>
 5   0  0.9243773E-03  0.9774256E+03  0.7818609E-02  0.9333656E-01
        2   -1    0    0  501    0  0.00000000000E+00  0.00000000000E+00  0.57692685815E+03  0.57692685816E+03  0.25500000920E-02 0. -1.
       -2   -1    0    0    0  501  0.00000000000E+00  0.00000000000E+00 -0.41398700387E+03  0.41398700387E+03  0.25500000920E-02 0.  1.
    10030    2    1    2    0    0  0.00000000000E+00  0.00000000000E+00  0.16293985428E+03  0.99091386203E+03  0.97742564211E+03 0.  0.
        3    1    3    3  502    0  0.79023439257E+01 -0.41971225804E+02  0.57503131088E+03  0.57661516588E+03  0.10100000352E+00 0. -1.
       -3    1    3    3    0  502 -0.79023439257E+01  0.41971225804E+02 -0.41209145659E+03  0.41429869615E+03  0.10100000352E+00 0.  1.
</event>
<event>
 5   0  0.5310275E-03  0.9658189E+03  0.7818609E-02  0.9346849E-01
        1   -1    0    0  501    0  0.00000000000E+00  0.00000000000E+00  0.71221337799E+03  0.71221337801E+03  0.50400001928E-02 0. -1.
       -1   -1    0    0    0  501  0.00000000000E+00  0.00000000000E+00 -0.32743210981E+03  0.32743210985E+03  0.50400001928E-02 0.  1.
    10030    2    1    2    0    0  0.00000000000E+00  0.00000000000E+00  0.38478126818E+03  0.10396454879E+04  0.96581888368E+03 0.  0.
        1    1    3    3  502    0  0.22408149683E+02  0.23301747896E+03  0.64705378188E+03  0.68809728044E+03  0.50400001928E-02 0. -1.
       -1    1    3    3    0  502 -0.22408149683E+02 -0.23301747896E+03 -0.26227251370E+03  0.35154820742E+03  0.50400001928E-02 0.  1.
</event>
<event>
 5   0  0.5349685E-03  0.9799076E+03  0.7818609E-02  0.9330860E-01
        1   -1    0    0  501    0  0.00000000000E+00  0.00000000000E+00  0.29228891599E+03  0.29228891604E+03  0.50400001928E-02 0.  1.
       -1   -1    0    0    0  501  0.00000000000E+00  0.00000000000E+00 -0.82129257934E+03  0.82129257936E+03  0.50400001928E-02 0. -1.
    10030    2    1    2    0    0  0.00000000000E+00  0.00000000000E+00 -0.52900366335E+03  0.11135814954E+04  0.97990758291E+03 0.  0.
        4    1    3    3  502    0  0.20663259432E+03 -0.39605055899E+03 -0.35802675323E+02  0.44814787601E+03  0.12699999809E+01 0.  1.
       -4    1    3    3    0  502 -0.20663259432E+03  0.39605055899E+03 -0.49320098803E+03  0.66543361938E+03  0.12699999809E+01 0. -1.
</event>
<event>
 5   0  0.9040674E-03  0.9906023E+03  0.7818609E-02  0.9318913E-01
       -2   -1    0    0    0  501  0.00000000000E+00  0.00000000000E+00  0.53225322917E+03  0.53225322917E+03  0.25500000920E-02 0.  1.
        2   -1    0    0  501    0  0.00000000000E+00  0.00000000000E+00 -0.46091447618E+03  0.46091447619E+03  0.25500000920E-02 0. -1.
    10030    2    1    2    0    0  0.00000000000E+00  0.00000000000E+00  0.71338752988E+02  0.99316770536E+03  0.99060227806E+03 0.  0.
        1    1    3    3  502    0 -0.13293437739E+02  0.23708707323E+03 -0.40012425655E+03  0.46528100808E+03  0.50400001928E-02 0. -1.
       -1    1    3    3    0  502  0.13293437739E+02 -0.23708707323E+03  0.47146300954E+03  0.52788669728E+03  0.50400001928E-02 0.  1.
</event>
<event>
 5   0  0.5310275E-03  0.9994233E+03  0.7818609E-02  0.9309178E-01
       -1   -1    0    0    0  501  0.00000000000E+00  0.00000000000E+00  0.16877788578E+03  0.16877788586E+03  0.50400001928E-02 0. -1.
        1   -1    0    0  501    0  0.00000000000E+00  0.00000000000E+00 -0.14795287897E+04  0.14795287898E+04  0.50400001928E-02 0.  1.
    10030    2    1    2    0    0  0.00000000000E+00  0.00000000000E+00 -0.13107509040E+04  0.16483066756E+04  0.99942331602E+03 0.  0.
        1    1    3    3  502    0  0.35543939180E+03 -0.25087137334E+03 -0.24991914183E+03  0.50173019112E+03  0.50400001928E-02 0. -1.
       -1    1    3    3    0  502 -0.35543939180E+03  0.25087137334E+03 -0.10608317621E+04  0.11465764845E+04  0.50400001928E-02 0.  1.
</event>
<event>
 5   0  0.5310275E-03  0.1000046E+04  0.7818609E-02  0.9308494E-01
        1   -1    0    0  501    0  0.00000000000E+00  0.00000000000E+00  0.11381826835E+04  0.11381826835E+04  0.50400001928E-02 0.  1.
       -1   -1    0    0    0  501  0.00000000000E+00  0.00000000000E+00 -0.21966864529E+03  0.21966864534E+03  0.50400001928E-02 0. -1.
    10030    2    1    2    0    0  0.00000000000E+00  0.00000000000E+00  0.91851403818E+03  0.13578513288E+04  0.10000460954E+04 0.  0.
        1    1    3    3  502    0  0.14869728776E+03 -0.41270529070E+03  0.78508814906E+03  0.89933305408E+03  0.50400001928E-02 0.  1.
       -1    1    3    3    0  502 -0.14869728776E+03  0.41270529070E+03  0.13342588912E+03  0.45851827474E+03  0.50400001928E-02 0. -1.
</event>
<event>
 5   0  0.9243773E-03  0.1006953E+04  0.7818609E-02  0.9300952E-01
       -2   -1    0    0    0  501  0.00000000000E+00  0.00000000000E+00  0.57743260103E+03  0.57743260103E+03  0.25500000920E-02 0. -1.
        2   -1    0    0  501    0  0.00000000000E+00  0.00000000000E+00 -0.43899249498E+03  0.43899249499E+03  0.25500000920E-02 0.  1.
    10030    2    1    2    0    0  0.00000000000E+00  0.00000000000E+00  0.13844010605E+03  0.10164250960E+04  0.10069529844E+04 0.  0.
        3    1    3    3  502    0 -0.30736375759E+03  0.27372679538E+03  0.36193012406E+03  0.54808052592E+03  0.10100000352E+00 0. -1.
       -3    1    3    3    0  502  0.30736375759E+03 -0.27372679538E+03 -0.22349001801E+03  0.46834457010E+03  0.10100000352E+00 0.  1.
</event>
<event>
 5   0  0.8907355E-03  0.9873293E+03  0.7818609E-02  0.9322552E-01
       -2   -1    0    0    0  501  0.00000000000E+00  0.00000000000E+00  0.46941149429E+03  0.46941149430E+03  0.25500000920E-02 0. -1.
        2   -1    0    0  501    0  0.00000000000E+00  0.00000000000E+00 -0.51917086909E+03  0.51917086910E+03  0.25500000920E-02 0.  1.
    10030    2    1    2    0    0  0.00000000000E+00  0.00000000000E+00 -0.49759374799E+02  0.98858236340E+03  0.98732927326E+03 0.  0.
        5    1    3    3  502    0 -0.13821688221E+03  0.70383991808E+02 -0.49411598996E+03  0.51790975503E+03  0.46999998093E+01 0.  1.
       -5    1    3    3    0  502  0.13821688221E+03 -0.70383991808E+02  0.44435661516E+03  0.47067260836E+03  0.46999998093E+01 0. -1.
</event>
<event>
 5   0  0.8968798E-03  0.9974155E+03  0.7818609E-02  0.9311384E-01
        2   -1    0    0  501    0  0.00000000000E+00  0.00000000000E+00  0.60934522214E+03  0.60934522215E+03  0.25500000920E-02 0. -1.
       -2   -1    0    0    0  501  0.00000000000E+00  0.00000000000E+00 -0.40815848570E+03  0.40815848571E+03  0.25500000920E-02 0.  1.
    10030    2    1    2    0    0  0.00000000000E+00  0.00000000000E+00  0.20118673644E+03  0.10175037079E+04  0.99741550649E+03 0.  0.
        2    1    3    3  502    0 -0.23071214373E+02 -0.23765368217E+03 -0.34605785521E+03  0.42043738267E+03  0.25500000920E-02 0.  1.
       -2    1    3    3    0  502  0.23071214373E+02  0.23765368217E+03  0.54724459165E+03  0.59706632519E+03  0.25500000920E-02 0. -1.
</event>
<event>
 5   0  0.8968798E-03  0.9994356E+03  0.7818609E-02  0.9309164E-01
        2   -1    0    0  501    0  0.00000000000E+00  0.00000000000E+00  0.16736781726E+04  0.16736781726E+04  0.25500000920E-02 0.  1.
       -2   -1    0    0    0  501  0.00000000000E+00  0.00000000000E+00 -0.14920305836E+03  0.14920305838E+03  0.25500000920E-02 0. -1.
    10030    2    1    2    0    0  0.00000000000E+00  0.00000000000E+00  0.15244751142E+04  0.18228812310E+04  0.99943564492E+03 0.  0.
        2    1    3    3  502    0  0.96924881205E+02  0.15270150265E+03 -0.87410620212E+02  0.20088005884E+03  0.25500000920E-02 0. -1.
       -2    1    3    3    0  502 -0.96924881205E+02 -0.15270150265E+03  0.16118857345E+04  0.16220011721E+04  0.25500000920E-02 0.  1.
</event>
<event>
 5   0  0.9243773E-03  0.1004323E+04  0.7818609E-02  0.9303816E-01
       -2   -1    0    0    0  501  0.00000000000E+00  0.00000000000E+00  0.64339871013E+03  0.64339871014E+03  0.25500000920E-02 0. -1.
        2   -1    0    0  501    0  0.00000000000E+00  0.00000000000E+00 -0.39192823694E+03  0.39192823695E+03  0.25500000920E-02 0.  1.
    10030    2    1    2    0    0  0.00000000000E+00  0.00000000000E+00  0.25147047319E+03  0.10353269471E+04  0.10043229005E+04 0.  0.
        3    1    3    3  502    0  0.67180466015E+02 -0.31418986308E+03 -0.27210285874E+03  0.42103261276E+03  0.10100000352E+00 0.  1.
       -3    1    3    3    0  502 -0.67180466015E+02  0.31418986308E+03  0.52357333193E+03  0.61429433432E+03  0.10100000352E+00 0. -1.
</event>
<event>
 5   0  0.5201968E-03  0.1009391E+04  0.7818609E-02  0.9298304E-01
        1   -1    0    0  501    0  0.00000000000E+00  0.00000000000E+00  0.99323987439E+03  0.99323987440E+03  0.50400001928E-02 0.  1.
       -1   -1    0    0    0  501  0.00000000000E+00  0.00000000000E+00 -0.25645132604E+03  0.25645132609E+03  0.50400001928E-02 0. -1.
    10030    2    1    2    0    0  0.00000000000E+00  0.00000000000E+00  0.73678854835E+03  0.12496912005E+04  0.10093912678E+04 0.  0.
        2    1    3    3  502    0  0.17154311548E+03  0.15607065127E+03  0.92336281364E+03  0.95204200238E+03  0.25500000920E-02 0.  1.
       -2    1    3    3    0  502 -0.17154311548E+03 -0.15607065127E+03 -0.18657426530E+03  0.29764919811E+03  0.25500000920E-02 0. -1.
</event>
<event>
 5   0  0.9040674E-03  0.1000680E+04  0.7818609E-02  0.9307799E-01
        2   -1    0    0  501    0  0.00000000000E+00  0.00000000000E+00  0.36363133806E+03  0.36363133807E+03  0.25500000920E-02 0. -1.
       -2   -1    0    0    0  501  0.00000000000E+00  0.00000000000E+00 -0.68844486300E+03  0.68844486301E+03  0.25500000920E-02 0.  1.
    10030    2    1    2    0    0  0.00000000000E+00  0.00000000000E+00 -0.32481352494E+03  0.10520762011E+04  0.10006800222E+04 0.  0.
        1    1    3    3  502    0 -0.39998074034E+03 -0.29761112187E+03 -0.11801049937E+03  0.51233138738E+03  0.50400001928E-02 0.  1.
       -1    1    3    3    0  502  0.39998074034E+03  0.29761112187E+03 -0.20680302557E+03  0.53974481370E+03  0.50400001928E-02 0. -1.
</event>
<event>
 5   0  0.5310275E-03  0.1007369E+04  0.7818609E-02  0.9300499E-01
       -1   -1    0    0    0  501  0.00000000000E+00  0.00000000000E+00  0.22942780054E+03  0.22942780060E+03  0.50400001928E-02 0. -1.
        1   -1    0    0  501    0  0.00000000000E+00  0.00000000000E+00 -0.11057859394E+04  0.11057859394E+04  0.50400001928E-02 0.  1.
    10030    2    1    2    0    0  0.00000000000E+00  0.00000000000E+00 -0.87635813884E+03  0.13352137400E+04  0.10073689215E+04 0.  0.
        1    1    3    3  502    0  0.44628697873E+03  0.32966724068E+02 -0.74458140471E+03  0.86871188581E+03  0.50400001928E-02 0.  1.
       -1    1    3    3    0  502 -0.44628697873E+03 -0.32966724068E+02 -0.13177673413E+03  0.46650185419E+03  0.50400001928E-02 0. -1.
</event>
<event>
 5   0  0.5189877E-03  0.9967109E+03  0.7818609E-02  0.9312160E-01
       -1   -1    0    0    0  501  0.00000000000E+00  0.00000000000E+00  0.27338600619E+03  0.27338600624E+03  0.50400001928E-02 0. -1.
        1   -1    0    0  501    0  0.00000000000E+00  0.00000000000E+00 -0.90845231349E+03  0.90845231350E+03  0.50400001928E-02 0.  1.
    10030    2    1    2    0    0  0.00000000000E+00  0.00000000000E+00 -0.63506630730E+03  0.11818383197E+04  0.99671089056E+03 0.  0.
        3    1    3    3  502    0 -0.34082567262E+03  0.33502517427E+03 -0.15003682336E+03  0.50091422926E+03  0.10100000352E+00 0. -1.
       -3    1    3    3    0  502  0.34082567262E+03 -0.33502517427E+03 -0.48502948394E+03  0.68092409048E+03  0.10100000352E+00 0.  1.
</event>
<event>
 5   0  0.5349685E-03  0.9957724E+03  0.7818609E-02  0.9313194E-01
       -1   -1    0    0    0  501  0.00000000000E+00  0.00000000000E+00  0.11066755658E+03  0.11066755669E+03  0.50400001928E-02 0.  1.
        1   -1    0    0  501    0  0.00000000000E+00  0.00000000000E+00 -0.22399577378E+04  0.22399577378E+04  0.50400001928E-02 0. -1.
    10030    2    1    2    0    0  0.00000000000E+00  0.00000000000E+00 -0.21292901812E+04  0.23506252945E+04  0.99577236320E+03 0.  0.
        4    1    3    3  502    0  0.47814906480E+03 -0.13465179321E+03 -0.98524297662E+03  0.11033870443E+04  0.12699999809E+01 0.  1.
       -4    1    3    3    0  502 -0.47814906480E+03  0.13465179321E+03 -0.11440472046E+04  0.12472382503E+04  0.12699999809E+01 0. -1.
</event>
<event>
 5   0  0.8875655E-03  0.9995581E+03  0.7818609E-02  0.9309030E-01
        2   -1    0    0  501    0  0.00000000000E+00  0.00000000000E+00  0.17374962918E+04  0.17374962918E+04  0.25500000920E-02 0. -1.
       -2   -1    0    0    0  501  0.00000000000E+00  0.00000000000E+00 -0.14375807253E+03  0.14375807255E+03  0.25500000920E-02 0.  1.
    10030    2    1    2    0    0  0.00000000000E+00  0.00000000000E+00  0.15937382193E+04  0.18812543644E+04  0.99955813829E+03 0.  0.
        4    1    3    3  502    0 -0.37490478897E+03  0.31143618967E+03  0.58871853364E+03  0.76428870578E+03  0.12699999809E+01 0.  1.
       -4    1    3    3    0  502  0.37490478897E+03 -0.31143618967E+03  0.10050196856E+04  0.11169656586E+04  0.12699999809E+01 0. -1.
</event>
<event>
 5   0  0.5189877E-03  0.9949679E+03  0.7818609E-02  0.9314081E-01
        1   -1    0    0  501    0  0.00000000000E+00  0.00000000000E+00  0.46295726716E+03  0.46295726719E+03  0.50400001928E-02 0.  1.
       -1   -1    0    0    0  501  0.00000000000E+00  0.00000000000E+00 -0.53458554359E+03  0.53458554361E+03  0.50400001928E-02 0. -1.
    10030    2    1    2    0    0  0.00000000000E+00  0.00000000000E+00 -0.71628276431E+02  0.99754281080E+03  0.99496786350E+03 0.  0.
        3    1    3    3  502    0  0.19910957324E+02 -0.43569331292E+03  0.20410653101E+03  0.48154397031E+03  0.10100000352E+00 0.  1.
       -3    1    3    3    0  502 -0.19910957324E+02  0.43569331292E+03 -0.27573480744E+03  0.51599884048E+03  0.10100000352E+00 0. -1.
</event>
<event>
 5   0  0.8907355E-03  0.9338797E+03  0.7818609E-02  0.9384194E-01
       -2   -1    0    0    0  501  0.00000000000E+00  0.00000000000E+00  0.13698188181E+03  0.13698188184E+03  0.25500000920E-02 0. -1.
        2   -1    0    0  501    0  0.00000000000E+00  0.00000000000E+00 -0.15916908111E+04  0.15916908111E+04  0.25500000920E-02 0.  1.
    10030    2    1    2    0    0  0.00000000000E+00  0.00000000000E+00 -0.14547089293E+04  0.17286726929E+04  0.93387965518E+03 0.  0.
        5    1    3    3  502    0 -0.28196466189E+03  0.26381480009E+03 -0.12132667945E+04  0.12732402460E+04  0.46999998093E+01 0.  1.
       -5    1    3    3    0  502  0.28196466189E+03 -0.26381480009E+03 -0.24144213476E+03  0.45543244696E+03  0.46999998093E+01 0. -1.
</event>
<event>
 5   0  0.5189877E-03  0.9994269E+03  0.7818609E-02  0.9309174E-01
        1   -1    0    0  501    0  0.00000000000E+00  0.00000000000E+00  0.10540724105E+04  0.10540724105E+04  0.50400001928E-02 0. -1.
       -1   -1    0    0    0  501  0.00000000000E+00  0.00000000000E+00 -0.23690360439E+03  0.23690360444E+03  0.50400001928E-02 0.  1.
    10030    2    1    2    0    0  0.00000000000E+00  0.00000000000E+00  0.81716880609E+03  0.12909760149E+04  0.99942694255E+03 0.  0.
        3    1    3    3  502    0  0.50454718727E+02 -0.11983085126E+02  0.10505872191E+04  0.10518663357E+04  0.10100000352E+00 0. -1.
       -3    1    3    3    0  502 -0.50454718727E+02  0.11983085126E+02 -0.23341841303E+03  0.23910967925E+03  0.10100000352E+00 0.  1.
</event>
<event>
 5   0  0.9040674E-03  0.9973197E+03  0.7818609E-02  0.9311489E-01
        2   -1    0    0  501    0  0.00000000000E+00  0.00000000000E+00  0.11468692542E+04  0.11468692542E+04  0.25500000920E-02 0. -1.
       -2   -1    0    0    0  501  0.00000000000E+00  0.00000000000E+00 -0.21681776843E+03  0.21681776845E+03  0.25500000920E-02 0.  1.
    10030    2    1    2    0    0  0.00000000000E+00  0.00000000000E+00  0.93005148575E+03  0.13636870226E+04  0.99731967270E+03 0.  0.
        1    1    3    3  502    0  0.25888757202E+02  0.36500363485E+03  0.18106629834E+01  0.36592507393E+03  0.50400001928E-02 0.  1.
       -1    1    3    3    0  502 -0.25888757202E+02 -0.36500363485E+03  0.92824082277E+03  0.99776194871E+03  0.50400001928E-02 0. -1.
</event>
<event>
 5   0  0.5189877E-03  0.1019698E+04  0.7818609E-02  0.9287200E-01
        1   -1    0    0  501    0  0.00000000000E+00  0.00000000000E+00  0.86726777478E+03  0.86726777480E+03  0.50400001928E-02 0. -1.
       -1   -1    0    0    0  501  0.00000000000E+00  0.00000000000E+00 -0.29972994986E+03  0.29972994990E+03  0.50400001928E-02 0.  1.
    10030    2    1    2    0    0  0.00000000000E+00  0.00000000000E+00  0.56753782492E+03  0.11669977247E+04  0.10196982430E+04 0.  0.
        3    1    3    3  502    0  0.10765262308E+03  0.24951018100E+03 -0.20994288738E+03  0.34339546275E+03  0.10100000352E+00 0.  1.
       -3    1    3    3    0  502 -0.10765262308E+03 -0.24951018100E+03  0.77748071230E+03  0.82360226194E+03  0.10100000352E+00 0. -1.
</event>
<event>
 5   0  0.8907355E-03  0.1019896E+04  0.7818609E-02  0.9286989E-01
        2   -1    0    0  501    0  0.00000000000E+00  0.00000000000E+00  0.85278849212E+03  0.85278849212E+03  0.25500000920E-02 0. -1.
       -2   -1    0    0    0  501  0.00000000000E+00  0.00000000000E+00 -0.30493719884E+03  0.30493719885E+03  0.25500000920E-02 0.  1.
    10030    2    1    2    0    0  0.00000000000E+00  0.00000000000E+00  0.54785129328E+03  0.11577256910E+04  0.10198959437E+04 0.  0.
        5    1    3    3  502    0  0.10172366702E+03 -0.48368596659E+03  0.41627171706E+03  0.64622291133E+03  0.46999998093E+01 0. -1.
       -5    1    3    3    0  502 -0.10172366702E+03  0.48368596659E+03  0.13157957622E+03  0.51150277965E+03  0.46999998093E+01 0.  1.
</event>
<event>
 5   0  0.9243773E-03  0.9747859E+03  0.7818609E-02  0.9336640E-01
       -2   -1    0    0    0  501  0.00000000000E+00  0.00000000000E+00  0.91511650865E+03  0.91511650865E+03  0.25500000920E-02 0.  1.
        2   -1    0    0  501    0  0.00000000000E+00  0.00000000000E+00 -0.25958650686E+03  0.25958650688E+03  0.25500000920E-02 0. -1.
    10030    2    1    2    0    0  0.00000000000E+00  0.00000000000E+00  0.65553000178E+03  0.11747030155E+04  0.97478592083E+03 0.  0.
        3    1    3    3  502    0 -0.26974547500E+03 -0.19149032470E+03  0.75911373147E+03  0.82806088740E+03  0.10100000352E+00 0.  1.
       -3    1    3    3    0  502  0.26974547500E+03  0.19149032470E+03 -0.10358372969E+03  0.34664212813E+03  0.10100000352E+00 0. -1.
</event>
<event>
 5   0  0.3513625E-03  0.9835309E+03  0.7818609E-02  0.9326795E-01
       -3   -1    0    0    0  501  0.00000000000E+00  0.00000000000E+00  0.17827506352E+03  0.17827509213E+03  0.10100000352E+00 0.  1.
        3   -1    0    0  501    0  0.00000000000E+00  0.00000000000E+00 -0.13565173374E+04  0.13565173412E+04  0.10100000352E+00 0. -1.
    10030    2    1    2    0    0  0.00000000000E+00  0.00000000000E+00 -0.11782422739E+04  0.15347924333E+04  0.98353086242E+03 0.  0.
        5    1    3    3  502    0  0.61864686752E+02 -0.45344007780E+03 -0.30833653275E+03  0.55184114657E+03  0.46999998093E+01 0. -1.
       -5    1    3    3    0  502 -0.61864686752E+02  0.45344007780E+03 -0.86990574113E+03  0.98295128672E+03  0.46999998093E+01 0.  1.
</event>
<event>
 5   0  0.9243773E-03  0.9903498E+03  0.7818609E-02  0.9319193E-01
        2   -1    0    0  501    0  0.00000000000E+00  0.00000000000E+00  0.70371156093E+03  0.70371156093E+03  0.25500000920E-02 0. -1.
       -2   -1    0    0    0  501  0.00000000000E+00  0.00000000000E+00 -0.34843559788E+03  0.34843559789E+03  0.25500000920E-02 0.  1.
    10030    2    1    2    0    0  0.00000000000E+00  0.00000000000E+00  0.35527596305E+03  0.10521471588E+04  0.99034975331E+03 0.  0.
        3    1    3    3  502    0  0.39906461021E+03 -0.24683847270E+03  0.96029267103E+01  0.46933359259E+03  0.10100000352E+00 0.  1.
       -3    1    3    3    0  502 -0.39906461021E+03  0.24683847270E+03  0.34567303634E+03  0.58281356623E+03  0.10100000352E+00 0. -1.
</event>
<event>
 5   0  0.5349685E-03  0.1026781E+04  0.7818609E-02  0.9279650E-01
        1   -1    0    0  501    0  0.00000000000E+00  0.00000000000E+00  0.24692449730E+03  0.24692449735E+03  0.50400001928E-02 0. -1.
       -1   -1    0    0    0  501  0.00000000000E+00  0.00000000000E+00 -0.10674098263E+04  0.10674098264E+04  0.50400001928E-02 0.  1.
    10030    2    1    2    0    0  0.00000000000E+00  0.00000000000E+00 -0.82048532905E+03  0.13143343237E+04  0.10267806676E+04 0.  0.
        4    1    3    3  502    0  0.24432225023E+03  0.44740569515E+03 -0.48813478439E+03  0.70579203640E+03  0.12699999809E+01 0.  1.
       -4    1    3    3    0  502 -0.24432225023E+03 -0.44740569515E+03 -0.33235054466E+03  0.60854228731E+03  0.12699999809E+01 0. -1.
</event>
<event>
 5   0  0.5349685E-03  0.9961495E+03  0.7818609E-02  0.9312778E-01
        1   -1    0    0  501    0  0.00000000000E+00  0.00000000000E+00  0.12025440922E+04  0.12025440922E+04  0.50400001928E-02 0.  1.
       -1   -1    0    0    0  501  0.00000000000E+00  0.00000000000E+00 -0.20629467495E+03  0.20629467501E+03  0.50400001928E-02 0. -1.
    10030    2    1    2    0    0  0.00000000000E+00  0.00000000000E+00  0.99624941725E+03  0.14088387672E+04  0.99614947205E+03 0.  0.
        4    1    3    3  502    0  0.18726597463E+03 -0.12707542942E+03  0.11256274927E+04  0.11481531149E+04  0.12699999809E+01 0.  1.
       -4    1    3    3    0  502 -0.18726597463E+03  0.12707542942E+03 -0.12937807546E+03  0.26068565232E+03  0.12699999809E+01 0. -1.
</event>
<event>
 5   0  0.5310275E-03  0.7983924E+03  0.7818609E-02  0.9562347E-01
       -1   -1    0    0    0  501  0.00000000000E+00  0.00000000000E+00  0.40899102569E+03  0.40899102572E+03  0.50400001928E-02 0. -1.
        1   -1    0    0  501    0  0.00000000000E+00  0.00000000000E+00 -0.38963597405E+03  0.38963597408E+03  0.50400001928E-02 0.  1.
    10030    2    1    2    0    0  0.00000000000E+00  0.00000000000E+00  0.19355051638E+02  0.79862699980E+03  0.79839242655E+03 0.  0.
        1    1    3    3  502    0 -0.70032293597E+02 -0.13541746694E+03  0.37872386316E+03  0.40825748867E+03  0.50400001928E-02 0. -1.
       -1    1    3    3    0  502  0.70032293597E+02  0.13541746694E+03 -0.35936881152E+03  0.39036951113E+03  0.50400001928E-02 0.  1.
</event>
<event>
 5   0  0.5072205E-03  0.1014132E+04  0.7818609E-02  0.9293179E-01
       -1   -1    0    0    0  501  0.00000000000E+00  0.00000000000E+00  0.65457474534E+03  0.65457474536E+03  0.50400001928E-02 0. -1.
        1   -1    0    0  501    0  0.00000000000E+00  0.00000000000E+00 -0.39279845722E+03  0.39279845725E+03  0.50400001928E-02 0.  1.
    10030    2    1    2    0    0  0.00000000000E+00  0.00000000000E+00  0.26177628812E+03  0.10473732026E+04  0.10141320429E+04 0.  0.
        5    1    3    3  502    0 -0.14563627147E+03  0.35019250636E+03  0.47844384699E+03  0.61055328989E+03  0.46999998093E+01 0. -1.
       -5    1    3    3    0  502  0.14563627147E+03 -0.35019250636E+03 -0.21666755887E+03  0.43681991271E+03  0.46999998093E+01 0.  1.
</event>
<event>
 5   0  0.5189877E-03  0.1007034E+04  0.7818609E-02  0.9300863E-01
       -1   -1    0    0    0  501  0.00000000000E+00  0.00000000000E+00  0.26952554332E+03  0.26952554336E+03  0.50400001928E-02 0. -1.
        1   -1    0    0  501    0  0.00000000000E+00  0.00000000000E+00 -0.94065113435E+03  0.94065113436E+03  0.50400001928E-02 0.  1.
    10030    2    1    2    0    0  0.00000000000E+00  0.00000000000E+00 -0.67112559103E+03  0.12101766777E+04  0.10070342757E+04 0.  0.
        3    1    3    3  502    0  0.19898026451E+03 -0.10812067696E+03  0.20487384843E+03  0.30537932219E+03  0.10100000352E+00 0. -1.
       -3    1    3    3    0  502 -0.19898026451E+03  0.10812067696E+03 -0.87599943946E+03  0.90479735553E+03  0.10100000352E+00 0.  1.
</event>
<event>
 5   0  0.5201968E-03  0.9723702E+03  0.7818609E-02  0.9339379E-01
       -1   -1    0    0    0  501  0.00000000000E+00  0.00000000000E+00  0.45568740274E+03  0.45568740277E+03  0.50400001928E-02 0.  1.
        1   -1    0    0  501    0  0.00000000000E+00  0.00000000000E+00 -0.51872394731E+03  0.51872394733E+03  0.50400001928E-02 0. -1.
    10030    2    1    2    0    0  0.00000000000E+00  0.00000000000E+00 -0.63036544567E+02  0.97441135010E+03  0.97237023466E+03 0.  0.
        2    1    3    3  502    0  0.13634757319E+03  0.20437904135E+03 -0.45193977446E+03  0.51440355073E+03  0.25500000920E-02 0. -1.
       -2    1    3    3    0  502 -0.13634757319E+03 -0.20437904135E+03  0.38890322989E+03  0.46000779937E+03  0.25500000920E-02 0.  1.
</event>
<event>
 5   0  0.5201968E-03  0.9894303E+03  0.7818609E-02  0.9320214E-01
        1   -1    0    0  501    0  0.00000000000E+00  0.00000000000E+00  0.56432601712E+03  0.56432601715E+03  0.50400001928E-02 0.  1.
       -1   -1    0    0    0  501  0.00000000000E+00  0.00000000000E+00 -0.43369090788E+03  0.43369090791E+03  0.50400001928E-02 0. -1.
    10030    2    1    2    0    0  0.00000000000E+00  0.00000000000E+00  0.13063510925E+03  0.99801692505E+03  0.98943026582E+03 0.  0.
        2    1    3    3  502    0  0.48117969877E+03 -0.11168670596E+03  0.37966929428E+02  0.49542841110E+03  0.25500000920E-02 0.  1.
       -2    1    3    3    0  502 -0.48117969877E+03  0.11168670596E+03  0.92668179819E+02  0.50258851395E+03  0.25500000920E-02 0. -1.
</event>
<event>
 5   0  0.8968798E-03  0.9922167E+03  0.7818609E-02  0.9317123E-01
       -2   -1    0    0    0  501  0.00000000000E+00  0.00000000000E+00  0.27206073221E+03  0.27206073222E+03  0.25500000920E-02 0.  1.
        2   -1    0    0  501    0  0.00000000000E+00  0.00000000000E+00 -0.90466387482E+03  0.90466387482E+03  0.25500000920E-02 0. -1.
    10030    2    1    2    0    0  0.00000000000E+00  0.00000000000E+00 -0.63260314260E+03  0.11767246070E+04  0.99221674285E+03 0.  0.
        2    1    3    3  502    0 -0.80236429668E+02 -0.25635283746E+03  0.17835528809E+03  0.32243645996E+03  0.25500000920E-02 0.  1.
       -2    1    3    3    0  502  0.80236429668E+02  0.25635283746E+03 -0.81095843070E+03  0.85428814708E+03  0.25500000920E-02 0. -1.
</event>
<event>
 5   0  0.5189877E-03  0.1040115E+04  0.7818609E-02  0.9265609E-01
       -1   -1    0    0    0  501  0.00000000000E+00  0.00000000000E+00  0.30148468644E+03  0.30148468648E+03  0.50400001928E-02 0.  1.
        1   -1    0    0  501    0  0.00000000000E+00  0.00000000000E+00 -0.89709383237E+03  0.89709383239E+03  0.50400001928E-02 0. -1.
    10030    2    1    2    0    0  0.00000000000E+00  0.00000000000E+00 -0.59560914594E+03  0.11985785189E+04  0.10401154797E+04 0.  0.
        3    1    3    3  502    0  0.42503935877E+03  0.21483634645E+03 -0.53855207117E+03  0.71892381781E+03  0.10100000352E+00 0.  1.
       -3    1    3    3    0  502 -0.42503935877E+03 -0.21483634645E+03 -0.57057074771E+02  0.47965470105E+03  0.10100000352E+00 0. -1.
</event>
<event>
 5   0  0.5189877E-03  0.9992620E+03  0.7818609E-02  0.9309355E-01
       -1   -1    0    0    0  501  0.00000000000E+00  0.00000000000E+00  0.34328099135E+03  0.34328099139E+03  0.50400001928E-02 0.  1.
        1   -1    0    0  501    0  0.00000000000E+00  0.00000000000E+00 -0.72719190594E+03  0.72719190595E+03  0.50400001928E-02 0. -1.
    10030    2    1    2    0    0  0.00000000000E+00  0.00000000000E+00 -0.38391091458E+03  0.10704728973E+04  0.99926204452E+03 0.  0.
        3    1    3    3  502    0 -0.23311363861E+03  0.62157688945E+02  0.27674598996E+03  0.36714288766E+03  0.10100000352E+00 0.  1.
       -3    1    3    3    0  502  0.23311363861E+03 -0.62157688945E+02 -0.66065690454E+03  0.70333000968E+03  0.10100000352E+00 0. -1.
</event>
<event>
 5   0  0.8968798E-03  0.9993325E+03  0.7818609E-02  0.9309277E-01
       -2   -1    0    0    0  501  0.00000000000E+00  0.00000000000E+00  0.31418316998E+03  0.31418316999E+03  0.25500000920E-02 0.  1.
        2   -1    0    0  501    0  0.00000000000E+00  0.00000000000E+00 -0.79465221027E+03  0.79465221028E+03  0.25500000920E-02 0. -1.
    10030    2    1    2    0    0  0.00000000000E+00  0.00000000000E+00 -0.48046904029E+03  0.11088353803E+04  0.99933247814E+03 0.  0.
        2    1    3    3  502    0  0.49253593614E+03  0.24529831602E+02 -0.32950533966E+03  0.59309959526E+03  0.25500000920E-02 0. -1.
       -2    1    3    3    0  502 -0.49253593614E+03 -0.24529831602E+02 -0.15096370063E+03  0.51573578501E+03  0.25500000920E-02 0.  1.
</event>
<event>
 5   0  0.5201968E-03  0.9507873E+03  0.7818609E-02  0.9364231E-01
        1   -1    0    0  501    0  0.00000000000E+00  0.00000000000E+00  0.94852280823E+03  0.94852280824E+03  0.50400001928E-02 0. -1.
       -1   -1    0    0    0  501  0.00000000000E+00  0.00000000000E+00 -0.23826428863E+03  0.23826428868E+03  0.50400001928E-02 0.  1.
    10030    2    1    2    0    0  0.00000000000E+00  0.00000000000E+00  0.71025851961E+03  0.11867870969E+04  0.95078727839E+03 0.  0.
        2    1    3    3  502    0  0.34667885167E+03  0.30249942772E+03  0.20582799997E+03  0.50404096613E+03  0.25500000920E-02 0.  1.
       -2    1    3    3    0  502 -0.34667885167E+03 -0.30249942772E+03  0.50443051964E+03  0.68274613079E+03  0.25500000920E-02 0. -1.
</event>
<event>
 5   0  0.5189877E-03  0.1002765E+04  0.7818609E-02  0.9305517E-01
        1   -1    0    0  501    0  0.00000000000E+00  0.00000000000E+00  0.73673209371E+03  0.73673209373E+03  0.50400001928E-02 0.  1.
       -1   -1    0    0    0  501  0.00000000000E+00  0.00000000000E+00 -0.34121571546E+03  0.34121571550E+03  0.50400001928E-02 0. -1.
    10030    2    1    2    0    0  0.00000000000E+00  0.00000000000E+00  0.39551637825E+03  0.10779478092E+04  0.10027653135E+04 0.  0.
        3    1    3    3  502    0  0.83596094360E+01  0.42156784325E+03 -0.93865809848E+02  0.43197237179E+03  0.10100000352E+00 0. -1.
       -3    1    3    3    0  502 -0.83596094360E+01 -0.42156784325E+03  0.48938218810E+03  0.64597543743E+03  0.10100000352E+00 0.  1.
</event>
<event>
 5   0  0.9040674E-03  0.1011743E+04  0.7818609E-02  0.9295758E-01
       -2   -1    0    0    0  501  0.00000000000E+00  0.00000000000E+00  0.26650970756E+03  0.26650970757E+03  0.25500000920E-02 0.  1.
        2   -1    0    0  501    0  0.00000000000E+00  0.00000000000E+00 -0.96021233165E+03  0.96021233166E+03  0.25500000920E-02 0. -1.
    10030    2    1    2    0    0  0.00000000000E+00  0.00000000000E+00 -0.69370262409E+03  0.12267220392E+04  0.10117428680E+04 0.  0.
        1    1    3    3  502    0 -0.31043921424E+02  0.65428521666E+02  0.26019196327E+03  0.27008234722E+03  0.50400001928E-02 0.  1.
       -1    1    3    3    0  502  0.31043921424E+02 -0.65428521666E+02 -0.95389458736E+03  0.95663969201E+03  0.50400001928E-02 0. -1.
</event>
<event>
 5   0  0.8968798E-03  0.1001367E+04  0.7818609E-02  0.9307046E-01
        2   -1    0    0  501    0  0.00000000000E+00  0.00000000000E+00  0.49350317309E+03  0.49350317309E+03  0.25500000920E-02 0. -1.
       -2   -1    0    0    0  501  0.00000000000E+00  0.00000000000E+00 -0.50796870731E+03  0.50796870731E+03  0.25500000920E-02 0.  1.
    10030    2    1    2    0    0  0.00000000000E+00  0.00000000000E+00 -0.14465534219E+02  0.10014718804E+04  0.10013674029E+04 0.  0.
        2    1    3    3  502    0  0.42460156219E+03  0.24537830997E+03  0.93709261484E+02  0.49927790589E+03  0.25500000920E-02 0. -1.
       -2    1    3    3    0  502 -0.42460156219E+03 -0.24537830997E+03 -0.10817479570E+03  0.50219397452E+03  0.25500000920E-02 0.  1.
</event>
<event>
 5   0  0.8875655E-03  0.9865483E+03  0.7818609E-02  0.9323423E-01
        2   -1    0    0  501    0  0.00000000000E+00  0.00000000000E+00  0.11509119392E+04  0.11509119392E+04  0.25500000920E-02 0. -1.
       -2   -1    0    0    0  501  0.00000000000E+00  0.00000000000E+00 -0.21141441157E+03  0.21141441158E+03  0.25500000920E-02 0.  1.
    10030    2    1    2    0    0  0.00000000000E+00  0.00000000000E+00  0.93949752760E+03  0.13623263508E+04  0.98654826623E+03 0.  0.
        4    1    3    3  502    0  0.31014788352E+03 -0.19337158485E+03  0.12310603316E+02  0.36570130344E+03  0.12699999809E+01 0.  1.
       -4    1    3    3    0  502 -0.31014788352E+03  0.19337158485E+03  0.92718692428E+03  0.99662504731E+03  0.12699999809E+01 0. -1.
</event>
<event>
 5   0  0.8907355E-03  0.9987129E+03  0.7818609E-02  0.9309958E-01
       -2   -1    0    0    0  501  0.00000000000E+00  0.00000000000E+00  0.11170230930E+04  0.11170230930E+04  0.25500000920E-02 0. -1.
        2   -1    0    0  501    0  0.00000000000E+00  0.00000000000E+00 -0.22323340553E+03  0.22323340555E+03  0.25500000920E-02 0.  1.
    10030    2    1    2    0    0  0.00000000000E+00  0.00000000000E+00  0.89378968743E+03  0.13402564985E+04  0.99871290993E+03 0.  0.
        5    1    3    3  502    0 -0.75831332635E+02 -0.38406613110E+03  0.30928378567E+02  0.39272870874E+03  0.46999998093E+01 0.  1.
       -5    1    3    3    0  502  0.75831332635E+02  0.38406613110E+03  0.86286130886E+03  0.94752778977E+03  0.46999998093E+01 0. -1.
</event>
<event>
 5   0  0.8875655E-03  0.1003640E+04  0.7818609E-02  0.9304561E-01
        2   -1    0    0  501    0  0.00000000000E+00  0.00000000000E+00  0.57336979087E+03  0.57336979088E+03  0.25500000920E-02 0.  1.
       -2   -1    0    0    0  501  0.00000000000E+00  0.00000000000E+00 -0.43919918257E+03  0.43919918258E+03  0.25500000920E-02 0. -1.
    10030    2    1    2    0    0  0.00000000000E+00  0.00000000000E+00  0.13417060830E+03  0.10125689735E+04  0.10036404605E+04 0.  0.
        4    1    3    3  502    0 -0.46550348169E+03 -0.18718628814E+03  0.57528302047E+02  0.50501813469E+03  0.12699999809E+01 0.  1.
       -4    1    3    3    0  502  0.46550348169E+03  0.18718628814E+03  0.76642306253E+02  0.50755083877E+03  0.12699999809E+01 0. -1.
</event>
<event>
 5   0  0.9040674E-03  0.9842047E+03  0.7818609E-02  0.9326041E-01
        2   -1    0    0  501    0  0.00000000000E+00  0.00000000000E+00  0.71593585042E+03  0.71593585042E+03  0.25500000920E-02 0. -1.
       -2   -1    0    0    0  501  0.00000000000E+00  0.00000000000E+00 -0.33824916891E+03  0.33824916892E+03  0.25500000920E-02 0.  1.
    10030    2    1    2    0    0  0.00000000000E+00  0.00000000000E+00  0.37768668151E+03  0.10541850193E+04  0.98420466653E+03 0.  0.
        1    1    3    3  502    0 -0.17952555306E+03 -0.90377281335E+02 -0.29228034242E+03  0.35471858673E+03  0.50400001928E-02 0.  1.
       -1    1    3    3    0  502  0.17952555306E+03  0.90377281335E+02  0.66996702393E+03  0.69946643262E+03  0.50400001928E-02 0. -1.
</event>
<event>
 5   0  0.5201968E-03  0.9560892E+03  0.7818609E-02  0.9358061E-01
       -1   -1    0    0    0  501  0.00000000000E+00  0.00000000000E+00  0.24320979156E+03  0.24320979161E+03  0.50400001928E-02 0.  1.
        1   -1    0    0  501    0  0.00000000000E+00  0.00000000000E+00 -0.93962757800E+03  0.93962757801E+03  0.50400001928E-02 0. -1.
    10030    2    1    2    0    0  0.00000000000E+00  0.00000000000E+00 -0.69641778644E+03  0.11828373696E+04  0.95608917456E+03 0.  0.
        2    1    3    3  502    0  0.47239762300E+03  0.66441851880E+02 -0.31002497881E+03  0.56893718580E+03  0.25500000920E-02 0. -1.
       -2    1    3    3    0  502 -0.47239762300E+03 -0.66441851880E+02 -0.38639280763E+03  0.61390018382E+03  0.25500000920E-02 0.  1.
</event>
<event>
 5   0  0.8968798E-03  0.9925274E+03  0.7818609E-02  0.9316779E-01
       -2   -1    0    0    0  501  0.00000000000E+00  0.00000000000E+00  0.15713462174E+03  0.15713462176E+03  0.25500000920E-02 0. -1.
        2   -1    0    0  501    0  0.00000000000E+00  0.00000000000E+00 -0.15673035418E+04  0.15673035418E+04  0.25500000920E-02 0.  1.
    10030    2    1    2    0    0  0.00000000000E+00  0.00000000000E+00 -0.14101689201E+04  0.17244381636E+04  0.99252737841E+03 0.  0.
        2    1    3    3  502    0  0.18546949230E+03 -0.27442628569E+03 -0.63016373467E+02  0.33716432519E+03  0.25500000920E-02 0. -1.
       -2    1    3    3    0  502 -0.18546949230E+03  0.27442628569E+03 -0.13471525466E+04  0.13872738384E+04  0.25500000920E-02 0.  1.
</event>
<event>
 5   0  0.9243773E-03  0.9987678E+03  0.7818609E-02  0.9309897E-01
       -2   -1    0    0    0  501  0.00000000000E+00  0.00000000000E+00  0.25634593294E+03  0.25634593295E+03  0.25500000920E-02 0. -1.
        2   -1    0    0  501    0  0.00000000000E+00  0.00000000000E+00 -0.97284283217E+03  0.97284283218E+03  0.25500000920E-02 0.  1.
    10030    2    1    2    0    0  0.00000000000E+00  0.00000000000E+00 -0.71649689923E+03  0.12291887651E+04  0.99876784776E+03 0.  0.
        3    1    3    3  502    0 -0.39648673015E+03 -0.19872701392E+03 -0.75748285046E+02  0.44992440047E+03  0.10100000352E+00 0. -1.
       -3    1    3    3    0  502  0.39648673015E+03  0.19872701392E+03 -0.64074861419E+03  0.77926436466E+03  0.10100000352E+00 0.  1.
</event>
<event>
 5   0  0.8907355E-03  0.1071871E+04  0.7818609E-02  0.9233050E-01
       -2   -1    0    0    0  501  0.00000000000E+00  0.00000000000E+00  0.38907845970E+03  0.38907845971E+03  0.25500000920E-02 0.  1.
        2   -1    0    0  501    0  0.00000000000E+00  0.00000000000E+00 -0.73822393887E+03  0.73822393887E+03  0.25500000920E-02 0. -1.
    10030    2    1    2    0    0  0.00000000000E+00  0.00000000000E+00 -0.34914547916E+03  0.11273023986E+04  0.10718713226E+04 0.  0.
        5    1    3    3  502    0 -0.14377523482E+03  0.43177822539E+02  0.36649241318E+03  0.39607375755E+03  0.46999998093E+01 0.  1.
       -5    1    3    3    0  502  0.14377523482E+03 -0.43177822539E+02 -0.71563789234E+03  0.73122864103E+03  0.46999998093E+01 0. -1.
</event>
<event>
 5   0  0.9040674E-03  0.9972615E+03  0.7818609E-02  0.9311553E-01
        2   -1    0    0  501    0  0.00000000000E+00  0.00000000000E+00  0.15125380867E+04  0.15125380867E+04  0.25500000920E-02 0.  1.
       -2   -1    0    0    0  501  0.00000000000E+00  0.00000000000E+00 -0.16438105080E+03  0.16438105082E+03  0.25500000920E-02 0. -1.
    10030    2    1    2    0    0  0.00000000000E+00  0.00000000000E+00  0.13481570359E+04  0.16769191375E+04  0.99726145034E+03 0.  0.
        1    1    3    3  502    0 -0.43634727633E+03  0.23387785503E+03  0.57410482771E+03  0.75808584597E+03  0.50400001928E-02 0.  1.
       -1    1    3    3    0  502  0.43634727633E+03 -0.23387785503E+03  0.77405220820E+03  0.91883329156E+03  0.50400001928E-02 0. -1.
</event>
<event>
 5   0  0.5310275E-03  0.8078886E+03  0.7818609E-02  0.9548668E-01
        1   -1    0    0  501    0  0.00000000000E+00  0.00000000000E+00  0.28441362511E+04  0.28441362511E+04  0.50400001928E-02 0. -1.
       -1   -1    0    0    0  501  0.00000000000E+00  0.00000000000E+00 -0.57371022702E+02  0.57371022924E+02  0.50400001928E-02 0.  1.
    10030    2    1    2    0    0  0.00000000000E+00  0.00000000000E+00  0.27867652284E+04  0.29015072740E+04  0.80788862043E+03 0.  0.
        1    1    3    3  502    0 -0.17223176096E+02 -0.15157075707E+03  0.50054588560E+02  0.16054841654E+03  0.50400001928E-02 0.  1.
       -1    1    3    3    0  502  0.17223176096E+02  0.15157075707E+03  0.27367106398E+04  0.27409588575E+04  0.50400001928E-02 0. -1.
</event>
<event>
 5   0  0.8968798E-03  0.1012037E+04  0.7818609E-02  0.9295440E-01
        2   -1    0    0  501    0  0.00000000000E+00  0.00000000000E+00  0.15677248564E+04  0.15677248564E+04  0.25500000920E-02 0. -1.
       -2   -1    0    0    0  501  0.00000000000E+00  0.00000000000E+00 -0.16332898920E+03  0.16332898922E+03  0.25500000920E-02 0.  1.
    10030    2    1    2    0    0  0.00000000000E+00  0.00000000000E+00  0.14043958672E+04  0.17310538456E+04  0.10120373830E+04 0.  0.
        2    1    3    3  502    0  0.21628984756E+03 -0.36724055601E+03  0.23562040910E+03  0.48699476519E+03  0.25500000920E-02 0.  1.
       -2    1    3    3    0  502 -0.21628984756E+03  0.36724055601E+03  0.11687754581E+04  0.12440590805E+04  0.25500000920E-02 0. -1.
</event>
<event>
 5   0  0.5189877E-03  0.1012393E+04  0.7818609E-02  0.9295056E-01
       -1   -1    0    0    0  501  0.00000000000E+00  0.00000000000E+00  0.22822914409E+03  0.22822914414E+03  0.50400001928E-02 0.  1.
        1   -1    0    0  501    0  0.00000000000E+00  0.00000000000E+00 -0.11227093898E+04  0.11227093898E+04  0.50400001928E-02 0. -1.
    10030    2    1    2    0    0  0.00000000000E+00  0.00000000000E+00 -0.89448024571E+03  0.13509385340E+04  0.10123932104E+04 0.  0.
        3    1    3    3  502    0  0.23139403307E+03  0.33916423780E+03 -0.84232067106E+03  0.93705907062E+03  0.10100000352E+00 0. -1.
       -3    1    3    3    0  502 -0.23139403307E+03 -0.33916423780E+03 -0.52159574657E+02  0.41387946334E+03  0.10100000352E+00 0.  1.
</event>
<event>
 5   0  0.8907355E-03  0.9960376E+03  0.7818609E-02  0.9312901E-01
        2   -1    0    0  501    0  0.00000000000E+00  0.00000000000E+00  0.10771142353E+04  0.10771142353E+04  0.25500000920E-02 0.  1.
       -2   -1    0    0    0  501  0.00000000000E+00  0.00000000000E+00 -0.23026594082E+03  0.23026594083E+03  0.25500000920E-02 0. -1.
    10030    2    1    2    0    0  0.00000000000E+00  0.00000000000E+00  0.84684829452E+03  0.13073801762E+04  0.99603759524E+03 0.  0.
        5    1    3    3  502    0  0.42646376267E+03 -0.11883486510E+03  0.12408781572E+03  0.45979663118E+03  0.46999998093E+01 0. -1.
       -5    1    3    3    0  502 -0.42646376267E+03  0.11883486510E+03  0.72276047881E+03  0.84758354500E+03  0.46999998093E+01 0.  1.
</event>
<event>
 5   0  0.5201968E-03  0.9195184E+03  0.7818609E-02  0.9401506E-01
        1   -1    0    0  501    0  0.00000000000E+00  0.00000000000E+00  0.23681791277E+03  0.23681791282E+03  0.50400001928E-02 0.  1.
       -1   -1    0    0    0  501  0.00000000000E+00  0.00000000000E+00 -0.89257818608E+03  0.89257818610E+03  0.50400001928E-02 0. -1.
    10030    2    1    2    0    0  0.00000000000E+00  0.00000000000E+00 -0.65576027331E+03  0.11293960989E+04  0.91951835882E+03 0.  0.
        2    1    3    3  502    0  0.30072948626E+03 -0.26217757482E+03 -0.60851035540E+03  0.72764012897E+03  0.25500000920E-02 0. -1.
       -2    1    3    3    0  502 -0.30072948626E+03  0.26217757482E+03 -0.47249917909E+02  0.40175596995E+03  0.25500000920E-02 0.  1.
</event>
<event>
 5   0  0.8875655E-03  0.9940970E+03  0.7818609E-02  0.9315043E-01
        2   -1    0    0  501    0  0.00000000000E+00  0.00000000000E+00  0.56466666809E+03  0.56466666809E+03  0.25500000920E-02 0. -1.
       -2   -1    0    0    0  501  0.00000000000E+00  0.00000000000E+00 -0.43752756805E+03  0.43752756805E+03  0.25500000920E-02 0.  1.
    10030    2    1    2    0    0  0.00000000000E+00  0.00000000000E+00  0.12713910004E+03  0.10021942361E+04  0.99409704567E+03 0.  0.
        4    1    3    3  502    0  0.36429567633E+02 -0.23523053990E+00 -0.43617819172E+03  0.43769875093E+03  0.12699999809E+01 0.  1.
       -4    1    3    3    0  502 -0.36429567633E+02  0.23523053990E+00  0.56331729176E+03  0.56449548522E+03  0.12699999809E+01 0. -1.
</event>
<event>
 5   0  0.5310275E-03  0.1005060E+04  0.7818609E-02  0.9303013E-01
        1   -1    0    0  501    0  0.00000000000E+00  0.00000000000E+00  0.79312276087E+03  0.79312276089E+03  0.50400001928E-02 0.  1.
       -1   -1    0    0    0  501  0.00000000000E+00  0.00000000000E+00 -0.31840766878E+03  0.31840766882E+03  0.50400001928E-02 0. -1.
    10030    2    1    2    0    0  0.00000000000E+00  0.00000000000E+00  0.47471509209E+03  0.11115304297E+04  0.10050599373E+04 0.  0.
        1    1    3    3  502    0 -0.27443107843E+03  0.11029727378E+03 -0.21195474016E+03  0.36387184187E+03  0.50400001928E-02 0. -1.
       -1    1    3    3    0  502  0.27443107843E+03 -0.11029727378E+03  0.68666983225E+03  0.74765858783E+03  0.50400001928E-02 0.  1.
</event>
<event>
 5   0  0.9040674E-03  0.1000037E+04  0.7818609E-02  0.9308505E-01
        2   -1    0    0  501    0  0.00000000000E+00  0.00000000000E+00  0.21929142777E+04  0.21929142777E+04  0.25500000920E-02 0.  1.
       -2   -1    0    0    0  501  0.00000000000E+00  0.00000000000E+00 -0.11401189103E+03  0.11401189106E+03  0.25500000920E-02 0. -1.
    10030    2    1    2    0    0  0.00000000000E+00  0.00000000000E+00  0.20789023867E+04  0.23069261688E+04  0.10000366068E+04 0.  0.
        1    1    3    3  502    0  0.46955819418E+03  0.26182648820E+02  0.14312604665E+04  0.15065447062E+04  0.50400001928E-02 0.  1.
       -1    1    3    3    0  502 -0.46955819418E+03 -0.26182648820E+02  0.64764192020E+03  0.80038146259E+03  0.50400001928E-02 0. -1.
</event>
<event>
 5   0  0.5349685E-03  0.9830559E+03  0.7818609E-02  0.9327326E-01
        1   -1    0    0  501    0  0.00000000000E+00  0.00000000000E+00  0.10085434145E+04  0.10085434145E+04  0.50400001928E-02 0.  1.
       -1   -1    0    0    0  501  0.00000000000E+00  0.00000000000E+00 -0.23955313442E+03  0.23955313448E+03  0.50400001928E-02 0. -1.
    10030    2    1    2    0    0  0.00000000000E+00  0.00000000000E+00  0.76899028003E+03  0.12480965489E+04  0.98305592145E+03 0.  0.
        4    1    3    3  502    0 -0.14581720966E+03  0.67423979172E+02 -0.20527812909E+03  0.26067100871E+03  0.12699999809E+01 0. -1.
       -4    1    3    3    0  502  0.14581720966E+03 -0.67423979172E+02  0.97426840911E+03  0.98742554023E+03  0.12699999809E+01 0.  1.
</event>
<event>
 5   0  0.3513625E-03  0.9968627E+03  0.7818609E-02  0.9311992E-01
       -3   -1    0    0    0  501  0.00000000000E+00  0.00000000000E+00  0.50568614240E+03  0.50568615249E+03  0.10100000352E+00 0.  1.
        3   -1    0    0  501    0  0.00000000000E+00  0.00000000000E+00 -0.49128063760E+03  0.49128064798E+03  0.10100000352E+00 0. -1.
    10030    2    1    2    0    0  0.00000000000E+00  0.00000000000E+00  0.14405504803E+02  0.99696680046E+03  0.99686272007E+03 0.  0.
        4    1    3    3  502    0 -0.38765830490E+03 -0.18245081824E+03  0.26191531760E+03  0.50216382678E+03  0.12699999809E+01 0.  1.
       -4    1    3    3    0  502  0.38765830490E+03  0.18245081824E+03 -0.24750981280E+03  0.49480297368E+03  0.12699999809E+01 0. -1.
</event>
<event>
 5   0  0.9243773E-03  0.9914083E+03  0.7818609E-02  0.9318018E-01
       -2   -1    0    0    0  501  0.00000000000E+00  0.00000000000E+00  0.23666198977E+03  0.23666198979E+03  0.25500000920E-02 0. -1.
        2   -1    0    0  501    0  0.00000000000E+00  0.00000000000E+00 -0.10382850976E+04  0.10382850976E+04  0.25500000920E-02 0.  1.
    10030    2    1    2    0    0  0.00000000000E+00  0.00000000000E+00 -0.80162310785E+03  0.12749470874E+04  0.99140832590E+03 0.  0.
        3    1    3    3  502    0 -0.37859514852E+03  0.26526267826E+03 -0.17067923962E+03  0.49277782823E+03  0.10100000352E+00 0. -1.
       -3    1    3    3    0  502  0.37859514852E+03 -0.26526267826E+03 -0.63094386823E+03  0.78216925918E+03  0.10100000352E+00 0.  1.
</event>
<event>
 5   0  0.5189877E-03  0.1000630E+04  0.7818609E-02  0.9307854E-01
        1   -1    0    0  501    0  0.00000000000E+00  0.00000000000E+00  0.10963184115E+04  0.10963184115E+04  0.50400001928E-02 0.  1.
       -1   -1    0    0    0  501  0.00000000000E+00  0.00000000000E+00 -0.22832346482E+03  0.22832346488E+03  0.50400001928E-02 0. -1.
    10030    2    1    2    0    0  0.00000000000E+00  0.00000000000E+00  0.86799494667E+03  0.13246418764E+04  0.10006302380E+04 0.  0.
        3    1    3    3  502    0  0.17027272831E+03  0.23660559656E+03 -0.10428976553E+03  0.30959873340E+03  0.10100000352E+00 0. -1.
       -3    1    3    3    0  502 -0.17027272831E+03 -0.23660559656E+03  0.97228471220E+03  0.10150431430E+04  0.10100000352E+00 0.  1.
</event>
<event>
 5   0  0.9040674E-03  0.9977044E+03  0.7818609E-02  0.9311066E-01
       -2   -1    0    0    0  501  0.00000000000E+00  0.00000000000E+00  0.27087008764E+03  0.27087008765E+03  0.25500000920E-02 0.  1.
        2   -1    0    0  501    0  0.00000000000E+00  0.00000000000E+00 -0.91871910250E+03  0.91871910250E+03  0.25500000920E-02 0. -1.
    10030    2    1    2    0    0  0.00000000000E+00  0.00000000000E+00 -0.64784901486E+03  0.11895891902E+04  0.99770441278E+03 0.  0.
        1    1    3    3  502    0  0.20470847878E+03  0.74086651885E+02  0.21124159047E+03  0.30334370414E+03  0.50400001928E-02 0.  1.
       -1    1    3    3    0  502 -0.20470847878E+03 -0.74086651885E+02 -0.85909060533E+03  0.88624548601E+03  0.50400001928E-02 0. -1.
</event>
<event>
 5   0  0.5349685E-03  0.1005817E+04  0.7818609E-02  0.9302187E-01
       -1   -1    0    0    0  501  0.00000000000E+00  0.00000000000E+00  0.32181731230E+03  0.32181731234E+03  0.50400001928E-02 0.  1.
        1   -1    0    0  501    0  0.00000000000E+00  0.00000000000E+00 -0.78590264699E+03  0.78590264700E+03  0.50400001928E-02 0. -1.
    10030    2    1    2    0    0  0.00000000000E+00  0.00000000000E+00 -0.46408533469E+03  0.11077199593E+04  0.10058172351E+04 0.  0.
        4    1    3    3  502    0  0.16253209031E+03 -0.47585200526E+03 -0.22325604844E+03  0.55017877763E+03  0.12699999809E+01 0. -1.
       -4    1    3    3    0  502 -0.16253209031E+03  0.47585200526E+03 -0.24082928625E+03  0.55754118171E+03  0.12699999809E+01 0.  1.
</event>
<event>
 5   0  0.9243773E-03  0.9928332E+03  0.7818609E-02  0.9316440E-01
        2   -1    0    0  501    0  0.00000000000E+00  0.00000000000E+00  0.71941908286E+03  0.71941908286E+03  0.25500000920E-02 0.  1.
       -2   -1    0    0    0  501  0.00000000000E+00  0.00000000000E+00 -0.34253949603E+03  0.34253949604E+03  0.25500000920E-02 0. -1.
    10030    2    1    2    0    0  0.00000000000E+00  0.00000000000E+00  0.37687958683E+03  0.10619585789E+04  0.99283321880E+03 0.  0.
        3    1    3    3  502    0  0.64303331119E+02 -0.46863336539E+03  0.27365268813E+02  0.47381538355E+03  0.10100000352E+00 0. -1.
       -3    1    3    3    0  502 -0.64303331119E+02  0.46863336539E+03  0.34951431802E+03  0.58814319536E+03  0.10100000352E+00 0.  1.
</event>
<event>
 5   0  0.5349685E-03  0.9954890E+03  0.7818609E-02  0.9313506E-01
        1   -1    0    0  501    0  0.00000000000E+00  0.00000000000E+00  0.66812740216E+03  0.66812740218E+03  0.50400001928E-02 0.  1.
       -1   -1    0    0    0  501  0.00000000000E+00  0.00000000000E+00 -0.37081187131E+03  0.37081187134E+03  0.50400001928E-02 0. -1.
    10030    2    1    2    0    0  0.00000000000E+00  0.00000000000E+00  0.29731553085E+03  0.10389392735E+04  0.99548896989E+03 0.  0.
        4    1    3    3  502    0 -0.17969454338E+03  0.45954325646E+03  0.80397925607E+02  0.49993556867E+03  0.12699999809E+01 0.  1.
       -4    1    3    3    0  502  0.17969454338E+03 -0.45954325646E+03  0.21691760525E+03  0.53900370485E+03  0.12699999809E+01 0. -1.
</event>
<event>
 5   0  0.5072205E-03  0.1009380E+04  0.7818609E-02  0.9298317E-01
        1   -1    0    0  501    0  0.00000000000E+00  0.00000000000E+00  0.13268079144E+04  0.13268079144E+04  0.50400001928E-02 0.  1.
       -1   -1    0    0    0  501  0.00000000000E+00  0.00000000000E+00 -0.19197346167E+03  0.19197346173E+03  0.50400001928E-02 0. -1.
    10030    2    1    2    0    0  0.00000000000E+00  0.00000000000E+00  0.11348344528E+04  0.15187813762E+04  0.10093798261E+04 0.  0.
        5    1    3    3  502    0 -0.25443740049E+03  0.32613077182E+03  0.10024462051E+04  0.10844446298E+04  0.46999998093E+01 0.  1.
       -5    1    3    3    0  502  0.25443740049E+03 -0.32613077182E+03  0.13238824768E+03  0.43433674633E+03  0.46999998093E+01 0. -1.
</event>
<event>
 5   0  0.5349685E-03  0.9981842E+03  0.7818609E-02  0.9310539E-01
        1   -1    0    0  501    0  0.00000000000E+00  0.00000000000E+00  0.92102238544E+03  0.92102238545E+03  0.50400001928E-02 0. -1.
       -1   -1    0    0    0  501  0.00000000000E+00  0.00000000000E+00 -0.27045260666E+03  0.27045260671E+03  0.50400001928E-02 0.  1.
    10030    2    1    2    0    0  0.00000000000E+00  0.00000000000E+00  0.65056977878E+03  0.11914749922E+04  0.99818416131E+03 0.  0.
        4    1    3    3  502    0  0.25062814149E+03 -0.24449950941E+03 -0.99250652704E+02  0.36393238434E+03  0.12699999809E+01 0.  1.
       -4    1    3    3    0  502 -0.25062814149E+03  0.24449950941E+03  0.74982043148E+03  0.82754260783E+03  0.12699999809E+01 0. -1.
</event>
<event>
 5   0  0.5189877E-03  0.9920389E+03  0.7818609E-02  0.9317320E-01
        1   -1    0    0  501    0  0.00000000000E+00  0.00000000000E+00  0.52715388355E+03  0.52715388358E+03  0.50400001928E-02 0.  1.
       -1   -1    0    0    0  501  0.00000000000E+00  0.00000000000E+00 -0.46672383321E+03  0.46672383324E+03  0.50400001928E-02 0. -1.
    10030    2    1    2    0    0  0.00000000000E+00  0.00000000000E+00  0.60430050341E+02  0.99387771682E+03  0.99203887273E+03 0.  0.
        3    1    3    3  502    0  0.39034605926E+03 -0.10549635571E+03 -0.25760784437E+03  0.47943856617E+03  0.10100000352E+00 0. -1.
       -3    1    3    3    0  502 -0.39034605926E+03  0.10549635571E+03  0.31803789471E+03  0.51443915065E+03  0.10100000352E+00 0.  1.
</event>
<event>
 5   0  0.8968798E-03  0.1008691E+04  0.7818609E-02  0.9299063E-01
       -2   -1    0    0    0  501  0.00000000000E+00  0.00000000000E+00  0.58574642091E+03  0.58574642092E+03  0.25500000920E-02 0. -1.
        2   -1    0    0  501    0  0.00000000000E+00  0.00000000000E+00 -0.43425704556E+03  0.43425704556E+03  0.25500000920E-02 0.  1.
    10030    2    1    2    0    0  0.00000000000E+00  0.00000000000E+00  0.15148937536E+03  0.10200034665E+04  0.10086912515E+04 0.  0.
        2    1    3    3  502    0  0.65155056100E+02  0.49793570875E+03  0.12295183560E+03  0.51701286760E+03  0.25500000920E-02 0. -1.
       -2    1    3    3    0  502 -0.65155056100E+02 -0.49793570875E+03  0.28537539756E+02  0.50299059888E+03  0.25500000920E-02 0.  1.
</event>
<event>
 5   0  0.8875655E-03  0.1004900E+04  0.7818609E-02  0.9303187E-01
        2   -1    0    0  501    0  0.00000000000E+00  0.00000000000E+00  0.45642317834E+03  0.45642317834E+03  0.25500000920E-02 0. -1.
       -2   -1    0    0    0  501  0.00000000000E+00  0.00000000000E+00 -0.55311829977E+03  0.55311829977E+03  0.25500000920E-02 0.  1.
    10030    2    1    2    0    0  0.00000000000E+00  0.00000000000E+00 -0.96695121431E+02  0.10095414781E+04  0.10049000197E+04 0.  0.
        4    1    3    3  502    0  0.20956816231E+03  0.22428148665E+02  0.40986498115E+03  0.46088257960E+03  0.12699999809E+01 0. -1.
       -4    1    3    3    0  502 -0.20956816231E+03 -0.22428148665E+02 -0.50656010258E+03  0.54865889852E+03  0.12699999809E+01 0.  1.
</event>
<event>
 5   0  0.8907355E-03  0.9834313E+03  0.7818609E-02  0.9326906E-01
        2   -1    0    0  501    0  0.00000000000E+00  0.00000000000E+00  0.99949229060E+03  0.99949229060E+03  0.25500000920E-02 0. -1.
       -2   -1    0    0    0  501  0.00000000000E+00  0.00000000000E+00 -0.24190709295E+03  0.24190709296E+03  0.25500000920E-02 0.  1.
    10030    2    1    2    0    0  0.00000000000E+00  0.00000000000E+00  0.75758519765E+03  0.12413993836E+04  0.98343128779E+03 0.  0.
        5    1    3    3  502    0  0.22311859915E+01  0.14550073926E+03  0.97165950198E+03  0.98250685550E+03  0.46999998093E+01 0. -1.
       -5    1    3    3    0  502 -0.22311859915E+01 -0.14550073926E+03 -0.21407430433E+03  0.25889252806E+03  0.46999998093E+01 0.  1.
</event>
<event>
 5   0  0.8907355E-03  0.9970369E+03  0.7818609E-02  0.9311801E-01
        2   -1    0    0  501    0  0.00000000000E+00  0.00000000000E+00  0.63266434514E+03  0.63266434514E+03  0.25500000920E-02 0. -1.
       -2   -1    0    0    0  501  0.00000000000E+00  0.00000000000E+00 -0.39281595496E+03  0.39281595496E+03  0.25500000920E-02 0.  1.
    10030    2    1    2    0    0  0.00000000000E+00  0.00000000000E+00  0.23984839018E+03  0.10254803001E+04  0.99703690786E+03 0.  0.
        5    1    3    3  502    0  0.35674957969E+03 -0.10591869527E+02  0.47786980561E+03  0.59645963101E+03  0.46999998093E+01 0. -1.
       -5    1    3    3    0  502 -0.35674957969E+03  0.10591869527E+02 -0.23802141543E+03  0.42902066910E+03  0.46999998093E+01 0.  1.
</event>
<event>
 5   0  0.5201968E-03  0.9575517E+03  0.7818609E-02  0.9356367E-01
       -1   -1    0    0    0  501  0.00000000000E+00  0.00000000000E+00  0.12883230109E+03  0.12883230119E+03  0.50400001928E-02 0.  1.
        1   -1    0    0  501    0  0.00000000000E+00  0.00000000000E+00 -0.17792612529E+04  0.17792612529E+04  0.50400001928E-02 0. -1.
    10030    2    1    2    0    0  0.00000000000E+00  0.00000000000E+00 -0.16504289518E+04  0.19080935541E+04  0.95755171463E+03 0.  0.
        2    1    3    3  502    0  0.15469410471E+03 -0.31754545530E+03 -0.18117218002E+03  0.39697448410E+03  0.25500000920E-02 0.  1.
       -2    1    3    3    0  502 -0.15469410471E+03  0.31754545530E+03 -0.14692567718E+04  0.15111190700E+04  0.25500000920E-02 0. -1.
</event>
<event>
 5   0  0.5310275E-03  0.9921986E+03  0.7818609E-02  0.9317143E-01
        1   -1    0    0  501    0  0.00000000000E+00  0.00000000000E+00  0.25399885914E+03  0.25399885919E+03  0.50400001928E-02 0. -1.
       -1   -1    0    0    0  501  0.00000000000E+00  0.00000000000E+00 -0.96895918397E+03  0.96895918399E+03  0.50400001928E-02 0.  1.
    10030    2    1    2    0    0  0.00000000000E+00  0.00000000000E+00 -0.71496032483E+03  0.12229580432E+04  0.99219862391E+03 0.  0.
        1    1    3    3  502    0  0.12382802571E+03 -0.39681637107E+03 -0.69122763867E+03  0.80659299575E+03  0.50400001928E-02 0.  1.
       -1    1    3    3    0  502 -0.12382802571E+03  0.39681637107E+03 -0.23732686163E+02  0.41636504743E+03  0.50400001928E-02 0. -1.
</event>
<event>
 5   0  0.9243773E-03  0.1016811E+04  0.7818609E-02  0.9290296E-01
       -2   -1    0    0    0  501  0.00000000000E+00  0.00000000000E+00  0.32457985304E+03  0.32457985305E+03  0.25500000920E-02 0. -1.
        2   -1    0    0  501    0  0.00000000000E+00  0.00000000000E+00 -0.79634144267E+03  0.79634144268E+03  0.25500000920E-02 0.  1.
    10030    2    1    2    0    0  0.00000000000E+00  0.00000000000E+00 -0.47176158963E+03  0.11209212957E+04  0.10168114642E+04 0.  0.
        3    1    3    3  502    0  0.26297220159E+02 -0.14600846275E+03 -0.77194816391E+03  0.78607505555E+03  0.10100000352E+00 0.  1.
       -3    1    3    3    0  502 -0.26297220159E+02  0.14600846275E+03  0.30018657428E+03  0.33484624018E+03  0.10100000352E+00 0. -1.
</event>
<event>
 5   0  0.9040674E-03  0.1081630E+04  0.7818609E-02  0.9223284E-01
        2   -1    0    0  501    0  0.00000000000E+00  0.00000000000E+00  0.41115718114E+03  0.41115718115E+03  0.25500000920E-02 0.  1.
       -2   -1    0    0    0  501  0.00000000000E+00  0.00000000000E+00 -0.71136001602E+03  0.71136001602E+03  0.25500000920E-02 0. -1.
    10030    2    1    2    0    0  0.00000000000E+00  0.00000000000E+00 -0.30020283488E+03  0.11225171972E+04  0.10816298424E+04 0.  0.
        1    1    3    3  502    0 -0.92772605928E+02 -0.51435277853E+03 -0.29433434418E+03  0.59983184592E+03  0.50400001928E-02 0. -1.
       -1    1    3    3    0  502  0.92772605928E+02  0.51435277853E+03 -0.58684907006E+01  0.52268535124E+03  0.50400001928E-02 0.  1.
</event>
<event>
 5   0  0.3513625E-03  0.1003473E+04  0.7818609E-02  0.9304744E-01
        3   -1    0    0  501    0  0.00000000000E+00  0.00000000000E+00  0.20681150417E+03  0.20681152883E+03  0.10100000352E+00 0.  1.
       -3   -1    0    0    0  501  0.00000000000E+00  0.00000000000E+00 -0.12172404539E+04  0.12172404581E+04  0.10100000352E+00 0. -1.
    10030    2    1    2    0    0  0.00000000000E+00  0.00000000000E+00 -0.10104289498E+04  0.14240519870E+04  0.10034726698E+04 0.  0.
        4    1    3    3  502    0 -0.10584050643E+03  0.39676441952E+03 -0.91433958187E+03  0.10023186625E+04  0.12699999809E+01 0. -1.
       -4    1    3    3    0  502  0.10584050643E+03 -0.39676441952E+03 -0.96089367891E+02  0.42173332441E+03  0.12699999809E+01 0.  1.
</event>
<event>
 5   0  0.8907355E-03  0.1027227E+04  0.7818609E-02  0.9279176E-01
        2   -1    0    0  501    0  0.00000000000E+00  0.00000000000E+00  0.58548543334E+03  0.58548543334E+03  0.25500000920E-02 0.  1.
       -2   -1    0    0    0  501  0.00000000000E+00  0.00000000000E+00 -0.45056471916E+03  0.45056471917E+03  0.25500000920E-02 0. -1.
    10030    2    1    2    0    0  0.00000000000E+00  0.00000000000E+00  0.13492071417E+03  0.10360501525E+04  0.10272274916E+04 0.  0.
        5    1    3    3  502    0  0.11546181805E+03  0.29884404672E+03 -0.33740708353E+03  0.46530079056E+03  0.46999998093E+01 0. -1.
       -5    1    3    3    0  502 -0.11546181805E+03 -0.29884404672E+03  0.47232779770E+03  0.57074936195E+03  0.46999998093E+01 0.  1.
</event>
<event>
 5   0  0.5189877E-03  0.9921925E+03  0.7818609E-02  0.9317150E-01
       -1   -1    0    0    0  501  0.00000000000E+00  0.00000000000E+00  0.40220543225E+03  0.40220543228E+03  0.50400001928E-02 0. -1.
        1   -1    0    0  501    0  0.00000000000E+00  0.00000000000E+00 -0.61190487893E+03  0.61190487895E+03  0.50400001928E-02 0.  1.
    10030    2    1    2    0    0  0.00000000000E+00  0.00000000000E+00 -0.20969944668E+03  0.10141103112E+04  0.99219245381E+03 0.  0.
        3    1    3    3  502    0  0.24398680295E+03 -0.30802088973E+03  0.20466823493E+03  0.44305250830E+03  0.10100000352E+00 0. -1.
       -3    1    3    3    0  502 -0.24398680295E+03  0.30802088973E+03 -0.41436768162E+03  0.57105780293E+03  0.10100000352E+00 0.  1.
</event>
<event>
 5   0  0.3513625E-03  0.9934554E+03  0.7818609E-02  0.9315752E-01
       -3   -1    0    0    0  501  0.00000000000E+00  0.00000000000E+00  0.48750256506E+03  0.48750257552E+03  0.10100000352E+00 0. -1.
        3   -1    0    0  501    0  0.00000000000E+00  0.00000000000E+00 -0.50612741404E+03  0.50612742411E+03  0.10100000352E+00 0.  1.
    10030    2    1    2    0    0  0.00000000000E+00  0.00000000000E+00 -0.18624848979E+02  0.99362999963E+03  0.99345542989E+03 0.  0.
        4    1    3    3  502    0 -0.96820852993E+02 -0.44895654479E+03  0.17993116468E+03  0.49326777070E+03  0.12699999809E+01 0. -1.
       -4    1    3    3    0  502  0.96820852993E+02  0.44895654479E+03 -0.19855601366E+03  0.50036222894E+03  0.12699999809E+01 0.  1.
</event>
<event>
 5   0  0.8968798E-03  0.1000054E+04  0.7818609E-02  0.9308486E-01
       -2   -1    0    0    0  501  0.00000000000E+00  0.00000000000E+00  0.20142396779E+03  0.20142396781E+03  0.25500000920E-02 0.  1.
        2   -1    0    0  501    0  0.00000000000E+00  0.00000000000E+00 -0.12412971891E+04  0.12412971891E+04  0.25500000920E-02 0. -1.
    10030    2    1    2    0    0  0.00000000000E+00  0.00000000000E+00 -0.10398732213E+04  0.14427211569E+04  0.10000540087E+04 0.  0.
        2    1    3    3  502    0  0.17327156326E+03  0.13419588831E+03  0.12844355615E+03  0.25402621557E+03  0.25500000920E-02 0.  1.
       -2    1    3    3    0  502 -0.17327156326E+03 -0.13419588831E+03 -0.11683167775E+04  0.11886949414E+04  0.25500000920E-02 0. -1.
</event>
<event>
 5   0  0.5310275E-03  0.1017634E+04  0.7818609E-02  0.9289413E-01
       -1   -1    0    0    0  501  0.00000000000E+00  0.00000000000E+00  0.45882894205E+03  0.45882894208E+03  0.50400001928E-02 0. -1.
        1   -1    0    0  501    0  0.00000000000E+00  0.00000000000E+00 -0.56425060680E+03  0.56425060682E+03  0.50400001928E-02 0.  1.
    10030    2    1    2    0    0  0.00000000000E+00  0.00000000000E+00 -0.10542166474E+03  0.10230795489E+04  0.10176335470E+04 0.  0.
        1    1    3    3  502    0  0.26192963110E+03  0.40235308783E+02 -0.48939523792E+03  0.55653725001E+03  0.50400001928E-02 0.  1.
       -1    1    3    3    0  502 -0.26192963110E+03 -0.40235308783E+02  0.38397357318E+03  0.46654229888E+03  0.50400001928E-02 0. -1.
</event>
<event>
 5   0  0.9243773E-03  0.1174099E+04  0.7818609E-02  0.9135835E-01
       -2   -1    0    0    0  501  0.00000000000E+00  0.00000000000E+00  0.24172090202E+03  0.24172090203E+03  0.25500000920E-02 0. -1.
        2   -1    0    0  501    0  0.00000000000E+00  0.00000000000E+00 -0.14257227213E+04  0.14257227213E+04  0.25500000920E-02 0.  1.
    10030    2    1    2    0    0  0.00000000000E+00  0.00000000000E+00 -0.11840018193E+04  0.16674436233E+04  0.11740987731E+04 0.  0.
        3    1    3    3  502    0 -0.42517714796E+03  0.24009118706E+03 -0.10548338872E+04  0.11623656589E+04  0.10100000352E+00 0.  1.
       -3    1    3    3    0  502  0.42517714796E+03 -0.24009118706E+03 -0.12916793208E+03  0.50507796441E+03  0.10100000352E+00 0. -1.
</event>
<event>
 5   0  0.8968798E-03  0.1006543E+04  0.7818609E-02  0.9301397E-01
       -2   -1    0    0    0  501  0.00000000000E+00  0.00000000000E+00  0.10174821707E+04  0.10174821707E+04  0.25500000920E-02 0. -1.
        2   -1    0    0  501    0  0.00000000000E+00  0.00000000000E+00 -0.24893051794E+03  0.24893051795E+03  0.25500000920E-02 0.  1.
    10030    2    1    2    0    0  0.00000000000E+00  0.00000000000E+00  0.76855165275E+03  0.12664126886E+04  0.10065433200E+04 0.  0.
        2    1    3    3  502    0  0.12930506272E+02  0.25268825512E+03  0.93164025822E+03  0.96538703275E+03  0.25500000920E-02 0. -1.
       -2    1    3    3    0  502 -0.12930506272E+02 -0.25268825512E+03 -0.16308860547E+03  0.30102565589E+03  0.25500000920E-02 0.  1.
</event>
<event>
 5   0  0.5310275E-03  0.1022282E+04  0.7818609E-02  0.9284438E-01
        1   -1    0    0  501    0  0.00000000000E+00  0.00000000000E+00  0.16032879943E+04  0.16032879943E+04  0.50400001928E-02 0. -1.
       -1   -1    0    0    0  501  0.00000000000E+00  0.00000000000E+00 -0.16295581076E+03  0.16295581084E+03  0.50400001928E-02 0.  1.
    10030    2    1    2    0    0  0.00000000000E+00  0.00000000000E+00  0.14403321836E+04  0.17662438052E+04  0.10222819475E+04 0.  0.
        1    1    3    3  502    0 -0.30052655007E+03  0.39546704512E+03  0.92860637197E+03  0.10531002731E+04  0.50400001928E-02 0. -1.
       -1    1    3    3    0  502  0.30052655007E+03 -0.39546704512E+03  0.51172581158E+03  0.71314353208E+03  0.50400001928E-02 0.  1.
</event>
<event>
 5   0  0.8907355E-03  0.1028677E+04  0.7818609E-02  0.9277640E-01
        2   -1    0    0  501    0  0.00000000000E+00  0.00000000000E+00  0.84797662704E+03  0.84797662705E+03  0.25500000920E-02 0.  1.
       -2   -1    0    0    0  501  0.00000000000E+00  0.00000000000E+00 -0.31197072842E+03  0.31197072843E+03  0.25500000920E-02 0. -1.
    10030    2    1    2    0    0  0.00000000000E+00  0.00000000000E+00  0.53600589862E+03  0.11599473555E+04  0.10286765984E+04 0.  0.
        5    1    3    3  502    0  0.72900523043E+02  0.41035057274E+03 -0.71817485836E+02  0.42294434632E+03  0.46999998093E+01 0. -1.
       -5    1    3    3    0  502 -0.72900523043E+02 -0.41035057274E+03  0.60782338446E+03  0.73700300916E+03  0.46999998093E+01 0.  1.
</event>
<event>
 5   0  0.8968798E-03  0.1016266E+04  0.7818609E-02  0.9290882E-01
        2   -1    0    0  501    0  0.00000000000E+00  0.00000000000E+00  0.72667354201E+03  0.72667354202E+03  0.25500000920E-02 0. -1.
       -2   -1    0    0    0  501  0.00000000000E+00  0.00000000000E+00 -0.35531684270E+03  0.35531684271E+03  0.25500000920E-02 0.  1.
    10030    2    1    2    0    0  0.00000000000E+00  0.00000000000E+00  0.37135669932E+03  0.10819903847E+04  0.10162663994E+04 0.  0.
        2    1    3    3  502    0 -0.22079122947E+03 -0.28013925639E+03 -0.19962787365E+03  0.40875182927E+03  0.25500000920E-02 0.  1.
       -2    1    3    3    0  502  0.22079122947E+03  0.28013925639E+03  0.57098457297E+03  0.67323855546E+03  0.25500000920E-02 0. -1.
</event>
<event>
 5   0  0.8907355E-03  0.1011859E+04  0.7818609E-02  0.9295633E-01
        2   -1    0    0  501    0  0.00000000000E+00  0.00000000000E+00  0.13173760301E+04  0.13173760301E+04  0.25500000920E-02 0. -1.
       -2   -1    0    0    0  501  0.00000000000E+00  0.00000000000E+00 -0.19429889009E+03  0.19429889011E+03  0.25500000920E-02 0.  1.
    10030    2    1    2    0    0  0.00000000000E+00  0.00000000000E+00  0.11230771400E+04  0.15116749202E+04  0.10118590821E+04 0.  0.
        5    1    3    3  502    0 -0.41835982622E+03  0.18194873630E+03  0.88820785287E+03  0.99853170542E+03  0.46999998093E+01 0. -1.
       -5    1    3    3    0  502  0.41835982622E+03 -0.18194873630E+03  0.23486928711E+03  0.51314321476E+03  0.46999998093E+01 0.  1.
</event>
<event>
 5   0  0.5310275E-03  0.1006257E+04  0.7818609E-02  0.9301709E-01
       -1   -1    0    0    0  501  0.00000000000E+00  0.00000000000E+00  0.40154633294E+03  0.40154633297E+03  0.50400001928E-02 0.  1.
        1   -1    0    0  501    0  0.00000000000E+00  0.00000000000E+00 -0.63040829585E+03  0.63040829587E+03  0.50400001928E-02 0. -1.
    10030    2    1    2    0    0  0.00000000000E+00  0.00000000000E+00 -0.22886196291E+03  0.10319546288E+04  0.10062567058E+04 0.  0.
        1    1    3    3  502    0 -0.42644307280E+03  0.72499300293E+02 -0.37795297210E+03  0.57441996138E+03  0.50400001928E-02 0. -1.
       -1    1    3    3    0  502  0.42644307280E+03 -0.72499300293E+02  0.14909100920E+03  0.45753466746E+03  0.50400001928E-02 0.  1.
</event>
<event>
 5   0  0.8875655E-03  0.9943112E+03  0.7818609E-02  0.9314806E-01
       -2   -1    0    0    0  501  0.00000000000E+00  0.00000000000E+00  0.32252734886E+03  0.32252734887E+03  0.25500000920E-02 0.  1.
        2   -1    0    0  501    0  0.00000000000E+00  0.00000000000E+00 -0.76633404534E+03  0.76633404534E+03  0.25500000920E-02 0. -1.
    10030    2    1    2    0    0  0.00000000000E+00  0.00000000000E+00 -0.44380669648E+03  0.10888613942E+04  0.99431119474E+03 0.  0.
        4    1    3    3  502    0  0.20261551617E+03 -0.10621628723E+03 -0.70526810889E+03  0.74144431037E+03  0.12699999809E+01 0. -1.
       -4    1    3    3    0  502 -0.20261551617E+03  0.10621628723E+03  0.26146141242E+03  0.34741708384E+03  0.12699999809E+01 0.  1.
</event>
<event>
 5   0  0.9243773E-03  0.9936376E+03  0.7818609E-02  0.9315551E-01
        2   -1    0    0  501    0  0.00000000000E+00  0.00000000000E+00  0.75549262422E+03  0.75549262423E+03  0.25500000920E-02 0. -1.
       -2   -1    0    0    0  501  0.00000000000E+00  0.00000000000E+00 -0.32671251592E+03  0.32671251593E+03  0.25500000920E-02 0.  1.
    10030    2    1    2    0    0  0.00000000000E+00  0.00000000000E+00  0.42878010830E+03  0.10822051402E+04  0.99363755168E+03 0.  0.
        3    1    3    3  502    0 -0.16247412281E+03 -0.43030207134E+03  0.98437929672E+01  0.46005936970E+03  0.10100000352E+00 0.  1.
       -3    1    3    3    0  502  0.16247412281E+03  0.43030207134E+03  0.41893631534E+03  0.62214577046E+03  0.10100000352E+00 0. -1.
</event>
<event>
 5   0  0.8907355E-03  0.1003048E+04  0.7818609E-02  0.9305208E-01
       -2   -1    0    0    0  501  0.00000000000E+00  0.00000000000E+00  0.26492592806E+03  0.26492592807E+03  0.25500000920E-02 0.  1.
        2   -1    0    0  501    0  0.00000000000E+00  0.00000000000E+00 -0.94942199684E+03  0.94942199684E+03  0.25500000920E-02 0. -1.
    10030    2    1    2    0    0  0.00000000000E+00  0.00000000000E+00 -0.68449606878E+03  0.12143479249E+04  0.10030483610E+04 0.  0.
        5    1    3    3  502    0 -0.40493098311E+03  0.28778835338E+03 -0.25913328474E+03  0.56032435846E+03  0.46999998093E+01 0. -1.
       -5    1    3    3    0  502  0.40493098311E+03 -0.28778835338E+03 -0.42536278404E+03  0.65402356645E+03  0.46999998093E+01 0.  1.
</event>
<event>
 5   0  0.9243773E-03  0.1006022E+04  0.7818609E-02  0.9301964E-01
        2   -1    0    0  501    0  0.00000000000E+00  0.00000000000E+00  0.73513405120E+03  0.73513405120E+03  0.25500000920E-02 0. -1.
       -2   -1    0    0    0  501  0.00000000000E+00  0.00000000000E+00 -0.34418236874E+03  0.34418236875E+03  0.25500000920E-02 0.  1.
    10030    2    1    2    0    0  0.00000000000E+00  0.00000000000E+00  0.39095168246E+03  0.10793164200E+04  0.10060222246E+04 0.  0.
        3    1    3    3  502    0  0.16301002835E+03  0.47002778144E+03  0.11575333837E+03  0.51078100025E+03  0.10100000352E+00 0.  1.
       -3    1    3    3    0  502 -0.16301002835E+03 -0.47002778144E+03  0.27519834408E+03  0.56853541970E+03  0.10100000352E+00 0. -1.
</event>
<event>
 5   0  0.5189877E-03  0.9950441E+03  0.7818609E-02  0.9313997E-01
        1   -1    0    0  501    0  0.00000000000E+00  0.00000000000E+00  0.79250960766E+03  0.79250960768E+03  0.50400001928E-02 0. -1.
       -1   -1    0    0    0  501  0.00000000000E+00  0.00000000000E+00 -0.31233463925E+03  0.31233463930E+03  0.50400001928E-02 0.  1.
    10030    2    1    2    0    0  0.00000000000E+00  0.00000000000E+00  0.48017496840E+03  0.11048442470E+04  0.99504412454E+03 0.  0.
        3    1    3    3  502    0  0.31786815723E+02  0.49495454907E+03  0.28362929855E+03  0.57134577665E+03  0.10100000352E+00 0. -1.
       -3    1    3    3    0  502 -0.31786815723E+02 -0.49495454907E+03  0.19654566986E+03  0.53349847032E+03  0.10100000352E+00 0.  1.
</event>
<event>
 5   0  0.5189877E-03  0.1011184E+04  0.7818609E-02  0.9296363E-01
        1   -1    0    0  501    0  0.00000000000E+00  0.00000000000E+00  0.89105506885E+03  0.89105506886E+03  0.50400001928E-02 0.  1.
       -1   -1    0    0    0  501  0.00000000000E+00  0.00000000000E+00 -0.28687686742E+03  0.28687686746E+03  0.50400001928E-02 0. -1.
    10030    2    1    2    0    0  0.00000000000E+00  0.00000000000E+00  0.60417820143E+03  0.11779319363E+04  0.10111836369E+04 0.  0.
        3    1    3    3  502    0 -0.21406870721E+03 -0.45583292810E+03  0.35436730291E+03  0.61578020861E+03  0.10100000352E+00 0.  1.
       -3    1    3    3    0  502  0.21406870721E+03  0.45583292810E+03  0.24981089852E+03  0.56215172771E+03  0.10100000352E+00 0. -1.
</event>
<event>
 5   0  0.8875655E-03  0.9995665E+03  0.7818609E-02  0.9309020E-01
       -2   -1    0    0    0  501  0.00000000000E+00  0.00000000000E+00  0.31044343889E+03  0.31044343890E+03  0.25500000920E-02 0.  1.
        2   -1    0    0  501    0  0.00000000000E+00  0.00000000000E+00 -0.80460165454E+03  0.80460165454E+03  0.25500000920E-02 0. -1.
    10030    2    1    2    0    0  0.00000000000E+00  0.00000000000E+00 -0.49415821565E+03  0.11150450934E+04  0.99956651521E+03 0.  0.
        4    1    3    3  502    0 -0.10240101016E+03  0.19897395769E+03  0.25143252584E+03  0.33659550008E+03  0.12699999809E+01 0.  1.
       -4    1    3    3    0  502  0.10240101016E+03 -0.19897395769E+03 -0.74559074149E+03  0.77844959337E+03  0.12699999809E+01 0. -1.
</event>
<event>
 5   0  0.5072205E-03  0.9734423E+03  0.7818609E-02  0.9338162E-01
        1   -1    0    0  501    0  0.00000000000E+00  0.00000000000E+00  0.15645591045E+04  0.15645591045E+04  0.50400001928E-02 0. -1.
       -1   -1    0    0    0  501  0.00000000000E+00  0.00000000000E+00 -0.15141484739E+03  0.15141484748E+03  0.50400001928E-02 0.  1.
    10030    2    1    2    0    0  0.00000000000E+00  0.00000000000E+00  0.14131442571E+04  0.17159739520E+04  0.97344230054E+03 0.  0.
        5    1    3    3  502    0 -0.23607128072E+03 -0.15687110129E+03  0.91282739158E+01  0.28362582284E+03  0.46999998093E+01 0.  1.
       -5    1    3    3    0  502  0.23607128072E+03  0.15687110129E+03  0.14040159832E+04  0.14323481291E+04  0.46999998093E+01 0. -1.
</event>
<event>
 5   0  0.3513625E-03  0.9869901E+03  0.7818609E-02  0.9322930E-01
        3   -1    0    0  501    0  0.00000000000E+00  0.00000000000E+00  0.12711306798E+04  0.12711306838E+04  0.10100000352E+00 0.  1.
       -3   -1    0    0    0  501  0.00000000000E+00  0.00000000000E+00 -0.19159109980E+03  0.19159112642E+03  0.10100000352E+00 0. -1.
    10030    2    1    2    0    0  0.00000000000E+00  0.00000000000E+00  0.10795395800E+04  0.14627218103E+04  0.98699006548E+03 0.  0.
        2    1    3    3  502    0  0.26140449462E+03  0.39408895081E+03  0.74882639221E+03  0.88565195005E+03  0.25500000920E-02 0.  1.
       -2    1    3    3    0  502 -0.26140449462E+03 -0.39408895081E+03  0.33071318783E+03  0.57706986021E+03  0.25500000920E-02 0. -1.
</event>
<event>
 5   0  0.5189877E-03  0.1000943E+04  0.7818609E-02  0.9307511E-01
       -1   -1    0    0    0  501  0.00000000000E+00  0.00000000000E+00  0.17310732267E+03  0.17310732275E+03  0.50400001928E-02 0.  1.
        1   -1    0    0  501    0  0.00000000000E+00  0.00000000000E+00 -0.14469164945E+04  0.14469164945E+04  0.50400001928E-02 0. -1.
    10030    2    1    2    0    0  0.00000000000E+00  0.00000000000E+00 -0.12738091718E+04  0.16200238173E+04  0.10009432363E+04 0.  0.
        3    1    3    3  502    0  0.25269482887E+03 -0.11727243040E+03 -0.13098264588E+04  0.13391239158E+04  0.10100000352E+00 0. -1.
       -3    1    3    3    0  502 -0.25269482887E+03  0.11727243040E+03  0.36017286993E+02  0.28089990144E+03  0.10100000352E+00 0.  1.
</event>
<event>
 5   0  0.5072205E-03  0.1005375E+04  0.7818609E-02  0.9302669E-01
       -1   -1    0    0    0  501  0.00000000000E+00  0.00000000000E+00  0.28474797268E+03  0.28474797272E+03  0.50400001928E-02 0.  1.
        1   -1    0    0  501    0  0.00000000000E+00  0.00000000000E+00 -0.88743264928E+03  0.88743264929E+03  0.50400001928E-02 0. -1.
    10030    2    1    2    0    0  0.00000000000E+00  0.00000000000E+00 -0.60268467660E+03  0.11721806220E+04  0.10053748511E+04 0.  0.
        5    1    3    3  502    0 -0.30784179715E+03 -0.24173654069E+03  0.66372653215E+02  0.39702713543E+03  0.46999998093E+01 0.  1.
       -5    1    3    3    0  502  0.30784179715E+03  0.24173654069E+03 -0.66905732982E+03  0.77515348658E+03  0.46999998093E+01 0. -1.
</event>
<event>
 5   0  0.5189877E-03  0.9230878E+03  0.7818609E-02  0.9397172E-01
       -1   -1    0    0    0  501  0.00000000000E+00  0.00000000000E+00  0.35886298391E+03  0.35886298395E+03  0.50400001928E-02 0.  1.
        1   -1    0    0  501    0  0.00000000000E+00  0.00000000000E+00 -0.59360480385E+03  0.59360480387E+03  0.50400001928E-02 0. -1.
    10030    2    1    2    0    0  0.00000000000E+00  0.00000000000E+00 -0.23474181994E+03  0.95246778782E+03  0.92308784241E+03 0.  0.
        3    1    3    3  502    0 -0.42209121174E+03 -0.14817938663E+03 -0.15662617702E+00  0.44734567884E+03  0.10100000352E+00 0.  1.
       -3    1    3    3    0  502  0.42209121174E+03  0.14817938663E+03 -0.23458519376E+03  0.50512210898E+03  0.10100000352E+00 0. -1.
</event>
<event>
 5   0  0.9040674E-03  0.9904161E+03  0.7818609E-02  0.9319119E-01
       -2   -1    0    0    0  501  0.00000000000E+00  0.00000000000E+00  0.54738392006E+03  0.54738392006E+03  0.25500000920E-02 0. -1.
        2   -1    0    0  501    0  0.00000000000E+00  0.00000000000E+00 -0.44800548010E+03  0.44800548011E+03  0.25500000920E-02 0.  1.
    10030    2    1    2    0    0  0.00000000000E+00  0.00000000000E+00  0.99378439957E+02  0.99538940017E+03  0.99041606592E+03 0.  0.
        1    1    3    3  502    0  0.11500862140E+02  0.30706716336E+03  0.43997993636E+03  0.53666083989E+03  0.50400001928E-02 0. -1.
       -1    1    3    3    0  502 -0.11500862140E+02 -0.30706716336E+03 -0.34060149640E+03  0.45872856028E+03  0.50400001928E-02 0.  1.
</event>
<event>
 5   0  0.5201968E-03  0.9089377E+03  0.7818609E-02  0.9414477E-01
        1   -1    0    0  501    0  0.00000000000E+00  0.00000000000E+00  0.90752099421E+03  0.90752099422E+03  0.50400001928E-02 0.  1.
       -1   -1    0    0    0  501  0.00000000000E+00  0.00000000000E+00 -0.22758914486E+03  0.22758914491E+03  0.50400001928E-02 0. -1.
    10030    2    1    2    0    0  0.00000000000E+00  0.00000000000E+00  0.67993184935E+03  0.11351101391E+04  0.90893768115E+03 0.  0.
        2    1    3    3  502    0 -0.27980475770E+03 -0.35783818644E+03  0.32217031744E+03  0.55689548710E+03  0.25500000920E-02 0. -1.
       -2    1    3    3    0  502  0.27980475770E+03  0.35783818644E+03  0.35776153191E+03  0.57821465204E+03  0.25500000920E-02 0.  1.
</event>
<event>
 5   0  0.5189877E-03  0.9994613E+03  0.7818609E-02  0.9309136E-01
        1   -1    0    0  501    0  0.00000000000E+00  0.00000000000E+00  0.18405645617E+04  0.18405645617E+04  0.50400001928E-02 0.  1.
       -1   -1    0    0    0  501  0.00000000000E+00  0.00000000000E+00 -0.13568159889E+03  0.13568159899E+03  0.50400001928E-02 0. -1.
    10030    2    1    2    0    0  0.00000000000E+00  0.00000000000E+00  0.17048829628E+04  0.19762461606E+04  0.99946134030E+03 0.  0.
        3    1    3    3  502    0  0.26048978885E+03 -0.13147029765E+03  0.50249049642E+02  0.29608165504E+03  0.10100000352E+00 0. -1.
       -3    1    3    3    0  502 -0.26048978885E+03  0.13147029765E+03  0.16546339131E+04  0.16801645056E+04  0.10100000352E+00 0.  1.
</event>
<event>
 5   0  0.5201968E-03  0.9828546E+03  0.7818609E-02  0.9327552E-01
       -1   -1    0    0    0  501  0.00000000000E+00  0.00000000000E+00  0.22392180059E+03  0.22392180064E+03  0.50400001928E-02 0.  1.
        1   -1    0    0  501    0  0.00000000000E+00  0.00000000000E+00 -0.10785049795E+04  0.10785049795E+04  0.50400001928E-02 0. -1.
    10030    2    1    2    0    0  0.00000000000E+00  0.00000000000E+00 -0.85458317892E+03  0.13024267802E+04  0.98285457113E+03 0.  0.
        2    1    3    3  502    0 -0.98341114051E+02  0.37152492481E+03 -0.21443753021E+02  0.38491762628E+03  0.25500000920E-02 0.  1.
       -2    1    3    3    0  502  0.98341114051E+02 -0.37152492481E+03 -0.83313942590E+03  0.91750915388E+03  0.25500000920E-02 0. -1.
</event>
<event>
 5   0  0.5189877E-03  0.1005267E+04  0.7818609E-02  0.9302786E-01
       -1   -1    0    0    0  501  0.00000000000E+00  0.00000000000E+00  0.27713642733E+03  0.27713642738E+03  0.50400001928E-02 0.  1.
        1   -1    0    0  501    0  0.00000000000E+00  0.00000000000E+00 -0.91161104994E+03  0.91161104996E+03  0.50400001928E-02 0. -1.
    10030    2    1    2    0    0  0.00000000000E+00  0.00000000000E+00 -0.63447462261E+03  0.11887474773E+04  0.10052673864E+04 0.  0.
        3    1    3    3  502    0 -0.99378422581E+01  0.54202876241E+02 -0.90802808529E+03  0.90969870087E+03  0.10100000352E+00 0. -1.
       -3    1    3    3    0  502  0.99378422581E+01 -0.54202876241E+02  0.27355346268E+03  0.27904877646E+03  0.10100000352E+00 0.  1.
</event>
<event>
 5   0  0.8907355E-03  0.9838236E+03  0.7818609E-02  0.9326467E-01
       -2   -1    0    0    0  501  0.00000000000E+00  0.00000000000E+00  0.33329577283E+03  0.33329577284E+03  0.25500000920E-02 0.  1.
        2   -1    0    0  501    0  0.00000000000E+00  0.00000000000E+00 -0.72601339208E+03  0.72601339208E+03  0.25500000920E-02 0. -1.
    10030    2    1    2    0    0  0.00000000000E+00  0.00000000000E+00 -0.39271761925E+03  0.10593091649E+04  0.98382355046E+03 0.  0.
        5    1    3    3  502    0 -0.22105471512E+03 -0.41670212831E+02 -0.66736187417E+03  0.70426951859E+03  0.46999998093E+01 0. -1.
       -5    1    3    3    0  502  0.22105471512E+03  0.41670212831E+02  0.27464425492E+03  0.35503964634E+03  0.46999998093E+01 0.  1.
</event>
<event>
 5   0  0.9040674E-03  0.1001337E+04  0.7818609E-02  0.9307079E-01
        2   -1    0    0  501    0  0.00000000000E+00  0.00000000000E+00  0.78941626863E+03  0.78941626863E+03  0.25500000920E-02 0. -1.
       -2   -1    0    0    0  501  0.00000000000E+00  0.00000000000E+00 -0.31753718468E+03  0.31753718469E+03  0.25500000920E-02 0.  1.
    10030    2    1    2    0    0  0.00000000000E+00  0.00000000000E+00  0.47187908394E+03  0.11069534533E+04  0.10013371450E+04 0.  0.
        1    1    3    3  502    0  0.44879704149E+03 -0.13320015654E+03  0.39712377004E+02  0.46982777596E+03  0.50400001928E-02 0.  1.
       -1    1    3    3    0  502 -0.44879704149E+03  0.13320015654E+03  0.43216670694E+03  0.63712567737E+03  0.50400001928E-02 0. -1.
</event>
<event>
 5   0  0.5310275E-03  0.9940354E+03  0.7818609E-02  0.9315111E-01
        1   -1    0    0  501    0  0.00000000000E+00  0.00000000000E+00  0.98609040785E+03  0.98609040787E+03  0.50400001928E-02 0. -1.
       -1   -1    0    0    0  501  0.00000000000E+00  0.00000000000E+00 -0.25051111912E+03  0.25051111917E+03  0.50400001928E-02 0.  1.
    10030    2    1    2    0    0  0.00000000000E+00  0.00000000000E+00  0.73557928874E+03  0.12366015270E+04  0.99403543531E+03 0.  0.
        1    1    3    3  502    0  0.89300791576E+02  0.10423217596E+03  0.96204617688E+03  0.97178795236E+03  0.50400001928E-02 0. -1.
       -1    1    3    3    0  502 -0.89300791576E+02 -0.10423217596E+03 -0.22646688814E+03  0.26481357467E+03  0.50400001928E-02 0.  1.
</event>
<event>
 5   0  0.8968798E-03  0.1000567E+04  0.7818609E-02  0.9307923E-01
       -2   -1    0    0    0  501  0.00000000000E+00  0.00000000000E+00  0.39838905041E+03  0.39838905041E+03  0.25500000920E-02 0.  1.
        2   -1    0    0  501    0  0.00000000000E+00  0.00000000000E+00 -0.62823873414E+03  0.62823873415E+03  0.25500000920E-02 0. -1.
    10030    2    1    2    0    0  0.00000000000E+00  0.00000000000E+00 -0.22984968374E+03  0.10266277846E+04  0.10005667049E+04 0.  0.
        2    1    3    3  502    0  0.12479103832E+03 -0.21130713225E+02  0.38169018600E+03  0.40212772646E+03  0.25500000920E-02 0.  1.
       -2    1    3    3    0  502 -0.12479103832E+03  0.21130713225E+02 -0.61153986974E+03  0.62450005811E+03  0.25500000920E-02 0. -1.
</event>
<event>
 5   0  0.8907355E-03  0.9960835E+03  0.7818609E-02  0.9312851E-01
        2   -1    0    0  501    0  0.00000000000E+00  0.00000000000E+00  0.47172515295E+03  0.47172515296E+03  0.25500000920E-02 0. -1.
       -2   -1    0    0    0  501  0.00000000000E+00  0.00000000000E+00 -0.52582652873E+03  0.52582652874E+03  0.25500000920E-02 0.  1.
    10030    2    1    2    0    0  0.00000000000E+00  0.00000000000E+00 -0.54101375780E+02  0.99755168170E+03  0.99608353003E+03 0.  0.
        5    1    3    3  502    0 -0.12304969589E+03  0.38013306329E+02  0.45473766334E+03  0.47264645516E+03  0.46999998093E+01 0. -1.
       -5    1    3    3    0  502  0.12304969589E+03 -0.38013306329E+02 -0.50883903912E+03  0.52490522654E+03  0.46999998093E+01 0.  1.
</event>
<event>
 5   0  0.5201968E-03  0.1000145E+04  0.7818609E-02  0.9308386E-01
        1   -1    0    0  501    0  0.00000000000E+00  0.00000000000E+00  0.58234944848E+03  0.58234944850E+03  0.50400001928E-02 0.  1.
       -1   -1    0    0    0  501  0.00000000000E+00  0.00000000000E+00 -0.42941970014E+03  0.42941970017E+03  0.50400001928E-02 0. -1.
    10030    2    1    2    0    0  0.00000000000E+00  0.00000000000E+00  0.15292974834E+03  0.10117691487E+04  0.10001446407E+04 0.  0.
        2    1    3    3  502    0  0.44416294547E+03 -0.20383486904E+03 -0.30800302490E+02  0.48967135367E+03  0.25500000920E-02 0.  1.
       -2    1    3    3    0  502 -0.44416294547E+03  0.20383486904E+03  0.18373005083E+03  0.52209779500E+03  0.25500000920E-02 0. -1.
</event>
<event>
 5   0  0.8968798E-03  0.9753024E+03  0.7818609E-02  0.9336055E-01
       -2   -1    0    0    0  501  0.00000000000E+00  0.00000000000E+00  0.39096609651E+03  0.39096609652E+03  0.25500000920E-02 0. -1.
        2   -1    0    0  501    0  0.00000000000E+00  0.00000000000E+00 -0.60824630472E+03  0.60824630472E+03  0.25500000920E-02 0.  1.
    10030    2    1    2    0    0  0.00000000000E+00  0.00000000000E+00 -0.21728020821E+03  0.99921240124E+03  0.97530238076E+03 0.  0.
        2    1    3    3  502    0  0.87205032401E+02  0.37683176684E+02 -0.59867449101E+03  0.60616489973E+03  0.25500000920E-02 0.  1.
       -2    1    3    3    0  502 -0.87205032401E+02 -0.37683176684E+02  0.38139428280E+03  0.39304750151E+03  0.25500000920E-02 0. -1.
</event>
<event>
 5   0  0.9243773E-03  0.9981703E+03  0.7818609E-02  0.9310554E-01
        2   -1    0    0  501    0  0.00000000000E+00  0.00000000000E+00  0.15530499026E+04  0.15530499026E+04  0.25500000920E-02 0. -1.
       -2   -1    0    0    0  501  0.00000000000E+00  0.00000000000E+00 -0.16038505477E+03  0.16038505479E+03  0.25500000920E-02 0.  1.
    10030    2    1    2    0    0  0.00000000000E+00  0.00000000000E+00  0.13926648479E+04  0.17134349574E+04  0.99817031354E+03 0.  0.
        3    1    3    3  502    0 -0.21664219521E+03  0.29059326942E+03  0.10740008788E+03  0.37803846108E+03  0.10100000352E+00 0.  1.
       -3    1    3    3    0  502  0.21664219521E+03 -0.29059326942E+03  0.12852647600E+04  0.13353964963E+04  0.10100000352E+00 0. -1.
</event>
<event>
 5   0  0.5072205E-03  0.1008764E+04  0.7818609E-02  0.9298984E-01
        1   -1    0    0  501    0  0.00000000000E+00  0.00000000000E+00  0.10526349852E+04  0.10526349852E+04  0.50400001928E-02 0. -1.
       -1   -1    0    0    0  501  0.00000000000E+00  0.00000000000E+00 -0.24168044392E+03  0.24168044398E+03  0.50400001928E-02 0.  1.
    10030    2    1    2    0    0  0.00000000000E+00  0.00000000000E+00  0.81095454126E+03  0.12943154292E+04  0.10087641757E+04 0.  0.
        5    1    3    3  502    0 -0.86330443339E+02  0.22070624507E+03 -0.16576290669E+03  0.28924664785E+03  0.46999998093E+01 0.  1.
       -5    1    3    3    0  502  0.86330443339E+02 -0.22070624507E+03  0.97671744795E+03  0.10050687813E+04  0.46999998093E+01 0. -1.
</event>
<event>
 5   0  0.5072205E-03  0.1001791E+04  0.7818609E-02  0.9306583E-01
       -1   -1    0    0    0  501  0.00000000000E+00  0.00000000000E+00  0.29582644220E+03  0.29582644225E+03  0.50400001928E-02 0.  1.
        1   -1    0    0  501    0  0.00000000000E+00  0.00000000000E+00 -0.84811933650E+03  0.84811933651E+03  0.50400001928E-02 0. -1.
    10030    2    1    2    0    0  0.00000000000E+00  0.00000000000E+00 -0.55229289429E+03  0.11439457788E+04  0.10017906486E+04 0.  0.
        5    1    3    3  502    0 -0.18935471566E+03 -0.30101976101E+03 -0.67890893016E+03  0.76642516289E+03  0.46999998093E+01 0. -1.
       -5    1    3    3    0  502  0.18935471566E+03  0.30101976101E+03  0.12661603587E+03  0.37752061586E+03  0.46999998093E+01 0.  1.
</event>
<event>
 5   0  0.9040674E-03  0.9963834E+03  0.7818609E-02  0.9312520E-01
       -2   -1    0    0    0  501  0.00000000000E+00  0.00000000000E+00  0.15554283645E+03  0.15554283647E+03  0.25500000920E-02 0.  1.
        2   -1    0    0  501    0  0.00000000000E+00  0.00000000000E+00 -0.15956695947E+04  0.15956695947E+04  0.25500000920E-02 0. -1.
    10030    2    1    2    0    0  0.00000000000E+00  0.00000000000E+00 -0.14401267582E+04  0.17512124312E+04  0.99638340976E+03 0.  0.
        1    1    3    3  502    0 -0.41339734986E+03 -0.24652172011E+03 -0.94599574224E+03  0.10614039154E+04  0.50400001928E-02 0. -1.
       -1    1    3    3    0  502  0.41339734986E+03  0.24652172011E+03 -0.49413101600E+03  0.68980851572E+03  0.50400001928E-02 0.  1.
</event>
<event>
 5   0  0.5349685E-03  0.1007941E+04  0.7818609E-02  0.9299877E-01
       -1   -1    0    0    0  501  0.00000000000E+00  0.00000000000E+00  0.28443110558E+03  0.28443110563E+03  0.50400001928E-02 0. -1.
        1   -1    0    0  501    0  0.00000000000E+00  0.00000000000E+00 -0.89296321854E+03  0.89296321855E+03  0.50400001928E-02 0.  1.
    10030    2    1    2    0    0  0.00000000000E+00  0.00000000000E+00 -0.60853211295E+03  0.11773943242E+04  0.10079414974E+04 0.  0.
        4    1    3    3  502    0  0.15068335024E+02  0.19297077253E+03  0.23927925091E+03  0.30776768282E+03  0.12699999809E+01 0. -1.
       -4    1    3    3    0  502 -0.15068335024E+02 -0.19297077253E+03 -0.84781136386E+03  0.86962664136E+03  0.12699999809E+01 0.  1.
</event>
<event>
 5   0  0.5201968E-03  0.1001709E+04  0.7818609E-02  0.9306673E-01
        1   -1    0    0  501    0  0.00000000000E+00  0.00000000000E+00  0.12103705463E+04  0.12103705463E+04  0.50400001928E-02 0. -1.
       -1   -1    0    0    0  501  0.00000000000E+00  0.00000000000E+00 -0.20725480102E+03  0.20725480108E+03  0.50400001928E-02 0.  1.
    10030    2    1    2    0    0  0.00000000000E+00  0.00000000000E+00  0.10031157452E+04  0.14176253474E+04  0.10017087536E+04 0.  0.
        2    1    3    3  502    0 -0.43981485548E+02  0.22389872534E+03 -0.12942471267E+03  0.26232759393E+03  0.25500000920E-02 0.  1.
       -2    1    3    3    0  502  0.43981485548E+02 -0.22389872534E+03  0.11325404579E+04  0.11552977534E+04  0.25500000920E-02 0. -1.
</event>
<event>
 5   0  0.8875655E-03  0.9737783E+03  0.7818609E-02  0.9337781E-01
        2   -1    0    0  501    0  0.00000000000E+00  0.00000000000E+00  0.51418577898E+03  0.51418577899E+03  0.25500000920E-02 0.  1.
       -2   -1    0    0    0  501  0.00000000000E+00  0.00000000000E+00 -0.46104159743E+03  0.46104159744E+03  0.25500000920E-02 0. -1.
    10030    2    1    2    0    0  0.00000000000E+00  0.00000000000E+00  0.53144181551E+02  0.97522737642E+03  0.97377827645E+03 0.  0.
        4    1    3    3  502    0 -0.23277417100E+03 -0.42700219568E+03  0.31979024141E+01  0.48633993181E+03  0.12699999809E+01 0. -1.
       -4    1    3    3    0  502  0.23277417100E+03  0.42700219568E+03  0.49946279137E+02  0.48888744461E+03  0.12699999809E+01 0.  1.
</event>
<event>
 5   0  0.8968798E-03  0.1021936E+04  0.7818609E-02  0.9284808E-01
       -2   -1    0    0    0  501  0.00000000000E+00  0.00000000000E+00  0.52853956994E+03  0.52853956995E+03  0.25500000920E-02 0.  1.
        2   -1    0    0  501    0  0.00000000000E+00  0.00000000000E+00 -0.49398040530E+03  0.49398040531E+03  0.25500000920E-02 0. -1.
    10030    2    1    2    0    0  0.00000000000E+00  0.00000000000E+00  0.34559164643E+02  0.10225199753E+04  0.10219357925E+04 0.  0.
        2    1    3    3  502    0 -0.20859461036E+03 -0.30619357092E+03  0.36936420441E+03  0.52315975557E+03  0.25500000920E-02 0.  1.
       -2    1    3    3    0  502  0.20859461036E+03  0.30619357092E+03 -0.33480503977E+03  0.49936021968E+03  0.25500000920E-02 0. -1.
</event>
<event>
 5   0  0.9243773E-03  0.1017362E+04  0.7818609E-02  0.9289705E-01
        2   -1    0    0  501    0  0.00000000000E+00  0.00000000000E+00  0.56726872994E+03  0.56726872994E+03  0.25500000920E-02 0. -1.
       -2   -1    0    0    0  501  0.00000000000E+00  0.00000000000E+00 -0.45614428175E+03  0.45614428175E+03  0.25500000920E-02 0.  1.
    10030    2    1    2    0    0  0.00000000000E+00  0.00000000000E+00  0.11112444819E+03  0.10234130117E+04  0.10173620543E+04 0.  0.
        3    1    3    3  502    0 -0.24360225138E+03 -0.38208838343E+03 -0.17694618884E+03  0.48646022816E+03  0.10100000352E+00 0.  1.
       -3    1    3    3    0  502  0.24360225138E+03  0.38208838343E+03  0.28807063703E+03  0.53695278354E+03  0.10100000352E+00 0. -1.
</event>
<event>
 5   0  0.3513625E-03  0.9934112E+03  0.7818609E-02  0.9315801E-01
       -4   -1    0    0    0  501  0.00000000000E+00  0.00000000000E+00  0.93924757047E+03  0.93924842908E+03  0.12699999809E+01 0. -1.
        4   -1    0    0  501    0  0.00000000000E+00  0.00000000000E+00 -0.26267205436E+03  0.26267512452E+03  0.12699999809E+01 0.  1.
    10030    2    1    2    0    0  0.00000000000E+00  0.00000000000E+00  0.67657551611E+03  0.12019235536E+04  0.99341119366E+03 0.  0.
        4    1    3    3  502    0 -0.41400708171E+03 -0.14476337246E+03  0.62036866815E+03  0.75974811289E+03  0.12699999809E+01 0. -1.
       -4    1    3    3    0  502  0.41400708171E+03  0.14476337246E+03  0.56206847968E+02  0.44217544072E+03  0.12699999809E+01 0.  1.
</event>
<event>
 5   0  0.8875655E-03  0.9578875E+03  0.7818609E-02  0.9355978E-01
       -2   -1    0    0    0  501  0.00000000000E+00  0.00000000000E+00  0.23440884217E+03  0.23440884218E+03  0.25500000920E-02 0. -1.
        2   -1    0    0  501    0  0.00000000000E+00  0.00000000000E+00 -0.97857711056E+03  0.97857711056E+03  0.25500000920E-02 0.  1.
    10030    2    1    2    0    0  0.00000000000E+00  0.00000000000E+00 -0.74416826839E+03  0.12129859527E+04  0.95788752464E+03 0.  0.
        4    1    3    3  502    0 -0.23937756209E+03 -0.28012577729E+03 -0.75952941108E+03  0.84419109657E+03  0.12699999809E+01 0.  1.
       -4    1    3    3    0  502  0.23937756209E+03  0.28012577729E+03  0.15361142687E+02  0.36879485617E+03  0.12699999809E+01 0. -1.
</event>
<event>
 5   0  0.9243773E-03  0.9987351E+03  0.7818609E-02  0.9309933E-01
        2   -1    0    0  501    0  0.00000000000E+00  0.00000000000E+00  0.12890842761E+04  0.12890842761E+04  0.25500000920E-02 0. -1.
       -2   -1    0    0    0  501  0.00000000000E+00  0.00000000000E+00 -0.19344579851E+03  0.19344579853E+03  0.25500000920E-02 0.  1.
    10030    2    1    2    0    0  0.00000000000E+00  0.00000000000E+00  0.10956384776E+04  0.14825300747E+04  0.99873507429E+03 0.  0.
        3    1    3    3  502    0 -0.26787229918E+03 -0.22066012687E+03  0.10808052726E+04  0.11351592434E+04  0.10100000352E+00 0. -1.
       -3    1    3    3    0  502  0.26787229918E+03  0.22066012687E+03  0.14833204996E+02  0.34737083129E+03  0.10100000352E+00 0.  1.
</event>
<event>
 5   0  0.5189877E-03  0.1003333E+04  0.7818609E-02  0.9304897E-01
       -1   -1    0    0    0  501  0.00000000000E+00  0.00000000000E+00  0.33724801398E+03  0.33724801402E+03  0.50400001928E-02 0. -1.
        1   -1    0    0  501    0  0.00000000000E+00  0.00000000000E+00 -0.74624403753E+03  0.74624403755E+03  0.50400001928E-02 0.  1.
    10030    2    1    2    0    0  0.00000000000E+00  0.00000000000E+00 -0.40899602355E+03  0.10834920516E+04  0.10033330845E+04 0.  0.
        3    1    3    3  502    0 -0.40544469237E+03 -0.16866706924E+03  0.57440705018E+02  0.44286953340E+03  0.10100000352E+00 0. -1.
       -3    1    3    3    0  502  0.40544469237E+03  0.16866706924E+03 -0.46643672857E+03  0.64062251816E+03  0.10100000352E+00 0.  1.
</event>
<event>
 5   0  0.9243773E-03  0.1011725E+04  0.7818609E-02  0.9295778E-01
       -2   -1    0    0    0  501  0.00000000000E+00  0.00000000000E+00  0.26894573429E+03  0.26894573430E+03  0.25500000920E-02 0. -1.
        2   -1    0    0  501    0  0.00000000000E+00  0.00000000000E+00 -0.95148162526E+03  0.95148162526E+03  0.25500000920E-02 0.  1.
    10030    2    1    2    0    0  0.00000000000E+00  0.00000000000E+00 -0.68253589097E+03  0.12204273596E+04  0.10117251097E+04 0.  0.
        3    1    3    3  502    0 -0.26600473249E+03 -0.37996966877E+03 -0.97725757059E+02  0.47401033817E+03  0.10100000352E+00 0. -1.
       -3    1    3    3    0  502  0.26600473249E+03  0.37996966877E+03 -0.58481013391E+03  0.74641702139E+03  0.10100000352E+00 0.  1.
</event>
<event>
 5   0  0.5201968E-03  0.1006926E+04  0.7818609E-02  0.9300980E-01
        1   -1    0    0  501    0  0.00000000000E+00  0.00000000000E+00  0.19370856610E+03  0.19370856616E+03  0.50400001928E-02 0.  1.
       -1   -1    0    0    0  501  0.00000000000E+00  0.00000000000E+00 -0.13085390543E+04  0.13085390543E+04  0.50400001928E-02 0. -1.
    10030    2    1    2    0    0  0.00000000000E+00  0.00000000000E+00 -0.11148304882E+04  0.15022476204E+04  0.10069264600E+04 0.  0.
        2    1    3    3  502    0  0.42757324616E+03 -0.15309201881E+03 -0.23322273361E+03  0.51053784436E+03  0.25500000920E-02 0.  1.
       -2    1    3    3    0  502 -0.42757324616E+03  0.15309201881E+03 -0.88160775457E+03  0.99170977608E+03  0.25500000920E-02 0. -1.
</event>
<event>
 5   0  0.5310275E-03  0.9975803E+03  0.7818609E-02  0.9311203E-01
        1   -1    0    0  501    0  0.00000000000E+00  0.00000000000E+00  0.48021948578E+03  0.48021948581E+03  0.50400001928E-02 0.  1.
       -1   -1    0    0    0  501  0.00000000000E+00  0.00000000000E+00 -0.51807900633E+03  0.51807900636E+03  0.50400001928E-02 0. -1.
    10030    2    1    2    0    0  0.00000000000E+00  0.00000000000E+00 -0.37859520548E+02  0.99829849217E+03  0.99758034071E+03 0.  0.
        1    1    3    3  502    0  0.38558882586E+03 -0.28484012355E+03 -0.15679321065E+03  0.50437758628E+03  0.50400001928E-02 0. -1.
       -1    1    3    3    0  502 -0.38558882586E+03  0.28484012355E+03  0.11893369011E+03  0.49392090589E+03  0.50400001928E-02 0.  1.
</event>
<event>
 5   0  0.8875655E-03  0.9972534E+03  0.7818609E-02  0.9311562E-01
       -2   -1    0    0    0  501  0.00000000000E+00  0.00000000000E+00  0.12596105617E+03  0.12596105619E+03  0.25500000920E-02 0.  1.
        2   -1    0    0  501    0  0.00000000000E+00  0.00000000000E+00 -0.19738526514E+04  0.19738526514E+04  0.25500000920E-02 0. -1.
    10030    2    1    2    0    0  0.00000000000E+00  0.00000000000E+00 -0.18478915952E+04  0.20998137076E+04  0.99725335741E+03 0.  0.
        4    1    3    3  502    0  0.32738982742E+03  0.35376424728E+03 -0.11927185578E+04  0.12864339908E+04  0.12699999809E+01 0. -1.
       -4    1    3    3    0  502 -0.32738982742E+03 -0.35376424728E+03 -0.65517303740E+03  0.81337971673E+03  0.12699999809E+01 0.  1.
</event>
<event>
 5   0  0.8875655E-03  0.9700878E+03  0.7818609E-02  0.9341974E-01
       -2   -1    0    0    0  501  0.00000000000E+00  0.00000000000E+00  0.53121497138E+03  0.53121497139E+03  0.25500000920E-02 0. -1.
        2   -1    0    0  501    0  0.00000000000E+00  0.00000000000E+00 -0.44288578785E+03  0.44288578785E+03  0.25500000920E-02 0.  1.
    10030    2    1    2    0    0  0.00000000000E+00  0.00000000000E+00  0.88329183540E+02  0.97410075924E+03  0.97008775092E+03 0.  0.
        4    1    3    3  502    0  0.17817078633E+03 -0.43672679562E+03 -0.69399790109E+02  0.47675262650E+03  0.12699999809E+01 0. -1.
       -4    1    3    3    0  502 -0.17817078633E+03  0.43672679562E+03  0.15772897365E+03  0.49734813274E+03  0.12699999809E+01 0.  1.
</event>
<event>
 5   0  0.8875655E-03  0.1017878E+04  0.7818609E-02  0.9289151E-01
        2   -1    0    0  501    0  0.00000000000E+00  0.00000000000E+00  0.11317308034E+04  0.11317308034E+04  0.25500000920E-02 0.  1.
       -2   -1    0    0    0  501  0.00000000000E+00  0.00000000000E+00 -0.22886991851E+03  0.22886991853E+03  0.25500000920E-02 0. -1.
    10030    2    1    2    0    0  0.00000000000E+00  0.00000000000E+00  0.90286088491E+03  0.13606007219E+04  0.10178784540E+04 0.  0.
        4    1    3    3  502    0  0.31619508467E+03 -0.69117088511E+02 -0.73573875628E+02  0.33192051995E+03  0.12699999809E+01 0. -1.
       -4    1    3    3    0  502 -0.31619508467E+03  0.69117088511E+02  0.97643476054E+03  0.10286802020E+04  0.12699999809E+01 0.  1.
</event>
<event>
 5   0  0.3513625E-03  0.9985754E+03  0.7818609E-02  0.9310109E-01
       -3   -1    0    0    0  501  0.00000000000E+00  0.00000000000E+00  0.71744399656E+03  0.71744400367E+03  0.10100000352E+00 0.  1.
        3   -1    0    0  501    0  0.00000000000E+00  0.00000000000E+00 -0.34746713187E+03  0.34746714655E+03  0.10100000352E+00 0. -1.
    10030    2    1    2    0    0  0.00000000000E+00  0.00000000000E+00  0.36997686469E+03  0.10649111502E+04  0.99857542402E+03 0.  0.
        2    1    3    3  502    0  0.15299674817E+03  0.20006648217E+01  0.69182477534E+03  0.70854324313E+03  0.25500000920E-02 0.  1.
       -2    1    3    3    0  502 -0.15299674817E+03 -0.20006648217E+01 -0.32184791064E+03  0.35636790709E+03  0.25500000920E-02 0. -1.
</event>
<event>
 5   0  0.5310275E-03  0.9942683E+03  0.7818609E-02  0.9314854E-01
       -1   -1    0    0    0  501  0.00000000000E+00  0.00000000000E+00  0.31991331913E+03  0.31991331917E+03  0.50400001928E-02 0. -1.
        1   -1    0    0  501    0  0.00000000000E+00  0.00000000000E+00 -0.77252915977E+03  0.77252915978E+03  0.50400001928E-02 0.  1.
    10030    2    1    2    0    0  0.00000000000E+00  0.00000000000E+00 -0.45261584063E+03  0.10924424790E+04  0.99426830918E+03 0.  0.
        1    1    3    3  502    0 -0.14739916274E+03 -0.47462588612E+03 -0.21302621640E+03  0.54071842382E+03  0.50400001928E-02 0.  1.
       -1    1    3    3    0  502  0.14739916274E+03  0.47462588612E+03 -0.23958962423E+03  0.55172405514E+03  0.50400001928E-02 0. -1.
</event>
<event>
 5   0  0.3513625E-03  0.9929825E+03  0.7818609E-02  0.9316275E-01
       -3   -1    0    0    0  501  0.00000000000E+00  0.00000000000E+00  0.27190733617E+03  0.27190735492E+03  0.10100000352E+00 0.  1.
        3   -1    0    0  501    0  0.00000000000E+00  0.00000000000E+00 -0.90657197635E+03  0.90657198198E+03  0.10100000352E+00 0. -1.
    10030    2    1    2    0    0  0.00000000000E+00  0.00000000000E+00 -0.63466464019E+03  0.11784793369E+04  0.99298254869E+03 0.  0.
        4    1    3    3  502    0  0.42190335504E+03  0.64077279379E+01 -0.68091874147E+01  0.42200885999E+03  0.12699999809E+01 0.  1.
       -4    1    3    3    0  502 -0.42190335504E+03 -0.64077279379E+01 -0.62785545277E+03  0.75647047692E+03  0.12699999809E+01 0. -1.
</event>
<event>
 5   0  0.9243773E-03  0.1020274E+04  0.7818609E-02  0.9286584E-01
        2   -1    0    0  501    0  0.00000000000E+00  0.00000000000E+00  0.16074552688E+04  0.16074552688E+04  0.25500000920E-02 0. -1.
       -2   -1    0    0    0  501  0.00000000000E+00  0.00000000000E+00 -0.16189558868E+03  0.16189558870E+03  0.25500000920E-02 0.  1.
    10030    2    1    2    0    0  0.00000000000E+00  0.00000000000E+00  0.14455596801E+04  0.17693508575E+04  0.10202743102E+04 0.  0.
        3    1    3    3  502    0  0.23898652547E+03  0.23457814933E+03  0.55401280464E+02  0.33942713442E+03  0.10100000352E+00 0.  1.
       -3    1    3    3    0  502 -0.23898652547E+03 -0.23457814933E+03  0.13901583996E+04  0.14299237231E+04  0.10100000352E+00 0. -1.
</event>
<event>
 5   0  0.3513625E-03  0.9979954E+03  0.7818609E-02  0.9310746E-01
        3   -1    0    0  501    0  0.00000000000E+00  0.00000000000E+00  0.23902924356E+03  0.23902926490E+03  0.10100000352E+00 0.  1.
       -3   -1    0    0    0  501  0.00000000000E+00  0.00000000000E+00 -0.10417080644E+04  0.10417080693E+04  0.10100000352E+00 0. -1.
    10030    2    1    2    0    0  0.00000000000E+00  0.00000000000E+00 -0.80267882083E+03  0.12807373342E+04  0.99799540569E+03 0.  0.
        3    1    3    3  502    0 -0.34287005287E+03  0.31767420364E+03 -0.62554037875E+03  0.78088254460E+03  0.10100000352E+00 0. -1.
       -3    1    3    3    0  502  0.34287005287E+03 -0.31767420364E+03 -0.17713844208E+03  0.49985478959E+03  0.10100000352E+00 0.  1.
</event>
<event>
 5   0  0.9040674E-03  0.9961831E+03  0.7818609E-02  0.9312741E-01
       -2   -1    0    0    0  501  0.00000000000E+00  0.00000000000E+00  0.71727586323E+03  0.71727586324E+03  0.25500000920E-02 0. -1.
        2   -1    0    0  501    0  0.00000000000E+00  0.00000000000E+00 -0.34588531991E+03  0.34588531991E+03  0.25500000920E-02 0.  1.
    10030    2    1    2    0    0  0.00000000000E+00  0.00000000000E+00  0.37139054333E+03  0.10631611832E+04  0.99618309848E+03 0.  0.
        1    1    3    3  502    0 -0.24627180971E+03  0.42573875105E+03  0.26967452607E+03  0.56091678388E+03  0.50400001928E-02 0. -1.
       -1    1    3    3    0  502  0.24627180971E+03 -0.42573875105E+03  0.10171601726E+03  0.50224439927E+03  0.50400001928E-02 0.  1.
</event>
<event>
 5   0  0.3513625E-03  0.8180562E+03  0.7818609E-02  0.9534243E-01
       -4   -1    0    0    0  501  0.00000000000E+00  0.00000000000E+00  0.38042758234E+03  0.38042970218E+03  0.12699999809E+01 0.  1.
        4   -1    0    0  501    0  0.00000000000E+00  0.00000000000E+00 -0.43977459228E+03  0.43977642606E+03  0.12699999809E+01 0. -1.
    10030    2    1    2    0    0  0.00000000000E+00  0.00000000000E+00 -0.59347009945E+02  0.82020612824E+03  0.81805624820E+03 0.  0.
        1    1    3    3  502    0 -0.28148383497E+03  0.92174541431E+02 -0.31250474547E+03  0.43056766182E+03  0.50400001928E-02 0. -1.
       -1    1    3    3    0  502  0.28148383497E+03 -0.92174541431E+02  0.25315773553E+03  0.38963846642E+03  0.50400001928E-02 0.  1.
</event>
<event>
 5   0  0.5310275E-03  0.9983754E+03  0.7818609E-02  0.9310328E-01
       -1   -1    0    0    0  501  0.00000000000E+00  0.00000000000E+00  0.80138341453E+03  0.80138341454E+03  0.50400001928E-02 0.  1.
        1   -1    0    0  501    0  0.00000000000E+00  0.00000000000E+00 -0.31094771158E+03  0.31094771162E+03  0.50400001928E-02 0. -1.
    10030    2    1    2    0    0  0.00000000000E+00  0.00000000000E+00  0.49043570295E+03  0.11123311262E+04  0.99837535802E+03 0.  0.
        1    1    3    3  502    0 -0.61229587250E+02  0.19994864603E+03 -0.25979645788E+03  0.33350070908E+03  0.50400001928E-02 0. -1.
       -1    1    3    3    0  502  0.61229587250E+02 -0.19994864603E+03  0.75023216083E+03  0.77883041708E+03  0.50400001928E-02 0.  1.
</event>
<event>
 5   0  0.5201968E-03  0.1010702E+04  0.7818609E-02  0.9296884E-01
       -1   -1    0    0    0  501  0.00000000000E+00  0.00000000000E+00  0.13282304589E+04  0.13282304589E+04  0.50400001928E-02 0.  1.
        1   -1    0    0  501    0  0.00000000000E+00  0.00000000000E+00 -0.19227057216E+03  0.19227057223E+03  0.50400001928E-02 0. -1.
    10030    2    1    2    0    0  0.00000000000E+00  0.00000000000E+00  0.11359598867E+04  0.15205010311E+04  0.10107019944E+04 0.  0.
        2    1    3    3  502    0  0.79036085000E+02  0.42976465799E+03  0.94985862133E+03  0.10455504600E+04  0.25500000920E-02 0. -1.
       -2    1    3    3    0  502 -0.79036085000E+02 -0.42976465799E+03  0.18610126541E+03  0.47495057110E+03  0.25500000920E-02 0.  1.
</event>
<event>
 5   0  0.9243773E-03  0.9767841E+03  0.7818609E-02  0.9334381E-01
       -2   -1    0    0    0  501  0.00000000000E+00  0.00000000000E+00  0.47318302152E+03  0.47318302153E+03  0.25500000920E-02 0. -1.
        2   -1    0    0  501    0  0.00000000000E+00  0.00000000000E+00 -0.50408993176E+03  0.50408993177E+03  0.25500000920E-02 0.  1.
    10030    2    1    2    0    0  0.00000000000E+00  0.00000000000E+00 -0.30906910240E+02  0.97727295330E+03  0.97678410518E+03 0.  0.
        3    1    3    3  502    0  0.35995424697E+03 -0.29226062429E+03  0.13806210028E+03  0.48378144462E+03  0.10100000352E+00 0.  1.
       -3    1    3    3    0  502 -0.35995424697E+03  0.29226062429E+03 -0.16896901052E+03  0.49349150868E+03  0.10100000352E+00 0. -1.
</event>
<event>
 5   0  0.5201968E-03  0.9959215E+03  0.7818609E-02  0.9313029E-01
        1   -1    0    0  501    0  0.00000000000E+00  0.00000000000E+00  0.15308567778E+04  0.15308567778E+04  0.50400001928E-02 0. -1.
       -1   -1    0    0    0  501  0.00000000000E+00  0.00000000000E+00 -0.16197787293E+03  0.16197787301E+03  0.50400001928E-02 0.  1.
    10030    2    1    2    0    0  0.00000000000E+00  0.00000000000E+00  0.13688789048E+04  0.16928346508E+04  0.99592153245E+03 0.  0.
        2    1    3    3  502    0  0.32772083245E+03 -0.31298226296E+03  0.10352924781E+04  0.11301280265E+04  0.25500000920E-02 0. -1.
       -2    1    3    3    0  502 -0.32772083245E+03  0.31298226296E+03  0.33358642668E+03  0.56270662429E+03  0.25500000920E-02 0.  1.
</event>
<event>
 5   0  0.8968798E-03  0.1010213E+04  0.7818609E-02  0.9297414E-01
       -2   -1    0    0    0  501  0.00000000000E+00  0.00000000000E+00  0.87374793442E+03  0.87374793443E+03  0.25500000920E-02 0.  1.
        2   -1    0    0  501    0  0.00000000000E+00  0.00000000000E+00 -0.29199762976E+03  0.29199762978E+03  0.25500000920E-02 0. -1.
    10030    2    1    2    0    0  0.00000000000E+00  0.00000000000E+00  0.58175030466E+03  0.11657455642E+04  0.10102125041E+04 0.  0.
        2    1    3    3  502    0 -0.26425479270E+03  0.23196032246E+03  0.70932896841E+03  0.79169676777E+03  0.25500000920E-02 0.  1.
       -2    1    3    3    0  502  0.26425479270E+03 -0.23196032246E+03 -0.12757866375E+03  0.37404879644E+03  0.25500000920E-02 0. -1.
</event>
<event>
 5   0  0.5189877E-03  0.1093841E+04  0.7818609E-02  0.9211215E-01
        1   -1    0    0  501    0  0.00000000000E+00  0.00000000000E+00  0.37035310753E+03  0.37035310756E+03  0.50400001928E-02 0. -1.
       -1   -1    0    0    0  501  0.00000000000E+00  0.00000000000E+00 -0.80766754950E+03  0.80766754952E+03  0.50400001928E-02 0.  1.
    10030    2    1    2    0    0  0.00000000000E+00  0.00000000000E+00 -0.43731444197E+03  0.11780206571E+04  0.10938412807E+04 0.  0.
        3    1    3    3  502    0 -0.26954280984E+03  0.45828293747E+03 -0.35676668886E+03  0.64028045230E+03  0.10100000352E+00 0.  1.
       -3    1    3    3    0  502  0.26954280984E+03 -0.45828293747E+03 -0.80547753112E+02  0.53774020478E+03  0.10100000352E+00 0. -1.
</event>
<event>
 5   0  0.5310275E-03  0.9879465E+03  0.7818609E-02  0.9321865E-01
        1   -1    0    0  501    0  0.00000000000E+00  0.00000000000E+00  0.10972719683E+04  0.10972719683E+04  0.50400001928E-02 0.  1.
       -1   -1    0    0    0  501  0.00000000000E+00  0.00000000000E+00 -0.22237840114E+03  0.22237840120E+03  0.50400001928E-02 0. -1.
    10030    2    1    2    0    0  0.00000000000E+00  0.00000000000E+00  0.87489356711E+03  0.13196503695E+04  0.98794652883E+03 0.  0.
        1    1    3    3  502    0  0.26398729632E+03  0.29406341511E+03  0.41543672578E+02  0.39735181071E+03  0.50400001928E-02 0. -1.
       -1    1    3    3    0  502 -0.26398729632E+03 -0.29406341511E+03  0.83334989453E+03  0.92229855875E+03  0.50400001928E-02 0.  1.
</event>
<event>
 5   0  0.8875655E-03  0.9987978E+03  0.7818609E-02  0.9309864E-01
        2   -1    0    0  501    0  0.00000000000E+00  0.00000000000E+00  0.19935692428E+04  0.19935692428E+04  0.25500000920E-02 0.  1.
       -2   -1    0    0    0  501  0.00000000000E+00  0.00000000000E+00 -0.12510187282E+03  0.12510187284E+03  0.25500000920E-02 0. -1.
    10030    2    1    2    0    0  0.00000000000E+00  0.00000000000E+00  0.18684673700E+04  0.21186711157E+04  0.99879776911E+03 0.  0.
        4    1    3    3  502    0  0.57477539659E+02  0.91801730240E+02  0.19683511744E+04  0.19713292936E+04  0.12699999809E+01 0.  1.
       -4    1    3    3    0  502 -0.57477539659E+02 -0.91801730240E+02 -0.99883804398E+02  0.14734182204E+03  0.12699999809E+01 0. -1.
</event>
<event>
 5   0  0.8907355E-03  0.1005316E+04  0.7818609E-02  0.9302734E-01
       -2   -1    0    0    0  501  0.00000000000E+00  0.00000000000E+00  0.15232747472E+03  0.15232747474E+03  0.25500000920E-02 0.  1.
        2   -1    0    0  501    0  0.00000000000E+00  0.00000000000E+00 -0.16586958837E+04  0.16586958837E+04  0.25500000920E-02 0. -1.
    10030    2    1    2    0    0  0.00000000000E+00  0.00000000000E+00 -0.15063684090E+04  0.18110233585E+04  0.10053157818E+04 0.  0.
        5    1    3    3  502    0 -0.92080510080E+01  0.30601568750E+03 -0.14713100360E+04  0.15028325592E+04  0.46999998093E+01 0. -1.
       -5    1    3    3    0  502  0.92080510080E+01 -0.30601568750E+03 -0.35058373034E+02  0.30819079921E+03  0.46999998093E+01 0.  1.
</event>
<event>
 5   0  0.5201968E-03  0.1027372E+04  0.7818609E-02  0.9279023E-01
        1   -1    0    0  501    0  0.00000000000E+00  0.00000000000E+00  0.37091101820E+03  0.37091101824E+03  0.50400001928E-02 0.  1.
       -1   -1    0    0    0  501  0.00000000000E+00  0.00000000000E+00 -0.71141988727E+03  0.71141988729E+03  0.50400001928E-02 0. -1.
    10030    2    1    2    0    0  0.00000000000E+00  0.00000000000E+00 -0.34050886907E+03  0.10823309055E+04  0.10273723274E+04 0.  0.
        2    1    3    3  502    0 -0.39392729990E+03  0.10826623231E+03 -0.49831801091E+03  0.64437654727E+03  0.25500000920E-02 0. -1.
       -2    1    3    3    0  502  0.39392729990E+03 -0.10826623231E+03  0.15780914184E+03  0.43795435826E+03  0.25500000920E-02 0.  1.
</event>
<event>
 5   0  0.5201968E-03  0.1002214E+04  0.7818609E-02  0.9306120E-01
        1   -1    0    0  501    0  0.00000000000E+00  0.00000000000E+00  0.95420153763E+03  0.95420153764E+03  0.50400001928E-02 0. -1.
       -1   -1    0    0    0  501  0.00000000000E+00  0.00000000000E+00 -0.26316063317E+03  0.26316063322E+03  0.50400001928E-02 0.  1.
    10030    2    1    2    0    0  0.00000000000E+00  0.00000000000E+00  0.69104090446E+03  0.12173621709E+04  0.10022141106E+04 0.  0.
        2    1    3    3  502    0 -0.61125531591E+02  0.22098464130E+03 -0.19570825560E+03  0.30145026724E+03  0.25500000920E-02 0.  1.
       -2    1    3    3    0  502  0.61125531591E+02 -0.22098464130E+03  0.88674916007E+03  0.91591190362E+03  0.25500000920E-02 0. -1.
</event>
<event>
 5   0  0.5310275E-03  0.1000569E+04  0.7818609E-02  0.9307921E-01
        1   -1    0    0  501    0  0.00000000000E+00  0.00000000000E+00  0.14786269119E+04  0.14786269119E+04  0.50400001928E-02 0.  1.
       -1   -1    0    0    0  501  0.00000000000E+00  0.00000000000E+00 -0.16926810567E+03  0.16926810575E+03  0.50400001928E-02 0. -1.
    10030    2    1    2    0    0  0.00000000000E+00  0.00000000000E+00  0.13093588062E+04  0.16478950176E+04  0.10005685912E+04 0.  0.
        1    1    3    3  502    0  0.12136662557E+03 -0.14469853004E+03  0.14176619208E+04  0.14301862970E+04  0.50400001928E-02 0.  1.
       -1    1    3    3    0  502 -0.12136662557E+03  0.14469853004E+03 -0.10830311458E+03  0.21770872066E+03  0.50400001928E-02 0. -1.
</event>
<event>
 5   0  0.5072205E-03  0.9739973E+03  0.7818609E-02  0.9337533E-01
       -1   -1    0    0    0  501  0.00000000000E+00  0.00000000000E+00  0.13584688078E+03  0.13584688088E+03  0.50400001928E-02 0. -1.
        1   -1    0    0  501    0  0.00000000000E+00  0.00000000000E+00 -0.17458456320E+04  0.17458456320E+04  0.50400001928E-02 0.  1.
    10030    2    1    2    0    0  0.00000000000E+00  0.00000000000E+00 -0.16099987512E+04  0.18816925129E+04  0.97399729677E+03 0.  0.
        5    1    3    3  502    0  0.18934421934E+03 -0.32873242883E+03 -0.21511453645E+03  0.43613369161E+03  0.46999998093E+01 0. -1.
       -5    1    3    3    0  502 -0.18934421934E+03  0.32873242883E+03 -0.13948842147E+04  0.14455588213E+04  0.46999998093E+01 0.  1.
</event>
<event>
 5   0  0.5189877E-03  0.1025541E+04  0.7818609E-02  0.9280968E-01
       -1   -1    0    0    0  501  0.00000000000E+00  0.00000000000E+00  0.13682647871E+04  0.13682647871E+04  0.50400001928E-02 0. -1.
        1   -1    0    0  501    0  0.00000000000E+00  0.00000000000E+00 -0.19216556908E+03  0.19216556915E+03  0.50400001928E-02 0.  1.
    10030    2    1    2    0    0  0.00000000000E+00  0.00000000000E+00  0.11760992180E+04  0.15604303563E+04  0.10255406019E+04 0.  0.
        3    1    3    3  502    0  0.25276167947E+03  0.37972611918E+03  0.94441181700E+03  0.10488060271E+04  0.10100000352E+00 0.  1.
       -3    1    3    3    0  502 -0.25276167947E+03 -0.37972611918E+03  0.23168740103E+03  0.51162432917E+03  0.10100000352E+00 0. -1.
</event>
<event>
 5   0  0.9040674E-03  0.1002462E+04  0.7818609E-02  0.9305849E-01
       -2   -1    0    0    0  501  0.00000000000E+00  0.00000000000E+00  0.23352017086E+03  0.23352017087E+03  0.25500000920E-02 0.  1.
        2   -1    0    0  501    0  0.00000000000E+00  0.00000000000E+00 -0.10758484611E+04  0.10758484611E+04  0.25500000920E-02 0. -1.
    10030    2    1    2    0    0  0.00000000000E+00  0.00000000000E+00 -0.84232829022E+03  0.13093686319E+04  0.10024616032E+04 0.  0.
        1    1    3    3  502    0  0.48523221372E+03 -0.69866697368E+02 -0.55753469084E+03  0.74241268049E+03  0.50400001928E-02 0.  1.
       -1    1    3    3    0  502 -0.48523221372E+03  0.69866697368E+02 -0.28479359937E+03  0.56695595146E+03  0.50400001928E-02 0. -1.
</event>
<event>
 5   0  0.5189877E-03  0.1000253E+04  0.7818609E-02  0.9308267E-01
       -1   -1    0    0    0  501  0.00000000000E+00  0.00000000000E+00  0.81677087966E+03  0.81677087967E+03  0.50400001928E-02 0. -1.
        1   -1    0    0  501    0  0.00000000000E+00  0.00000000000E+00 -0.30623834989E+03  0.30623834993E+03  0.50400001928E-02 0.  1.
    10030    2    1    2    0    0  0.00000000000E+00  0.00000000000E+00  0.51053252977E+03  0.11230092296E+04  0.10002531009E+04 0.  0.
        3    1    3    3  502    0 -0.13511605256E+02  0.49381639747E+03  0.34287737556E+03  0.60133360355E+03  0.10100000352E+00 0. -1.
       -3    1    3    3    0  502  0.13511605256E+02 -0.49381639747E+03  0.16765515420E+03  0.52167562606E+03  0.10100000352E+00 0.  1.
</event>
<event>
 5   0  0.5310275E-03  0.1014999E+04  0.7818609E-02  0.9292246E-01
        1   -1    0    0  501    0  0.00000000000E+00  0.00000000000E+00  0.63944092696E+03  0.63944092698E+03  0.50400001928E-02 0.  1.
       -1   -1    0    0    0  501  0.00000000000E+00  0.00000000000E+00 -0.40278234428E+03  0.40278234431E+03  0.50400001928E-02 0. -1.
    10030    2    1    2    0    0  0.00000000000E+00  0.00000000000E+00  0.23665858268E+03  0.10422232713E+04  0.10149985529E+04 0.  0.
        1    1    3    3  502    0  0.22899433763E+03  0.39576944069E+03  0.34442537298E+03  0.57245147779E+03  0.50400001928E-02 0.  1.
       -1    1    3    3    0  502 -0.22899433763E+03 -0.39576944069E+03 -0.10776679030E+03  0.46977179350E+03  0.50400001928E-02 0. -1.
</event>
<event>
 5   0  0.5310275E-03  0.9564149E+03  0.7818609E-02  0.9357684E-01
        1   -1    0    0  501    0  0.00000000000E+00  0.00000000000E+00  0.33719046348E+03  0.33719046352E+03  0.50400001928E-02 0. -1.
       -1   -1    0    0    0  501  0.00000000000E+00  0.00000000000E+00 -0.67819933137E+03  0.67819933139E+03  0.50400001928E-02 0.  1.
    10030    2    1    2    0    0  0.00000000000E+00  0.00000000000E+00 -0.34100886789E+03  0.10153897949E+04  0.95641486166E+03 0.  0.
        1    1    3    3  502    0 -0.53536240267E+02  0.46945479161E+03 -0.24872537903E+03  0.53396464732E+03  0.50400001928E-02 0.  1.
       -1    1    3    3    0  502  0.53536240267E+02 -0.46945479161E+03 -0.92283488855E+02  0.48142514758E+03  0.50400001928E-02 0. -1.
</event>
<event>
 5   0  0.5201968E-03  0.1017490E+04  0.7818609E-02  0.9289567E-01
       -1   -1    0    0    0  501  0.00000000000E+00  0.00000000000E+00  0.48630105618E+03  0.48630105621E+03  0.50400001928E-02 0. -1.
        1   -1    0    0  501    0  0.00000000000E+00  0.00000000000E+00 -0.53222491396E+03  0.53222491398E+03  0.50400001928E-02 0.  1.
    10030    2    1    2    0    0  0.00000000000E+00  0.00000000000E+00 -0.45923857776E+02  0.10185259702E+04  0.10174901234E+04 0.  0.
        2    1    3    3  502    0 -0.24155249864E+02 -0.84403104689E+02 -0.52458502146E+03  0.53188044232E+03  0.25500000920E-02 0.  1.
       -2    1    3    3    0  502  0.24155249864E+02  0.84403104689E+02  0.47866116368E+03  0.48664552787E+03  0.25500000920E-02 0. -1.
</event>
<event>
 5   0  0.5189877E-03  0.9780529E+03  0.7818609E-02  0.9332949E-01
       -1   -1    0    0    0  501  0.00000000000E+00  0.00000000000E+00  0.56824149413E+03  0.56824149415E+03  0.50400001928E-02 0. -1.
        1   -1    0    0  501    0  0.00000000000E+00  0.00000000000E+00 -0.42085429921E+03  0.42085429924E+03  0.50400001928E-02 0.  1.
    10030    2    1    2    0    0  0.00000000000E+00  0.00000000000E+00  0.14738719492E+03  0.98909579339E+03  0.97805291435E+03 0.  0.
        3    1    3    3  502    0  0.20136635477E+03 -0.17762336775E+02 -0.37662376905E+03  0.42744518135E+03  0.10100000352E+00 0.  1.
       -3    1    3    3    0  502 -0.20136635477E+03  0.17762336775E+02  0.52401096398E+03  0.56165061204E+03  0.10100000352E+00 0. -1.
</event>
<event>
 5   0  0.9040674E-03  0.9579753E+03  0.7818609E-02  0.9355877E-01
       -2   -1    0    0    0  501  0.00000000000E+00  0.00000000000E+00  0.15588573557E+03  0.15588573559E+03  0.25500000920E-02 0.  1.
        2   -1    0    0  501    0  0.00000000000E+00  0.00000000000E+00 -0.14717778080E+04  0.14717778080E+04  0.25500000920E-02 0. -1.
    10030    2    1    2    0    0  0.00000000000E+00  0.00000000000E+00 -0.13158920724E+04  0.16276635436E+04  0.95797529449E+03 0.  0.
        1    1    3    3  502    0  0.34281172602E+03  0.26389860904E+03 -0.30863680150E+03  0.53143111559E+03  0.50400001928E-02 0.  1.
       -1    1    3    3    0  502 -0.34281172602E+03 -0.26389860904E+03 -0.10072552709E+04  0.10962324280E+04  0.50400001928E-02 0. -1.
</event>
<event>
 5   0  0.9243773E-03  0.1003074E+04  0.7818609E-02  0.9305179E-01
       -2   -1    0    0    0  501  0.00000000000E+00  0.00000000000E+00  0.84086411444E+03  0.84086411444E+03  0.25500000920E-02 0.  1.
        2   -1    0    0  501    0  0.00000000000E+00  0.00000000000E+00 -0.29914408213E+03  0.29914408214E+03  0.25500000920E-02 0. -1.
    10030    2    1    2    0    0  0.00000000000E+00  0.00000000000E+00  0.54172003231E+03  0.11400081966E+04  0.10030743217E+04 0.  0.
        3    1    3    3  502    0 -0.18302300265E+03 -0.20891071203E+03  0.74548010872E+03  0.79553862747E+03  0.10100000352E+00 0.  1.
       -3    1    3    3    0  502  0.18302300265E+03  0.20891071203E+03 -0.20376007642E+03  0.34446956911E+03  0.10100000352E+00 0. -1.
</event>
<event>
 5   0  0.5189877E-03  0.1022786E+04  0.7818609E-02  0.9283901E-01
       -1   -1    0    0    0  501  0.00000000000E+00  0.00000000000E+00  0.48147077377E+03  0.48147077380E+03  0.50400001928E-02 0.  1.
        1   -1    0    0  501    0  0.00000000000E+00  0.00000000000E+00 -0.54317484984E+03  0.54317484986E+03  0.50400001928E-02 0. -1.
    10030    2    1    2    0    0  0.00000000000E+00  0.00000000000E+00 -0.61704076067E+02  0.10246456237E+04  0.10227860290E+04 0.  0.
        3    1    3    3  502    0 -0.54126424407E+02  0.22025149688E+03 -0.49003287083E+03  0.53997464421E+03  0.10100000352E+00 0. -1.
       -3    1    3    3    0  502  0.54126424407E+02 -0.22025149688E+03  0.42832879476E+03  0.48467097945E+03  0.10100000352E+00 0.  1.
</event>
<event>
 5   0  0.3513625E-03  0.9776383E+03  0.7818609E-02  0.9333416E-01
       -4   -1    0    0    0  501  0.00000000000E+00  0.00000000000E+00  0.33831027957E+03  0.33831266332E+03  0.12699999809E+01 0.  1.
        4   -1    0    0  501    0  0.00000000000E+00  0.00000000000E+00 -0.70628163785E+03  0.70628277968E+03  0.12699999809E+01 0. -1.
    10030    2    1    2    0    0  0.00000000000E+00  0.00000000000E+00 -0.36797135828E+03  0.10445954430E+04  0.97763833753E+03 0.  0.
        2    1    3    3  502    0 -0.59337757036E+01  0.28276439255E+02 -0.70537026223E+03  0.70596173661E+03  0.25500000920E-02 0. -1.
       -2    1    3    3    0  502  0.59337757036E+01 -0.28276439255E+02  0.33739890394E+03  0.33863370639E+03  0.25500000920E-02 0.  1.
</event>
<event>
 5   0  0.5349685E-03  0.9967737E+03  0.7818609E-02  0.9312090E-01
        1   -1    0    0  501    0  0.00000000000E+00  0.00000000000E+00  0.10079845156E+04  0.10079845156E+04  0.50400001928E-02 0. -1.
       -1   -1    0    0    0  501  0.00000000000E+00  0.00000000000E+00 -0.24642189974E+03  0.24642189979E+03  0.50400001928E-02 0.  1.
    10030    2    1    2    0    0  0.00000000000E+00  0.00000000000E+00  0.76156261581E+03  0.12544064154E+04  0.99677371408E+03 0.  0.
        4    1    3    3  502    0 -0.49439806166E+03  0.62068120829E+02  0.39373504239E+03  0.63506754877E+03  0.12699999809E+01 0. -1.
       -4    1    3    3    0  502  0.49439806166E+03 -0.62068120829E+02  0.36782757342E+03  0.61933886659E+03  0.12699999809E+01 0.  1.
</event>
<event>
 5   0  0.5201968E-03  0.9809746E+03  0.7818609E-02  0.9329661E-01
        1   -1    0    0  501    0  0.00000000000E+00  0.00000000000E+00  0.15646448149E+04  0.15646448149E+04  0.50400001928E-02 0.  1.
       -1   -1    0    0    0  501  0.00000000000E+00  0.00000000000E+00 -0.15375871112E+03  0.15375871120E+03  0.50400001928E-02 0. -1.
    10030    2    1    2    0    0  0.00000000000E+00  0.00000000000E+00  0.14108861037E+04  0.17184035261E+04  0.98097455659E+03 0.  0.
        2    1    3    3  502    0  0.48603289002E+03 -0.64447928301E+02  0.68090227493E+03  0.83905268825E+03  0.25500000920E-02 0. -1.
       -2    1    3    3    0  502 -0.48603289002E+03  0.64447928301E+02  0.72998382882E+03  0.87935083783E+03  0.25500000920E-02 0.  1.
</event>
<event>
 5   0  0.5310275E-03  0.1007674E+04  0.7818609E-02  0.9300168E-01
        1   -1    0    0  501    0  0.00000000000E+00  0.00000000000E+00  0.74683400405E+03  0.74683400407E+03  0.50400001928E-02 0. -1.
       -1   -1    0    0    0  501  0.00000000000E+00  0.00000000000E+00 -0.33990364763E+03  0.33990364767E+03  0.50400001928E-02 0.  1.
    10030    2    1    2    0    0  0.00000000000E+00  0.00000000000E+00  0.40693035642E+03  0.10867376517E+04  0.10076737611E+04 0.  0.
        1    1    3    3  502    0 -0.31385495629E+03 -0.14932354928E+03  0.59684385038E+03  0.69066999190E+03  0.50400001928E-02 0. -1.
       -1    1    3    3    0  502  0.31385495629E+03  0.14932354928E+03 -0.18991349396E+03  0.39606765984E+03  0.50400001928E-02 0.  1.
</event>
<event>
 5   0  0.5072205E-03  0.9872065E+03  0.7818609E-02  0.9322689E-01
        1   -1    0    0  501    0  0.00000000000E+00  0.00000000000E+00  0.21675156478E+04  0.21675156478E+04  0.50400001928E-02 0.  1.
       -1   -1    0    0    0  501  0.00000000000E+00  0.00000000000E+00 -0.11240710545E+03  0.11240710556E+03  0.50400001928E-02 0. -1.
    10030    2    1    2    0    0  0.00000000000E+00  0.00000000000E+00  0.20551085423E+04  0.22799227533E+04  0.98720648319E+03 0.  0.
        5    1    3    3  502    0 -0.27630716160E+03  0.48333093800E+01  0.19720482036E+04  0.19913224791E+04  0.46999998093E+01 0.  1.
       -5    1    3    3    0  502  0.27630716160E+03 -0.48333093800E+01  0.83060338745E+02  0.28860027426E+03  0.46999998093E+01 0. -1.
</event>
<event>
 5   0  0.8907355E-03  0.9688632E+03  0.7818609E-02  0.9343370E-01
        2   -1    0    0  501    0  0.00000000000E+00  0.00000000000E+00  0.96074106154E+03  0.96074106155E+03  0.25500000920E-02 0.  1.
       -2   -1    0    0    0  501  0.00000000000E+00  0.00000000000E+00 -0.24426351634E+03  0.24426351635E+03  0.25500000920E-02 0. -1.
    10030    2    1    2    0    0  0.00000000000E+00  0.00000000000E+00  0.71647754520E+03  0.12050045779E+04  0.96886323079E+03 0.  0.
        5    1    3    3  502    0 -0.18905263019E+03 -0.10828712736E+03  0.89633708448E+03  0.92244742828E+03  0.46999998093E+01 0.  1.
       -5    1    3    3    0  502  0.18905263019E+03  0.10828712736E+03 -0.17985953928E+03  0.28255714962E+03  0.46999998093E+01 0. -1.
</event>
<event>
 5   0  0.8875655E-03  0.1015929E+04  0.7818609E-02  0.9291245E-01
        2   -1    0    0  501    0  0.00000000000E+00  0.00000000000E+00  0.18570151345E+03  0.18570151346E+03  0.25500000920E-02 0.  1.
       -2   -1    0    0    0  501  0.00000000000E+00  0.00000000000E+00 -0.13894762560E+04  0.13894762560E+04  0.25500000920E-02 0. -1.
    10030    2    1    2    0    0  0.00000000000E+00  0.00000000000E+00 -0.12037747426E+04  0.15751777695E+04  0.10159288236E+04 0.  0.
        4    1    3    3  502    0  0.21790701697E+03  0.12979411946E+03  0.80493583770E+02  0.26610300904E+03  0.12699999809E+01 0.  1.
       -4    1    3    3    0  502 -0.21790701697E+03 -0.12979411946E+03 -0.12842683263E+04  0.13090747604E+04  0.12699999809E+01 0. -1.
</event>
<event>
 5   0  0.5072205E-03  0.9906211E+03  0.7818609E-02  0.9318892E-01
        1   -1    0    0  501    0  0.00000000000E+00  0.00000000000E+00  0.29184583351E+03  0.29184583355E+03  0.50400001928E-02 0.  1.
       -1   -1    0    0    0  501  0.00000000000E+00  0.00000000000E+00 -0.84062372822E+03  0.84062372823E+03  0.50400001928E-02 0. -1.
    10030    2    1    2    0    0  0.00000000000E+00  0.00000000000E+00 -0.54877789471E+03  0.11324695618E+04  0.99062108329E+03 0.  0.
        5    1    3    3  502    0  0.41394535427E+03  0.70431124360E+02 -0.57467891263E+03  0.71175082875E+03  0.46999998093E+01 0. -1.
       -5    1    3    3    0  502 -0.41394535427E+03 -0.70431124360E+02  0.25901017917E+02  0.42071873304E+03  0.46999998093E+01 0.  1.
</event>
<event>
 5   0  0.5072205E-03  0.9988564E+03  0.7818609E-02  0.9309800E-01
       -1   -1    0    0    0  501  0.00000000000E+00  0.00000000000E+00  0.93997024030E+03  0.93997024031E+03  0.50400001928E-02 0.  1.
        1   -1    0    0  501    0  0.00000000000E+00  0.00000000000E+00 -0.26535791416E+03  0.26535791421E+03  0.50400001928E-02 0. -1.
    10030    2    1    2    0    0  0.00000000000E+00  0.00000000000E+00  0.67461232614E+03  0.12053281545E+04  0.99885643087E+03 0.  0.
        5    1    3    3  502    0 -0.12096817215E+03  0.16449120228E+03  0.88727362440E+03  0.91047637468E+03  0.46999998093E+01 0.  1.
       -5    1    3    3    0  502  0.12096817215E+03 -0.16449120228E+03 -0.21266129826E+03  0.29485177984E+03  0.46999998093E+01 0. -1.
</event>
<event>
 5   0  0.9040674E-03  0.1008668E+04  0.7818609E-02  0.9299088E-01
       -2   -1    0    0    0  501  0.00000000000E+00  0.00000000000E+00  0.67301541023E+03  0.67301541024E+03  0.25500000920E-02 0.  1.
        2   -1    0    0  501    0  0.00000000000E+00  0.00000000000E+00 -0.37793045166E+03  0.37793045167E+03  0.25500000920E-02 0. -1.
    10030    2    1    2    0    0  0.00000000000E+00  0.00000000000E+00  0.29508495857E+03  0.10509458619E+04  0.10086684648E+04 0.  0.
        1    1    3    3  502    0  0.18656416488E+03  0.30191431194E+03 -0.22579814075E+03  0.42064621686E+03  0.50400001928E-02 0. -1.
       -1    1    3    3    0  502 -0.18656416488E+03 -0.30191431194E+03  0.52088309932E+03  0.63029964505E+03  0.50400001928E-02 0.  1.
</event>
<event>
 5   0  0.8875655E-03  0.9652830E+03  0.7818609E-02  0.9347463E-01
        2   -1    0    0  501    0  0.00000000000E+00  0.00000000000E+00  0.94891295118E+03  0.94891295118E+03  0.25500000920E-02 0. -1.
       -2   -1    0    0    0  501  0.00000000000E+00  0.00000000000E+00 -0.24548384941E+03  0.24548384942E+03  0.25500000920E-02 0.  1.
    10030    2    1    2    0    0  0.00000000000E+00  0.00000000000E+00  0.70342910177E+03  0.11943968006E+04  0.96528297203E+03 0.  0.
        4    1    3    3  502    0  0.14312067410E+03 -0.15139334466E+03 -0.18697904317E+03  0.27993972145E+03  0.12699999809E+01 0.  1.
       -4    1    3    3    0  502 -0.14312067410E+03  0.15139334466E+03  0.89040814493E+03  0.91445707916E+03  0.12699999809E+01 0. -1.
</event>
<event>
 5   0  0.8875655E-03  0.1013083E+04  0.7818609E-02  0.9294311E-01
       -2   -1    0    0    0  501  0.00000000000E+00  0.00000000000E+00  0.52233219049E+03  0.52233219049E+03  0.25500000920E-02 0. -1.
        2   -1    0    0  501    0  0.00000000000E+00  0.00000000000E+00 -0.49122773293E+03  0.49122773293E+03  0.25500000920E-02 0.  1.
    10030    2    1    2    0    0  0.00000000000E+00  0.00000000000E+00  0.31104457560E+02  0.10135599234E+04  0.10130825391E+04 0.  0.
        4    1    3    3  502    0  0.52494983050E+00  0.12704980300E+03 -0.47502617555E+03  0.49172493161E+03  0.12699999809E+01 0.  1.
       -4    1    3    3    0  502 -0.52494983050E+00 -0.12704980300E+03  0.50613063311E+03  0.52183499182E+03  0.12699999809E+01 0. -1.
</event>
<event>
 5   0  0.5349685E-03  0.9831008E+03  0.7818609E-02  0.9327276E-01
       -1   -1    0    0    0  501  0.00000000000E+00  0.00000000000E+00  0.34508385197E+03  0.34508385200E+03  0.50400001928E-02 0.  1.
        1   -1    0    0  501    0  0.00000000000E+00  0.00000000000E+00 -0.70018290599E+03  0.70018290601E+03  0.50400001928E-02 0. -1.
    10030    2    1    2    0    0  0.00000000000E+00  0.00000000000E+00 -0.35509905402E+03  0.10452667580E+04  0.98310083778E+03 0.  0.
        4    1    3    3  502    0  0.46220748596E+03 -0.70711187843E+02 -0.16356827748E+02  0.46787283622E+03  0.12699999809E+01 0.  1.
       -4    1    3    3    0  502 -0.46220748596E+03  0.70711187843E+02 -0.33874222627E+03  0.57739392179E+03  0.12699999809E+01 0. -1.
</event>
<event>
 5   0  0.5189877E-03  0.8636654E+03  0.7818609E-02  0.9472177E-01
        1   -1    0    0  501    0  0.00000000000E+00  0.00000000000E+00  0.71466286371E+03  0.71466286373E+03  0.50400001928E-02 0. -1.
       -1   -1    0    0    0  501  0.00000000000E+00  0.00000000000E+00 -0.26093349914E+03  0.26093349919E+03  0.50400001928E-02 0.  1.
    10030    2    1    2    0    0  0.00000000000E+00  0.00000000000E+00  0.45372936457E+03  0.97559636292E+03  0.86366540226E+03 0.  0.
        3    1    3    3  502    0  0.11599928166E+03 -0.11913857126E+03 -0.22331970013E+03  0.27842688659E+03  0.10100000352E+00 0.  1.
       -3    1    3    3    0  502 -0.11599928166E+03  0.11913857126E+03  0.67704906471E+03  0.69716947633E+03  0.10100000352E+00 0. -1.
</event>
<event>
 5   0  0.5189877E-03  0.9967429E+03  0.7818609E-02  0.9312124E-01
       -1   -1    0    0    0  501  0.00000000000E+00  0.00000000000E+00  0.19266807815E+03  0.19266807821E+03  0.50400001928E-02 0. -1.
        1   -1    0    0  501    0  0.00000000000E+00  0.00000000000E+00 -0.12891295911E+04  0.12891295911E+04  0.50400001928E-02 0.  1.
    10030    2    1    2    0    0  0.00000000000E+00  0.00000000000E+00 -0.10964615129E+04  0.14817976693E+04  0.99674293748E+03 0.  0.
        3    1    3    3  502    0 -0.24133736520E+03 -0.43172735358E+03 -0.63916984751E+03  0.80818954203E+03  0.10100000352E+00 0. -1.
       -3    1    3    3    0  502  0.24133736520E+03  0.43172735358E+03 -0.45729166542E+03  0.67360812728E+03  0.10100000352E+00 0.  1.
</event>
<event>
 5   0  0.8875655E-03  0.1009291E+04  0.7818609E-02  0.9298413E-01
        2   -1    0    0  501    0  0.00000000000E+00  0.00000000000E+00  0.10517697938E+04  0.10517697938E+04  0.25500000920E-02 0.  1.
       -2   -1    0    0    0  501  0.00000000000E+00  0.00000000000E+00 -0.24213178732E+03  0.24213178734E+03  0.25500000920E-02 0. -1.
    10030    2    1    2    0    0  0.00000000000E+00  0.00000000000E+00  0.80963800644E+03  0.12939015811E+04  0.10092906420E+04 0.  0.
        4    1    3    3  502    0 -0.23415912293E+03 -0.21518503021E+03 -0.97502648183E+02  0.33263113411E+03  0.12699999809E+01 0. -1.
       -4    1    3    3    0  502  0.23415912293E+03  0.21518503021E+03  0.90714065462E+03  0.96127044699E+03  0.12699999809E+01 0.  1.
</event>
<event>
 5   0  0.5349685E-03  0.1016521E+04  0.7818609E-02  0.9290608E-01
        1   -1    0    0  501    0  0.00000000000E+00  0.00000000000E+00  0.31590064325E+03  0.31590064329E+03  0.50400001928E-02 0.  1.
       -1   -1    0    0    0  501  0.00000000000E+00  0.00000000000E+00 -0.81775310303E+03  0.81775310305E+03  0.50400001928E-02 0. -1.
    10030    2    1    2    0    0  0.00000000000E+00  0.00000000000E+00 -0.50185245978E+03  0.11336537463E+04  0.10165209910E+04 0.  0.
        4    1    3    3  502    0  0.85055327075E+02 -0.50016252479E+03 -0.28493904386E+03  0.58188386426E+03  0.12699999809E+01 0. -1.
       -4    1    3    3    0  502 -0.85055327075E+02  0.50016252479E+03 -0.21691341592E+03  0.55176988208E+03  0.12699999809E+01 0.  1.
</event>
<event>
 5   0  0.9040674E-03  0.1003150E+04  0.7818609E-02  0.9305096E-01
        2   -1    0    0  501    0  0.00000000000E+00  0.00000000000E+00  0.14874373259E+04  0.14874373259E+04  0.25500000920E-02 0.  1.
       -2   -1    0    0    0  501  0.00000000000E+00  0.00000000000E+00 -0.16913490323E+03  0.16913490325E+03  0.25500000920E-02 0. -1.
    10030    2    1    2    0    0  0.00000000000E+00  0.00000000000E+00  0.13183024227E+04  0.16565722291E+04  0.10031501746E+04 0.  0.
        1    1    3    3  502    0  0.37258660902E+02  0.32040720924E+03  0.24869038146E+02  0.32352350244E+03  0.50400001928E-02 0. -1.
       -1    1    3    3    0  502 -0.37258660902E+02 -0.32040720924E+03  0.12934333845E+04  0.13330487267E+04  0.50400001928E-02 0.  1.
</event>
<event>
 5   0  0.5072205E-03  0.9811684E+03  0.7818609E-02  0.9329444E-01
       -1   -1    0    0    0  501  0.00000000000E+00  0.00000000000E+00  0.75606085441E+03  0.75606085443E+03  0.50400001928E-02 0.  1.
        1   -1    0    0  501    0  0.00000000000E+00  0.00000000000E+00 -0.31832469508E+03  0.31832469512E+03  0.50400001928E-02 0. -1.
    10030    2    1    2    0    0  0.00000000000E+00  0.00000000000E+00  0.43773615934E+03  0.10743855495E+04  0.98116836674E+03 0.  0.
        5    1    3    3  502    0  0.45439965366E+01  0.30711958244E+03  0.63771001761E+03  0.70784125507E+03  0.46999998093E+01 0.  1.
       -5    1    3    3    0  502 -0.45439965366E+01 -0.30711958244E+03 -0.19997385827E+03  0.36654429448E+03  0.46999998093E+01 0. -1.
</event>
<event>
 5   0  0.9243773E-03  0.1060240E+04  0.7818609E-02  0.9244835E-01
        2   -1    0    0  501    0  0.00000000000E+00  0.00000000000E+00  0.20578980008E+03  0.20578980010E+03  0.25500000920E-02 0. -1.
       -2   -1    0    0    0  501  0.00000000000E+00  0.00000000000E+00 -0.13656042516E+04  0.13656042516E+04  0.25500000920E-02 0.  1.
    10030    2    1    2    0    0  0.00000000000E+00  0.00000000000E+00 -0.11598144515E+04  0.15713940517E+04  0.10602403990E+04 0.  0.
        3    1    3    3  502    0 -0.16176962717E+03 -0.28817587324E+03  0.34432146070E+02  0.33226544972E+03  0.10100000352E+00 0. -1.
       -3    1    3    3    0  502  0.16176962717E+03  0.28817587324E+03 -0.11942465976E+04  0.12391286020E+04  0.10100000352E+00 0.  1.
</event>
<event>
 5   0  0.9040674E-03  0.9441776E+03  0.7818609E-02  0.9371982E-01
        2   -1    0    0  501    0  0.00000000000E+00  0.00000000000E+00  0.11179395906E+04  0.11179395906E+04  0.25500000920E-02 0. -1.
       -2   -1    0    0    0  501  0.00000000000E+00  0.00000000000E+00 -0.19935586584E+03  0.19935586586E+03  0.25500000920E-02 0.  1.
    10030    2    1    2    0    0  0.00000000000E+00  0.00000000000E+00  0.91858372478E+03  0.13172954565E+04  0.94417755758E+03 0.  0.
        1    1    3    3  502    0  0.62931952155E+02  0.17618377811E+02  0.11115981979E+04  0.11135175757E+04  0.50400001928E-02 0. -1.
       -1    1    3    3    0  502 -0.62931952155E+02 -0.17618377811E+02 -0.19301447311E+03  0.20377788077E+03  0.50400001928E-02 0.  1.
</event>
<event>
 5   0  0.5072205E-03  0.1006409E+04  0.7818609E-02  0.9301544E-01
       -1   -1    0    0    0  501  0.00000000000E+00  0.00000000000E+00  0.26900288797E+03  0.26900288802E+03  0.50400001928E-02 0. -1.
        1   -1    0    0  501    0  0.00000000000E+00  0.00000000000E+00 -0.94130812606E+03  0.94130812607E+03  0.50400001928E-02 0.  1.
    10030    2    1    2    0    0  0.00000000000E+00  0.00000000000E+00 -0.67230523809E+03  0.12103110141E+04  0.10064086733E+04 0.  0.
        5    1    3    3  502    0 -0.33884111153E+03 -0.82404345332E+02 -0.77239914137E+03  0.84748232936E+03  0.46999998093E+01 0.  1.
       -5    1    3    3    0  502  0.33884111153E+03  0.82404345332E+02  0.10009390328E+03  0.36282868473E+03  0.46999998093E+01 0. -1.
</event>
<event>
 5   0  0.5201968E-03  0.1048567E+04  0.7818609E-02  0.9256825E-01
        1   -1    0    0  501    0  0.00000000000E+00  0.00000000000E+00  0.21712768277E+03  0.21712768283E+03  0.50400001928E-02 0.  1.
       -1   -1    0    0    0  501  0.00000000000E+00  0.00000000000E+00 -0.12659516063E+04  0.12659516063E+04  0.50400001928E-02 0. -1.
    10030    2    1    2    0    0  0.00000000000E+00  0.00000000000E+00 -0.10488239236E+04  0.14830792892E+04  0.10485669055E+04 0.  0.
        2    1    3    3  502    0 -0.13012074625E+03 -0.15151211885E+03  0.16121682021E+03  0.25666747727E+03  0.25500000920E-02 0.  1.
       -2    1    3    3    0  502  0.13012074625E+03  0.15151211885E+03 -0.12100407438E+04  0.12264118119E+04  0.25500000920E-02 0. -1.
</event>
<event>
 5   0  0.8968798E-03  0.9364934E+03  0.7818609E-02  0.9381079E-01
        2   -1    0    0  501    0  0.00000000000E+00  0.00000000000E+00  0.14076966939E+04  0.14076966939E+04  0.25500000920E-02 0.  1.
       -2   -1    0    0    0  501  0.00000000000E+00  0.00000000000E+00 -0.15575440763E+03  0.15575440765E+03  0.25500000920E-02 0. -1.
    10030    2    1    2    0    0  0.00000000000E+00  0.00000000000E+00  0.12519422862E+04  0.15634511015E+04  0.93649338426E+03 0.  0.
        2    1    3    3  502    0 -0.11380234961E+03  0.17554105734E+03 -0.73395546727E+02  0.22170372996E+03  0.25500000920E-02 0. -1.
       -2    1    3    3    0  502  0.11380234961E+03 -0.17554105734E+03  0.13253378330E+04  0.13417473716E+04  0.25500000920E-02 0.  1.
</event>
<event>
 5   0  0.8968798E-03  0.1028661E+04  0.7818609E-02  0.9277657E-01
       -2   -1    0    0    0  501  0.00000000000E+00  0.00000000000E+00  0.53089478120E+03  0.53089478121E+03  0.25500000920E-02 0. -1.
        2   -1    0    0  501    0  0.00000000000E+00  0.00000000000E+00 -0.49828280371E+03  0.49828280371E+03  0.25500000920E-02 0.  1.
    10030    2    1    2    0    0  0.00000000000E+00  0.00000000000E+00  0.32611977498E+02  0.10291775849E+04  0.10286607605E+04 0.  0.
        2    1    3    3  502    0  0.48863975308E+03  0.14159331155E+03 -0.59351220584E+02  0.51219141105E+03  0.25500000920E-02 0. -1.
       -2    1    3    3    0  502 -0.48863975308E+03 -0.14159331155E+03  0.91963198082E+02  0.51698617387E+03  0.25500000920E-02 0.  1.
</event>
<event>
 5   0  0.5189877E-03  0.1032243E+04  0.7818609E-02  0.9273871E-01
       -1   -1    0    0    0  501  0.00000000000E+00  0.00000000000E+00  0.79268809323E+03  0.79268809324E+03  0.50400001928E-02 0. -1.
        1   -1    0    0  501    0  0.00000000000E+00  0.00000000000E+00 -0.33604841672E+03  0.33604841675E+03  0.50400001928E-02 0.  1.
    10030    2    1    2    0    0  0.00000000000E+00  0.00000000000E+00  0.45663967651E+03  0.11287365100E+04  0.10322433409E+04 0.  0.
        3    1    3    3  502    0 -0.28835503959E+03 -0.23816141076E+03 -0.16061467624E+03  0.40702158524E+03  0.10100000352E+00 0.  1.
       -3    1    3    3    0  502  0.28835503959E+03  0.23816141076E+03  0.61725435275E+03  0.72171492475E+03  0.10100000352E+00 0. -1.
</event>
<event>
 5   0  0.5201968E-03  0.1039070E+04  0.7818609E-02  0.9266702E-01
        1   -1    0    0  501    0  0.00000000000E+00  0.00000000000E+00  0.11227967319E+04  0.11227967319E+04  0.50400001928E-02 0.  1.
       -1   -1    0    0    0  501  0.00000000000E+00  0.00000000000E+00 -0.24039669870E+03  0.24039669876E+03  0.50400001928E-02 0. -1.
    10030    2    1    2    0    0  0.00000000000E+00  0.00000000000E+00  0.88240003316E+03  0.13631934306E+04  0.10390700221E+04 0.  0.
        2    1    3    3  502    0 -0.27653565389E+02 -0.35690264245E+03 -0.52779036213E+02  0.36184228959E+03  0.25500000920E-02 0. -1.
       -2    1    3    3    0  502  0.27653565389E+02  0.35690264245E+03  0.93517906937E+03  0.10013511410E+04  0.25500000920E-02 0.  1.
</event>
<event>
 5   0  0.9040674E-03  0.9884052E+03  0.7818609E-02  0.9321354E-01
        2   -1    0    0  501    0  0.00000000000E+00  0.00000000000E+00  0.15102858056E+04  0.15102858056E+04  0.25500000920E-02 0. -1.
       -2   -1    0    0    0  501  0.00000000000E+00  0.00000000000E+00 -0.16171521185E+03  0.16171521187E+03  0.25500000920E-02 0.  1.
    10030    2    1    2    0    0  0.00000000000E+00  0.00000000000E+00  0.13485705937E+04  0.16720010174E+04  0.98840515785E+03 0.  0.
        1    1    3    3  502    0 -0.30048990086E+03  0.36991476611E+03  0.45304511000E+03  0.65755683133E+03  0.50400001928E-02 0.  1.
       -1    1    3    3    0  502  0.30048990086E+03 -0.36991476611E+03  0.89552548371E+03  0.10144441861E+04  0.50400001928E-02 0. -1.
</event>
<event>
 5   0  0.5349685E-03  0.9966445E+03  0.7818609E-02  0.9312233E-01
        1   -1    0    0  501    0  0.00000000000E+00  0.00000000000E+00  0.52493353952E+03  0.52493353955E+03  0.50400001928E-02 0. -1.
       -1   -1    0    0    0  501  0.00000000000E+00  0.00000000000E+00 -0.47305997956E+03  0.47305997959E+03  0.50400001928E-02 0.  1.
    10030    2    1    2    0    0  0.00000000000E+00  0.00000000000E+00  0.51873559965E+02  0.99799351914E+03  0.99664446921E+03 0.  0.
        4    1    3    3  502    0 -0.38767814028E+03 -0.17894842788E+03  0.28320195278E+03  0.51236885078E+03  0.12699999809E+01 0. -1.
       -4    1    3    3    0  502  0.38767814028E+03  0.17894842788E+03 -0.23132839282E+03  0.48562466835E+03  0.12699999809E+01 0.  1.
</event>
<event>
 5   0  0.9040674E-03  0.1050166E+04  0.7818609E-02  0.9255172E-01
       -2   -1    0    0    0  501  0.00000000000E+00  0.00000000000E+00  0.19210619006E+03  0.19210619008E+03  0.25500000920E-02 0. -1.
        2   -1    0    0  501    0  0.00000000000E+00  0.00000000000E+00 -0.14352079002E+04  0.14352079002E+04  0.25500000920E-02 0.  1.
    10030    2    1    2    0    0  0.00000000000E+00  0.00000000000E+00 -0.12431017101E+04  0.16273140903E+04  0.10501663138E+04 0.  0.
        1    1    3    3  502    0  0.44042565441E+03  0.27080790491E+03 -0.47952429390E+03  0.70516326257E+03  0.50400001928E-02 0. -1.
       -1    1    3    3    0  502 -0.44042565441E+03 -0.27080790491E+03 -0.76357741621E+03  0.92215082768E+03  0.50400001928E-02 0.  1.
</event>
<event>
 5   0  0.5310275E-03  0.9965070E+03  0.7818609E-02  0.9312384E-01
       -1   -1    0    0    0  501  0.00000000000E+00  0.00000000000E+00  0.21055909604E+03  0.21055909610E+03  0.50400001928E-02 0.  1.
        1   -1    0    0  501    0  0.00000000000E+00  0.00000000000E+00 -0.11790350883E+04  0.11790350883E+04  0.50400001928E-02 0. -1.
    10030    2    1    2    0    0  0.00000000000E+00  0.00000000000E+00 -0.96847599222E+03  0.13895941844E+04  0.99650702444E+03 0.  0.
        1    1    3    3  502    0  0.18109343040E+03 -0.10311094072E+03 -0.11153468365E+04  0.11346476379E+04  0.50400001928E-02 0. -1.
       -1    1    3    3    0  502 -0.18109343040E+03  0.10311094072E+03  0.14687084425E+03  0.25494654644E+03  0.50400001928E-02 0.  1.
</event>
<event>
 5   0  0.8875655E-03  0.9866047E+03  0.7818609E-02  0.9323360E-01
       -2   -1    0    0    0  501  0.00000000000E+00  0.00000000000E+00  0.32071206413E+03  0.32071206414E+03  0.25500000920E-02 0.  1.
        2   -1    0    0  501    0  0.00000000000E+00  0.00000000000E+00 -0.75877155910E+03  0.75877155911E+03  0.25500000920E-02 0. -1.
    10030    2    1    2    0    0  0.00000000000E+00  0.00000000000E+00 -0.43805949498E+03  0.10794836232E+04  0.98660466840E+03 0.  0.
        4    1    3    3  502    0  0.46663056999E+03  0.21818576183E+02 -0.39246194933E+03  0.61012140898E+03  0.12699999809E+01 0. -1.
       -4    1    3    3    0  502 -0.46663056999E+03 -0.21818576183E+02 -0.45597545642E+02  0.46936221427E+03  0.12699999809E+01 0.  1.
</event>
<event>
 5   0  0.5072205E-03  0.9735093E+03  0.7818609E-02  0.9338086E-01
       -1   -1    0    0    0  501  0.00000000000E+00  0.00000000000E+00  0.54319915442E+03  0.54319915444E+03  0.50400001928E-02 0. -1.
        1   -1    0    0  501    0  0.00000000000E+00  0.00000000000E+00 -0.43617540031E+03  0.43617540034E+03  0.50400001928E-02 0.  1.
    10030    2    1    2    0    0  0.00000000000E+00  0.00000000000E+00  0.10702375411E+03  0.97937455478E+03  0.97350933976E+03 0.  0.
        5    1    3    3  502    0 -0.44361927330E+03 -0.10597352594E+03 -0.11745188319E+03  0.47100475868E+03  0.46999998093E+01 0.  1.
       -5    1    3    3    0  502  0.44361927330E+03  0.10597352594E+03  0.22447563730E+03  0.50836979609E+03  0.46999998093E+01 0. -1.
</event>
<event>
 5   0  0.9243773E-03  0.9628903E+03  0.7818609E-02  0.9350209E-01
       -2   -1    0    0    0  501  0.00000000000E+00  0.00000000000E+00  0.78678103061E+03  0.78678103062E+03  0.25500000920E-02 0. -1.
        2   -1    0    0  501    0  0.00000000000E+00  0.00000000000E+00 -0.29460475216E+03  0.29460475217E+03  0.25500000920E-02 0.  1.
    10030    2    1    2    0    0  0.00000000000E+00  0.00000000000E+00  0.49217627846E+03  0.10813857828E+04  0.96289029600E+03 0.  0.
        3    1    3    3  502    0  0.35306916131E+03  0.32693811304E+03  0.26359703357E+03  0.54866179813E+03  0.10100000352E+00 0. -1.
       -3    1    3    3    0  502 -0.35306916131E+03 -0.32693811304E+03  0.22857924489E+03  0.53272398465E+03  0.10100000352E+00 0.  1.
</event>
<event>
 5   0  0.8968798E-03  0.9819017E+03  0.7818609E-02  0.9328621E-01
       -2   -1    0    0    0  501  0.00000000000E+00  0.00000000000E+00  0.65226837752E+03  0.65226837753E+03  0.25500000920E-02 0. -1.
        2   -1    0    0  501    0  0.00000000000E+00  0.00000000000E+00 -0.36952997793E+03  0.36952997794E+03  0.25500000920E-02 0.  1.
    10030    2    1    2    0    0  0.00000000000E+00  0.00000000000E+00  0.28273839959E+03  0.10217983555E+04  0.98190166342E+03 0.  0.
        2    1    3    3  502    0 -0.30544536033E+02  0.12799091090E+03  0.63357615086E+03  0.64709611411E+03  0.25500000920E-02 0. -1.
       -2    1    3    3    0  502  0.30544536033E+02 -0.12799091090E+03 -0.35083775127E+03  0.37470224135E+03  0.25500000920E-02 0.  1.
</event>
<event>
 5   0  0.9040674E-03  0.9851425E+03  0.7818609E-02  0.9324992E-01
        2   -1    0    0  501    0  0.00000000000E+00  0.00000000000E+00  0.12134699881E+04  0.12134699881E+04  0.25500000920E-02 0.  1.
       -2   -1    0    0    0  501  0.00000000000E+00  0.00000000000E+00 -0.19994431436E+03  0.19994431437E+03  0.25500000920E-02 0. -1.
    10030    2    1    2    0    0  0.00000000000E+00  0.00000000000E+00  0.10135256737E+04  0.14134143024E+04  0.98514247654E+03 0.  0.
        1    1    3    3  502    0 -0.11193514094E+03 -0.24417175855E+03  0.10991470317E+04  0.11314917237E+04  0.50400001928E-02 0.  1.
       -1    1    3    3    0  502  0.11193514094E+03  0.24417175855E+03 -0.85621357979E+02  0.28192257877E+03  0.50400001928E-02 0. -1.
</event>
<event>
 5   0  0.5201968E-03  0.1013276E+04  0.7818609E-02  0.9294102E-01
       -1   -1    0    0    0  501  0.00000000000E+00  0.00000000000E+00  0.32749930280E+03  0.32749930284E+03  0.50400001928E-02 0.  1.
        1   -1    0    0  501    0  0.00000000000E+00  0.00000000000E+00 -0.78376440972E+03  0.78376440973E+03  0.50400001928E-02 0. -1.
    10030    2    1    2    0    0  0.00000000000E+00  0.00000000000E+00 -0.45626510691E+03  0.11112637126E+04  0.10132764633E+04 0.  0.
        2    1    3    3  502    0 -0.41942913250E+03  0.30337127563E+02 -0.53801900949E+03  0.68286572111E+03  0.25500000920E-02 0. -1.
       -2    1    3    3    0  502  0.41942913250E+03 -0.30337127563E+02  0.81753902577E+02  0.42839799146E+03  0.25500000920E-02 0.  1.
</event>
<event>
 5   0  0.8968798E-03  0.1117034E+04  0.7818609E-02  0.9188746E-01
        2   -1    0    0  501    0  0.00000000000E+00  0.00000000000E+00  0.79939612956E+03  0.79939612956E+03  0.25500000920E-02 0. -1.
       -2   -1    0    0    0  501  0.00000000000E+00  0.00000000000E+00 -0.39022125796E+03  0.39022125797E+03  0.25500000920E-02 0.  1.
    10030    2    1    2    0    0  0.00000000000E+00  0.00000000000E+00  0.40917487160E+03  0.11896173875E+04  0.11170342220E+04 0.  0.
        2    1    3    3  502    0  0.28209819573E+03 -0.62568683375E+02 -0.30443119555E+03  0.41972918055E+03  0.25500000920E-02 0.  1.
       -2    1    3    3    0  502 -0.28209819573E+03  0.62568683375E+02  0.71360606715E+03  0.76988820698E+03  0.25500000920E-02 0. -1.
</event>
<event>
 5   0  0.5189877E-03  0.1004774E+04  0.7818609E-02  0.9303324E-01
        1   -1    0    0  501    0  0.00000000000E+00  0.00000000000E+00  0.30872357745E+03  0.30872357749E+03  0.50400001928E-02 0. -1.
       -1   -1    0    0    0  501  0.00000000000E+00  0.00000000000E+00 -0.81753601233E+03  0.81753601235E+03  0.50400001928E-02 0.  1.
    10030    2    1    2    0    0  0.00000000000E+00  0.00000000000E+00 -0.50881243489E+03  0.11262595898E+04  0.10047738899E+04 0.  0.
        3    1    3    3  502    0  0.19859213652E+03 -0.38817863231E+03  0.25307384994E+02  0.43676304927E+03  0.10100000352E+00 0. -1.
       -3    1    3    3    0  502 -0.19859213652E+03  0.38817863231E+03 -0.53411981988E+03  0.68949654057E+03  0.10100000352E+00 0.  1.
</event>
<event>
 5   0  0.5349685E-03  0.1002194E+04  0.7818609E-02  0.9306142E-01
       -1   -1    0    0    0  501  0.00000000000E+00  0.00000000000E+00  0.22757439405E+03  0.22757439410E+03  0.50400001928E-02 0.  1.
        1   -1    0    0  501    0  0.00000000000E+00  0.00000000000E+00 -0.11033673910E+04  0.11033673911E+04  0.50400001928E-02 0. -1.
    10030    2    1    2    0    0  0.00000000000E+00  0.00000000000E+00 -0.87579299700E+03  0.13309417852E+04  0.10021939243E+04 0.  0.
        4    1    3    3  502    0 -0.49702835177E+03  0.29518266952E+02 -0.51288062096E+03  0.71481232139E+03  0.12699999809E+01 0.  1.
       -4    1    3    3    0  502  0.49702835177E+03 -0.29518266952E+02 -0.36291237604E+03  0.61612946377E+03  0.12699999809E+01 0. -1.
</event>
<event>
 5   0  0.5201968E-03  0.1073638E+04  0.7818609E-02  0.9231274E-01
        1   -1    0    0  501    0  0.00000000000E+00  0.00000000000E+00  0.75807808853E+03  0.75807808855E+03  0.50400001928E-02 0.  1.
       -1   -1    0    0    0  501  0.00000000000E+00  0.00000000000E+00 -0.38013813600E+03  0.38013813603E+03  0.50400001928E-02 0. -1.
    10030    2    1    2    0    0  0.00000000000E+00  0.00000000000E+00  0.37793995253E+03  0.11382162246E+04  0.10736375395E+04 0.  0.
        2    1    3    3  502    0 -0.31881284786E+03 -0.27341988506E+03  0.54340621057E+03  0.68679718636E+03  0.25500000920E-02 0.  1.
       -2    1    3    3    0  502  0.31881284786E+03  0.27341988506E+03 -0.16546625803E+03  0.45141903821E+03  0.25500000920E-02 0. -1.
</event>
<event>
 5   0  0.5072205E-03  0.9963976E+03  0.7818609E-02  0.9312505E-01
        1   -1    0    0  501    0  0.00000000000E+00  0.00000000000E+00  0.11079346357E+04  0.11079346357E+04  0.50400001928E-02 0. -1.
       -1   -1    0    0    0  501  0.00000000000E+00  0.00000000000E+00 -0.22402228706E+03  0.22402228711E+03  0.50400001928E-02 0.  1.
    10030    2    1    2    0    0  0.00000000000E+00  0.00000000000E+00  0.88391234864E+03  0.13319569228E+04  0.99639761349E+03 0.  0.
        5    1    3    3  502    0  0.84905023343E+02  0.81255802178E+02 -0.20519718045E+03  0.23651499157E+03  0.46999998093E+01 0.  1.
       -5    1    3    3    0  502 -0.84905023343E+02 -0.81255802178E+02  0.10891095291E+04  0.10954419312E+04  0.46999998093E+01 0. -1.
</event>
<event>
 5   0  0.9040674E-03  0.9961182E+03  0.7818609E-02  0.9312813E-01
        2   -1    0    0  501    0  0.00000000000E+00  0.00000000000E+00  0.44342686385E+03  0.44342686386E+03  0.25500000920E-02 0. -1.
       -2   -1    0    0    0  501  0.00000000000E+00  0.00000000000E+00 -0.55942232304E+03  0.55942232305E+03  0.25500000920E-02 0.  1.
    10030    2    1    2    0    0  0.00000000000E+00  0.00000000000E+00 -0.11599545919E+03  0.10028491869E+04  0.99611823853E+03 0.  0.
        1    1    3    3  502    0  0.77396230278E+02  0.49141403590E+03 -0.82347003027E+02  0.50424097421E+03  0.50400001928E-02 0.  1.
       -1    1    3    3    0  502 -0.77396230278E+02 -0.49141403590E+03 -0.33648456159E+02  0.49860821270E+03  0.50400001928E-02 0. -1.
</event>
<event>
 5   0  0.8875655E-03  0.1008284E+04  0.7818609E-02  0.9299505E-01
        2   -1    0    0  501    0  0.00000000000E+00  0.00000000000E+00  0.41716785883E+03  0.41716785884E+03  0.25500000920E-02 0.  1.
       -2   -1    0    0    0  501  0.00000000000E+00  0.00000000000E+00 -0.60924922491E+03  0.60924922492E+03  0.25500000920E-02 0. -1.
    10030    2    1    2    0    0  0.00000000000E+00  0.00000000000E+00 -0.19208136608E+03  0.10264170838E+04  0.10082840764E+04 0.  0.
        4    1    3    3  502    0  0.38087687488E+03  0.31616549653E+03 -0.19330886628E+03  0.53141108917E+03  0.12699999809E+01 0. -1.
       -4    1    3    3    0  502 -0.38087687488E+03 -0.31616549653E+03  0.12275001990E+01  0.49500599458E+03  0.12699999809E+01 0.  1.
</event>
<event>
 5   0  0.9243773E-03  0.1005655E+04  0.7818609E-02  0.9302364E-01
       -2   -1    0    0    0  501  0.00000000000E+00  0.00000000000E+00  0.21009258566E+03  0.21009258568E+03  0.25500000920E-02 0. -1.
        2   -1    0    0  501    0  0.00000000000E+00  0.00000000000E+00 -0.12034480502E+04  0.12034480502E+04  0.25500000920E-02 0.  1.
    10030    2    1    2    0    0  0.00000000000E+00  0.00000000000E+00 -0.99335546452E+03  0.14135406359E+04  0.10056550355E+04 0.  0.
        3    1    3    3  502    0 -0.28958965516E+03  0.40929135642E+03 -0.55027337167E+03  0.74443426613E+03  0.10100000352E+00 0. -1.
       -3    1    3    3    0  502  0.28958965516E+03 -0.40929135642E+03 -0.44308209285E+03  0.66910636974E+03  0.10100000352E+00 0.  1.
</event>
<event>
 5   0  0.5201968E-03  0.1013809E+04  0.7818609E-02  0.9293528E-01
        1   -1    0    0  501    0  0.00000000000E+00  0.00000000000E+00  0.29912679273E+03  0.29912679277E+03  0.50400001928E-02 0.  1.
       -1   -1    0    0    0  501  0.00000000000E+00  0.00000000000E+00 -0.85900756827E+03  0.85900756828E+03  0.50400001928E-02 0. -1.
    10030    2    1    2    0    0  0.00000000000E+00  0.00000000000E+00 -0.55988077554E+03  0.11581343611E+04  0.10138090133E+04 0.  0.
        2    1    3    3  502    0 -0.13162894376E+03 -0.39700199524E+03  0.47212339057E+02  0.42091064138E+03  0.25500000920E-02 0.  1.
       -2    1    3    3    0  502  0.13162894376E+03  0.39700199524E+03 -0.60709311459E+03  0.73722371968E+03  0.25500000920E-02 0. -1.
</event>
<event>
 5   0  0.3513625E-03  0.9756822E+03  0.7818609E-02  0.9335626E-01
       -4   -1    0    0    0  501  0.00000000000E+00  0.00000000000E+00  0.34451912059E+03  0.34452146138E+03  0.12699999809E+01 0.  1.
        4   -1    0    0  501    0  0.00000000000E+00  0.00000000000E+00 -0.69078058558E+03  0.69078175303E+03  0.12699999809E+01 0. -1.
    10030    2    1    2    0    0  0.00000000000E+00  0.00000000000E+00 -0.34626146500E+03  0.10353032144E+04  0.97568219396E+03 0.  0.
        1    1    3    3  502    0 -0.27626282817E+03 -0.14636191930E+02  0.25323570034E+03  0.37505158085E+03  0.50400001928E-02 0.  1.
       -1    1    3    3    0  502  0.27626282817E+03  0.14636191930E+02 -0.59949716534E+03  0.66025163356E+03  0.50400001928E-02 0. -1.
</event>
<event>
 5   0  0.5072205E-03  0.1030060E+04  0.7818609E-02  0.9276176E-01
       -1   -1    0    0    0  501  0.00000000000E+00  0.00000000000E+00  0.25155587066E+03  0.25155587071E+03  0.50400001928E-02 0. -1.
        1   -1    0    0  501    0  0.00000000000E+00  0.00000000000E+00 -0.10544611656E+04  0.10544611656E+04  0.50400001928E-02 0.  1.
    10030    2    1    2    0    0  0.00000000000E+00  0.00000000000E+00 -0.80290529497E+03  0.13060170364E+04  0.10300599917E+04 0.  0.
        5    1    3    3  502    0  0.31758842901E+03 -0.27293219103E+03 -0.21336391743E+02  0.41932293373E+03  0.46999998093E+01 0. -1.
       -5    1    3    3    0  502 -0.31758842901E+03  0.27293219103E+03 -0.78156890323E+03  0.88669410263E+03  0.46999998093E+01 0.  1.
</event>
<event>
 5   0  0.5072205E-03  0.9814988E+03  0.7818609E-02  0.9329073E-01
       -1   -1    0    0    0  501  0.00000000000E+00  0.00000000000E+00  0.44036180053E+03  0.44036180056E+03  0.50400001928E-02 0.  1.
        1   -1    0    0  501    0  0.00000000000E+00  0.00000000000E+00 -0.54690250251E+03  0.54690250254E+03  0.50400001928E-02 0. -1.
    10030    2    1    2    0    0  0.00000000000E+00  0.00000000000E+00 -0.10654070198E+03  0.98726430310E+03  0.98149879419E+03 0.  0.
        5    1    3    3  502    0 -0.83448237437E+02  0.59384102710E+02 -0.53600906643E+03  0.54572693656E+03  0.46999998093E+01 0. -1.
       -5    1    3    3    0  502  0.83448237437E+02 -0.59384102710E+02  0.42946836445E+03  0.44153736654E+03  0.46999998093E+01 0.  1.
</event>
<event>
 5   0  0.5349685E-03  0.1004577E+04  0.7818609E-02  0.9303539E-01
       -1   -1    0    0    0  501  0.00000000000E+00  0.00000000000E+00  0.67749832423E+03  0.67749832425E+03  0.50400001928E-02 0. -1.
        1   -1    0    0  501    0  0.00000000000E+00  0.00000000000E+00 -0.37239051238E+03  0.37239051241E+03  0.50400001928E-02 0.  1.
    10030    2    1    2    0    0  0.00000000000E+00  0.00000000000E+00  0.30510781185E+03  0.10498888367E+04  0.10045774199E+04 0.  0.
        4    1    3    3  502    0  0.23925759578E+03 -0.13894385844E+03  0.59067948082E+03  0.65226793183E+03  0.12699999809E+01 0. -1.
       -4    1    3    3    0  502 -0.23925759578E+03  0.13894385844E+03 -0.28557166897E+03  0.39762090483E+03  0.12699999809E+01 0.  1.
</event>
<event>
 5   0  0.5310275E-03  0.9368973E+03  0.7818609E-02  0.9380598E-01
       -1   -1    0    0    0  501  0.00000000000E+00  0.00000000000E+00  0.24997700584E+03  0.24997700589E+03  0.50400001928E-02 0.  1.
        1   -1    0    0  501    0  0.00000000000E+00  0.00000000000E+00 -0.87785729806E+03  0.87785729808E+03  0.50400001928E-02 0. -1.
    10030    2    1    2    0    0  0.00000000000E+00  0.00000000000E+00 -0.62788029223E+03  0.11278343040E+04  0.93689730272E+03 0.  0.
        1    1    3    3  502    0 -0.30211603005E+01  0.40470003006E+03 -0.29953969863E+02  0.40581828701E+03  0.50400001928E-02 0.  1.
       -1    1    3    3    0  502  0.30211603005E+01 -0.40470003006E+03 -0.59792632236E+03  0.72201601695E+03  0.50400001928E-02 0. -1.
</event>
<event>
 5   0  0.8875655E-03  0.1007984E+04  0.7818609E-02  0.9299831E-01
        2   -1    0    0  501    0  0.00000000000E+00  0.00000000000E+00  0.83348490245E+03  0.83348490245E+03  0.25500000920E-02 0. -1.
       -2   -1    0    0    0  501  0.00000000000E+00  0.00000000000E+00 -0.30475436357E+03  0.30475436358E+03  0.25500000920E-02 0.  1.
    10030    2    1    2    0    0  0.00000000000E+00  0.00000000000E+00  0.52873053888E+03  0.11382392660E+04  0.10079844463E+04 0.  0.
        4    1    3    3  502    0 -0.18258351142E+03 -0.45851682672E+03  0.14902891806E+03  0.51554403337E+03  0.12699999809E+01 0.  1.
       -4    1    3    3    0  502  0.18258351142E+03  0.45851682672E+03  0.37970162082E+03  0.62269523266E+03  0.12699999809E+01 0. -1.
</event>
<event>
 5   0  0.8907355E-03  0.8939983E+03  0.7818609E-02  0.9433115E-01
       -2   -1    0    0    0  501  0.00000000000E+00  0.00000000000E+00  0.22747840764E+03  0.22747840765E+03  0.25500000920E-02 0.  1.
        2   -1    0    0  501    0  0.00000000000E+00  0.00000000000E+00 -0.87836125296E+03  0.87836125296E+03  0.25500000920E-02 0. -1.
    10030    2    1    2    0    0  0.00000000000E+00  0.00000000000E+00 -0.65088284532E+03  0.11058396606E+04  0.89399825316E+03 0.  0.
        5    1    3    3  502    0 -0.38487138102E+03  0.61328779415E+02 -0.54722634234E+02  0.39357827152E+03  0.46999998093E+01 0.  1.
       -5    1    3    3    0  502  0.38487138102E+03 -0.61328779415E+02 -0.59616021109E+03  0.71226138909E+03  0.46999998093E+01 0. -1.
</event>
<event>
 5   0  0.5072205E-03  0.9788349E+03  0.7818609E-02  0.9332068E-01
        1   -1    0    0  501    0  0.00000000000E+00  0.00000000000E+00  0.74579817459E+03  0.74579817461E+03  0.50400001928E-02 0.  1.
       -1   -1    0    0    0  501  0.00000000000E+00  0.00000000000E+00 -0.32117195907E+03  0.32117195911E+03  0.50400001928E-02 0. -1.
    10030    2    1    2    0    0  0.00000000000E+00  0.00000000000E+00  0.42462621553E+03  0.10669701337E+04  0.97883494182E+03 0.  0.
        5    1    3    3  502    0  0.10994253811E+03 -0.23712488278E+03  0.66332114038E+03  0.71297447149E+03  0.46999998093E+01 0.  1.
       -5    1    3    3    0  502 -0.10994253811E+03  0.23712488278E+03 -0.23869492486E+03  0.35399566222E+03  0.46999998093E+01 0. -1.
</event>
<event>
 5   0  0.9040674E-03  0.1009895E+04  0.7818609E-02  0.9297758E-01
        2   -1    0    0  501    0  0.00000000000E+00  0.00000000000E+00  0.31575717217E+03  0.31575717218E+03  0.25500000920E-02 0. -1.
       -2   -1    0    0    0  501  0.00000000000E+00  0.00000000000E+00 -0.80749387788E+03  0.80749387788E+03  0.25500000920E-02 0.  1.
    10030    2    1    2    0    0  0.00000000000E+00  0.00000000000E+00 -0.49173670571E+03  0.11232510501E+04  0.10098950112E+04 0.  0.
        1    1    3    3  502    0  0.28024298010E+03  0.26127702942E+03 -0.61167733191E+03  0.72176933462E+03  0.50400001928E-02 0.  1.
       -1    1    3    3    0  502 -0.28024298010E+03 -0.26127702942E+03  0.11994062620E+03  0.40148171544E+03  0.50400001928E-02 0. -1.
</event>
<event>
 5   0  0.8968798E-03  0.1000544E+04  0.7818609E-02  0.9307949E-01
        2   -1    0    0  501    0  0.00000000000E+00  0.00000000000E+00  0.15144314429E+04  0.15144314429E+04  0.25500000920E-02 0.  1.
       -2   -1    0    0    0  501  0.00000000000E+00  0.00000000000E+00 -0.16525797571E+03  0.16525797573E+03  0.25500000920E-02 0. -1.
    10030    2    1    2    0    0  0.00000000000E+00  0.00000000000E+00  0.13491734672E+04  0.16796894186E+04  0.10005436015E+04 0.  0.
        2    1    3    3  502    0  0.14115435792E+03 -0.41653474410E+03  0.27432560573E+03  0.51834378916E+03  0.25500000920E-02 0. -1.
       -2    1    3    3    0  502 -0.14115435792E+03  0.41653474410E+03  0.10748478615E+04  0.11613456295E+04  0.25500000920E-02 0.  1.
</event>
<event>
 5   0  0.8968798E-03  0.1015658E+04  0.7818609E-02  0.9291536E-01
        2   -1    0    0  501    0  0.00000000000E+00  0.00000000000E+00  0.16354950345E+03  0.16354950347E+03  0.25500000920E-02 0.  1.
       -2   -1    0    0    0  501  0.00000000000E+00  0.00000000000E+00 -0.15768330897E+04  0.15768330897E+04  0.25500000920E-02 0. -1.
    10030    2    1    2    0    0  0.00000000000E+00  0.00000000000E+00 -0.14132835862E+04  0.17403825932E+04  0.10156579520E+04 0.  0.
        2    1    3    3  502    0  0.29086556507E+02 -0.41781965948E+03 -0.11987355074E+04  0.12697976659E+04  0.25500000920E-02 0. -1.
       -2    1    3    3    0  502 -0.29086556507E+02  0.41781965948E+03 -0.21454807880E+03  0.47058492723E+03  0.25500000920E-02 0.  1.
</event>
<event>
 5   0  0.5349685E-03  0.9910634E+03  0.7818609E-02  0.9318401E-01
        1   -1    0    0  501    0  0.00000000000E+00  0.00000000000E+00  0.74266219589E+03  0.74266219591E+03  0.50400001928E-02 0. -1.
       -1   -1    0    0    0  501  0.00000000000E+00  0.00000000000E+00 -0.33063707192E+03  0.33063707196E+03  0.50400001928E-02 0.  1.
    10030    2    1    2    0    0  0.00000000000E+00  0.00000000000E+00  0.41202512397E+03  0.10732992679E+04  0.99106337619E+03 0.  0.
        4    1    3    3  502    0 -0.45573679452E+02  0.32424294083E+03  0.60881552565E+03  0.69128026307E+03  0.12699999809E+01 0. -1.
       -4    1    3    3    0  502  0.45573679452E+02 -0.32424294083E+03 -0.19679040168E+03  0.38201900480E+03  0.12699999809E+01 0.  1.
</event>
<event>
 5   0  0.5310275E-03  0.1011269E+04  0.7818609E-02  0.9296271E-01
       -1   -1    0    0    0  501  0.00000000000E+00  0.00000000000E+00  0.14246088153E+03  0.14246088161E+03  0.50400001928E-02 0. -1.
        1   -1    0    0  501    0  0.00000000000E+00  0.00000000000E+00 -0.17946402985E+04  0.17946402985E+04  0.50400001928E-02 0.  1.
    10030    2    1    2    0    0  0.00000000000E+00  0.00000000000E+00 -0.16521794170E+04  0.19371011801E+04  0.10112685875E+04 0.  0.
        1    1    3    3  502    0 -0.29845322759E+03  0.32266064513E+03 -0.34728036419E+03  0.56016771806E+03  0.50400001928E-02 0. -1.
       -1    1    3    3    0  502  0.29845322759E+03 -0.32266064513E+03 -0.13048990528E+04  0.13769334621E+04  0.50400001928E-02 0.  1.
</event>
<event>
 5   0  0.8907355E-03  0.1007047E+04  0.7818609E-02  0.9300850E-01
       -2   -1    0    0    0  501  0.00000000000E+00  0.00000000000E+00  0.19827912367E+03  0.19827912368E+03  0.25500000920E-02 0. -1.
        2   -1    0    0  501    0  0.00000000000E+00  0.00000000000E+00 -0.12786813701E+04  0.12786813701E+04  0.25500000920E-02 0.  1.
    10030    2    1    2    0    0  0.00000000000E+00  0.00000000000E+00 -0.10804022464E+04  0.14769604937E+04  0.10070468142E+04 0.  0.
        5    1    3    3  502    0  0.45269017085E+03  0.79366612929E+02 -0.23860971360E+03  0.51786497801E+03  0.46999998093E+01 0.  1.
       -5    1    3    3    0  502 -0.45269017085E+03 -0.79366612929E+02 -0.84179253279E+03  0.95909551573E+03  0.46999998093E+01 0. -1.
</event>
<event>
 5   0  0.5072205E-03  0.9387487E+03  0.7818609E-02  0.9378399E-01
        1   -1    0    0  501    0  0.00000000000E+00  0.00000000000E+00  0.14214645436E+04  0.14214645436E+04  0.50400001928E-02 0. -1.
       -1   -1    0    0    0  501  0.00000000000E+00  0.00000000000E+00 -0.15498965513E+03  0.15498965521E+03  0.50400001928E-02 0.  1.
    10030    2    1    2    0    0  0.00000000000E+00  0.00000000000E+00  0.12664748885E+04  0.15764541988E+04  0.93874874053E+03 0.  0.
        5    1    3    3  502    0 -0.45005766754E+02 -0.27115974983E+03 -0.56463827532E+01  0.27496745372E+03  0.46999998093E+01 0.  1.
       -5    1    3    3    0  502  0.45005766754E+02  0.27115974983E+03  0.12721212712E+04  0.13014867451E+04  0.46999998093E+01 0. -1.
</event>
<event>
 5   0  0.8968798E-03  0.9966628E+03  0.7818609E-02  0.9312213E-01
        2   -1    0    0  501    0  0.00000000000E+00  0.00000000000E+00  0.87278110775E+03  0.87278110776E+03  0.25500000920E-02 0.  1.
       -2   -1    0    0    0  501  0.00000000000E+00  0.00000000000E+00 -0.28453202899E+03  0.28453202900E+03  0.25500000920E-02 0. -1.
    10030    2    1    2    0    0  0.00000000000E+00  0.00000000000E+00  0.58824907876E+03  0.11573131368E+04  0.99666279044E+03 0.  0.
        2    1    3    3  502    0  0.30632112447E+03  0.33867210087E+03  0.62460186746E+02  0.46090421796E+03  0.25500000920E-02 0. -1.
       -2    1    3    3    0  502 -0.30632112447E+03 -0.33867210087E+03  0.52578889201E+03  0.69640891879E+03  0.25500000920E-02 0.  1.
</event>
<event>
 5   0  0.8875655E-03  0.1003530E+04  0.7818609E-02  0.9304682E-01
       -2   -1    0    0    0  501  0.00000000000E+00  0.00000000000E+00  0.10503293104E+03  0.10503293107E+03  0.25500000920E-02 0.  1.
        2   -1    0    0  501    0  0.00000000000E+00  0.00000000000E+00 -0.23970379293E+04  0.23970379293E+04  0.25500000920E-02 0. -1.
    10030    2    1    2    0    0  0.00000000000E+00  0.00000000000E+00 -0.22920049982E+04  0.25020708604E+04  0.10035296101E+04 0.  0.
        4    1    3    3  502    0  0.46415228834E+03 -0.16997485621E+03 -0.13610246200E+04  0.14480049820E+04  0.12699999809E+01 0. -1.
       -4    1    3    3    0  502 -0.46415228834E+03  0.16997485621E+03 -0.93098037820E+03  0.10540658784E+04  0.12699999809E+01 0.  1.
</event>
<event>
 5   0  0.5349685E-03  0.1010277E+04  0.7818609E-02  0.9297344E-01
        1   -1    0    0  501    0  0.00000000000E+00  0.00000000000E+00  0.31235904070E+03  0.31235904074E+03  0.50400001928E-02 0. -1.
       -1   -1    0    0    0  501  0.00000000000E+00  0.00000000000E+00 -0.81689695362E+03  0.81689695364E+03  0.50400001928E-02 0.  1.
    10030    2    1    2    0    0  0.00000000000E+00  0.00000000000E+00 -0.50453791292E+03  0.11292559944E+04  0.10102774843E+04 0.  0.
        4    1    3    3  502    0 -0.68727205782E+02 -0.42911086629E+03  0.35551396827E+02  0.43603334632E+03  0.12699999809E+01 0. -1.
       -4    1    3    3    0  502  0.68727205782E+02  0.42911086629E+03 -0.54008930975E+03  0.69322264806E+03  0.12699999809E+01 0.  1.
</event>
<event>
 5   0  0.8907355E-03  0.1007351E+04  0.7818609E-02  0.9300519E-01
        2   -1    0    0  501    0  0.00000000000E+00  0.00000000000E+00  0.84026631511E+03  0.84026631511E+03  0.25500000920E-02 0.  1.
       -2   -1    0    0    0  501  0.00000000000E+00  0.00000000000E+00 -0.30191490370E+03  0.30191490371E+03  0.25500000920E-02 0. -1.
    10030    2    1    2    0    0  0.00000000000E+00  0.00000000000E+00  0.53835141140E+03  0.11421812188E+04  0.10073508299E+04 0.  0.
        5    1    3    3  502    0 -0.78242525314E+02 -0.48326351631E+03  0.13501087902E+03  0.50785386325E+03  0.46999998093E+01 0. -1.
       -5    1    3    3    0  502  0.78242525314E+02  0.48326351631E+03  0.40334053238E+03  0.63432735557E+03  0.46999998093E+01 0.  1.
</event>
<event>
 5   0  0.9243773E-03  0.1028745E+04  0.7818609E-02  0.9277567E-01
        2   -1    0    0  501    0  0.00000000000E+00  0.00000000000E+00  0.72147967123E+03  0.72147967123E+03  0.25500000920E-02 0.  1.
       -2   -1    0    0    0  501  0.00000000000E+00  0.00000000000E+00 -0.36671749178E+03  0.36671749179E+03  0.25500000920E-02 0. -1.
    10030    2    1    2    0    0  0.00000000000E+00  0.00000000000E+00  0.35476217945E+03  0.10881971630E+04  0.10287452851E+04 0.  0.
        3    1    3    3  502    0  0.30090211498E+03 -0.26830628415E+03  0.51529324234E+03  0.65426101879E+03  0.10100000352E+00 0.  1.
       -3    1    3    3    0  502 -0.30090211498E+03  0.26830628415E+03 -0.16053106289E+03  0.43393614423E+03  0.10100000352E+00 0. -1.
</event>
<event>
 5   0  0.8875655E-03  0.9711234E+03  0.7818609E-02  0.9340796E-01
        2   -1    0    0  501    0  0.00000000000E+00  0.00000000000E+00  0.26805997563E+03  0.26805997565E+03  0.25500000920E-02 0.  1.
       -2   -1    0    0    0  501  0.00000000000E+00  0.00000000000E+00 -0.87954260692E+03  0.87954260692E+03  0.25500000920E-02 0. -1.
    10030    2    1    2    0    0  0.00000000000E+00  0.00000000000E+00 -0.61148263128E+03  0.11476025826E+04  0.97112341088E+03 0.  0.
        4    1    3    3  502    0  0.14908114833E+03  0.31904369269E+03 -0.70078905790E+03  0.78429648935E+03  0.12699999809E+01 0. -1.
       -4    1    3    3    0  502 -0.14908114833E+03 -0.31904369269E+03  0.89306426619E+02  0.36330609322E+03  0.12699999809E+01 0.  1.
</event>
<event>
 5   0  0.5201968E-03  0.9975447E+03  0.7818609E-02  0.9311242E-01
       -1   -1    0    0    0  501  0.00000000000E+00  0.00000000000E+00  0.16478916754E+03  0.16478916762E+03  0.50400001928E-02 0.  1.
        1   -1    0    0  501    0  0.00000000000E+00  0.00000000000E+00 -0.15096494666E+04  0.15096494667E+04  0.50400001928E-02 0. -1.
    10030    2    1    2    0    0  0.00000000000E+00  0.00000000000E+00 -0.13448602991E+04  0.16744386343E+04  0.99754474378E+03 0.  0.
        2    1    3    3  502    0  0.18678661450E+03 -0.16665593041E+03  0.51709320393E+02  0.25561160443E+03  0.25500000920E-02 0.  1.
       -2    1    3    3    0  502 -0.18678661450E+03  0.16665593041E+03 -0.13965696195E+04  0.14188270298E+04  0.25500000920E-02 0. -1.
</event>
<event>
 5   0  0.8907355E-03  0.9593396E+03  0.7818609E-02  0.9354300E-01
        2   -1    0    0  501    0  0.00000000000E+00  0.00000000000E+00  0.42798198108E+03  0.42798198109E+03  0.25500000920E-02 0. -1.
       -2   -1    0    0    0  501  0.00000000000E+00  0.00000000000E+00 -0.53759997308E+03  0.53759997308E+03  0.25500000920E-02 0.  1.
    10030    2    1    2    0    0  0.00000000000E+00  0.00000000000E+00 -0.10961799200E+03  0.96558195417E+03  0.95933956764E+03 0.  0.
        5    1    3    3  502    0 -0.25954836083E+03  0.91494988100E+02  0.34058855892E+03  0.43790334655E+03  0.46999998093E+01 0. -1.
       -5    1    3    3    0  502  0.25954836083E+03 -0.91494988100E+02 -0.45020655092E+03  0.52767860762E+03  0.46999998093E+01 0.  1.
</event>
<event>
 5   0  0.5189877E-03  0.9943710E+03  0.7818609E-02  0.9314740E-01
        1   -1    0    0  501    0  0.00000000000E+00  0.00000000000E+00  0.27110524342E+03  0.27110524346E+03  0.50400001928E-02 0.  1.
       -1   -1    0    0    0  501  0.00000000000E+00  0.00000000000E+00 -0.91179870175E+03  0.91179870177E+03  0.50400001928E-02 0. -1.
    10030    2    1    2    0    0  0.00000000000E+00  0.00000000000E+00 -0.64069345834E+03  0.11829039452E+04  0.99437097508E+03 0.  0.
        3    1    3    3  502    0  0.22748686091E+03  0.14410164363E+03  0.17684048501E+03  0.32216164099E+03  0.10100000352E+00 0.  1.
       -3    1    3    3    0  502 -0.22748686091E+03 -0.14410164363E+03 -0.81753394335E+03  0.86074230424E+03  0.10100000352E+00 0. -1.
</event>
<event>
 5   0  0.8875655E-03  0.9908248E+03  0.7818609E-02  0.9318666E-01
        2   -1    0    0  501    0  0.00000000000E+00  0.00000000000E+00  0.26511893752E+04  0.26511893752E+04  0.25500000920E-02 0.  1.
       -2   -1    0    0    0  501  0.00000000000E+00  0.00000000000E+00 -0.92574846410E+02  0.92574846445E+02  0.25500000920E-02 0. -1.
    10030    2    1    2    0    0  0.00000000000E+00  0.00000000000E+00  0.25586145288E+04  0.27437642216E+04  0.99082480643E+03 0.  0.
        4    1    3    3  502    0 -0.39384191647E+03 -0.84602835255E+02  0.48073482749E+03  0.62719748259E+03  0.12699999809E+01 0. -1.
       -4    1    3    3    0  502  0.39384191647E+03  0.84602835255E+02  0.20778797013E+04  0.21165667390E+04  0.12699999809E+01 0.  1.
</event>
<event>
 5   0  0.5310275E-03  0.1006286E+04  0.7818609E-02  0.9301677E-01
        1   -1    0    0  501    0  0.00000000000E+00  0.00000000000E+00  0.46547211403E+03  0.46547211405E+03  0.50400001928E-02 0.  1.
       -1   -1    0    0    0  501  0.00000000000E+00  0.00000000000E+00 -0.54386303288E+03  0.54386303290E+03  0.50400001928E-02 0. -1.
    10030    2    1    2    0    0  0.00000000000E+00  0.00000000000E+00 -0.78390918851E+02  0.10093351470E+04  0.10062863920E+04 0.  0.
        1    1    3    3  502    0 -0.23745259150E+03 -0.28834367012E+02 -0.48318531296E+03  0.53915044340E+03  0.50400001928E-02 0. -1.
       -1    1    3    3    0  502  0.23745259150E+03  0.28834367012E+02  0.40479439411E+03  0.47018470356E+03  0.50400001928E-02 0.  1.
</event>
<event>
 5   0  0.8907355E-03  0.1001606E+04  0.7818609E-02  0.9306785E-01
       -2   -1    0    0    0  501  0.00000000000E+00  0.00000000000E+00  0.19537124092E+03  0.19537124094E+03  0.25500000920E-02 0.  1.
        2   -1    0    0  501    0  0.00000000000E+00  0.00000000000E+00 -0.12837295514E+04  0.12837295514E+04  0.25500000920E-02 0. -1.
    10030    2    1    2    0    0  0.00000000000E+00  0.00000000000E+00 -0.10883583105E+04  0.14791007923E+04  0.10016063807E+04 0.  0.
        5    1    3    3  502    0 -0.91872147372E+02  0.36709589431E+03 -0.10285413163E+04  0.10959558460E+04  0.46999998093E+01 0. -1.
       -5    1    3    3    0  502  0.91872147372E+02 -0.36709589431E+03 -0.59816994132E+02  0.38314494629E+03  0.46999998093E+01 0.  1.
</event>
<event>
 5   0  0.5072205E-03  0.1000185E+04  0.7818609E-02  0.9308342E-01
        1   -1    0    0  501    0  0.00000000000E+00  0.00000000000E+00  0.84819166117E+03  0.84819166119E+03  0.50400001928E-02 0.  1.
       -1   -1    0    0    0  501  0.00000000000E+00  0.00000000000E+00 -0.29485365348E+03  0.29485365352E+03  0.50400001928E-02 0. -1.
    10030    2    1    2    0    0  0.00000000000E+00  0.00000000000E+00  0.55333800769E+03  0.11430453147E+04  0.10001848033E+04 0.  0.
        5    1    3    3  502    0 -0.41506427867E+03 -0.40817068457E+02 -0.38649535880E+02  0.41887977407E+03  0.46999998093E+01 0. -1.
       -5    1    3    3    0  502  0.41506427867E+03  0.40817068457E+02  0.59198754357E+03  0.72416554064E+03  0.46999998093E+01 0.  1.
</event>
<event>
 5   0  0.5072205E-03  0.1035812E+04  0.7818609E-02  0.9270116E-01
        1   -1    0    0  501    0  0.00000000000E+00  0.00000000000E+00  0.52539519120E+03  0.52539519123E+03  0.50400001928E-02 0. -1.
       -1   -1    0    0    0  501  0.00000000000E+00  0.00000000000E+00 -0.51052375103E+03  0.51052375105E+03  0.50400001928E-02 0.  1.
    10030    2    1    2    0    0  0.00000000000E+00  0.00000000000E+00  0.14871440173E+02  0.10359189423E+04  0.10358121911E+04 0.  0.
        5    1    3    3  502    0 -0.44041670228E+03 -0.27071921214E+03  0.38242633900E+02  0.51840172888E+03  0.46999998093E+01 0.  1.
       -5    1    3    3    0  502  0.44041670228E+03  0.27071921214E+03 -0.23371193727E+02  0.51751721339E+03  0.46999998093E+01 0. -1.
</event>
<event>
 5   0  0.8907355E-03  0.9537941E+03  0.7818609E-02  0.9360727E-01
       -2   -1    0    0    0  501  0.00000000000E+00  0.00000000000E+00  0.46213201099E+03  0.46213201100E+03  0.25500000920E-02 0. -1.
        2   -1    0    0  501    0  0.00000000000E+00  0.00000000000E+00 -0.49213378551E+03  0.49213378552E+03  0.25500000920E-02 0.  1.
    10030    2    1    2    0    0  0.00000000000E+00  0.00000000000E+00 -0.30001774524E+02  0.95426579652E+03  0.95379405740E+03 0.  0.
        5    1    3    3  502    0  0.36319160034E+03 -0.13358471879E+03  0.26380460965E+03  0.46836735339E+03  0.46999998093E+01 0. -1.
       -5    1    3    3    0  502 -0.36319160034E+03  0.13358471879E+03 -0.29380638417E+03  0.48589844313E+03  0.46999998093E+01 0.  1.
</event>
<event>
 5   0  0.5349685E-03  0.9918439E+03  0.7818609E-02  0.9317536E-01
       -1   -1    0    0    0  501  0.00000000000E+00  0.00000000000E+00  0.55014123170E+03  0.55014123173E+03  0.50400001928E-02 0. -1.
        1   -1    0    0  501    0  0.00000000000E+00  0.00000000000E+00 -0.44704624032E+03  0.44704624035E+03  0.50400001928E-02 0.  1.
    10030    2    1    2    0    0  0.00000000000E+00  0.00000000000E+00  0.10309499138E+03  0.99718747208E+03  0.99184387744E+03 0.  0.
        4    1    3    3  502    0 -0.47058238786E+03  0.13041290811E+03 -0.35415016190E+02  0.48960305007E+03  0.12699999809E+01 0.  1.
       -4    1    3    3    0  502  0.47058238786E+03 -0.13041290811E+03  0.13851000757E+03  0.50758442201E+03  0.12699999809E+01 0. -1.
</event>
<event>
 5   0  0.5349685E-03  0.8030206E+03  0.7818609E-02  0.9555655E-01
        1   -1    0    0  501    0  0.00000000000E+00  0.00000000000E+00  0.22761002121E+03  0.22761002127E+03  0.50400001928E-02 0. -1.
       -1   -1    0    0    0  501  0.00000000000E+00  0.00000000000E+00 -0.70827518298E+03  0.70827518300E+03  0.50400001928E-02 0.  1.
    10030    2    1    2    0    0  0.00000000000E+00  0.00000000000E+00 -0.48066516177E+03  0.93588520426E+03  0.80302062105E+03 0.  0.
        4    1    3    3  502    0  0.36943871766E+03 -0.54536999019E+02 -0.68453832890E+02  0.37966668343E+03  0.12699999809E+01 0. -1.
       -4    1    3    3    0  502 -0.36943871766E+03  0.54536999019E+02 -0.41221132888E+03  0.55621852084E+03  0.12699999809E+01 0.  1.
</event>
<event>
 5   0  0.5072205E-03  0.9926911E+03  0.7818609E-02  0.9316598E-01
       -1   -1    0    0    0  501  0.00000000000E+00  0.00000000000E+00  0.20056186378E+03  0.20056186384E+03  0.50400001928E-02 0. -1.
        1   -1    0    0  501    0  0.00000000000E+00  0.00000000000E+00 -0.12283435924E+04  0.12283435924E+04  0.50400001928E-02 0.  1.
    10030    2    1    2    0    0  0.00000000000E+00  0.00000000000E+00 -0.10277817286E+04  0.14289054563E+04  0.99269105024E+03 0.  0.
        5    1    3    3  502    0  0.19167236419E+03 -0.87154166702E+02 -0.11608366939E+04  0.11797872960E+04  0.46999998093E+01 0.  1.
       -5    1    3    3    0  502 -0.19167236419E+03  0.87154166702E+02  0.13305496528E+03  0.24911816022E+03  0.46999998093E+01 0. -1.
</event>
<event>
 5   0  0.5201968E-03  0.1000207E+04  0.7818609E-02  0.9308318E-01
        1   -1    0    0  501    0  0.00000000000E+00  0.00000000000E+00  0.87731697727E+03  0.87731697729E+03  0.50400001928E-02 0. -1.
       -1   -1    0    0    0  501  0.00000000000E+00  0.00000000000E+00 -0.28507755952E+03  0.28507755956E+03  0.50400001928E-02 0.  1.
    10030    2    1    2    0    0  0.00000000000E+00  0.00000000000E+00  0.59223941776E+03  0.11623945369E+04  0.10002067443E+04 0.  0.
        2    1    3    3  502    0  0.68283738024E+02 -0.84534847418E+02  0.86343025606E+03  0.87024169998E+03  0.25500000920E-02 0. -1.
       -2    1    3    3    0  502 -0.68283738024E+02  0.84534847418E+02 -0.27119083830E+03  0.29215283687E+03  0.25500000920E-02 0.  1.
</event>
<event>
 5   0  0.5349685E-03  0.9967846E+03  0.7818609E-02  0.9312078E-01
        1   -1    0    0  501    0  0.00000000000E+00  0.00000000000E+00  0.10004863433E+04  0.10004863433E+04  0.50400001928E-02 0. -1.
       -1   -1    0    0    0  501  0.00000000000E+00  0.00000000000E+00 -0.24827413896E+03  0.24827413902E+03  0.50400001928E-02 0.  1.
    10030    2    1    2    0    0  0.00000000000E+00  0.00000000000E+00  0.75221220432E+03  0.12487604823E+04  0.99678460153E+03 0.  0.
        4    1    3    3  502    0 -0.25690158370E+03 -0.16820444992E+03 -0.11568664743E+03  0.32814047903E+03  0.12699999809E+01 0.  1.
       -4    1    3    3    0  502  0.25690158370E+03  0.16820444992E+03  0.86789885174E+03  0.92062000328E+03  0.12699999809E+01 0. -1.
</event>
<event>
 5   0  0.5349685E-03  0.1033987E+04  0.7818609E-02  0.9272034E-01
        1   -1    0    0  501    0  0.00000000000E+00  0.00000000000E+00  0.46743969757E+03  0.46743969759E+03  0.50400001928E-02 0.  1.
       -1   -1    0    0    0  501  0.00000000000E+00  0.00000000000E+00 -0.57180070193E+03  0.57180070195E+03  0.50400001928E-02 0. -1.
    10030    2    1    2    0    0  0.00000000000E+00  0.00000000000E+00 -0.10436100436E+03  0.10392403995E+04  0.10339871318E+04 0.  0.
        4    1    3    3  502    0  0.32045800216E+03  0.18375049852E+03 -0.41571296666E+03  0.55612629897E+03  0.12699999809E+01 0. -1.
       -4    1    3    3    0  502 -0.32045800216E+03 -0.18375049852E+03  0.31135196229E+03  0.48311410058E+03  0.12699999809E+01 0.  1.
</event>
<event>
 5   0  0.5310275E-03  0.1000904E+04  0.7818609E-02  0.9307554E-01
        1   -1    0    0  501    0  0.00000000000E+00  0.00000000000E+00  0.50136615402E+03  0.50136615405E+03  0.50400001928E-02 0. -1.
       -1   -1    0    0    0  501  0.00000000000E+00  0.00000000000E+00 -0.49953959406E+03  0.49953959409E+03  0.50400001928E-02 0.  1.
    10030    2    1    2    0    0  0.00000000000E+00  0.00000000000E+00  0.18265599596E+01  0.10009057481E+04  0.10009040815E+04 0.  0.
        1    1    3    3  502    0  0.31417611697E+03  0.73039745316E+02  0.38355057008E+03  0.50115115156E+03  0.50400001928E-02 0. -1.
       -1    1    3    3    0  502 -0.31417611697E+03 -0.73039745316E+02 -0.38172401012E+03  0.49975459658E+03  0.50400001928E-02 0.  1.
</event>
<event>
 5   0  0.8968798E-03  0.1005833E+04  0.7818609E-02  0.9302170E-01
        2   -1    0    0  501    0  0.00000000000E+00  0.00000000000E+00  0.18419869812E+03  0.18419869814E+03  0.25500000920E-02 0. -1.
       -2   -1    0    0    0  501  0.00000000000E+00  0.00000000000E+00 -0.13731106493E+04  0.13731106493E+04  0.25500000920E-02 0.  1.
    10030    2    1    2    0    0  0.00000000000E+00  0.00000000000E+00 -0.11889119511E+04  0.15573093474E+04  0.10058333738E+04 0.  0.
        2    1    3    3  502    0 -0.80630437834E+02  0.60798712758E+02 -0.13572517688E+04  0.13610033486E+04  0.25500000920E-02 0.  1.
       -2    1    3    3    0  502  0.80630437834E+02 -0.60798712758E+02  0.16833981762E+03  0.19630599884E+03  0.25500000920E-02 0. -1.
</event>
<event>
 5   0  0.5310275E-03  0.9858071E+03  0.7818609E-02  0.9324250E-01
       -1   -1    0    0    0  501  0.00000000000E+00  0.00000000000E+00  0.48999676623E+03  0.48999676625E+03  0.50400001928E-02 0. -1.
        1   -1    0    0  501    0  0.00000000000E+00  0.00000000000E+00 -0.49582757847E+03  0.49582757849E+03  0.50400001928E-02 0.  1.
    10030    2    1    2    0    0  0.00000000000E+00  0.00000000000E+00 -0.58308122395E+01  0.98582434474E+03  0.98580710097E+03 0.  0.
        1    1    3    3  502    0  0.37668112880E+03 -0.19199596944E+03 -0.25630252315E+03  0.49441087010E+03  0.50400001928E-02 0. -1.
       -1    1    3    3    0  502 -0.37668112880E+03  0.19199596944E+03  0.25047171091E+03  0.49141347465E+03  0.50400001928E-02 0.  1.
</event>
<event>
 5   0  0.5349685E-03  0.1002414E+04  0.7818609E-02  0.9305901E-01
       -1   -1    0    0    0  501  0.00000000000E+00  0.00000000000E+00  0.69005839549E+03  0.69005839551E+03  0.50400001928E-02 0.  1.
        1   -1    0    0  501    0  0.00000000000E+00  0.00000000000E+00 -0.36403963434E+03  0.36403963437E+03  0.50400001928E-02 0. -1.
    10030    2    1    2    0    0  0.00000000000E+00  0.00000000000E+00  0.32601876115E+03  0.10540980299E+04  0.10024142976E+04 0.  0.
        4    1    3    3  502    0  0.29854855519E+03 -0.36380559932E+03 -0.18277846266E+02  0.47097924208E+03  0.12699999809E+01 0.  1.
       -4    1    3    3    0  502 -0.29854855519E+03  0.36380559932E+03  0.34429660742E+03  0.58311878780E+03  0.12699999809E+01 0. -1.
</event>
<event>
 5   0  0.8907355E-03  0.1091111E+04  0.7818609E-02  0.9213900E-01
       -2   -1    0    0    0  501  0.00000000000E+00  0.00000000000E+00  0.13383523674E+03  0.13383523677E+03  0.25500000920E-02 0.  1.
        2   -1    0    0  501    0  0.00000000000E+00  0.00000000000E+00 -0.22238579355E+04  0.22238579355E+04  0.25500000920E-02 0. -1.
    10030    2    1    2    0    0  0.00000000000E+00  0.00000000000E+00 -0.20900226987E+04  0.23576931722E+04  0.10911105413E+04 0.  0.
        5    1    3    3  502    0 -0.47858543372E+02  0.48316997808E+03 -0.15824641432E+04  0.16552820069E+04  0.46999998093E+01 0. -1.
       -5    1    3    3    0  502  0.47858543372E+02 -0.48316997808E+03 -0.50755855552E+03  0.70241116532E+03  0.46999998093E+01 0.  1.
</event>
<event>
 5   0  0.3513625E-03  0.1007201E+04  0.7818609E-02  0.9300682E-01
       -4   -1    0    0    0  501  0.00000000000E+00  0.00000000000E+00  0.18193799478E+03  0.18194242728E+03  0.12699999809E+01 0.  1.
        4   -1    0    0  501    0  0.00000000000E+00  0.00000000000E+00 -0.13939345218E+04  0.13939351003E+04  0.12699999809E+01 0. -1.
    10030    2    1    2    0    0  0.00000000000E+00  0.00000000000E+00 -0.12119965270E+04  0.15758775276E+04  0.10072012711E+04 0.  0.
        2    1    3    3  502    0 -0.17176723856E+03  0.49113846878E+02 -0.13426912617E+04  0.13545242627E+04  0.25500000920E-02 0. -1.
       -2    1    3    3    0  502  0.17176723856E+03 -0.49113846878E+02  0.13069473466E+03  0.22135326488E+03  0.25500000920E-02 0.  1.
</event>
<event>
 5   0  0.5189877E-03  0.1027079E+04  0.7818609E-02  0.9279333E-01
        1   -1    0    0  501    0  0.00000000000E+00  0.00000000000E+00  0.45485825673E+03  0.45485825676E+03  0.50400001928E-02 0. -1.
       -1   -1    0    0    0  501  0.00000000000E+00  0.00000000000E+00 -0.57979156772E+03  0.57979156774E+03  0.50400001928E-02 0.  1.
    10030    2    1    2    0    0  0.00000000000E+00  0.00000000000E+00 -0.12493331099E+03  0.10346498245E+04  0.10270793188E+04 0.  0.
        3    1    3    3  502    0 -0.59047095388E+02  0.86758968184E+02 -0.56887401769E+03  0.57847328049E+03  0.10100000352E+00 0.  1.
       -3    1    3    3    0  502  0.59047095388E+02 -0.86758968184E+02  0.44394070670E+03  0.45617654401E+03  0.10100000352E+00 0. -1.
</event>
<event>
 5   0  0.5349685E-03  0.9388358E+03  0.7818609E-02  0.9378296E-01
        1   -1    0    0  501    0  0.00000000000E+00  0.00000000000E+00  0.54980449172E+03  0.54980449174E+03  0.50400001928E-02 0. -1.
       -1   -1    0    0    0  501  0.00000000000E+00  0.00000000000E+00 -0.40078458458E+03  0.40078458461E+03  0.50400001928E-02 0.  1.
    10030    2    1    2    0    0  0.00000000000E+00  0.00000000000E+00  0.14901990714E+03  0.95058907635E+03  0.93883579999E+03 0.  0.
        4    1    3    3  502    0  0.34546362627E+03 -0.19294648213E+03  0.33021478362E+03  0.51538032390E+03  0.12699999809E+01 0. -1.
       -4    1    3    3    0  502 -0.34546362627E+03  0.19294648213E+03 -0.18119487648E+03  0.43520875245E+03  0.12699999809E+01 0.  1.
</event>
<event>
 5   0  0.5201968E-03  0.9994476E+03  0.7818609E-02  0.9309151E-01
        1   -1    0    0  501    0  0.00000000000E+00  0.00000000000E+00  0.23646840330E+03  0.23646840335E+03  0.50400001928E-02 0.  1.
       -1   -1    0    0    0  501  0.00000000000E+00  0.00000000000E+00 -0.10560559345E+04  0.10560559345E+04  0.50400001928E-02 0. -1.
    10030    2    1    2    0    0  0.00000000000E+00  0.00000000000E+00 -0.81958753116E+03  0.12925243378E+04  0.99944756872E+03 0.  0.
        2    1    3    3  502    0  0.29054765225E+03 -0.40334106312E+03 -0.34357401522E+03  0.60427233543E+03  0.25500000920E-02 0.  1.
       -2    1    3    3    0  502 -0.29054765225E+03  0.40334106312E+03 -0.47601351594E+03  0.68825200239E+03  0.25500000920E-02 0. -1.
</event>
<event>
 5   0  0.8875655E-03  0.1018001E+04  0.7818609E-02  0.9289019E-01
       -2   -1    0    0    0  501  0.00000000000E+00  0.00000000000E+00  0.17005519168E+03  0.17005519170E+03  0.25500000920E-02 0. -1.
        2   -1    0    0  501    0  0.00000000000E+00  0.00000000000E+00 -0.15235133820E+04  0.15235133820E+04  0.25500000920E-02 0.  1.
    10030    2    1    2    0    0  0.00000000000E+00  0.00000000000E+00 -0.13534581903E+04  0.16935685737E+04  0.10180007077E+04 0.  0.
        4    1    3    3  502    0  0.14822316005E+03 -0.21088601162E+03  0.53441362418E+02  0.26325008488E+03  0.12699999809E+01 0. -1.
       -4    1    3    3    0  502 -0.14822316005E+03  0.21088601162E+03 -0.14068995527E+04  0.14303184888E+04  0.12699999809E+01 0.  1.
</event>
<event>
 5   0  0.5072205E-03  0.9862276E+03  0.7818609E-02  0.9323780E-01
       -1   -1    0    0    0  501  0.00000000000E+00  0.00000000000E+00  0.31735984928E+03  0.31735984932E+03  0.50400001928E-02 0.  1.
        1   -1    0    0  501    0  0.00000000000E+00  0.00000000000E+00 -0.76620032408E+03  0.76620032409E+03  0.50400001928E-02 0. -1.
    10030    2    1    2    0    0  0.00000000000E+00  0.00000000000E+00 -0.44884047480E+03  0.10835601734E+04  0.98622759928E+03 0.  0.
        5    1    3    3  502    0  0.48330299591E+03  0.55423913870E+02 -0.31290097395E+03  0.57843124534E+03  0.46999998093E+01 0. -1.
       -5    1    3    3    0  502 -0.48330299591E+03 -0.55423913870E+02 -0.13593950085E+03  0.50512892807E+03  0.46999998093E+01 0.  1.
</event>
<event>
 5   0  0.5189877E-03  0.9793847E+03  0.7818609E-02  0.9331449E-01
       -1   -1    0    0    0  501  0.00000000000E+00  0.00000000000E+00  0.52659545370E+03  0.52659545373E+03  0.50400001928E-02 0. -1.
        1   -1    0    0  501    0  0.00000000000E+00  0.00000000000E+00 -0.45537536065E+03  0.45537536068E+03  0.50400001928E-02 0.  1.
    10030    2    1    2    0    0  0.00000000000E+00  0.00000000000E+00  0.71220093052E+02  0.98197081441E+03  0.97938469393E+03 0.  0.
        3    1    3    3  502    0  0.34663734930E+03  0.12993455387E+03 -0.28579551982E+03  0.46767459796E+03  0.10100000352E+00 0.  1.
       -3    1    3    3    0  502 -0.34663734930E+03 -0.12993455387E+03  0.35701561287E+03  0.51429621645E+03  0.10100000352E+00 0. -1.
</event>
<event>
 5   0  0.8968798E-03  0.9451198E+03  0.7818609E-02  0.9370873E-01
        2   -1    0    0  501    0  0.00000000000E+00  0.00000000000E+00  0.17972369574E+04  0.17972369574E+04  0.25500000920E-02 0. -1.
       -2   -1    0    0    0  501  0.00000000000E+00  0.00000000000E+00 -0.12425343306E+03  0.12425343309E+03  0.25500000920E-02 0.  1.
    10030    2    1    2    0    0  0.00000000000E+00  0.00000000000E+00  0.16729835243E+04  0.19214903905E+04  0.94511980618E+03 0.  0.
        2    1    3    3  502    0 -0.13686256565E+03  0.37348877366E+03  0.13551730754E+04  0.14123453155E+04  0.25500000920E-02 0. -1.
       -2    1    3    3    0  502  0.13686256565E+03 -0.37348877366E+03  0.31781044896E+03  0.50914507501E+03  0.25500000920E-02 0.  1.
</event>
<event>
 5   0  0.8907355E-03  0.1005709E+04  0.7818609E-02  0.9302305E-01
       -2   -1    0    0    0  501  0.00000000000E+00  0.00000000000E+00  0.46904965070E+03  0.46904965071E+03  0.25500000920E-02 0. -1.
        2   -1    0    0  501    0  0.00000000000E+00  0.00000000000E+00 -0.53909565769E+03  0.53909565769E+03  0.25500000920E-02 0.  1.
    10030    2    1    2    0    0  0.00000000000E+00  0.00000000000E+00 -0.70046006985E+02  0.10081453084E+04  0.10057089637E+04 0.  0.
        5    1    3    3  502    0  0.30249591705E+03 -0.64795774024E+02  0.36234399243E+03  0.47646356735E+03  0.46999998093E+01 0. -1.
       -5    1    3    3    0  502 -0.30249591705E+03  0.64795774024E+02 -0.43238999942E+03  0.53168174105E+03  0.46999998093E+01 0.  1.
</event>
<event>
 5   0  0.9243773E-03  0.1024068E+04  0.7818609E-02  0.9282534E-01
       -2   -1    0    0    0  501  0.00000000000E+00  0.00000000000E+00  0.30164848699E+03  0.30164848700E+03  0.25500000920E-02 0.  1.
        2   -1    0    0  501    0  0.00000000000E+00  0.00000000000E+00 -0.86915371540E+03  0.86915371540E+03  0.25500000920E-02 0. -1.
    10030    2    1    2    0    0  0.00000000000E+00  0.00000000000E+00 -0.56750522841E+03  0.11708022024E+04  0.10240681681E+04 0.  0.
        3    1    3    3  502    0  0.20222480738E+03  0.43756117215E+03 -0.86310695239E+02  0.48969806862E+03  0.10100000352E+00 0.  1.
       -3    1    3    3    0  502 -0.20222480738E+03 -0.43756117215E+03 -0.48119453317E+03  0.68110413378E+03  0.10100000352E+00 0. -1.
</event>
<event>
 5   0  0.5201968E-03  0.1016444E+04  0.7818609E-02  0.9290691E-01
       -1   -1    0    0    0  501  0.00000000000E+00  0.00000000000E+00  0.65400032817E+03  0.65400032819E+03  0.50400001928E-02 0.  1.
        1   -1    0    0  501    0  0.00000000000E+00  0.00000000000E+00 -0.39493799119E+03  0.39493799122E+03  0.50400001928E-02 0. -1.
    10030    2    1    2    0    0  0.00000000000E+00  0.00000000000E+00  0.25906233698E+03  0.10489383194E+04  0.10164439500E+04 0.  0.
        2    1    3    3  502    0 -0.37853584185E+03  0.15485203431E+03  0.44087295428E+03  0.60136303338E+03  0.25500000920E-02 0.  1.
       -2    1    3    3    0  502  0.37853584185E+03 -0.15485203431E+03 -0.18181061730E+03  0.44757528603E+03  0.25500000920E-02 0. -1.
</event>
<event>
 5   0  0.9243773E-03  0.9683997E+03  0.7818609E-02  0.9343899E-01
        2   -1    0    0  501    0  0.00000000000E+00  0.00000000000E+00  0.32843281991E+03  0.32843281992E+03  0.25500000920E-02 0. -1.
       -2   -1    0    0    0  501  0.00000000000E+00  0.00000000000E+00 -0.71384312330E+03  0.71384312330E+03  0.25500000920E-02 0.  1.
    10030    2    1    2    0    0  0.00000000000E+00  0.00000000000E+00 -0.38541030339E+03  0.10422759432E+04  0.96839973145E+03 0.  0.
        3    1    3    3  502    0 -0.16042003965E+03  0.28784333035E+03 -0.57453850641E+03  0.66233139553E+03  0.10100000352E+00 0.  1.
       -3    1    3    3    0  502  0.16042003965E+03 -0.28784333035E+03  0.18912820302E+03  0.37994454770E+03  0.10100000352E+00 0. -1.
</event>
<event>
 5   0  0.5072205E-03  0.1002152E+04  0.7818609E-02  0.9306188E-01
       -1   -1    0    0    0  501  0.00000000000E+00  0.00000000000E+00  0.68803541991E+03  0.68803541992E+03  0.50400001928E-02 0.  1.
        1   -1    0    0  501    0  0.00000000000E+00  0.00000000000E+00 -0.36491876299E+03  0.36491876302E+03  0.50400001928E-02 0. -1.
    10030    2    1    2    0    0  0.00000000000E+00  0.00000000000E+00  0.32311665692E+03  0.10529541829E+04  0.10021517537E+04 0.  0.
        5    1    3    3  502    0 -0.26389084279E+03 -0.18547367305E+03 -0.24130562352E+03  0.40285152878E+03  0.46999998093E+01 0. -1.
       -5    1    3    3    0  502  0.26389084279E+03  0.18547367305E+03  0.56442228044E+03  0.65010265417E+03  0.46999998093E+01 0.  1.
</event>
<event>
 5   0  0.5189877E-03  0.1034190E+04  0.7818609E-02  0.9271821E-01
        1   -1    0    0  501    0  0.00000000000E+00  0.00000000000E+00  0.78858840820E+03  0.78858840821E+03  0.50400001928E-02 0.  1.
       -1   -1    0    0    0  501  0.00000000000E+00  0.00000000000E+00 -0.33907054381E+03  0.33907054385E+03  0.50400001928E-02 0. -1.
    10030    2    1    2    0    0  0.00000000000E+00  0.00000000000E+00  0.44951786439E+03  0.11276589521E+04  0.10341897320E+04 0.  0.
        3    1    3    3  502    0 -0.17002376523E+03  0.31106666417E+02 -0.30663888522E+03  0.35199875222E+03  0.10100000352E+00 0. -1.
       -3    1    3    3    0  502  0.17002376523E+03 -0.31106666417E+02  0.75615674960E+03  0.77566019984E+03  0.10100000352E+00 0.  1.
</event>
<event>
 5   0  0.3513625E-03  0.1004998E+04  0.7818609E-02  0.9303080E-01
       -3   -1    0    0    0  501  0.00000000000E+00  0.00000000000E+00  0.60716734040E+03  0.60716734880E+03  0.10100000352E+00 0.  1.
        3   -1    0    0  501    0  0.00000000000E+00  0.00000000000E+00 -0.41587456444E+03  0.41587457671E+03  0.10100000352E+00 0. -1.
    10030    2    1    2    0    0  0.00000000000E+00  0.00000000000E+00  0.19129277596E+03  0.10230419255E+04  0.10049984354E+04 0.  0.
        1    1    3    3  502    0  0.18192216329E+03  0.35647727822E+03 -0.21367379672E+03  0.45368294525E+03  0.50400001928E-02 0.  1.
       -1    1    3    3    0  502 -0.18192216329E+03 -0.35647727822E+03  0.40496657267E+03  0.56935898025E+03  0.50400001928E-02 0. -1.
</event>
<event>
 5   0  0.5349685E-03  0.1001172E+04  0.7818609E-02  0.9307260E-01
       -1   -1    0    0    0  501  0.00000000000E+00  0.00000000000E+00  0.50760225756E+03  0.50760225759E+03  0.50400001928E-02 0. -1.
        1   -1    0    0  501    0  0.00000000000E+00  0.00000000000E+00 -0.49366711266E+03  0.49366711269E+03  0.50400001928E-02 0.  1.
    10030    2    1    2    0    0  0.00000000000E+00  0.00000000000E+00  0.13935144904E+02  0.10012693703E+04  0.10011723945E+04 0.  0.
        4    1    3    3  502    0  0.47591093818E+03  0.22696650384E+02  0.16053559304E+03  0.50277196476E+03  0.12699999809E+01 0. -1.
       -4    1    3    3    0  502 -0.47591093818E+03 -0.22696650384E+02 -0.14660044813E+03  0.49849740552E+03  0.12699999809E+01 0.  1.
</event>
<event>
 5   0  0.8875655E-03  0.9479192E+03  0.7818609E-02  0.9367586E-01
        2   -1    0    0  501    0  0.00000000000E+00  0.00000000000E+00  0.27099818045E+03  0.27099818046E+03  0.25500000920E-02 0.  1.
       -2   -1    0    0    0  501  0.00000000000E+00  0.00000000000E+00 -0.82892690511E+03  0.82892690511E+03  0.25500000920E-02 0. -1.
    10030    2    1    2    0    0  0.00000000000E+00  0.00000000000E+00 -0.55792872466E+03  0.10999250856E+04  0.94791915904E+03 0.  0.
        4    1    3    3  502    0 -0.31721973263E+03 -0.24920405647E+03  0.97409955214E+01  0.40351892202E+03  0.12699999809E+01 0.  1.
       -4    1    3    3    0  502  0.31721973263E+03  0.24920405647E+03 -0.56766972018E+03  0.69640616356E+03  0.12699999809E+01 0. -1.
</event>
<event>
 5   0  0.5349685E-03  0.9955104E+03  0.7818609E-02  0.9313483E-01
       -1   -1    0    0    0  501  0.00000000000E+00  0.00000000000E+00  0.29456115443E+03  0.29456115448E+03  0.50400001928E-02 0.  1.
        1   -1    0    0  501    0  0.00000000000E+00  0.00000000000E+00 -0.84111653048E+03  0.84111653050E+03  0.50400001928E-02 0. -1.
    10030    2    1    2    0    0  0.00000000000E+00  0.00000000000E+00 -0.54655537605E+03  0.11356776850E+04  0.99551043443E+03 0.  0.
        4    1    3    3  502    0 -0.20204272863E+03  0.35522573210E+03 -0.59745758265E+03  0.72385341119E+03  0.12699999809E+01 0. -1.
       -4    1    3    3    0  502  0.20204272863E+03 -0.35522573210E+03  0.50902206599E+02  0.41182427378E+03  0.12699999809E+01 0.  1.
</event>
<event>
 5   0  0.8907355E-03  0.9601014E+03  0.7818609E-02  0.9353421E-01
        2   -1    0    0  501    0  0.00000000000E+00  0.00000000000E+00  0.63186709164E+03  0.63186709165E+03  0.25500000920E-02 0.  1.
       -2   -1    0    0    0  501  0.00000000000E+00  0.00000000000E+00 -0.36471068654E+03  0.36471068654E+03  0.25500000920E-02 0. -1.
    10030    2    1    2    0    0  0.00000000000E+00  0.00000000000E+00  0.26715640511E+03  0.99657777819E+03  0.96010141298E+03 0.  0.
        5    1    3    3  502    0 -0.14234153845E+03  0.44079401293E+03  0.26432449861E+03  0.53333854724E+03  0.46999998093E+01 0.  1.
       -5    1    3    3    0  502  0.14234153845E+03 -0.44079401293E+03  0.28319064947E+01  0.46323923096E+03  0.46999998093E+01 0. -1.
</event>
<event>
 5   0  0.5189877E-03  0.9889184E+03  0.7818609E-02  0.9320783E-01
       -1   -1    0    0    0  501  0.00000000000E+00  0.00000000000E+00  0.38238024189E+03  0.38238024192E+03  0.50400001928E-02 0. -1.
        1   -1    0    0  501    0  0.00000000000E+00  0.00000000000E+00 -0.63938951123E+03  0.63938951125E+03  0.50400001928E-02 0.  1.
    10030    2    1    2    0    0  0.00000000000E+00  0.00000000000E+00 -0.25700926934E+03  0.10217697532E+04  0.98891843140E+03 0.  0.
        3    1    3    3  502    0  0.54164603317E+02  0.48014853416E+03 -0.20073254284E+02  0.48361075758E+03  0.10100000352E+00 0. -1.
       -3    1    3    3    0  502 -0.54164603317E+02 -0.48014853416E+03 -0.23693601506E+03  0.53815899559E+03  0.10100000352E+00 0.  1.
</event>
<event>
 5   0  0.8968798E-03  0.9950592E+03  0.7818609E-02  0.9313980E-01
       -2   -1    0    0    0  501  0.00000000000E+00  0.00000000000E+00  0.30234746998E+03  0.30234746999E+03  0.25500000920E-02 0. -1.
        2   -1    0    0  501    0  0.00000000000E+00  0.00000000000E+00 -0.81871265357E+03  0.81871265358E+03  0.25500000920E-02 0.  1.
    10030    2    1    2    0    0  0.00000000000E+00  0.00000000000E+00 -0.51636518360E+03  0.11210601236E+04  0.99505919312E+03 0.  0.
        2    1    3    3  502    0  0.24144949315E+02  0.44202636464E+03 -0.23480138723E+01  0.44269153910E+03  0.25500000920E-02 0. -1.
       -2    1    3    3    0  502 -0.24144949315E+02 -0.44202636464E+03 -0.51401716973E+03  0.67836858447E+03  0.25500000920E-02 0.  1.
</event>
<event>
 5   0  0.8875655E-03  0.9889121E+03  0.7818609E-02  0.9320790E-01
       -2   -1    0    0    0  501  0.00000000000E+00  0.00000000000E+00  0.19483237861E+03  0.19483237863E+03  0.25500000920E-02 0. -1.
        2   -1    0    0  501    0  0.00000000000E+00  0.00000000000E+00 -0.12548569681E+04  0.12548569681E+04  0.25500000920E-02 0.  1.
    10030    2    1    2    0    0  0.00000000000E+00  0.00000000000E+00 -0.10600245895E+04  0.14496893468E+04  0.98891206471E+03 0.  0.
        4    1    3    3  502    0  0.44806627272E+03  0.34223348347E+02 -0.22762065992E+03  0.50373346131E+03  0.12699999809E+01 0.  1.
       -4    1    3    3    0  502 -0.44806627272E+03 -0.34223348347E+02 -0.83240392961E+03  0.94595588546E+03  0.12699999809E+01 0. -1.
</event>
<event>
 5   0  0.8968798E-03  0.9923428E+03  0.7818609E-02  0.9316983E-01
        2   -1    0    0  501    0  0.00000000000E+00  0.00000000000E+00  0.50229298045E+03  0.50229298046E+03  0.25500000920E-02 0.  1.
       -2   -1    0    0    0  501  0.00000000000E+00  0.00000000000E+00 -0.49012447067E+03  0.49012447068E+03  0.25500000920E-02 0. -1.
    10030    2    1    2    0    0  0.00000000000E+00  0.00000000000E+00  0.12168509780E+02  0.99241745113E+03  0.99234284634E+03 0.  0.
        2    1    3    3  502    0  0.14223922680E+03  0.43451715957E+03 -0.18667079048E+03  0.49384526284E+03  0.25500000920E-02 0. -1.
       -2    1    3    3    0  502 -0.14223922680E+03 -0.43451715957E+03  0.19883930026E+03  0.49857218829E+03  0.25500000920E-02 0.  1.
</event>
<event>
 5   0  0.5349685E-03  0.1001665E+04  0.7818609E-02  0.9306721E-01
       -1   -1    0    0    0  501  0.00000000000E+00  0.00000000000E+00  0.22417713266E+03  0.22417713272E+03  0.50400001928E-02 0. -1.
        1   -1    0    0  501    0  0.00000000000E+00  0.00000000000E+00 -0.11189056460E+04  0.11189056460E+04  0.50400001928E-02 0.  1.
    10030    2    1    2    0    0  0.00000000000E+00  0.00000000000E+00 -0.89472851337E+03  0.13430827788E+04  0.10016647333E+04 0.  0.
        4    1    3    3  502    0 -0.89537290127E+01  0.16010484825E+03  0.18882339173E+03  0.24772892012E+03  0.12699999809E+01 0. -1.
       -4    1    3    3    0  502  0.89537290127E+01 -0.16010484825E+03 -0.10835519051E+04  0.10953538586E+04  0.12699999809E+01 0.  1.
</event>
<event>
 5   0  0.8907355E-03  0.9792530E+03  0.7818609E-02  0.9331597E-01
       -2   -1    0    0    0  501  0.00000000000E+00  0.00000000000E+00  0.25645599131E+03  0.25645599132E+03  0.25500000920E-02 0.  1.
        2   -1    0    0  501    0  0.00000000000E+00  0.00000000000E+00 -0.93479622490E+03  0.93479622490E+03  0.25500000920E-02 0. -1.
    10030    2    1    2    0    0  0.00000000000E+00  0.00000000000E+00 -0.67834023359E+03  0.11912522162E+04  0.97925296535E+03 0.  0.
        5    1    3    3  502    0  0.11090094476E+03 -0.10301219941E+03 -0.90559188748E+03  0.91816626460E+03  0.46999998093E+01 0. -1.
       -5    1    3    3    0  502 -0.11090094476E+03  0.10301219941E+03  0.22725165389E+03  0.27308595162E+03  0.46999998093E+01 0.  1.
</event>
<event>
 5   0  0.5201968E-03  0.9927911E+03  0.7818609E-02  0.9316487E-01
       -1   -1    0    0    0  501  0.00000000000E+00  0.00000000000E+00  0.96632028498E+03  0.96632028499E+03  0.50400001928E-02 0.  1.
        1   -1    0    0  501    0  0.00000000000E+00  0.00000000000E+00 -0.25499676148E+03  0.25499676153E+03  0.50400001928E-02 0. -1.
    10030    2    1    2    0    0  0.00000000000E+00  0.00000000000E+00  0.71132352350E+03  0.12213170465E+04  0.99279110241E+03 0.  0.
        2    1    3    3  502    0 -0.29834579458E+03 -0.31699460272E+03  0.64913961627E+03  0.78158686831E+03  0.25500000920E-02 0.  1.
       -2    1    3    3    0  502  0.29834579458E+03  0.31699460272E+03  0.62183907224E+02  0.43973017820E+03  0.25500000920E-02 0. -1.
</event>
<event>
 5   0  0.5310275E-03  0.9740241E+03  0.7818609E-02  0.9337503E-01
       -1   -1    0    0    0  501  0.00000000000E+00  0.00000000000E+00  0.30968985281E+03  0.30968985285E+03  0.50400001928E-02 0.  1.
        1   -1    0    0  501    0  0.00000000000E+00  0.00000000000E+00 -0.76586536044E+03  0.76586536046E+03  0.50400001928E-02 0. -1.
    10030    2    1    2    0    0  0.00000000000E+00  0.00000000000E+00 -0.45617550763E+03  0.10755552133E+04  0.97402408755E+03 0.  0.
        1    1    3    3  502    0 -0.32125702240E+03 -0.29834503922E+03 -0.46224079297E+03  0.63708899502E+03  0.50400001928E-02 0.  1.
       -1    1    3    3    0  502  0.32125702240E+03  0.29834503922E+03  0.60652853396E+01  0.43846621829E+03  0.50400001928E-02 0. -1.
</event>
<event>
 5   0  0.5072205E-03  0.1000801E+04  0.7818609E-02  0.9307667E-01
        1   -1    0    0  501    0  0.00000000000E+00  0.00000000000E+00  0.36236047945E+03  0.36236047948E+03  0.50400001928E-02 0. -1.
       -1   -1    0    0    0  501  0.00000000000E+00  0.00000000000E+00 -0.69102652393E+03  0.69102652394E+03  0.50400001928E-02 0.  1.
    10030    2    1    2    0    0  0.00000000000E+00  0.00000000000E+00 -0.32866604448E+03  0.10533870034E+04  0.10008010842E+04 0.  0.
        5    1    3    3  502    0 -0.85866301135E+02  0.33282927834E+03  0.21840853401E+03  0.40727475728E+03  0.46999998093E+01 0.  1.
       -5    1    3    3    0  502  0.85866301135E+02 -0.33282927834E+03 -0.54707457849E+03  0.64611224615E+03  0.46999998093E+01 0. -1.
</event>
<event>
 5   0  0.5349685E-03  0.1002750E+04  0.7818609E-02  0.9305534E-01
        1   -1    0    0  501    0  0.00000000000E+00  0.00000000000E+00  0.32413270296E+03  0.32413270300E+03  0.50400001928E-02 0. -1.
       -1   -1    0    0    0  501  0.00000000000E+00  0.00000000000E+00 -0.77553734124E+03  0.77553734126E+03  0.50400001928E-02 0.  1.
    10030    2    1    2    0    0  0.00000000000E+00  0.00000000000E+00 -0.45140463828E+03  0.10996700443E+04  0.10027502475E+04 0.  0.
        4    1    3    3  502    0  0.27509751700E+03 -0.29132407399E+02 -0.68426639290E+03  0.73807143988E+03  0.12699999809E+01 0.  1.
       -4    1    3    3    0  502 -0.27509751700E+03  0.29132407399E+02  0.23286175462E+03  0.36159860437E+03  0.12699999809E+01 0. -1.
</event>
<event>
 5   0  0.9040674E-03  0.9198050E+03  0.7818609E-02  0.9401157E-01
       -2   -1    0    0    0  501  0.00000000000E+00  0.00000000000E+00  0.20688845000E+03  0.20688845002E+03  0.25500000920E-02 0. -1.
        2   -1    0    0  501    0  0.00000000000E+00  0.00000000000E+00 -0.10223398892E+04  0.10223398892E+04  0.25500000920E-02 0.  1.
    10030    2    1    2    0    0  0.00000000000E+00  0.00000000000E+00 -0.81545143919E+03  0.12292283392E+04  0.91980501209E+03 0.  0.
        1    1    3    3  502    0  0.25470004747E+03 -0.35680780774E+03 -0.59351136391E+03  0.73786154864E+03  0.50400001928E-02 0.  1.
       -1    1    3    3    0  502 -0.25470004747E+03  0.35680780774E+03 -0.22194007528E+03  0.49136679058E+03  0.50400001928E-02 0. -1.
</event>
<event>
 5   0  0.5310275E-03  0.9925142E+03  0.7818609E-02  0.9316793E-01
        1   -1    0    0  501    0  0.00000000000E+00  0.00000000000E+00  0.87474847914E+03  0.87474847916E+03  0.50400001928E-02 0. -1.
       -1   -1    0    0    0  501  0.00000000000E+00  0.00000000000E+00 -0.28153360403E+03  0.28153360408E+03  0.50400001928E-02 0.  1.
    10030    2    1    2    0    0  0.00000000000E+00  0.00000000000E+00  0.59321487511E+03  0.11562820832E+04  0.99251416512E+03 0.  0.
        1    1    3    3  502    0 -0.48684775225E+03 -0.82963512166E+02  0.23992295783E+03  0.54905983639E+03  0.50400001928E-02 0.  1.
       -1    1    3    3    0  502  0.48684775225E+03  0.82963512166E+02  0.35329191728E+03  0.60722224684E+03  0.50400001928E-02 0. -1.
</event>
<event>
 5   0  0.9243773E-03  0.9816322E+03  0.7818609E-02  0.9328923E-01
        2   -1    0    0  501    0  0.00000000000E+00  0.00000000000E+00  0.16365348087E+04  0.16365348087E+04  0.25500000920E-02 0.  1.
       -2   -1    0    0    0  501  0.00000000000E+00  0.00000000000E+00 -0.14720152743E+03  0.14720152745E+03  0.25500000920E-02 0. -1.
    10030    2    1    2    0    0  0.00000000000E+00  0.00000000000E+00  0.14893332813E+04  0.17837363362E+04  0.98163215830E+03 0.  0.
        3    1    3    3  502    0 -0.18600080568E+03 -0.20634934628E+03  0.94113877077E+01  0.27796571163E+03  0.10100000352E+00 0. -1.
       -3    1    3    3    0  502  0.18600080568E+03  0.20634934628E+03  0.14799218936E+04  0.15057706245E+04  0.10100000352E+00 0.  1.
</event>
<event>
 5   0  0.9040674E-03  0.9973867E+03  0.7818609E-02  0.9311416E-01
        2   -1    0    0  501    0  0.00000000000E+00  0.00000000000E+00  0.69767534442E+03  0.69767534442E+03  0.25500000920E-02 0.  1.
       -2   -1    0    0    0  501  0.00000000000E+00  0.00000000000E+00 -0.35646246086E+03  0.35646246087E+03  0.25500000920E-02 0. -1.
    10030    2    1    2    0    0  0.00000000000E+00  0.00000000000E+00  0.34121288356E+03  0.10541378053E+04  0.99738672572E+03 0.  0.
        1    1    3    3  502    0 -0.21295368334E+03  0.11600256313E+03 -0.28995114666E+03  0.37799144616E+03  0.50400001928E-02 0. -1.
       -1    1    3    3    0  502  0.21295368334E+03 -0.11600256313E+03  0.63116403022E+03  0.67614635913E+03  0.50400001928E-02 0.  1.
</event>
<event>
 5   0  0.9040674E-03  0.9732174E+03  0.7818609E-02  0.9338417E-01
        2   -1    0    0  501    0  0.00000000000E+00  0.00000000000E+00  0.21367988226E+04  0.21367988226E+04  0.25500000920E-02 0.  1.
       -2   -1    0    0    0  501  0.00000000000E+00  0.00000000000E+00 -0.11081437731E+03  0.11081437734E+03  0.25500000920E-02 0. -1.
    10030    2    1    2    0    0  0.00000000000E+00  0.00000000000E+00  0.20259844453E+04  0.22476131999E+04  0.97321740840E+03 0.  0.
        1    1    3    3  502    0  0.44455087429E+03 -0.23126176321E+02  0.14668933956E+04  0.15329502712E+04  0.50400001928E-02 0.  1.
       -1    1    3    3    0  502 -0.44455087429E+03  0.23126176321E+02  0.55909104970E+03  0.71466292876E+03  0.50400001928E-02 0. -1.
</event>
<event>
 5   0  0.8907355E-03  0.1021178E+04  0.7818609E-02  0.9285617E-01
        2   -1    0    0  501    0  0.00000000000E+00  0.00000000000E+00  0.11649434652E+04  0.11649434652E+04  0.25500000920E-02 0.  1.
       -2   -1    0    0    0  501  0.00000000000E+00  0.00000000000E+00 -0.22378876616E+03  0.22378876617E+03  0.25500000920E-02 0. -1.
    10030    2    1    2    0    0  0.00000000000E+00  0.00000000000E+00  0.94115469900E+03  0.13887322313E+04  0.10211782621E+04 0.  0.
        5    1    3    3  502    0  0.10836987876E+02  0.27882979586E+03  0.10520424714E+04  0.10884295783E+04  0.46999998093E+01 0.  1.
       -5    1    3    3    0  502 -0.10836987876E+02 -0.27882979586E+03 -0.11088777235E+03  0.30030265304E+03  0.46999998093E+01 0. -1.
</event>
<event>
 5   0  0.5072205E-03  0.9984413E+03  0.7818609E-02  0.9310256E-01
       -1   -1    0    0    0  501  0.00000000000E+00  0.00000000000E+00  0.23732367164E+03  0.23732367170E+03  0.50400001928E-02 0. -1.
        1   -1    0    0  501    0  0.00000000000E+00  0.00000000000E+00 -0.10501323297E+04  0.10501323297E+04  0.50400001928E-02 0.  1.
    10030    2    1    2    0    0  0.00000000000E+00  0.00000000000E+00 -0.81280865805E+03  0.12874560014E+04  0.99844130571E+03 0.  0.
        5    1    3    3  502    0  0.19985022351E+03 -0.84638199157E+01 -0.99616748900E+03  0.10160627462E+04  0.46999998093E+01 0.  1.
       -5    1    3    3    0  502 -0.19985022351E+03  0.84638199157E+01  0.18335883095E+03  0.27139325520E+03  0.46999998093E+01 0. -1.
</event>
<event>
 5   0  0.9243773E-03  0.1003452E+04  0.7818609E-02  0.9304766E-01
       -2   -1    0    0    0  501  0.00000000000E+00  0.00000000000E+00  0.30941717022E+03  0.30941717023E+03  0.25500000920E-02 0.  1.
        2   -1    0    0  501    0  0.00000000000E+00  0.00000000000E+00 -0.81355908911E+03  0.81355908912E+03  0.25500000920E-02 0. -1.
    10030    2    1    2    0    0  0.00000000000E+00  0.00000000000E+00 -0.50414191889E+03  0.11229762593E+04  0.10034523430E+04 0.  0.
        3    1    3    3  502    0 -0.14925377468E+03 -0.11855184779E+01 -0.78813767767E+03  0.80214656010E+03  0.10100000352E+00 0. -1.
       -3    1    3    3    0  502  0.14925377468E+03  0.11855184779E+01  0.28399575878E+03  0.32082969924E+03  0.10100000352E+00 0.  1.
</event>
<event>
 5   0  0.5201968E-03  0.1034597E+04  0.7818609E-02  0.9271393E-01
        1   -1    0    0  501    0  0.00000000000E+00  0.00000000000E+00  0.43363857351E+03  0.43363857354E+03  0.50400001928E-02 0.  1.
       -1   -1    0    0    0  501  0.00000000000E+00  0.00000000000E+00 -0.61709851841E+03  0.61709851843E+03  0.50400001928E-02 0. -1.
    10030    2    1    2    0    0  0.00000000000E+00  0.00000000000E+00 -0.18345994491E+03  0.10507370920E+04  0.10345969675E+04 0.  0.
        2    1    3    3  502    0 -0.14216427192E+03  0.48770087183E+03  0.74401726651E+01  0.50805332080E+03  0.25500000920E-02 0. -1.
       -2    1    3    3    0  502  0.14216427192E+03 -0.48770087183E+03 -0.19090011757E+03  0.54268377117E+03  0.25500000920E-02 0.  1.
</event>
<event>
 5   0  0.5310275E-03  0.9742360E+03  0.7818609E-02  0.9337263E-01
        1   -1    0    0  501    0  0.00000000000E+00  0.00000000000E+00  0.37867769483E+03  0.37867769486E+03  0.50400001928E-02 0. -1.
       -1   -1    0    0    0  501  0.00000000000E+00  0.00000000000E+00 -0.62661189555E+03  0.62661189558E+03  0.50400001928E-02 0.  1.
    10030    2    1    2    0    0  0.00000000000E+00  0.00000000000E+00 -0.24793420072E+03  0.10052895904E+04  0.97423600465E+03 0.  0.
        1    1    3    3  502    0  0.17576225427E+03  0.38056880463E+03 -0.37998637205E+03  0.56578673372E+03  0.50400001928E-02 0.  1.
       -1    1    3    3    0  502 -0.17576225427E+03 -0.38056880463E+03  0.13205217133E+03  0.43950285672E+03  0.50400001928E-02 0. -1.
</event>
<event>
 5   0  0.5189877E-03  0.9935723E+03  0.7818609E-02  0.9315623E-01
       -1   -1    0    0    0  501  0.00000000000E+00  0.00000000000E+00  0.35929529885E+03  0.35929529889E+03  0.50400001928E-02 0. -1.
        1   -1    0    0  501    0  0.00000000000E+00  0.00000000000E+00 -0.68689029685E+03  0.68689029687E+03  0.50400001928E-02 0.  1.
    10030    2    1    2    0    0  0.00000000000E+00  0.00000000000E+00 -0.32759499799E+03  0.10461855958E+04  0.99357225105E+03 0.  0.
        3    1    3    3  502    0  0.41589187298E+03  0.21879802531E+03 -0.33344340268E+03  0.57621449034E+03  0.10100000352E+00 0.  1.
       -3    1    3    3    0  502 -0.41589187298E+03 -0.21879802531E+03  0.58484046843E+01  0.46997110542E+03  0.10100000352E+00 0. -1.
</event>
<event>
 5   0  0.5189877E-03  0.1000573E+04  0.7818609E-02  0.9307917E-01
       -1   -1    0    0    0  501  0.00000000000E+00  0.00000000000E+00  0.29058161391E+03  0.29058161396E+03  0.50400001928E-02 0.  1.
        1   -1    0    0  501    0  0.00000000000E+00  0.00000000000E+00 -0.86132939738E+03  0.86132939740E+03  0.50400001928E-02 0. -1.
    10030    2    1    2    0    0  0.00000000000E+00  0.00000000000E+00 -0.57074778347E+03  0.11519110114E+04  0.10005728088E+04 0.  0.
        3    1    3    3  502    0 -0.18149520690E+03 -0.11387524827E+03  0.23508654801E+03  0.31807825697E+03  0.10100000352E+00 0.  1.
       -3    1    3    3    0  502  0.18149520690E+03  0.11387524827E+03 -0.80583433148E+03  0.83383275439E+03  0.10100000352E+00 0. -1.
</event>
<event>
 5   0  0.8968798E-03  0.9986121E+03  0.7818609E-02  0.9310068E-01
        2   -1    0    0  501    0  0.00000000000E+00  0.00000000000E+00  0.66591531840E+03  0.66591531840E+03  0.25500000920E-02 0. -1.
       -2   -1    0    0    0  501  0.00000000000E+00  0.00000000000E+00 -0.37438170954E+03  0.37438170955E+03  0.25500000920E-02 0.  1.
    10030    2    1    2    0    0  0.00000000000E+00  0.00000000000E+00  0.29153360886E+03  0.10402970280E+04  0.99861206745E+03 0.  0.
        2    1    3    3  502    0  0.25885800560E+03 -0.38457810548E+03  0.33897775898E+03  0.57429409484E+03  0.25500000920E-02 0. -1.
       -2    1    3    3    0  502 -0.25885800560E+03  0.38457810548E+03 -0.47444150115E+02  0.46600293311E+03  0.25500000920E-02 0.  1.
</event>
<event>
 5   0  0.5072205E-03  0.9830227E+03  0.7818609E-02  0.9327364E-01
        1   -1    0    0  501    0  0.00000000000E+00  0.00000000000E+00  0.90699243677E+03  0.90699243678E+03  0.50400001928E-02 0.  1.
       -1   -1    0    0    0  501  0.00000000000E+00  0.00000000000E+00 -0.26635660484E+03  0.26635660489E+03  0.50400001928E-02 0. -1.
    10030    2    1    2    0    0  0.00000000000E+00  0.00000000000E+00  0.64063583192E+03  0.11733490417E+04  0.98302273852E+03 0.  0.
        5    1    3    3  502    0 -0.28369697585E+03  0.28119480931E+03 -0.21495182566E+02  0.40004828179E+03  0.46999998093E+01 0. -1.
       -5    1    3    3    0  502  0.28369697585E+03 -0.28119480931E+03  0.66213101449E+03  0.77330075989E+03  0.46999998093E+01 0.  1.
</event>
<event>
 5   0  0.8907355E-03  0.9041543E+03  0.7818609E-02  0.9420403E-01
        2   -1    0    0  501    0  0.00000000000E+00  0.00000000000E+00  0.18821401272E+04  0.18821401272E+04  0.25500000920E-02 0. -1.
       -2   -1    0    0    0  501  0.00000000000E+00  0.00000000000E+00 -0.10858583473E+03  0.10858583476E+03  0.25500000920E-02 0.  1.
    10030    2    1    2    0    0  0.00000000000E+00  0.00000000000E+00  0.17735542924E+04  0.19907259619E+04  0.90415431605E+03 0.  0.
        5    1    3    3  502    0 -0.30457412737E+03 -0.45846352868E+02  0.16153030554E+04  0.16444127638E+04  0.46999998093E+01 0. -1.
       -5    1    3    3    0  502  0.30457412737E+03  0.45846352868E+02  0.15825123703E+03  0.34631319807E+03  0.46999998093E+01 0.  1.
</event>
<event>
 5   0  0.5201968E-03  0.1076535E+04  0.7818609E-02  0.9228369E-01
       -1   -1    0    0    0  501  0.00000000000E+00  0.00000000000E+00  0.87947218308E+03  0.87947218310E+03  0.50400001928E-02 0. -1.
        1   -1    0    0  501    0  0.00000000000E+00  0.00000000000E+00 -0.32943842664E+03  0.32943842668E+03  0.50400001928E-02 0.  1.
    10030    2    1    2    0    0  0.00000000000E+00  0.00000000000E+00  0.55003375644E+03  0.12089106098E+04  0.10765350571E+04 0.  0.
        2    1    3    3  502    0  0.37641243080E+03 -0.22937050315E+03  0.62192891213E+03  0.76229437721E+03  0.25500000920E-02 0. -1.
       -2    1    3    3    0  502 -0.37641243080E+03  0.22937050315E+03 -0.71895155690E+02  0.44661623257E+03  0.25500000920E-02 0.  1.
</event>
<event>
 5   0  0.3513625E-03  0.1008342E+04  0.7818609E-02  0.9299442E-01
       -4   -1    0    0    0  501  0.00000000000E+00  0.00000000000E+00  0.10701965712E+04  0.10701973248E+04  0.12699999809E+01 0.  1.
        4   -1    0    0  501    0  0.00000000000E+00  0.00000000000E+00 -0.23751313550E+03  0.23751653087E+03  0.12699999809E+01 0. -1.
    10030    2    1    2    0    0  0.00000000000E+00  0.00000000000E+00  0.83268343574E+03  0.13077138557E+04  0.10083421166E+04 0.  0.
        4    1    3    3  502    0 -0.28926091140E+03 -0.36798666038E+02 -0.11706037716E+03  0.31421451508E+03  0.12699999809E+01 0. -1.
       -4    1    3    3    0  502  0.28926091140E+03  0.36798666038E+02  0.94974381290E+03  0.99349934057E+03  0.12699999809E+01 0.  1.
</event>
<event>
 5   0  0.5310275E-03  0.1004864E+04  0.7818609E-02  0.9303226E-01
       -1   -1    0    0    0  501  0.00000000000E+00  0.00000000000E+00  0.34897399096E+03  0.34897399100E+03  0.50400001928E-02 0. -1.
        1   -1    0    0  501    0  0.00000000000E+00  0.00000000000E+00 -0.72337217277E+03  0.72337217279E+03  0.50400001928E-02 0.  1.
    10030    2    1    2    0    0  0.00000000000E+00  0.00000000000E+00 -0.37439818181E+03  0.10723461638E+04  0.10048643174E+04 0.  0.
        1    1    3    3  502    0  0.64076503305E+02  0.37264806327E+03 -0.54027379235E+03  0.65944533364E+03  0.50400001928E-02 0.  1.
       -1    1    3    3    0  502 -0.64076503305E+02 -0.37264806327E+03  0.16587561054E+03  0.41290083015E+03  0.50400001928E-02 0. -1.
</event>
<event>
 5   0  0.5201968E-03  0.9968201E+03  0.7818609E-02  0.9312039E-01
       -1   -1    0    0    0  501  0.00000000000E+00  0.00000000000E+00  0.44316980339E+03  0.44316980342E+03  0.50400001928E-02 0. -1.
        1   -1    0    0  501    0  0.00000000000E+00  0.00000000000E+00 -0.56053585325E+03  0.56053585327E+03  0.50400001928E-02 0.  1.
    10030    2    1    2    0    0  0.00000000000E+00  0.00000000000E+00 -0.11736604985E+03  0.10037056567E+04  0.99682007183E+03 0.  0.
        2    1    3    3  502    0 -0.19537838189E+03 -0.19840712889E+03 -0.47490804106E+03  0.55052315880E+03  0.25500000920E-02 0.  1.
       -2    1    3    3    0  502  0.19537838189E+03  0.19840712889E+03  0.35754199121E+03  0.45318249789E+03  0.25500000920E-02 0. -1.
</event>
<event>
 5   0  0.9040674E-03  0.1038770E+04  0.7818609E-02  0.9267016E-01
       -2   -1    0    0    0  501  0.00000000000E+00  0.00000000000E+00  0.16731946766E+03  0.16731946768E+03  0.25500000920E-02 0. -1.
        2   -1    0    0  501    0  0.00000000000E+00  0.00000000000E+00 -0.16122496438E+04  0.16122496438E+04  0.25500000920E-02 0.  1.
    10030    2    1    2    0    0  0.00000000000E+00  0.00000000000E+00 -0.14449301761E+04  0.17795691115E+04  0.10387699498E+04 0.  0.
        1    1    3    3  502    0  0.16969110329E+03  0.19607180671E+03  0.48493550927E+02  0.26380077412E+03  0.50400001928E-02 0. -1.
       -1    1    3    3    0  502 -0.16969110329E+03 -0.19607180671E+03 -0.14934237271E+04  0.15157683374E+04  0.50400001928E-02 0.  1.
</event>
<event>
 5   0  0.9040674E-03  0.1045339E+04  0.7818609E-02  0.9260169E-01
        2   -1    0    0  501    0  0.00000000000E+00  0.00000000000E+00  0.16427141332E+04  0.16427141332E+04  0.25500000920E-02 0.  1.
       -2   -1    0    0    0  501  0.00000000000E+00  0.00000000000E+00 -0.16630006118E+03  0.16630006119E+03  0.25500000920E-02 0. -1.
    10030    2    1    2    0    0  0.00000000000E+00  0.00000000000E+00  0.14764140720E+04  0.18090141944E+04  0.10453391045E+04 0.  0.
        1    1    3    3  502    0 -0.38476478320E+03 -0.30475149571E+02  0.12829888768E+03  0.40673489860E+03  0.50400001928E-02 0. -1.
       -1    1    3    3    0  502  0.38476478320E+03  0.30475149571E+02  0.13481151843E+04  0.14022792958E+04  0.50400001928E-02 0.  1.
</event>
<event>
 5   0  0.5072205E-03  0.9523944E+03  0.7818609E-02  0.9362356E-01
        1   -1    0    0  501    0  0.00000000000E+00  0.00000000000E+00  0.67844530759E+03  0.67844530761E+03  0.50400001928E-02 0.  1.
       -1   -1    0    0    0  501  0.00000000000E+00  0.00000000000E+00 -0.33424032560E+03  0.33424032563E+03  0.50400001928E-02 0. -1.
    10030    2    1    2    0    0  0.00000000000E+00  0.00000000000E+00  0.34420498199E+03  0.10126856332E+04  0.95239441522E+03 0.  0.
        5    1    3    3  502    0 -0.87551098552E+02 -0.77306745021E+02  0.66295351293E+03  0.67317975162E+03  0.46999998093E+01 0.  1.
       -5    1    3    3    0  502  0.87551098552E+02  0.77306745021E+02 -0.31874853094E+03  0.33950588162E+03  0.46999998093E+01 0. -1.
</event>
<event>
 5   0  0.5349685E-03  0.9993799E+03  0.7818609E-02  0.9309225E-01
        1   -1    0    0  501    0  0.00000000000E+00  0.00000000000E+00  0.55178143179E+03  0.55178143181E+03  0.50400001928E-02 0. -1.
       -1   -1    0    0    0  501  0.00000000000E+00  0.00000000000E+00 -0.45251626121E+03  0.45251626123E+03  0.50400001928E-02 0.  1.
    10030    2    1    2    0    0  0.00000000000E+00  0.00000000000E+00  0.99265170586E+02  0.10042976930E+04  0.99937994885E+03 0.  0.
        4    1    3    3  502    0 -0.31342783655E+03 -0.26727336690E+03 -0.23463106419E+03  0.47405211798E+03  0.12699999809E+01 0. -1.
       -4    1    3    3    0  502  0.31342783655E+03  0.26727336690E+03  0.33389623478E+03  0.53024557507E+03  0.12699999809E+01 0.  1.
</event>
<event>
 5   0  0.8907355E-03  0.1035578E+04  0.7818609E-02  0.9270361E-01
        2   -1    0    0  501    0  0.00000000000E+00  0.00000000000E+00  0.13700536536E+03  0.13700536538E+03  0.25500000920E-02 0. -1.
       -2   -1    0    0    0  501  0.00000000000E+00  0.00000000000E+00 -0.19568989788E+04  0.19568989788E+04  0.25500000920E-02 0.  1.
    10030    2    1    2    0    0  0.00000000000E+00  0.00000000000E+00 -0.18198936135E+04  0.20939043442E+04  0.10355784076E+04 0.  0.
        5    1    3    3  502    0  0.31990045529E+03  0.40383591887E+03 -0.80558869769E+03  0.95625048524E+03  0.46999998093E+01 0.  1.
       -5    1    3    3    0  502 -0.31990045529E+03 -0.40383591887E+03 -0.10143049158E+04  0.11376538590E+04  0.46999998093E+01 0. -1.
</event>
<event>
 5   0  0.5072205E-03  0.1018975E+04  0.7818609E-02  0.9287975E-01
       -1   -1    0    0    0  501  0.00000000000E+00  0.00000000000E+00  0.15634789087E+03  0.15634789095E+03  0.50400001928E-02 0.  1.
        1   -1    0    0  501    0  0.00000000000E+00  0.00000000000E+00 -0.16602543779E+04  0.16602543779E+04  0.50400001928E-02 0. -1.
    10030    2    1    2    0    0  0.00000000000E+00  0.00000000000E+00 -0.15039064870E+04  0.18166022689E+04  0.10189745245E+04 0.  0.
        5    1    3    3  502    0  0.43594852889E+02  0.24204621741E+03 -0.15473752047E+04  0.15668053474E+04  0.46999998093E+01 0. -1.
       -5    1    3    3    0  502 -0.43594852889E+02 -0.24204621741E+03  0.43468717651E+02  0.24979692147E+03  0.46999998093E+01 0.  1.
</event>
<event>
 5   0  0.5201968E-03  0.9445553E+03  0.7818609E-02  0.9371537E-01
       -1   -1    0    0    0  501  0.00000000000E+00  0.00000000000E+00  0.40303198056E+03  0.40303198059E+03  0.50400001928E-02 0. -1.
        1   -1    0    0  501    0  0.00000000000E+00  0.00000000000E+00 -0.55342052535E+03  0.55342052537E+03  0.50400001928E-02 0.  1.
    10030    2    1    2    0    0  0.00000000000E+00  0.00000000000E+00 -0.15038854480E+03  0.95645250596E+03  0.94455528253E+03 0.  0.
        2    1    3    3  502    0 -0.36981667163E+03 -0.32285425813E+02  0.22044106920E+03  0.43174180285E+03  0.25500000920E-02 0. -1.
       -2    1    3    3    0  502  0.36981667163E+03  0.32285425813E+02 -0.37082961400E+03  0.52471070311E+03  0.25500000920E-02 0.  1.
</event>
<event>
 5   0  0.8907355E-03  0.1012685E+04  0.7818609E-02  0.9294741E-01
        2   -1    0    0  501    0  0.00000000000E+00  0.00000000000E+00  0.11428613024E+04  0.11428613024E+04  0.25500000920E-02 0. -1.
       -2   -1    0    0    0  501  0.00000000000E+00  0.00000000000E+00 -0.22433391338E+03  0.22433391339E+03  0.25500000920E-02 0.  1.
    10030    2    1    2    0    0  0.00000000000E+00  0.00000000000E+00  0.91852738900E+03  0.13671952158E+04  0.10126846467E+04 0.  0.
        5    1    3    3  502    0  0.29768166371E+03  0.10401557076E+03  0.99408035534E+03  0.10429052952E+04  0.46999998093E+01 0. -1.
       -5    1    3    3    0  502 -0.29768166371E+03 -0.10401557076E+03 -0.75552966339E+02  0.32428992058E+03  0.46999998093E+01 0.  1.
</event>
<event>
 5   0  0.9040674E-03  0.1011777E+04  0.7818609E-02  0.9295722E-01
       -2   -1    0    0    0  501  0.00000000000E+00  0.00000000000E+00  0.10039181196E+03  0.10039181200E+03  0.25500000920E-02 0. -1.
        2   -1    0    0  501    0  0.00000000000E+00  0.00000000000E+00 -0.25492410772E+04  0.25492410772E+04  0.25500000920E-02 0.  1.
    10030    2    1    2    0    0  0.00000000000E+00  0.00000000000E+00 -0.24488492652E+04  0.26496328892E+04  0.10117765186E+04 0.  0.
        1    1    3    3  502    0  0.49377607944E+03 -0.70182089712E+02 -0.10024815549E+04  0.11196917479E+04  0.50400001928E-02 0.  1.
       -1    1    3    3    0  502 -0.49377607944E+03  0.70182089712E+02 -0.14463677103E+04  0.15299411413E+04  0.50400001928E-02 0. -1.
</event>
<event>
 5   0  0.5201968E-03  0.9601485E+03  0.7818609E-02  0.9353367E-01
       -1   -1    0    0    0  501  0.00000000000E+00  0.00000000000E+00  0.10860092433E+04  0.10860092433E+04  0.50400001928E-02 0.  1.
        1   -1    0    0  501    0  0.00000000000E+00  0.00000000000E+00 -0.21221851334E+03  0.21221851340E+03  0.50400001928E-02 0. -1.
    10030    2    1    2    0    0  0.00000000000E+00  0.00000000000E+00  0.87379072997E+03  0.12982277567E+04  0.96014846173E+03 0.  0.
        2    1    3    3  502    0 -0.27449950950E+03 -0.39372010840E+03  0.42299011879E+03  0.63975475385E+03  0.25500000920E-02 0. -1.
       -2    1    3    3    0  502  0.27449950950E+03  0.39372010840E+03  0.45080061119E+03  0.65847300288E+03  0.25500000920E-02 0.  1.
</event>
<event>
 5   0  0.5072205E-03  0.1005258E+04  0.7818609E-02  0.9302797E-01
       -1   -1    0    0    0  501  0.00000000000E+00  0.00000000000E+00  0.18176419544E+03  0.18176419551E+03  0.50400001928E-02 0.  1.
        1   -1    0    0  501    0  0.00000000000E+00  0.00000000000E+00 -0.13899095657E+04  0.13899095657E+04  0.50400001928E-02 0. -1.
    10030    2    1    2    0    0  0.00000000000E+00  0.00000000000E+00 -0.12081453703E+04  0.15716737612E+04  0.10052577660E+04 0.  0.
        5    1    3    3  502    0  0.38604047679E+03 -0.25471626320E+03 -0.91166434689E+03  0.10222825421E+04  0.46999998093E+01 0. -1.
       -5    1    3    3    0  502 -0.38604047679E+03  0.25471626320E+03 -0.29648102341E+03  0.54939121916E+03  0.46999998093E+01 0.  1.
</event>
<event>
 5   0  0.5189877E-03  0.9860530E+03  0.7818609E-02  0.9323975E-01
        1   -1    0    0  501    0  0.00000000000E+00  0.00000000000E+00  0.79301857198E+03  0.79301857200E+03  0.50400001928E-02 0. -1.
       -1   -1    0    0    0  501  0.00000000000E+00  0.00000000000E+00 -0.30651883997E+03  0.30651884001E+03  0.50400001928E-02 0.  1.
    10030    2    1    2    0    0  0.00000000000E+00  0.00000000000E+00  0.48649973201E+03  0.10995374120E+04  0.98605300627E+03 0.  0.
        3    1    3    3  502    0 -0.14430138367E+03  0.71633002704E+02  0.76283965879E+03  0.77966565374E+03  0.10100000352E+00 0. -1.
       -3    1    3    3    0  502  0.14430138367E+03 -0.71633002704E+02 -0.27633992678E+03  0.31987175827E+03  0.10100000352E+00 0.  1.
</event>
<event>
 5   0  0.5189877E-03  0.9929386E+03  0.7818609E-02  0.9316324E-01
       -1   -1    0    0    0  501  0.00000000000E+00  0.00000000000E+00  0.42786740728E+03  0.42786740731E+03  0.50400001928E-02 0. -1.
        1   -1    0    0  501    0  0.00000000000E+00  0.00000000000E+00 -0.57607044763E+03  0.57607044765E+03  0.50400001928E-02 0.  1.
    10030    2    1    2    0    0  0.00000000000E+00  0.00000000000E+00 -0.14820304034E+03  0.10039378550E+04  0.99293860609E+03 0.  0.
        3    1    3    3  502    0 -0.10117292278E+01 -0.71021355439E+02  0.42270361787E+03  0.42862969483E+03  0.10100000352E+00 0. -1.
       -3    1    3    3    0  502  0.10117292278E+01  0.71021355439E+02 -0.57090665822E+03  0.57530816014E+03  0.10100000352E+00 0.  1.
</event>
<event>
 5   0  0.5072205E-03  0.9975028E+03  0.7818609E-02  0.9311288E-01
       -1   -1    0    0    0  501  0.00000000000E+00  0.00000000000E+00  0.29974386930E+03  0.29974386935E+03  0.50400001928E-02 0.  1.
        1   -1    0    0  501    0  0.00000000000E+00  0.00000000000E+00 -0.82988506392E+03  0.82988506394E+03  0.50400001928E-02 0. -1.
    10030    2    1    2    0    0  0.00000000000E+00  0.00000000000E+00 -0.53014119462E+03  0.11296289333E+04  0.99750280234E+03 0.  0.
        5    1    3    3  502    0  0.39786496590E+03  0.19136436889E+03 -0.52777623352E+03  0.68810369526E+03  0.46999998093E+01 0. -1.
       -5    1    3    3    0  502 -0.39786496590E+03 -0.19136436889E+03 -0.23649611008E+01  0.44152523802E+03  0.46999998093E+01 0.  1.
</event>
<event>
 5   0  0.5349685E-03  0.1002482E+04  0.7818609E-02  0.9305827E-01
        1   -1    0    0  501    0  0.00000000000E+00  0.00000000000E+00  0.62189238191E+03  0.62189238193E+03  0.50400001928E-02 0.  1.
       -1   -1    0    0    0  501  0.00000000000E+00  0.00000000000E+00 -0.40399681119E+03  0.40399681122E+03  0.50400001928E-02 0. -1.
    10030    2    1    2    0    0  0.00000000000E+00  0.00000000000E+00  0.21789557072E+03  0.10258891932E+04  0.10024819983E+04 0.  0.
        4    1    3    3  502    0 -0.21676348577E+02 -0.12606757688E+03 -0.38701040708E+03  0.40760466891E+03  0.12699999809E+01 0. -1.
       -4    1    3    3    0  502  0.21676348577E+02  0.12606757688E+03  0.60490597781E+03  0.61828452424E+03  0.12699999809E+01 0.  1.
</event>
<event>
 5   0  0.5189877E-03  0.7521395E+03  0.7818609E-02  0.9632000E-01
       -1   -1    0    0    0  501  0.00000000000E+00  0.00000000000E+00  0.24842028089E+03  0.24842028094E+03  0.50400001928E-02 0. -1.
        1   -1    0    0  501    0  0.00000000000E+00  0.00000000000E+00 -0.56931122955E+03  0.56931122957E+03  0.50400001928E-02 0.  1.
    10030    2    1    2    0    0  0.00000000000E+00  0.00000000000E+00 -0.32089094866E+03  0.81773151051E+03  0.75213949660E+03 0.  0.
        3    1    3    3  502    0 -0.44684507425E+02 -0.11926354546E+03  0.22425992818E+03  0.25790119051E+03  0.10100000352E+00 0. -1.
       -3    1    3    3    0  502  0.44684507425E+02  0.11926354546E+03 -0.54515087683E+03  0.55983032000E+03  0.10100000352E+00 0.  1.
</event>
<event>
 5   0  0.8875655E-03  0.9898845E+03  0.7818609E-02  0.9319709E-01
       -2   -1    0    0    0  501  0.00000000000E+00  0.00000000000E+00  0.13897920628E+03  0.13897920630E+03  0.25500000920E-02 0. -1.
        2   -1    0    0  501    0  0.00000000000E+00  0.00000000000E+00 -0.17626220685E+04  0.17626220685E+04  0.25500000920E-02 0.  1.
    10030    2    1    2    0    0  0.00000000000E+00  0.00000000000E+00 -0.16236428622E+04  0.19016012748E+04  0.98988447015E+03 0.  0.
        4    1    3    3  502    0 -0.47770094114E+03  0.10765575745E+03 -0.95005914241E+03  0.10688320440E+04  0.12699999809E+01 0. -1.
       -4    1    3    3    0  502  0.47770094114E+03 -0.10765575745E+03 -0.67358371978E+03  0.83276923078E+03  0.12699999809E+01 0.  1.
</event>
<event>
 5   0  0.5189877E-03  0.9605024E+03  0.7818609E-02  0.9352958E-01
        1   -1    0    0  501    0  0.00000000000E+00  0.00000000000E+00  0.57354842555E+03  0.57354842557E+03  0.50400001928E-02 0. -1.
       -1   -1    0    0    0  501  0.00000000000E+00  0.00000000000E+00 -0.40213032467E+03  0.40213032470E+03  0.50400001928E-02 0.  1.
    10030    2    1    2    0    0  0.00000000000E+00  0.00000000000E+00  0.17141810088E+03  0.97567875027E+03  0.96050239897E+03 0.  0.
        3    1    3    3  502    0 -0.71275498591E+02 -0.43832216215E+03 -0.10003163423E+03  0.45520638460E+03  0.10100000352E+00 0.  1.
       -3    1    3    3    0  502  0.71275498591E+02  0.43832216215E+03  0.27144973511E+03  0.52047236567E+03  0.10100000352E+00 0. -1.
</event>
<event>
 5   0  0.9243773E-03  0.7962797E+03  0.7818609E-02  0.9565418E-01
        2   -1    0    0  501    0  0.00000000000E+00  0.00000000000E+00  0.55116705950E+03  0.55116705951E+03  0.25500000920E-02 0.  1.
       -2   -1    0    0    0  501  0.00000000000E+00  0.00000000000E+00 -0.28759946047E+03  0.28759946048E+03  0.25500000920E-02 0. -1.
    10030    2    1    2    0    0  0.00000000000E+00  0.00000000000E+00  0.26356759903E+03  0.83876651998E+03  0.79627972207E+03 0.  0.
        3    1    3    3  502    0 -0.15537925177E+03  0.60978385334E+01 -0.25429036211E+03  0.29806625770E+03  0.10100000352E+00 0. -1.
       -3    1    3    3    0  502  0.15537925177E+03 -0.60978385334E+01  0.51785796114E+03  0.54070026229E+03  0.10100000352E+00 0.  1.
</event>
<event>
 5   0  0.9243773E-03  0.1001342E+04  0.7818609E-02  0.9307074E-01
        2   -1    0    0  501    0  0.00000000000E+00  0.00000000000E+00  0.13073495778E+04  0.13073495778E+04  0.25500000920E-02 0.  1.
       -2   -1    0    0    0  501  0.00000000000E+00  0.00000000000E+00 -0.19174022295E+03  0.19174022297E+03  0.25500000920E-02 0. -1.
    10030    2    1    2    0    0  0.00000000000E+00  0.00000000000E+00  0.11156093549E+04  0.14990898008E+04  0.10013420985E+04 0.  0.
        3    1    3    3  502    0 -0.38025909813E+03 -0.23763798638E+03  0.22437994522E+03  0.50141316726E+03  0.10100000352E+00 0. -1.
       -3    1    3    3    0  502  0.38025909813E+03  0.23763798638E+03  0.89122940965E+03  0.99767663354E+03  0.10100000352E+00 0.  1.
</event>
<event>
 5   0  0.3513625E-03  0.1021340E+04  0.7818609E-02  0.9285444E-01
       -4   -1    0    0    0  501  0.00000000000E+00  0.00000000000E+00  0.71585729784E+03  0.71585842439E+03  0.12699999809E+01 0.  1.
        4   -1    0    0  501    0  0.00000000000E+00  0.00000000000E+00 -0.36429326355E+03  0.36429547728E+03  0.12699999809E+01 0. -1.
    10030    2    1    2    0    0  0.00000000000E+00  0.00000000000E+00  0.35156403429E+03  0.10801539017E+04  0.10213398950E+04 0.  0.
        4    1    3    3  502    0 -0.54398464326E+02 -0.84895602537E+01  0.71270927450E+03  0.71483381874E+03  0.12699999809E+01 0.  1.
       -4    1    3    3    0  502  0.54398464326E+02  0.84895602537E+01 -0.36114524022E+03  0.36532008292E+03  0.12699999809E+01 0. -1.
</event>
<event>
 5   0  0.8907355E-03  0.1004949E+04  0.7818609E-02  0.9303133E-01
        2   -1    0    0  501    0  0.00000000000E+00  0.00000000000E+00  0.11940929763E+04  0.11940929763E+04  0.25500000920E-02 0.  1.
       -2   -1    0    0    0  501  0.00000000000E+00  0.00000000000E+00 -0.21144142200E+03  0.21144142202E+03  0.25500000920E-02 0. -1.
    10030    2    1    2    0    0  0.00000000000E+00  0.00000000000E+00  0.98265155432E+03  0.14055343983E+04  0.10049491866E+04 0.  0.
        5    1    3    3  502    0 -0.42149880674E+03  0.27303258302E+03  0.46918562983E+03  0.68728835339E+03  0.46999998093E+01 0. -1.
       -5    1    3    3    0  502  0.42149880674E+03 -0.27303258302E+03  0.51346592449E+03  0.71824604494E+03  0.46999998093E+01 0.  1.
</event>
<event>
 5   0  0.5072205E-03  0.9362950E+03  0.7818609E-02  0.9381315E-01
       -1   -1    0    0    0  501  0.00000000000E+00  0.00000000000E+00  0.34346778089E+03  0.34346778092E+03  0.50400001928E-02 0.  1.
        1   -1    0    0  501    0  0.00000000000E+00  0.00000000000E+00 -0.63808626536E+03  0.63808626538E+03  0.50400001928E-02 0. -1.
    10030    2    1    2    0    0  0.00000000000E+00  0.00000000000E+00 -0.29461848447E+03  0.98155404631E+03  0.93629498259E+03 0.  0.
        5    1    3    3  502    0 -0.44642169282E+03 -0.76346331813E+02 -0.27143399271E+03  0.52803370403E+03  0.46999998093E+01 0. -1.
       -5    1    3    3    0  502  0.44642169282E+03  0.76346331813E+02 -0.23184491760E+02  0.45352034227E+03  0.46999998093E+01 0.  1.
</event>
<event>
 5   0  0.5201968E-03  0.9874165E+03  0.7818609E-02  0.9322455E-01
        1   -1    0    0  501    0  0.00000000000E+00  0.00000000000E+00  0.93457630232E+03  0.93457630234E+03  0.50400001928E-02 0.  1.
       -1   -1    0    0    0  501  0.00000000000E+00  0.00000000000E+00 -0.26081107838E+03  0.26081107842E+03  0.50400001928E-02 0. -1.
    10030    2    1    2    0    0  0.00000000000E+00  0.00000000000E+00  0.67376522395E+03  0.11953873808E+04  0.98741653474E+03 0.  0.
        2    1    3    3  502    0 -0.15404842638E+03 -0.29472747913E+03  0.77863934377E+03  0.84668437584E+03  0.25500000920E-02 0.  1.
       -2    1    3    3    0  502  0.15404842638E+03  0.29472747913E+03 -0.10487411982E+03  0.34870300492E+03  0.25500000920E-02 0. -1.
</event>
<event>
 5   0  0.8907355E-03  0.9973911E+03  0.7818609E-02  0.9311411E-01
       -2   -1    0    0    0  501  0.00000000000E+00  0.00000000000E+00  0.31263623671E+03  0.31263623672E+03  0.25500000920E-02 0.  1.
        2   -1    0    0  501    0  0.00000000000E+00  0.00000000000E+00 -0.79548440416E+03  0.79548440416E+03  0.25500000920E-02 0. -1.
    10030    2    1    2    0    0  0.00000000000E+00  0.00000000000E+00 -0.48284816745E+03  0.11081206409E+04  0.99739109778E+03 0.  0.
        5    1    3    3  502    0  0.88881136189E+02 -0.44400241326E+03 -0.93376251927E+01  0.45293187191E+03  0.46999998093E+01 0.  1.
       -5    1    3    3    0  502 -0.88881136189E+02  0.44400241326E+03 -0.47351054226E+03  0.65518876897E+03  0.46999998093E+01 0. -1.
</event>
<event>
 5   0  0.9040674E-03  0.1029801E+04  0.7818609E-02  0.9276451E-01
       -2   -1    0    0    0  501  0.00000000000E+00  0.00000000000E+00  0.64167473921E+03  0.64167473921E+03  0.25500000920E-02 0.  1.
        2   -1    0    0  501    0  0.00000000000E+00  0.00000000000E+00 -0.41317243481E+03  0.41317243482E+03  0.25500000920E-02 0. -1.
    10030    2    1    2    0    0  0.00000000000E+00  0.00000000000E+00  0.22850230440E+03  0.10548471740E+04  0.10298005911E+04 0.  0.
        1    1    3    3  502    0 -0.46715330428E+03 -0.63748945217E+02  0.32622928326E+03  0.57334255293E+03  0.50400001928E-02 0.  1.
       -1    1    3    3    0  502  0.46715330428E+03  0.63748945217E+02 -0.97726978865E+02  0.48150462110E+03  0.50400001928E-02 0. -1.
</event>
<event>
 5   0  0.5201968E-03  0.9959572E+03  0.7818609E-02  0.9312990E-01
       -1   -1    0    0    0  501  0.00000000000E+00  0.00000000000E+00  0.30777495987E+03  0.30777495991E+03  0.50400001928E-02 0.  1.
        1   -1    0    0  501    0  0.00000000000E+00  0.00000000000E+00 -0.80572724596E+03  0.80572724598E+03  0.50400001928E-02 0. -1.
    10030    2    1    2    0    0  0.00000000000E+00  0.00000000000E+00 -0.49795228609E+03  0.11135022059E+04  0.99595716941E+03 0.  0.
        2    1    3    3  502    0  0.26419880947E+03  0.12167690096E+03 -0.70087898181E+03  0.75883965783E+03  0.25500000920E-02 0. -1.
       -2    1    3    3    0  502 -0.26419880947E+03 -0.12167690096E+03  0.20292669572E+03  0.35466254806E+03  0.25500000920E-02 0.  1.
</event>
<event>
 5   0  0.9040674E-03  0.9997731E+03  0.7818609E-02  0.9308794E-01
       -2   -1    0    0    0  501  0.00000000000E+00  0.00000000000E+00  0.92787431958E+03  0.92787431959E+03  0.25500000920E-02 0. -1.
        2   -1    0    0  501    0  0.00000000000E+00  0.00000000000E+00 -0.26931081249E+03  0.26931081250E+03  0.25500000920E-02 0.  1.
    10030    2    1    2    0    0  0.00000000000E+00  0.00000000000E+00  0.65856350709E+03  0.11971851321E+04  0.99977314808E+03 0.  0.
        1    1    3    3  502    0  0.61149736617E+00  0.31046103913E+03 -0.13987098654E+03  0.34051479212E+03  0.50400001928E-02 0.  1.
       -1    1    3    3    0  502 -0.61149736617E+00 -0.31046103913E+03  0.79843449363E+03  0.85667033997E+03  0.50400001928E-02 0. -1.
</event>
<event>
 5   0  0.5349685E-03  0.1003394E+04  0.7818609E-02  0.9304830E-01
        1   -1    0    0  501    0  0.00000000000E+00  0.00000000000E+00  0.32068463402E+03  0.32068463406E+03  0.50400001928E-02 0. -1.
       -1   -1    0    0    0  501  0.00000000000E+00  0.00000000000E+00 -0.78488261264E+03  0.78488261266E+03  0.50400001928E-02 0.  1.
    10030    2    1    2    0    0  0.00000000000E+00  0.00000000000E+00 -0.46419797862E+03  0.11055672467E+04  0.10033938278E+04 0.  0.
        4    1    3    3  502    0  0.35032672777E+02  0.39618414031E+03  0.10483163747E+03  0.41131550701E+03  0.12699999809E+01 0. -1.
       -4    1    3    3    0  502 -0.35032672777E+02 -0.39618414031E+03 -0.56902961609E+03  0.69425173970E+03  0.12699999809E+01 0.  1.
</event>
<event>
 5   0  0.3513625E-03  0.1004559E+04  0.7818609E-02  0.9303558E-01
        3   -1    0    0  501    0  0.00000000000E+00  0.00000000000E+00  0.42068923768E+03  0.42068924980E+03  0.10100000352E+00 0. -1.
       -3   -1    0    0    0  501  0.00000000000E+00  0.00000000000E+00 -0.59969403426E+03  0.59969404277E+03  0.10100000352E+00 0.  1.
    10030    2    1    2    0    0  0.00000000000E+00  0.00000000000E+00 -0.17900479658E+03  0.10203832926E+04  0.10045592798E+04 0.  0.
        3    1    3    3  502    0  0.17736091280E+02  0.37359472657E+03  0.25103560740E+03  0.45045141251E+03  0.10100000352E+00 0. -1.
       -3    1    3    3    0  502 -0.17736091280E+02 -0.37359472657E+03 -0.43004040398E+03  0.56993188006E+03  0.10100000352E+00 0.  1.
</event>
<event>
 5   0  0.9243773E-03  0.9937560E+03  0.7818609E-02  0.9315420E-01
       -2   -1    0    0    0  501  0.00000000000E+00  0.00000000000E+00  0.63391007937E+03  0.63391007937E+03  0.25500000920E-02 0. -1.
        2   -1    0    0  501    0  0.00000000000E+00  0.00000000000E+00 -0.38946811419E+03  0.38946811419E+03  0.25500000920E-02 0.  1.
    10030    2    1    2    0    0  0.00000000000E+00  0.00000000000E+00  0.24444196518E+03  0.10233781936E+04  0.99375603280E+03 0.  0.
        3    1    3    3  502    0 -0.42357847170E+02  0.23099264663E+03  0.57314998633E+03  0.61939705121E+03  0.10100000352E+00 0. -1.
       -3    1    3    3    0  502  0.42357847170E+02 -0.23099264663E+03 -0.32870802115E+03  0.40398114236E+03  0.10100000352E+00 0.  1.
</event>
<event>
 5   0  0.5349685E-03  0.9867496E+03  0.7818609E-02  0.9323198E-01
       -1   -1    0    0    0  501  0.00000000000E+00  0.00000000000E+00  0.14284595004E+03  0.14284595012E+03  0.50400001928E-02 0.  1.
        1   -1    0    0  501    0  0.00000000000E+00  0.00000000000E+00 -0.17040644674E+04  0.17040644675E+04  0.50400001928E-02 0. -1.
    10030    2    1    2    0    0  0.00000000000E+00  0.00000000000E+00 -0.15612185174E+04  0.18469104176E+04  0.98674962957E+03 0.  0.
        4    1    3    3  502    0  0.12286083309E+02  0.27019748328E+02  0.14117022187E+03  0.14426246596E+03  0.12699999809E+01 0.  1.
       -4    1    3    3    0  502 -0.12286083309E+02 -0.27019748328E+02 -0.17023887393E+04  0.17026479516E+04  0.12699999809E+01 0. -1.
</event>
<event>
 5   0  0.9243773E-03  0.9976186E+03  0.7818609E-02  0.9311161E-01
        2   -1    0    0  501    0  0.00000000000E+00  0.00000000000E+00  0.20848058904E+04  0.20848058904E+04  0.25500000920E-02 0. -1.
       -2   -1    0    0    0  501  0.00000000000E+00  0.00000000000E+00 -0.11934478612E+03  0.11934478615E+03  0.25500000920E-02 0.  1.
    10030    2    1    2    0    0  0.00000000000E+00  0.00000000000E+00  0.19654611043E+04  0.22041506765E+04  0.99761859069E+03 0.  0.
        3    1    3    3  502    0  0.42553161385E+02 -0.38036814814E+03  0.27599487014E+03  0.47187273518E+03  0.10100000352E+00 0.  1.
       -3    1    3    3    0  502 -0.42553161385E+02  0.38036814814E+03  0.16894662341E+04  0.17322779414E+04  0.10100000352E+00 0. -1.
</event>
<event>
 5   0  0.8875655E-03  0.1000454E+04  0.7818609E-02  0.9308047E-01
        2   -1    0    0  501    0  0.00000000000E+00  0.00000000000E+00  0.11975153954E+04  0.11975153954E+04  0.25500000920E-02 0. -1.
       -2   -1    0    0    0  501  0.00000000000E+00  0.00000000000E+00 -0.20895525338E+03  0.20895525339E+03  0.25500000920E-02 0.  1.
    10030    2    1    2    0    0  0.00000000000E+00  0.00000000000E+00  0.98856014206E+03  0.14064706488E+04  0.10004541627E+04 0.  0.
        4    1    3    3  502    0  0.49789967302E+03 -0.42790664344E+02  0.52541202189E+03  0.72511690850E+03  0.12699999809E+01 0. -1.
       -4    1    3    3    0  502 -0.49789967302E+03  0.42790664344E+02  0.46314812017E+03  0.68135374034E+03  0.12699999809E+01 0.  1.
</event>
<event>
 5   0  0.8968798E-03  0.1003473E+04  0.7818609E-02  0.9304744E-01
        2   -1    0    0  501    0  0.00000000000E+00  0.00000000000E+00  0.79765959581E+03  0.79765959582E+03  0.25500000920E-02 0.  1.
       -2   -1    0    0    0  501  0.00000000000E+00  0.00000000000E+00 -0.31559745022E+03  0.31559745023E+03  0.25500000920E-02 0. -1.
    10030    2    1    2    0    0  0.00000000000E+00  0.00000000000E+00  0.48206214559E+03  0.11132570461E+04  0.10034726396E+04 0.  0.
        2    1    3    3  502    0 -0.35837301778E+03  0.87423185846E+02  0.61833511992E+03  0.72000857900E+03  0.25500000920E-02 0. -1.
       -2    1    3    3    0  502  0.35837301778E+03 -0.87423185846E+02 -0.13627297433E+03  0.39324846705E+03  0.25500000920E-02 0.  1.
</event>
<event>
 5   0  0.8968798E-03  0.1001608E+04  0.7818609E-02  0.9306783E-01
        2   -1    0    0  501    0  0.00000000000E+00  0.00000000000E+00  0.70342060612E+03  0.70342060612E+03  0.25500000920E-02 0. -1.
       -2   -1    0    0    0  501  0.00000000000E+00  0.00000000000E+00 -0.35654979344E+03  0.35654979345E+03  0.25500000920E-02 0.  1.
    10030    2    1    2    0    0  0.00000000000E+00  0.00000000000E+00  0.34687081267E+03  0.10599703996E+04  0.10016076514E+04 0.  0.
        2    1    3    3  502    0  0.18545471299E+03  0.25470226221E+03 -0.23852602903E+03  0.39517256923E+03  0.25500000920E-02 0.  1.
       -2    1    3    3    0  502 -0.18545471299E+03 -0.25470226221E+03  0.58539684170E+03  0.66479783034E+03  0.25500000920E-02 0. -1.
</event>
<event>
 5   0  0.5201968E-03  0.9816411E+03  0.7818609E-02  0.9328913E-01
       -1   -1    0    0    0  501  0.00000000000E+00  0.00000000000E+00  0.12924993620E+03  0.12924993630E+03  0.50400001928E-02 0.  1.
        1   -1    0    0  501    0  0.00000000000E+00  0.00000000000E+00 -0.18638678341E+04  0.18638678341E+04  0.50400001928E-02 0. -1.
    10030    2    1    2    0    0  0.00000000000E+00  0.00000000000E+00 -0.17346178979E+04  0.19931177704E+04  0.98164107238E+03 0.  0.
        2    1    3    3  502    0  0.89609455241E+02  0.40126473931E+03 -0.14115966740E+04  0.14702545411E+04  0.25500000920E-02 0. -1.
       -2    1    3    3    0  502 -0.89609455241E+02 -0.40126473931E+03 -0.32302122388E+03  0.52286322932E+03  0.25500000920E-02 0.  1.
</event>
<event>
 5   0  0.8968798E-03  0.1019714E+04  0.7818609E-02  0.9287183E-01
       -2   -1    0    0    0  501  0.00000000000E+00  0.00000000000E+00  0.86661342302E+03  0.86661342302E+03  0.25500000920E-02 0. -1.
        2   -1    0    0  501    0  0.00000000000E+00  0.00000000000E+00 -0.29996559596E+03  0.29996559597E+03  0.25500000920E-02 0.  1.
    10030    2    1    2    0    0  0.00000000000E+00  0.00000000000E+00  0.56664782706E+03  0.11665790190E+04  0.10197141009E+04 0.  0.
        2    1    3    3  502    0  0.85786173578E+01  0.97832665284E+02  0.85569054442E+03  0.86130780264E+03  0.25500000920E-02 0. -1.
       -2    1    3    3    0  502 -0.85786173578E+01 -0.97832665284E+02 -0.28904271736E+03  0.30527121636E+03  0.25500000920E-02 0.  1.
</event>
<event>
 5   0  0.8907355E-03  0.7994372E+03  0.7818609E-02  0.9560832E-01
       -2   -1    0    0    0  501  0.00000000000E+00  0.00000000000E+00  0.16011628847E+03  0.16011628849E+03  0.25500000920E-02 0.  1.
        2   -1    0    0  501    0  0.00000000000E+00  0.00000000000E+00 -0.99786816227E+03  0.99786816228E+03  0.25500000920E-02 0. -1.
    10030    2    1    2    0    0  0.00000000000E+00  0.00000000000E+00 -0.83775187381E+03  0.11579844508E+04  0.79943716835E+03 0.  0.
        5    1    3    3  502    0 -0.19519723967E+03  0.48313568613E+02  0.81468408575E+02  0.21701464209E+03  0.46999998093E+01 0.  1.
       -5    1    3    3    0  502  0.19519723967E+03 -0.48313568613E+02 -0.91922028238E+03  0.94096980867E+03  0.46999998093E+01 0. -1.
</event>
<event>
 5   0  0.8907355E-03  0.9663295E+03  0.7818609E-02  0.9346265E-01
       -2   -1    0    0    0  501  0.00000000000E+00  0.00000000000E+00  0.13022407209E+04  0.13022407209E+04  0.25500000920E-02 0.  1.
        2   -1    0    0  501    0  0.00000000000E+00  0.00000000000E+00 -0.17926652310E+03  0.17926652312E+03  0.25500000920E-02 0. -1.
    10030    2    1    2    0    0  0.00000000000E+00  0.00000000000E+00  0.11229741978E+04  0.14815072440E+04  0.96632948064E+03 0.  0.
        5    1    3    3  502    0  0.13275287319E+03  0.46454172251E+03  0.56445162991E+03  0.74300071992E+03  0.46999998093E+01 0. -1.
       -5    1    3    3    0  502 -0.13275287319E+03 -0.46454172251E+03  0.55852256786E+03  0.73850652407E+03  0.46999998093E+01 0.  1.
</event>
<event>
 5   0  0.9243773E-03  0.9974535E+03  0.7818609E-02  0.9311342E-01
        2   -1    0    0  501    0  0.00000000000E+00  0.00000000000E+00  0.73843460792E+03  0.73843460792E+03  0.25500000920E-02 0.  1.
       -2   -1    0    0    0  501  0.00000000000E+00  0.00000000000E+00 -0.33683198380E+03  0.33683198381E+03  0.25500000920E-02 0. -1.
    10030    2    1    2    0    0  0.00000000000E+00  0.00000000000E+00  0.40160262412E+03  0.10752665917E+04  0.99745354558E+03 0.  0.
        3    1    3    3  502    0 -0.21340059601E+03  0.22348522660E+03 -0.22119988950E+03  0.38001955502E+03  0.10100000352E+00 0. -1.
       -3    1    3    3    0  502  0.21340059601E+03 -0.22348522660E+03  0.62280251361E+03  0.69524703671E+03  0.10100000352E+00 0.  1.
</event>
<event>
 5   0  0.5072205E-03  0.9892483E+03  0.7818609E-02  0.9320416E-01
       -1   -1    0    0    0  501  0.00000000000E+00  0.00000000000E+00  0.84563528423E+03  0.84563528425E+03  0.50400001928E-02 0.  1.
        1   -1    0    0  501    0  0.00000000000E+00  0.00000000000E+00 -0.28931272322E+03  0.28931272326E+03  0.50400001928E-02 0. -1.
    10030    2    1    2    0    0  0.00000000000E+00  0.00000000000E+00  0.55632256102E+03  0.11349480075E+04  0.98924829434E+03 0.  0.
        5    1    3    3  502    0  0.21238258540E+03  0.38892097365E+03  0.26111032165E+02  0.44392540176E+03  0.46999998093E+01 0. -1.
       -5    1    3    3    0  502 -0.21238258540E+03 -0.38892097365E+03  0.53021152885E+03  0.69102260575E+03  0.46999998093E+01 0.  1.
</event>
<event>
 5   0  0.5310275E-03  0.9927984E+03  0.7818609E-02  0.9316479E-01
        1   -1    0    0  501    0  0.00000000000E+00  0.00000000000E+00  0.35079395533E+03  0.35079395537E+03  0.50400001928E-02 0. -1.
       -1   -1    0    0    0  501  0.00000000000E+00  0.00000000000E+00 -0.70244132382E+03  0.70244132384E+03  0.50400001928E-02 0.  1.
    10030    2    1    2    0    0  0.00000000000E+00  0.00000000000E+00 -0.35164736849E+03  0.10532352792E+04  0.99279840935E+03 0.  0.
        1    1    3    3  502    0  0.33541320129E+03  0.28559534626E+03  0.66895333724E+02  0.44558018706E+03  0.50400001928E-02 0. -1.
       -1    1    3    3    0  502 -0.33541320129E+03 -0.28559534626E+03 -0.41854270222E+03  0.60765509214E+03  0.50400001928E-02 0.  1.
</event>
<event>
 5   0  0.9243773E-03  0.9903757E+03  0.7818609E-02  0.9319164E-01
       -2   -1    0    0    0  501  0.00000000000E+00  0.00000000000E+00  0.52561761690E+03  0.52561761691E+03  0.25500000920E-02 0. -1.
        2   -1    0    0  501    0  0.00000000000E+00  0.00000000000E+00 -0.46651976704E+03  0.46651976705E+03  0.25500000920E-02 0.  1.
    10030    2    1    2    0    0  0.00000000000E+00  0.00000000000E+00  0.59097849862E+02  0.99213738396E+03  0.99037570285E+03 0.  0.
        3    1    3    3  502    0 -0.39180184492E+02  0.41834881113E+03  0.29204590814E+03  0.51170463873E+03  0.10100000352E+00 0. -1.
       -3    1    3    3    0  502  0.39180184492E+02 -0.41834881113E+03 -0.23294805828E+03  0.48043274523E+03  0.10100000352E+00 0.  1.
</event>
<event>
 5   0  0.3513625E-03  0.9958147E+03  0.7818609E-02  0.9313147E-01
       -4   -1    0    0    0  501  0.00000000000E+00  0.00000000000E+00  0.49633593122E+03  0.49633755603E+03  0.12699999809E+01 0.  1.
        4   -1    0    0  501    0  0.00000000000E+00  0.00000000000E+00 -0.49948045283E+03  0.49948206740E+03  0.12699999809E+01 0. -1.
    10030    2    1    2    0    0  0.00000000000E+00  0.00000000000E+00 -0.31445216059E+01  0.99581962343E+03  0.99581465865E+03 0.  0.
        3    1    3    3  502    0 -0.12253593067E+03  0.46905852688E+03  0.11192166367E+03  0.49755142944E+03  0.10100000352E+00 0.  1.
       -3    1    3    3    0  502  0.12253593067E+03 -0.46905852688E+03 -0.11506618528E+03  0.49826819399E+03  0.10100000352E+00 0. -1.
</event>
<event>
 5   0  0.8875655E-03  0.9962002E+03  0.7818609E-02  0.9312722E-01
       -2   -1    0    0    0  501  0.00000000000E+00  0.00000000000E+00  0.11373260117E+03  0.11373260120E+03  0.25500000920E-02 0. -1.
        2   -1    0    0  501    0  0.00000000000E+00  0.00000000000E+00 -0.21814653770E+04  0.21814653770E+04  0.25500000920E-02 0.  1.
    10030    2    1    2    0    0  0.00000000000E+00  0.00000000000E+00 -0.20677327758E+04  0.22951979782E+04  0.99620024436E+03 0.  0.
        4    1    3    3  502    0 -0.30321981648E+03 -0.18305396090E+03 -0.22698583457E+03  0.42068419474E+03  0.12699999809E+01 0. -1.
       -4    1    3    3    0  502  0.30321981648E+03  0.18305396090E+03 -0.18407469412E+04  0.18745137834E+04  0.12699999809E+01 0.  1.
</event>
<event>
 5   0  0.3513625E-03  0.1037116E+04  0.7818609E-02  0.9268748E-01
        3   -1    0    0  501    0  0.00000000000E+00  0.00000000000E+00  0.12169049193E+04  0.12169049235E+04  0.10100000352E+00 0.  1.
       -3   -1    0    0    0  501  0.00000000000E+00  0.00000000000E+00 -0.22097245886E+03  0.22097248194E+03  0.10100000352E+00 0. -1.
    10030    2    1    2    0    0  0.00000000000E+00  0.00000000000E+00  0.99593246048E+03  0.14378774055E+04  0.10371161783E+04 0.  0.
        4    1    3    3  502    0 -0.25912850643E+03 -0.88742364843E+02  0.11084284833E+04  0.11417697254E+04  0.12699999809E+01 0.  1.
       -4    1    3    3    0  502  0.25912850643E+03  0.88742364843E+02 -0.11249602285E+03  0.29610768011E+03  0.12699999809E+01 0. -1.
</event>
<event>
 5   0  0.5349685E-03  0.1001178E+04  0.7818609E-02  0.9307254E-01
       -1   -1    0    0    0  501  0.00000000000E+00  0.00000000000E+00  0.22133351627E+03  0.22133351633E+03  0.50400001928E-02 0.  1.
        1   -1    0    0  501    0  0.00000000000E+00  0.00000000000E+00 -0.11321787676E+04  0.11321787676E+04  0.50400001928E-02 0. -1.
    10030    2    1    2    0    0  0.00000000000E+00  0.00000000000E+00 -0.91084525132E+03  0.13535122839E+04  0.10011775222E+04 0.  0.
        4    1    3    3  502    0 -0.36364599533E+02 -0.45948355205E+03 -0.19139989437E+03  0.49908220883E+03  0.12699999809E+01 0. -1.
       -4    1    3    3    0  502  0.36364599533E+02  0.45948355205E+03 -0.71944535695E+03  0.85443007510E+03  0.12699999809E+01 0.  1.
</event>
<event>
 5   0  0.8875655E-03  0.9803011E+03  0.7818609E-02  0.9330418E-01
        2   -1    0    0  501    0  0.00000000000E+00  0.00000000000E+00  0.68806572074E+03  0.68806572074E+03  0.25500000920E-02 0. -1.
       -2   -1    0    0    0  501  0.00000000000E+00  0.00000000000E+00 -0.34916370017E+03  0.34916370018E+03  0.25500000920E-02 0.  1.
    10030    2    1    2    0    0  0.00000000000E+00  0.00000000000E+00  0.33890202057E+03  0.10372294209E+04  0.98030112316E+03 0.  0.
        4    1    3    3  502    0 -0.35992903956E+03  0.25248421512E+03 -0.59808534416E+02  0.44370695971E+03  0.12699999809E+01 0.  1.
       -4    1    3    3    0  502  0.35992903956E+03 -0.25248421512E+03  0.39871055498E+03  0.59352246121E+03  0.12699999809E+01 0. -1.
</event>
<event>
 5   0  0.9040674E-03  0.8377997E+03  0.7818609E-02  0.9506860E-01
       -2   -1    0    0    0  501  0.00000000000E+00  0.00000000000E+00  0.15797031763E+03  0.15797031765E+03  0.25500000920E-02 0. -1.
        2   -1    0    0  501    0  0.00000000000E+00  0.00000000000E+00 -0.11108231649E+04  0.11108231649E+04  0.25500000920E-02 0.  1.
    10030    2    1    2    0    0  0.00000000000E+00  0.00000000000E+00 -0.95285284723E+03  0.12687934825E+04  0.83779970923E+03 0.  0.
        1    1    3    3  502    0 -0.19485589024E+03 -0.18933182177E+03  0.64427544564E+01  0.27176619696E+03  0.50400001928E-02 0. -1.
       -1    1    3    3    0  502  0.19485589024E+03  0.18933182177E+03 -0.95929560169E+03  0.99702728556E+03  0.50400001928E-02 0.  1.
</event>
<event>
 5   0  0.8968798E-03  0.1001623E+04  0.7818609E-02  0.9306766E-01
       -2   -1    0    0    0  501  0.00000000000E+00  0.00000000000E+00  0.23400151222E+03  0.23400151224E+03  0.25500000920E-02 0.  1.
        2   -1    0    0  501    0  0.00000000000E+00  0.00000000000E+00 -0.10718407089E+04  0.10718407089E+04  0.25500000920E-02 0. -1.
    10030    2    1    2    0    0  0.00000000000E+00  0.00000000000E+00 -0.83783919672E+03  0.13058422212E+04  0.10016233759E+04 0.  0.
        2    1    3    3  502    0  0.27574057265E+03  0.55467753536E+02  0.12130575003E+03  0.30630804770E+03  0.25500000920E-02 0.  1.
       -2    1    3    3    0  502 -0.27574057265E+03 -0.55467753536E+02 -0.95914494675E+03  0.99953417348E+03  0.25500000920E-02 0. -1.
</event>
<event>
 5   0  0.5189877E-03  0.1045677E+04  0.7818609E-02  0.9259818E-01
       -1   -1    0    0    0  501  0.00000000000E+00  0.00000000000E+00  0.40285206602E+03  0.40285206605E+03  0.50400001928E-02 0.  1.
        1   -1    0    0  501    0  0.00000000000E+00  0.00000000000E+00 -0.67856252052E+03  0.67856252053E+03  0.50400001928E-02 0. -1.
    10030    2    1    2    0    0  0.00000000000E+00  0.00000000000E+00 -0.27571045450E+03  0.10814145866E+04  0.10456774136E+04 0.  0.
        3    1    3    3  502    0  0.16428375542E+03 -0.28569542506E+03 -0.55762025378E+03  0.64772786402E+03  0.10100000352E+00 0. -1.
       -3    1    3    3    0  502 -0.16428375542E+03  0.28569542506E+03  0.28190979929E+03  0.43368672257E+03  0.10100000352E+00 0.  1.
</event>
<event>
 5   0  0.3513625E-03  0.1003343E+04  0.7818609E-02  0.9304886E-01
       -3   -1    0    0    0  501  0.00000000000E+00  0.00000000000E+00  0.49146445817E+03  0.49146446855E+03  0.10100000352E+00 0.  1.
        3   -1    0    0  501    0  0.00000000000E+00  0.00000000000E+00 -0.51209078650E+03  0.51209079646E+03  0.10100000352E+00 0. -1.
    10030    2    1    2    0    0  0.00000000000E+00  0.00000000000E+00 -0.20626328329E+02  0.10035552650E+04  0.10033432735E+04 0.  0.
        4    1    3    3  502    0  0.25991639407E+02  0.96301917603E+02 -0.50207057325E+03  0.51188484845E+03  0.12699999809E+01 0. -1.
       -4    1    3    3    0  502 -0.25991639407E+02 -0.96301917603E+02  0.48144424492E+03  0.49167041656E+03  0.12699999809E+01 0.  1.
</event>
<event>
 5   0  0.5310275E-03  0.1001377E+04  0.7818609E-02  0.9307035E-01
       -1   -1    0    0    0  501  0.00000000000E+00  0.00000000000E+00  0.38122263798E+03  0.38122263801E+03  0.50400001928E-02 0.  1.
        1   -1    0    0  501    0  0.00000000000E+00  0.00000000000E+00 -0.65759267125E+03  0.65759267127E+03  0.50400001928E-02 0. -1.
    10030    2    1    2    0    0  0.00000000000E+00  0.00000000000E+00 -0.27637003327E+03  0.10388153093E+04  0.10013774770E+04 0.  0.
        1    1    3    3  502    0 -0.32315366024E+03  0.13832041339E+03  0.23169578678E+03  0.42100328090E+03  0.50400001928E-02 0.  1.
       -1    1    3    3    0  502  0.32315366024E+03 -0.13832041339E+03 -0.50806582005E+03  0.61781202839E+03  0.50400001928E-02 0. -1.
</event>
<event>
 5   0  0.5201968E-03  0.9913756E+03  0.7818609E-02  0.9318055E-01
        1   -1    0    0  501    0  0.00000000000E+00  0.00000000000E+00  0.10660068073E+04  0.10660068073E+04  0.50400001928E-02 0.  1.
       -1   -1    0    0    0  501  0.00000000000E+00  0.00000000000E+00 -0.23049231846E+03  0.23049231851E+03  0.50400001928E-02 0. -1.
    10030    2    1    2    0    0  0.00000000000E+00  0.00000000000E+00  0.83551448883E+03  0.12964991258E+04  0.99137557071E+03 0.  0.
        2    1    3    3  502    0  0.67451418074E+02  0.49075013338E+03  0.39432671960E+03  0.63315002094E+03  0.25500000920E-02 0. -1.
       -2    1    3    3    0  502 -0.67451418074E+02 -0.49075013338E+03  0.44118776923E+03  0.66334910488E+03  0.25500000920E-02 0.  1.
</event>
<event>
 5   0  0.8968798E-03  0.1011805E+04  0.7818609E-02  0.9295691E-01
       -2   -1    0    0    0  501  0.00000000000E+00  0.00000000000E+00  0.56618543339E+03  0.56618543340E+03  0.25500000920E-02 0. -1.
        2   -1    0    0  501    0  0.00000000000E+00  0.00000000000E+00 -0.45203798623E+03  0.45203798623E+03  0.25500000920E-02 0.  1.
    10030    2    1    2    0    0  0.00000000000E+00  0.00000000000E+00  0.11414744717E+03  0.10182234196E+04  0.10118049677E+04 0.  0.
        2    1    3    3  502    0 -0.29017577439E+03  0.34147759703E+03  0.29335752219E+03  0.53560019151E+03  0.25500000920E-02 0. -1.
       -2    1    3    3    0  502  0.29017577439E+03 -0.34147759703E+03 -0.17921007502E+03  0.48262322812E+03  0.25500000920E-02 0.  1.
</event>
<event>
 5   0  0.8907355E-03  0.1002513E+04  0.7818609E-02  0.9305792E-01
       -2   -1    0    0    0  501  0.00000000000E+00  0.00000000000E+00  0.44628827142E+03  0.44628827143E+03  0.25500000920E-02 0.  1.
        2   -1    0    0  501    0  0.00000000000E+00  0.00000000000E+00 -0.56299557787E+03  0.56299557788E+03  0.25500000920E-02 0. -1.
    10030    2    1    2    0    0  0.00000000000E+00  0.00000000000E+00 -0.11670730645E+03  0.10092838493E+04  0.10025134877E+04 0.  0.
        5    1    3    3  502    0 -0.12196544055E+03  0.11590094469E+03 -0.53369441115E+03  0.55960737322E+03  0.46999998093E+01 0. -1.
       -5    1    3    3    0  502  0.12196544055E+03 -0.11590094469E+03  0.41698710470E+03  0.44967647609E+03  0.46999998093E+01 0.  1.
</event>
<event>
 5   0  0.5310275E-03  0.1000244E+04  0.7818609E-02  0.9308278E-01
       -1   -1    0    0    0  501  0.00000000000E+00  0.00000000000E+00  0.12439579812E+04  0.12439579812E+04  0.50400001928E-02 0.  1.
        1   -1    0    0  501    0  0.00000000000E+00  0.00000000000E+00 -0.20106932724E+03  0.20106932730E+03  0.50400001928E-02 0. -1.
    10030    2    1    2    0    0  0.00000000000E+00  0.00000000000E+00  0.10428886540E+04  0.14450273085E+04  0.10002435592E+04 0.  0.
        1    1    3    3  502    0  0.88809878021E+02 -0.45089513726E+03  0.80648203291E+03  0.92822782153E+03  0.50400001928E-02 0.  1.
       -1    1    3    3    0  502 -0.88809878021E+02  0.45089513726E+03  0.23640662105E+03  0.51679948698E+03  0.50400001928E-02 0. -1.
</event>
<event>
 5   0  0.9040674E-03  0.1003661E+04  0.7818609E-02  0.9304539E-01
        2   -1    0    0  501    0  0.00000000000E+00  0.00000000000E+00  0.32840238293E+03  0.32840238294E+03  0.25500000920E-02 0. -1.
       -2   -1    0    0    0  501  0.00000000000E+00  0.00000000000E+00 -0.76684489955E+03  0.76684489955E+03  0.25500000920E-02 0.  1.
    10030    2    1    2    0    0  0.00000000000E+00  0.00000000000E+00 -0.43844251662E+03  0.10952472825E+04  0.10036606844E+04 0.  0.
        1    1    3    3  502    0  0.24603484632E+03 -0.16068111112E+03  0.22469476325E+03  0.36991796622E+03  0.50400001928E-02 0. -1.
       -1    1    3    3    0  502 -0.24603484632E+03  0.16068111112E+03 -0.66313727987E+03  0.72532931627E+03  0.50400001928E-02 0.  1.
</event>
<event>
 5   0  0.5310275E-03  0.1001944E+04  0.7818609E-02  0.9306415E-01
        1   -1    0    0  501    0  0.00000000000E+00  0.00000000000E+00  0.13556230896E+04  0.13556230896E+04  0.50400001928E-02 0.  1.
       -1   -1    0    0    0  501  0.00000000000E+00  0.00000000000E+00 -0.18513483504E+03  0.18513483510E+03  0.50400001928E-02 0. -1.
    10030    2    1    2    0    0  0.00000000000E+00  0.00000000000E+00  0.11704882546E+04  0.15407579248E+04  0.10019442243E+04 0.  0.
        1    1    3    3  502    0  0.48692239603E+03 -0.65820429876E+02  0.73549995976E+03  0.88452582754E+03  0.50400001928E-02 0. -1.
       -1    1    3    3    0  502 -0.48692239603E+03  0.65820429876E+02  0.43498829484E+03  0.65623209722E+03  0.50400001928E-02 0.  1.
</event>
<event>
 5   0  0.8907355E-03  0.1015601E+04  0.7818609E-02  0.9291597E-01
        2   -1    0    0  501    0  0.00000000000E+00  0.00000000000E+00  0.11136803340E+04  0.11136803340E+04  0.25500000920E-02 0. -1.
       -2   -1    0    0    0  501  0.00000000000E+00  0.00000000000E+00 -0.23154000216E+03  0.23154000217E+03  0.25500000920E-02 0.  1.
    10030    2    1    2    0    0  0.00000000000E+00  0.00000000000E+00  0.88214033186E+03  0.13452203362E+04  0.10156013922E+04 0.  0.
        5    1    3    3  502    0 -0.36775276226E+03 -0.32990377541E+03  0.28569094031E+03  0.57071884371E+03  0.46999998093E+01 0.  1.
       -5    1    3    3    0  502  0.36775276226E+03  0.32990377541E+03  0.59644939155E+03  0.77450149248E+03  0.46999998093E+01 0. -1.
</event>
<event>
 5   0  0.8875655E-03  0.9968354E+03  0.7818609E-02  0.9312023E-01
        2   -1    0    0  501    0  0.00000000000E+00  0.00000000000E+00  0.38859477482E+03  0.38859477483E+03  0.25500000920E-02 0. -1.
       -2   -1    0    0    0  501  0.00000000000E+00  0.00000000000E+00 -0.63927823539E+03  0.63927823539E+03  0.25500000920E-02 0.  1.
    10030    2    1    2    0    0  0.00000000000E+00  0.00000000000E+00 -0.25068346057E+03  0.10278730102E+04  0.99683535638E+03 0.  0.
        4    1    3    3  502    0 -0.16841081850E+02 -0.25265903104E+03  0.31732488067E+03  0.40597647813E+03  0.12699999809E+01 0. -1.
       -4    1    3    3    0  502  0.16841081850E+02  0.25265903104E+03 -0.56800834124E+03  0.62189653209E+03  0.12699999809E+01 0.  1.
</event>
<event>
 5   0  0.8907355E-03  0.9311884E+03  0.7818609E-02  0.9387413E-01
       -2   -1    0    0    0  501  0.00000000000E+00  0.00000000000E+00  0.47929328025E+03  0.47929328025E+03  0.25500000920E-02 0.  1.
        2   -1    0    0  501    0  0.00000000000E+00  0.00000000000E+00 -0.45228670734E+03  0.45228670735E+03  0.25500000920E-02 0. -1.
    10030    2    1    2    0    0  0.00000000000E+00  0.00000000000E+00  0.27006572905E+02  0.93157998760E+03  0.93118844404E+03 0.  0.
        5    1    3    3  502    0 -0.44941846445E+03 -0.90607991814E+02 -0.67580933400E+02  0.46343935626E+03  0.46999998093E+01 0. -1.
       -5    1    3    3    0  502  0.44941846445E+03  0.90607991814E+02  0.94587506304E+02  0.46814063135E+03  0.46999998093E+01 0.  1.
</event>
<event>
 5   0  0.8907355E-03  0.9997751E+03  0.7818609E-02  0.9308792E-01
        2   -1    0    0  501    0  0.00000000000E+00  0.00000000000E+00  0.14680408655E+04  0.14680408655E+04  0.25500000920E-02 0. -1.
       -2   -1    0    0    0  501  0.00000000000E+00  0.00000000000E+00 -0.17021838457E+03  0.17021838459E+03  0.25500000920E-02 0.  1.
    10030    2    1    2    0    0  0.00000000000E+00  0.00000000000E+00  0.12978224809E+04  0.16382592501E+04  0.99977506395E+03 0.  0.
        5    1    3    3  502    0  0.23617898096E+03  0.17585127403E+03 -0.12983409588E+02  0.29477930821E+03  0.46999998093E+01 0.  1.
       -5    1    3    3    0  502 -0.23617898096E+03 -0.17585127403E+03  0.13108058905E+04  0.13434799419E+04  0.46999998093E+01 0. -1.
</event>
<event>
 5   0  0.3513625E-03  0.9963020E+03  0.7818609E-02  0.9312610E-01
        4   -1    0    0  501    0  0.00000000000E+00  0.00000000000E+00  0.10955978890E+04  0.10955986251E+04  0.12699999809E+01 0.  1.
       -4   -1    0    0    0  501  0.00000000000E+00  0.00000000000E+00 -0.22649876792E+03  0.22650232839E+03  0.12699999809E+01 0. -1.
    10030    2    1    2    0    0  0.00000000000E+00  0.00000000000E+00  0.86909912111E+03  0.13221009535E+04  0.99630198682E+03 0.  0.
        4    1    3    3  502    0  0.43852740242E+03  0.14458974315E+03  0.18650079004E+03  0.49799260445E+03  0.12699999809E+01 0. -1.
       -4    1    3    3    0  502 -0.43852740242E+03 -0.14458974315E+03  0.68259833107E+03  0.82410834905E+03  0.12699999809E+01 0.  1.
</event>
<event>
 5   0  0.9040674E-03  0.1002861E+04  0.7818609E-02  0.9305413E-01
        2   -1    0    0  501    0  0.00000000000E+00  0.00000000000E+00  0.80170195233E+03  0.80170195233E+03  0.25500000920E-02 0. -1.
       -2   -1    0    0    0  501  0.00000000000E+00  0.00000000000E+00 -0.31362337829E+03  0.31362337830E+03  0.25500000920E-02 0.  1.
    10030    2    1    2    0    0  0.00000000000E+00  0.00000000000E+00  0.48807857403E+03  0.11153253306E+04  0.10028608571E+04 0.  0.
        1    1    3    3  502    0  0.44819739957E+03 -0.20707339679E+03  0.14662557166E+03  0.51503335710E+03  0.50400001928E-02 0.  1.
       -1    1    3    3    0  502 -0.44819739957E+03  0.20707339679E+03  0.34145300237E+03  0.60029197353E+03  0.50400001928E-02 0. -1.
</event>
<event>
 5   0  0.5201968E-03  0.9841561E+03  0.7818609E-02  0.9326095E-01
       -1   -1    0    0    0  501  0.00000000000E+00  0.00000000000E+00  0.25868134246E+03  0.25868134250E+03  0.50400001928E-02 0. -1.
        1   -1    0    0  501    0  0.00000000000E+00  0.00000000000E+00 -0.93605828302E+03  0.93605828304E+03  0.50400001928E-02 0.  1.
    10030    2    1    2    0    0  0.00000000000E+00  0.00000000000E+00 -0.67737694057E+03  0.11947396255E+04  0.98415611222E+03 0.  0.
        2    1    3    3  502    0 -0.16091706555E+03 -0.22215208528E+03  0.15725352834E+03  0.31618748103E+03  0.25500000920E-02 0. -1.
       -2    1    3    3    0  502  0.16091706555E+03  0.22215208528E+03 -0.83463046891E+03  0.87855214451E+03  0.25500000920E-02 0.  1.
</event>
<event>
 5   0  0.8875655E-03  0.9860227E+03  0.7818609E-02  0.9324009E-01
       -2   -1    0    0    0  501  0.00000000000E+00  0.00000000000E+00  0.34877063247E+03  0.34877063248E+03  0.25500000920E-02 0.  1.
        2   -1    0    0  501    0  0.00000000000E+00  0.00000000000E+00 -0.69690559485E+03  0.69690559485E+03  0.25500000920E-02 0. -1.
    10030    2    1    2    0    0  0.00000000000E+00  0.00000000000E+00 -0.34813496238E+03  0.10456762273E+04  0.98602272812E+03 0.  0.
        4    1    3    3  502    0  0.48364136102E+03  0.86831842576E+02 -0.21661791469E+03  0.53700434713E+03  0.12699999809E+01 0. -1.
       -4    1    3    3    0  502 -0.48364136102E+03 -0.86831842576E+02 -0.13151704769E+03  0.50867188020E+03  0.12699999809E+01 0.  1.
</event>
<event>
 5   0  0.5189877E-03  0.1017973E+04  0.7818609E-02  0.9289049E-01
        1   -1    0    0  501    0  0.00000000000E+00  0.00000000000E+00  0.17767067568E+04  0.17767067568E+04  0.50400001928E-02 0.  1.
       -1   -1    0    0    0  501  0.00000000000E+00  0.00000000000E+00 -0.14581313258E+03  0.14581313267E+03  0.50400001928E-02 0. -1.
    10030    2    1    2    0    0  0.00000000000E+00  0.00000000000E+00  0.16308936242E+04  0.19225198894E+04  0.10179728444E+04 0.  0.
        3    1    3    3  502    0  0.50404098623E+03  0.70758101616E+02  0.81879499179E+03  0.96410024040E+03  0.10100000352E+00 0. -1.
       -3    1    3    3    0  502 -0.50404098623E+03 -0.70758101616E+02  0.81209863239E+03  0.95841964904E+03  0.10100000352E+00 0.  1.
</event>
<event>
 5   0  0.9243773E-03  0.9810629E+03  0.7818609E-02  0.9329562E-01
       -2   -1    0    0    0  501  0.00000000000E+00  0.00000000000E+00  0.86043493765E+03  0.86043493765E+03  0.25500000920E-02 0. -1.
        2   -1    0    0  501    0  0.00000000000E+00  0.00000000000E+00 -0.27965056624E+03  0.27965056625E+03  0.25500000920E-02 0.  1.
    10030    2    1    2    0    0  0.00000000000E+00  0.00000000000E+00  0.58078437141E+03  0.11400855039E+04  0.98106292873E+03 0.  0.
        3    1    3    3  502    0 -0.45202771104E+03 -0.92722614523E+02  0.97000458825E+02  0.47152479681E+03  0.10100000352E+00 0.  1.
       -3    1    3    3    0  502  0.45202771104E+03  0.92722614523E+02  0.48378391259E+03  0.66856070709E+03  0.10100000352E+00 0. -1.
</event>
<event>
 5   0  0.5349685E-03  0.1010193E+04  0.7818609E-02  0.9297436E-01
       -1   -1    0    0    0  501  0.00000000000E+00  0.00000000000E+00  0.34786021175E+03  0.34786021179E+03  0.50400001928E-02 0. -1.
        1   -1    0    0  501    0  0.00000000000E+00  0.00000000000E+00 -0.73340447929E+03  0.73340447930E+03  0.50400001928E-02 0.  1.
    10030    2    1    2    0    0  0.00000000000E+00  0.00000000000E+00 -0.38554426754E+03  0.10812646911E+04  0.10101925311E+04 0.  0.
        4    1    3    3  502    0 -0.41223559929E+03 -0.22138491139E+03  0.10795657268E+02  0.46804660818E+03  0.12699999809E+01 0.  1.
       -4    1    3    3    0  502  0.41223559929E+03  0.22138491139E+03 -0.39633992480E+03  0.61321808291E+03  0.12699999809E+01 0. -1.
</event>
<event>
 5   0  0.9040674E-03  0.1069597E+04  0.7818609E-02  0.9235342E-01
       -2   -1    0    0    0  501  0.00000000000E+00  0.00000000000E+00  0.29095116781E+03  0.29095116782E+03  0.25500000920E-02 0.  1.
        2   -1    0    0  501    0  0.00000000000E+00  0.00000000000E+00 -0.98301495724E+03  0.98301495724E+03  0.25500000920E-02 0. -1.
    10030    2    1    2    0    0  0.00000000000E+00  0.00000000000E+00 -0.69206378943E+03  0.12739661251E+04  0.10695968395E+04 0.  0.
        1    1    3    3  502    0 -0.39721266024E+03 -0.34791658679E+03 -0.44699583581E+03  0.69183027259E+03  0.50400001928E-02 0.  1.
       -1    1    3    3    0  502  0.39721266024E+03  0.34791658679E+03 -0.24506795362E+03  0.58213585247E+03  0.50400001928E-02 0. -1.
</event>
<event>
 5   0  0.5072205E-03  0.1005552E+04  0.7818609E-02  0.9302477E-01
       -1   -1    0    0    0  501  0.00000000000E+00  0.00000000000E+00  0.33510598039E+03  0.33510598043E+03  0.50400001928E-02 0. -1.
        1   -1    0    0  501    0  0.00000000000E+00  0.00000000000E+00 -0.75433914871E+03  0.75433914873E+03  0.50400001928E-02 0.  1.
    10030    2    1    2    0    0  0.00000000000E+00  0.00000000000E+00 -0.41923316832E+03  0.10894451292E+04  0.10055517093E+04 0.  0.
        5    1    3    3  502    0  0.38071044629E+03  0.32281754651E+03 -0.14452182901E+03  0.51967322551E+03  0.46999998093E+01 0. -1.
       -5    1    3    3    0  502 -0.38071044629E+03 -0.32281754651E+03 -0.27471133931E+03  0.56977190365E+03  0.46999998093E+01 0.  1.
</event>
<event>
 5   0  0.5349685E-03  0.9397716E+03  0.7818609E-02  0.9377186E-01
        1   -1    0    0  501    0  0.00000000000E+00  0.00000000000E+00  0.90896254573E+03  0.90896254574E+03  0.50400001928E-02 0.  1.
       -1   -1    0    0    0  501  0.00000000000E+00  0.00000000000E+00 -0.24290624691E+03  0.24290624696E+03  0.50400001928E-02 0. -1.
    10030    2    1    2    0    0  0.00000000000E+00  0.00000000000E+00  0.66605629882E+03  0.11518687927E+04  0.93977163311E+03 0.  0.
        4    1    3    3  502    0 -0.21497635293E+03  0.40891052100E+03  0.43824078554E+03  0.63677252258E+03  0.12699999809E+01 0.  1.
       -4    1    3    3    0  502  0.21497635293E+03 -0.40891052100E+03  0.22781551328E+03  0.51509627012E+03  0.12699999809E+01 0. -1.
</event>
<event>
 5   0  0.9243773E-03  0.9758056E+03  0.7818609E-02  0.9335486E-01
       -2   -1    0    0    0  501  0.00000000000E+00  0.00000000000E+00  0.50170915996E+03  0.50170915997E+03  0.25500000920E-02 0. -1.
        2   -1    0    0  501    0  0.00000000000E+00  0.00000000000E+00 -0.47447639681E+03  0.47447639681E+03  0.25500000920E-02 0.  1.
    10030    2    1    2    0    0  0.00000000000E+00  0.00000000000E+00  0.27232763159E+02  0.97618555678E+03  0.97580562505E+03 0.  0.
        3    1    3    3  502    0  0.33773378990E+03 -0.31575262530E+03 -0.14228174473E+03  0.48374367005E+03  0.10100000352E+00 0. -1.
       -3    1    3    3    0  502 -0.33773378990E+03  0.31575262530E+03  0.16951450789E+03  0.49244188674E+03  0.10100000352E+00 0.  1.
</event>
<event>
 5   0  0.5072205E-03  0.1013801E+04  0.7818609E-02  0.9293536E-01
        1   -1    0    0  501    0  0.00000000000E+00  0.00000000000E+00  0.11780383123E+04  0.11780383123E+04  0.50400001928E-02 0.  1.
       -1   -1    0    0    0  501  0.00000000000E+00  0.00000000000E+00 -0.21811536201E+03  0.21811536207E+03  0.50400001928E-02 0. -1.
    10030    2    1    2    0    0  0.00000000000E+00  0.00000000000E+00  0.95992295029E+03  0.13961536744E+04  0.10138012685E+04 0.  0.
        5    1    3    3  502    0  0.45551920589E+03  0.22174817867E+03  0.50200277346E+03  0.71323129225E+03  0.46999998093E+01 0.  1.
       -5    1    3    3    0  502 -0.45551920589E+03 -0.22174817867E+03  0.45792017682E+03  0.68292238213E+03  0.46999998093E+01 0. -1.
</event>
<event>
 5   0  0.5189877E-03  0.9813837E+03  0.7818609E-02  0.9329202E-01
        1   -1    0    0  501    0  0.00000000000E+00  0.00000000000E+00  0.85389001137E+03  0.85389001138E+03  0.50400001928E-02 0. -1.
       -1   -1    0    0    0  501  0.00000000000E+00  0.00000000000E+00 -0.28197831992E+03  0.28197831996E+03  0.50400001928E-02 0.  1.
    10030    2    1    2    0    0  0.00000000000E+00  0.00000000000E+00  0.57191169145E+03  0.11358683313E+04  0.98138365757E+03 0.  0.
        3    1    3    3  502    0 -0.40897265762E+03 -0.17797274129E+03  0.52271877392E+03  0.68714471411E+03  0.10100000352E+00 0. -1.
       -3    1    3    3    0  502  0.40897265762E+03  0.17797274129E+03  0.49192917526E+02  0.44872361723E+03  0.10100000352E+00 0.  1.
</event>
<event>
 5   0  0.5201968E-03  0.9926615E+03  0.7818609E-02  0.9316630E-01
       -1   -1    0    0    0  501  0.00000000000E+00  0.00000000000E+00  0.33124781045E+03  0.33124781049E+03  0.50400001928E-02 0.  1.
        1   -1    0    0  501    0  0.00000000000E+00  0.00000000000E+00 -0.74368559691E+03  0.74368559692E+03  0.50400001928E-02 0. -1.
    10030    2    1    2    0    0  0.00000000000E+00  0.00000000000E+00 -0.41243778646E+03  0.10749334074E+04  0.99266152472E+03 0.  0.
        2    1    3    3  502    0 -0.18322528601E+03  0.17054588473E+03 -0.67032723117E+03  0.71553895847E+03  0.25500000920E-02 0. -1.
       -2    1    3    3    0  502  0.18322528601E+03 -0.17054588473E+03  0.25788944471E+03  0.35939444894E+03  0.25500000920E-02 0.  1.
</event>
<event>
 5   0  0.8968798E-03  0.9928536E+03  0.7818609E-02  0.9316418E-01
        2   -1    0    0  501    0  0.00000000000E+00  0.00000000000E+00  0.28991864530E+03  0.28991864532E+03  0.25500000920E-02 0.  1.
       -2   -1    0    0    0  501  0.00000000000E+00  0.00000000000E+00 -0.85003011862E+03  0.85003011862E+03  0.25500000920E-02 0. -1.
    10030    2    1    2    0    0  0.00000000000E+00  0.00000000000E+00 -0.56011147332E+03  0.11399487639E+04  0.99285362560E+03 0.  0.
        2    1    3    3  502    0 -0.45679925671E+03  0.10377645538E+03 -0.91379193995E+02  0.47726855199E+03  0.25500000920E-02 0.  1.
       -2    1    3    3    0  502  0.45679925671E+03 -0.10377645538E+03 -0.46873227932E+03  0.66268021195E+03  0.25500000920E-02 0. -1.
</event>
<event>
 5   0  0.5201968E-03  0.1000971E+04  0.7818609E-02  0.9307480E-01
       -1   -1    0    0    0  501  0.00000000000E+00  0.00000000000E+00  0.34690330612E+03  0.34690330616E+03  0.50400001928E-02 0.  1.
        1   -1    0    0  501    0  0.00000000000E+00  0.00000000000E+00 -0.72206252886E+03  0.72206252888E+03  0.50400001928E-02 0. -1.
    10030    2    1    2    0    0  0.00000000000E+00  0.00000000000E+00 -0.37515922274E+03  0.10689658350E+04  0.10009712853E+04 0.  0.
        2    1    3    3  502    0  0.20246943723E+03  0.36744945889E+03 -0.47901436534E+03  0.63676348832E+03  0.25500000920E-02 0. -1.
       -2    1    3    3    0  502 -0.20246943723E+03 -0.36744945889E+03  0.10385514260E+03  0.43220234671E+03  0.25500000920E-02 0.  1.
</event>
<event>
 5   0  0.5201968E-03  0.9967054E+03  0.7818609E-02  0.9312166E-01
        1   -1    0    0  501    0  0.00000000000E+00  0.00000000000E+00  0.50367223498E+03  0.50367223501E+03  0.50400001928E-02 0.  1.
       -1   -1    0    0    0  501  0.00000000000E+00  0.00000000000E+00 -0.49308937824E+03  0.49308937827E+03  0.50400001928E-02 0. -1.
    10030    2    1    2    0    0  0.00000000000E+00  0.00000000000E+00  0.10582856741E+02  0.99676161327E+03  0.99670543133E+03 0.  0.
        2    1    3    3  502    0  0.16964133463E+03 -0.29977804707E+03  0.36546498741E+03  0.50220485556E+03  0.25500000920E-02 0.  1.
       -2    1    3    3    0  502 -0.16964133463E+03  0.29977804707E+03 -0.35488213067E+03  0.49455675771E+03  0.25500000920E-02 0. -1.
</event>
<event>
 5   0  0.5189877E-03  0.9980536E+03  0.7818609E-02  0.9310682E-01
        1   -1    0    0  501    0  0.00000000000E+00  0.00000000000E+00  0.23710367908E+04  0.23710367908E+04  0.50400001928E-02 0.  1.
       -1   -1    0    0    0  501  0.00000000000E+00  0.00000000000E+00 -0.10502904957E+03  0.10502904969E+03  0.50400001928E-02 0. -1.
    10030    2    1    2    0    0  0.00000000000E+00  0.00000000000E+00  0.22660077412E+04  0.24760658405E+04  0.99805358731E+03 0.  0.
        3    1    3    3  502    0 -0.12834046111E+03  0.45461771780E+03  0.73390210828E+03  0.87278912575E+03  0.10100000352E+00 0.  1.
       -3    1    3    3    0  502  0.12834046111E+03 -0.45461771780E+03  0.15321056330E+04  0.16032767148E+04  0.10100000352E+00 0. -1.
</event>
<event>
 5   0  0.9040674E-03  0.1035032E+04  0.7818609E-02  0.9270935E-01
        2   -1    0    0  501    0  0.00000000000E+00  0.00000000000E+00  0.70239332691E+03  0.70239332691E+03  0.25500000920E-02 0.  1.
       -2   -1    0    0    0  501  0.00000000000E+00  0.00000000000E+00 -0.38130041134E+03  0.38130041135E+03  0.25500000920E-02 0. -1.
    10030    2    1    2    0    0  0.00000000000E+00  0.00000000000E+00  0.32109291557E+03  0.10836937383E+04  0.10350321048E+04 0.  0.
        1    1    3    3  502    0  0.48388675960E+03  0.18346033147E+03  0.16508319949E+03  0.54319108251E+03  0.50400001928E-02 0.  1.
       -1    1    3    3    0  502 -0.48388675960E+03 -0.18346033147E+03  0.15600971608E+03  0.54050265575E+03  0.50400001928E-02 0. -1.
</event>
<event>
 5   0  0.3513625E-03  0.1006253E+04  0.7818609E-02  0.9301713E-01
        3   -1    0    0  501    0  0.00000000000E+00  0.00000000000E+00  0.82738868007E+03  0.82738868624E+03  0.10100000352E+00 0. -1.
       -3   -1    0    0    0  501  0.00000000000E+00  0.00000000000E+00 -0.30594597148E+03  0.30594598815E+03  0.10100000352E+00 0.  1.
    10030    2    1    2    0    0  0.00000000000E+00  0.00000000000E+00  0.52144270859E+03  0.11333346744E+04  0.10062529433E+04 0.  0.
        3    1    3    3  502    0  0.20518130519E+03 -0.45931478087E+03  0.25151600402E+03  0.56243199269E+03  0.10100000352E+00 0.  1.
       -3    1    3    3    0  502 -0.20518130519E+03  0.45931478087E+03  0.26992670457E+03  0.57090268169E+03  0.10100000352E+00 0. -1.
</event>
<event>
 5   0  0.8875655E-03  0.1008691E+04  0.7818609E-02  0.9299064E-01
       -2   -1    0    0    0  501  0.00000000000E+00  0.00000000000E+00  0.18482668869E+03  0.18482668871E+03  0.25500000920E-02 0. -1.
        2   -1    0    0  501    0  0.00000000000E+00  0.00000000000E+00 -0.13762310660E+04  0.13762310660E+04  0.25500000920E-02 0.  1.
    10030    2    1    2    0    0  0.00000000000E+00  0.00000000000E+00 -0.11914043773E+04  0.15610577547E+04  0.10086906975E+04 0.  0.
        4    1    3    3  502    0  0.19720640232E+03  0.45380911334E+03 -0.74677870341E+03  0.89583096689E+03  0.12699999809E+01 0.  1.
       -4    1    3    3    0  502 -0.19720640232E+03 -0.45380911334E+03 -0.44462567392E+03  0.66522678785E+03  0.12699999809E+01 0. -1.
</event>
<event>
 5   0  0.5310275E-03  0.1001166E+04  0.7818609E-02  0.9307267E-01
       -1   -1    0    0    0  501  0.00000000000E+00  0.00000000000E+00  0.29249668925E+03  0.29249668929E+03  0.50400001928E-02 0.  1.
        1   -1    0    0  501    0  0.00000000000E+00  0.00000000000E+00 -0.85670456582E+03  0.85670456583E+03  0.50400001928E-02 0. -1.
    10030    2    1    2    0    0  0.00000000000E+00  0.00000000000E+00 -0.56420787657E+03  0.11492012551E+04  0.10011658188E+04 0.  0.
        1    1    3    3  502    0  0.19793452826E+03 -0.21013024720E+03  0.18732918097E+03  0.34412936570E+03  0.50400001928E-02 0.  1.
       -1    1    3    3    0  502 -0.19793452826E+03  0.21013024720E+03 -0.75153705754E+03  0.80507188943E+03  0.50400001928E-02 0. -1.
</event>
<event>
 5   0  0.9040674E-03  0.1007430E+04  0.7818609E-02  0.9300433E-01
       -2   -1    0    0    0  501  0.00000000000E+00  0.00000000000E+00  0.44867758045E+03  0.44867758045E+03  0.25500000920E-02 0.  1.
        2   -1    0    0  501    0  0.00000000000E+00  0.00000000000E+00 -0.56550326126E+03  0.56550326126E+03  0.25500000920E-02 0. -1.
    10030    2    1    2    0    0  0.00000000000E+00  0.00000000000E+00 -0.11682568081E+03  0.10141808417E+04  0.10074296700E+04 0.  0.
        1    1    3    3  502    0 -0.18262743346E+02  0.49234985296E+03  0.47107183429E+02  0.49493534149E+03  0.50400001928E-02 0.  1.
       -1    1    3    3    0  502  0.18262743346E+02 -0.49234985296E+03 -0.16393286424E+03  0.51924550023E+03  0.50400001928E-02 0. -1.
</event>
<event>
 5   0  0.8875655E-03  0.1015854E+04  0.7818609E-02  0.9291326E-01
       -2   -1    0    0    0  501  0.00000000000E+00  0.00000000000E+00  0.45158150998E+03  0.45158150999E+03  0.25500000920E-02 0.  1.
        2   -1    0    0  501    0  0.00000000000E+00  0.00000000000E+00 -0.57130253280E+03  0.57130253281E+03  0.25500000920E-02 0. -1.
    10030    2    1    2    0    0  0.00000000000E+00  0.00000000000E+00 -0.11972102282E+03  0.10228840428E+04  0.10158536517E+04 0.  0.
        4    1    3    3  502    0 -0.48123186403E+03 -0.59453602035E+02 -0.21213278649E+03  0.52926436661E+03  0.12699999809E+01 0. -1.
       -4    1    3    3    0  502  0.48123186403E+03  0.59453602035E+02  0.92411763663E+02  0.49361967619E+03  0.12699999809E+01 0.  1.
</event>
<event>
 5   0  0.8907355E-03  0.1002537E+04  0.7818609E-02  0.9305766E-01
       -2   -1    0    0    0  501  0.00000000000E+00  0.00000000000E+00  0.18214280229E+03  0.18214280231E+03  0.25500000920E-02 0.  1.
        2   -1    0    0  501    0  0.00000000000E+00  0.00000000000E+00 -0.13795234293E+04  0.13795234293E+04  0.25500000920E-02 0. -1.
    10030    2    1    2    0    0  0.00000000000E+00  0.00000000000E+00 -0.11973806270E+04  0.15616662317E+04  0.10025373076E+04 0.  0.
        5    1    3    3  502    0  0.19798275594E+03 -0.39793560496E+03 -0.23772309190E+03  0.50406772934E+03  0.46999998093E+01 0.  1.
       -5    1    3    3    0  502 -0.19798275594E+03  0.39793560496E+03 -0.95965753515E+03  0.10575985023E+04  0.46999998093E+01 0. -1.
</event>
<event>
 5   0  0.9040674E-03  0.9813319E+03  0.7818609E-02  0.9329260E-01
       -2   -1    0    0    0  501  0.00000000000E+00  0.00000000000E+00  0.12776863417E+03  0.12776863420E+03  0.25500000920E-02 0. -1.
        2   -1    0    0  501    0  0.00000000000E+00  0.00000000000E+00 -0.18842894447E+04  0.18842894447E+04  0.25500000920E-02 0.  1.
    10030    2    1    2    0    0  0.00000000000E+00  0.00000000000E+00 -0.17565208105E+04  0.20120580789E+04  0.98133192908E+03 0.  0.
        1    1    3    3  502    0  0.39351407558E+03 -0.12395651415E+03 -0.33372576344E+03  0.53065189182E+03  0.50400001928E-02 0. -1.
       -1    1    3    3    0  502 -0.39351407558E+03  0.12395651415E+03 -0.14227950471E+04  0.14814061871E+04  0.50400001928E-02 0.  1.
</event>
<event>
 5   0  0.8907355E-03  0.1010586E+04  0.7818609E-02  0.9297010E-01
        2   -1    0    0  501    0  0.00000000000E+00  0.00000000000E+00  0.14904024619E+04  0.14904024619E+04  0.25500000920E-02 0.  1.
       -2   -1    0    0    0  501  0.00000000000E+00  0.00000000000E+00 -0.17131022490E+03  0.17131022492E+03  0.25500000920E-02 0. -1.
    10030    2    1    2    0    0  0.00000000000E+00  0.00000000000E+00  0.13190922370E+04  0.16617126868E+04  0.10105863268E+04 0.  0.
        5    1    3    3  502    0 -0.45825169900E+03  0.95938475420E+02  0.97196538216E+03  0.10788593999E+04  0.46999998093E+01 0.  1.
       -5    1    3    3    0  502  0.45825169900E+03 -0.95938475420E+02  0.34712685486E+03  0.58285328692E+03  0.46999998093E+01 0. -1.
</event>
<event>
 5   0  0.9040674E-03  0.9931475E+03  0.7818609E-02  0.9316093E-01
       -2   -1    0    0    0  501  0.00000000000E+00  0.00000000000E+00  0.88401885512E+02  0.88401885549E+02  0.25500000920E-02 0.  1.
        2   -1    0    0  501    0  0.00000000000E+00  0.00000000000E+00 -0.27893692159E+04  0.27893692159E+04  0.25500000920E-02 0. -1.
    10030    2    1    2    0    0  0.00000000000E+00  0.00000000000E+00 -0.27009673304E+04  0.28777711015E+04  0.99314751801E+03 0.  0.
        1    1    3    3  502    0  0.49877037547E+02 -0.32757725202E+03 -0.24221784710E+04  0.24447378428E+04  0.50400001928E-02 0. -1.
       -1    1    3    3    0  502 -0.49877037547E+02  0.32757725202E+03 -0.27878885943E+03  0.43303325864E+03  0.50400001928E-02 0.  1.
</event>
<event>
 5   0  0.5349685E-03  0.1018888E+04  0.7818609E-02  0.9288068E-01
        1   -1    0    0  501    0  0.00000000000E+00  0.00000000000E+00  0.72985220879E+03  0.72985220881E+03  0.50400001928E-02 0. -1.
       -1   -1    0    0    0  501  0.00000000000E+00  0.00000000000E+00 -0.35559705286E+03  0.35559705290E+03  0.50400001928E-02 0.  1.
    10030    2    1    2    0    0  0.00000000000E+00  0.00000000000E+00  0.37425515593E+03  0.10854492617E+04  0.10188882068E+04 0.  0.
        4    1    3    3  502    0  0.43228266137E+03  0.24181690719E+03  0.60233002643E+02  0.49897228724E+03  0.12699999809E+01 0.  1.
       -4    1    3    3    0  502 -0.43228266137E+03 -0.24181690719E+03  0.31402215329E+03  0.58647697447E+03  0.12699999809E+01 0. -1.
</event>
<event>
 5   0  0.5189877E-03  0.1128144E+04  0.7818609E-02  0.9178187E-01
        1   -1    0    0  501    0  0.00000000000E+00  0.00000000000E+00  0.11723873693E+04  0.11723873694E+04  0.50400001928E-02 0.  1.
       -1   -1    0    0    0  501  0.00000000000E+00  0.00000000000E+00 -0.27139254063E+03  0.27139254068E+03  0.50400001928E-02 0. -1.
    10030    2    1    2    0    0  0.00000000000E+00  0.00000000000E+00  0.90099482871E+03  0.14437799100E+04  0.11281439391E+04 0.  0.
        3    1    3    3  502    0  0.46803225409E+02 -0.33885701840E+03 -0.12350015355E+03  0.36368519210E+03  0.10100000352E+00 0. -1.
       -3    1    3    3    0  502 -0.46803225409E+02  0.33885701840E+03  0.10244949823E+04  0.10800947179E+04  0.10100000352E+00 0.  1.
</event>
<event>
 5   0  0.9040674E-03  0.9814121E+03  0.7818609E-02  0.9329170E-01
       -2   -1    0    0    0  501  0.00000000000E+00  0.00000000000E+00  0.54480479435E+03  0.54480479436E+03  0.25500000920E-02 0.  1.
        2   -1    0    0  501    0  0.00000000000E+00  0.00000000000E+00 -0.44197925961E+03  0.44197925961E+03  0.25500000920E-02 0. -1.
    10030    2    1    2    0    0  0.00000000000E+00  0.00000000000E+00  0.10282553475E+03  0.98678405397E+03  0.98141208398E+03 0.  0.
        1    1    3    3  502    0  0.35160786463E+03 -0.26413360832E+03 -0.16748919685E+03  0.47058185749E+03  0.50400001928E-02 0. -1.
       -1    1    3    3    0  502 -0.35160786463E+03  0.26413360832E+03  0.27031473159E+03  0.51620219648E+03  0.50400001928E-02 0.  1.
</event>
<event>
 5   0  0.5201968E-03  0.1026241E+04  0.7818609E-02  0.9280223E-01
        1   -1    0    0  501    0  0.00000000000E+00  0.00000000000E+00  0.88017324313E+03  0.88017324314E+03  0.50400001928E-02 0.  1.
       -1   -1    0    0    0  501  0.00000000000E+00  0.00000000000E+00 -0.29913727366E+03  0.29913727370E+03  0.50400001928E-02 0. -1.
    10030    2    1    2    0    0  0.00000000000E+00  0.00000000000E+00  0.58103596947E+03  0.11793105168E+04  0.10262409548E+04 0.  0.
        2    1    3    3  502    0  0.94223781393E+02 -0.13138121052E+03  0.85013844061E+03  0.86537535883E+03  0.25500000920E-02 0.  1.
       -2    1    3    3    0  502 -0.94223781393E+02  0.13138121052E+03 -0.26910247114E+03  0.31393515802E+03  0.25500000920E-02 0. -1.
</event>
<event>
 5   0  0.8968798E-03  0.9917920E+03  0.7818609E-02  0.9317593E-01
        2   -1    0    0  501    0  0.00000000000E+00  0.00000000000E+00  0.12528641049E+04  0.12528641049E+04  0.25500000920E-02 0. -1.
       -2   -1    0    0    0  501  0.00000000000E+00  0.00000000000E+00 -0.19628052353E+03  0.19628052354E+03  0.25500000920E-02 0.  1.
    10030    2    1    2    0    0  0.00000000000E+00  0.00000000000E+00  0.10565835813E+04  0.14491446284E+04  0.99179195888E+03 0.  0.
        2    1    3    3  502    0 -0.14134619227E+03  0.12226651865E+03  0.11994376461E+04  0.12139104228E+04  0.25500000920E-02 0. -1.
       -2    1    3    3    0  502  0.14134619227E+03 -0.12226651865E+03 -0.14285406479E+03  0.23523420560E+03  0.25500000920E-02 0.  1.
</event>
<event>
 5   0  0.5349685E-03  0.1009867E+04  0.7818609E-02  0.9297789E-01
       -1   -1    0    0    0  501  0.00000000000E+00  0.00000000000E+00  0.20510151130E+03  0.20510151137E+03  0.50400001928E-02 0. -1.
        1   -1    0    0  501    0  0.00000000000E+00  0.00000000000E+00 -0.12430803977E+04  0.12430803978E+04  0.50400001928E-02 0.  1.
    10030    2    1    2    0    0  0.00000000000E+00  0.00000000000E+00 -0.10379788864E+04  0.14481819091E+04  0.10098666611E+04 0.  0.
        4    1    3    3  502    0 -0.33555197672E+03  0.37359390227E+03 -0.59471564257E+03  0.77836742050E+03  0.12699999809E+01 0.  1.
       -4    1    3    3    0  502  0.33555197672E+03 -0.37359390227E+03 -0.44326324388E+03  0.66981448862E+03  0.12699999809E+01 0. -1.
</event>
<event>
 5   0  0.8907355E-03  0.1051928E+04  0.7818609E-02  0.9253356E-01
        2   -1    0    0  501    0  0.00000000000E+00  0.00000000000E+00  0.41314884810E+03  0.41314884811E+03  0.25500000920E-02 0. -1.
       -2   -1    0    0    0  501  0.00000000000E+00  0.00000000000E+00 -0.66958458330E+03  0.66958458330E+03  0.25500000920E-02 0.  1.
    10030    2    1    2    0    0  0.00000000000E+00  0.00000000000E+00 -0.25643573520E+03  0.10827334314E+04  0.10519279430E+04 0.  0.
        5    1    3    3  502    0  0.33718865787E+03 -0.28492756387E+02 -0.54263504991E+03  0.63951772106E+03  0.46999998093E+01 0.  1.
       -5    1    3    3    0  502 -0.33718865787E+03  0.28492756387E+02  0.28619931471E+03  0.44321571035E+03  0.46999998093E+01 0. -1.
</event>
<event>
 5   0  0.5349685E-03  0.1019267E+04  0.7818609E-02  0.9287662E-01
       -1   -1    0    0    0  501  0.00000000000E+00  0.00000000000E+00  0.50628393581E+03  0.50628393583E+03  0.50400001928E-02 0. -1.
        1   -1    0    0  501    0  0.00000000000E+00  0.00000000000E+00 -0.51300517971E+03  0.51300517973E+03  0.50400001928E-02 0.  1.
    10030    2    1    2    0    0  0.00000000000E+00  0.00000000000E+00 -0.67212439031E+01  0.10192891156E+04  0.10192669552E+04 0.  0.
        4    1    3    3  502    0  0.13996758373E+02 -0.49052694266E+03  0.13416355861E+03  0.50873771639E+03  0.12699999809E+01 0. -1.
       -4    1    3    3    0  502 -0.13996758373E+02  0.49052694266E+03 -0.14088480252E+03  0.51055139918E+03  0.12699999809E+01 0.  1.
</event>
<event>
 5   0  0.9040674E-03  0.9833791E+03  0.7818609E-02  0.9326964E-01
        2   -1    0    0  501    0  0.00000000000E+00  0.00000000000E+00  0.24470078456E+04  0.24470078456E+04  0.25500000920E-02 0.  1.
       -2   -1    0    0    0  501  0.00000000000E+00  0.00000000000E+00 -0.98797649614E+02  0.98797649647E+02  0.25500000920E-02 0. -1.
    10030    2    1    2    0    0  0.00000000000E+00  0.00000000000E+00  0.23482101959E+04  0.25458054952E+04  0.98337912073E+03 0.  0.
        1    1    3    3  502    0 -0.38326737400E+03  0.70743515619E+02  0.39805870914E+03  0.55708999356E+03  0.50400001928E-02 0. -1.
       -1    1    3    3    0  502  0.38326737400E+03 -0.70743515619E+02  0.19501514868E+04  0.19887155016E+04  0.50400001928E-02 0.  1.
</event>
<event>
 5   0  0.5201968E-03  0.1003461E+04  0.7818609E-02  0.9304757E-01
       -1   -1    0    0    0  501  0.00000000000E+00  0.00000000000E+00  0.13862439902E+03  0.13862439911E+03  0.50400001928E-02 0.  1.
        1   -1    0    0  501    0  0.00000000000E+00  0.00000000000E+00 -0.18159402056E+04  0.18159402056E+04  0.50400001928E-02 0. -1.
    10030    2    1    2    0    0  0.00000000000E+00  0.00000000000E+00 -0.16773158066E+04  0.19545646047E+04  0.10034612494E+04 0.  0.
        2    1    3    3  502    0 -0.38601911022E+03 -0.31853065464E+03 -0.90782860480E+03  0.10366413590E+04  0.25500000920E-02 0. -1.
       -2    1    3    3    0  502  0.38601911022E+03  0.31853065464E+03 -0.76948720179E+03  0.91792324577E+03  0.25500000920E-02 0.  1.
</event>
<event>
 5   0  0.5201968E-03  0.1016276E+04  0.7818609E-02  0.9290871E-01
        1   -1    0    0  501    0  0.00000000000E+00  0.00000000000E+00  0.17793928211E+04  0.17793928211E+04  0.50400001928E-02 0. -1.
       -1   -1    0    0    0  501  0.00000000000E+00  0.00000000000E+00 -0.14510809464E+03  0.14510809473E+03  0.50400001928E-02 0.  1.
    10030    2    1    2    0    0  0.00000000000E+00  0.00000000000E+00  0.16342847264E+04  0.19245009158E+04  0.10162761475E+04 0.  0.
        2    1    3    3  502    0 -0.31501520836E+03  0.87355197480E+02  0.15538268391E+04  0.15878423593E+04  0.25500000920E-02 0. -1.
       -2    1    3    3    0  502  0.31501520836E+03 -0.87355197480E+02  0.80457887307E+02  0.33665855650E+03  0.25500000920E-02 0.  1.
</event>
<event>
 5   0  0.5189877E-03  0.9658173E+03  0.7818609E-02  0.9346851E-01
       -1   -1    0    0    0  501  0.00000000000E+00  0.00000000000E+00  0.22552050212E+03  0.22552050218E+03  0.50400001928E-02 0.  1.
        1   -1    0    0  501    0  0.00000000000E+00  0.00000000000E+00 -0.10340556511E+04  0.10340556511E+04  0.50400001928E-02 0. -1.
    10030    2    1    2    0    0  0.00000000000E+00  0.00000000000E+00 -0.80853514897E+03  0.12595761533E+04  0.96581726988E+03 0.  0.
        3    1    3    3  502    0  0.13286665187E+03  0.33306524488E+03 -0.82608633636E+03  0.90055796585E+03  0.10100000352E+00 0. -1.
       -3    1    3    3    0  502 -0.13286665187E+03 -0.33306524488E+03  0.17551187398E+02  0.35901818743E+03  0.10100000352E+00 0.  1.
</event>
<event>
 5   0  0.5072205E-03  0.1020294E+04  0.7818609E-02  0.9286562E-01
        1   -1    0    0  501    0  0.00000000000E+00  0.00000000000E+00  0.10344289474E+04  0.10344289474E+04  0.50400001928E-02 0. -1.
       -1   -1    0    0    0  501  0.00000000000E+00  0.00000000000E+00 -0.25158811581E+03  0.25158811586E+03  0.50400001928E-02 0.  1.
    10030    2    1    2    0    0  0.00000000000E+00  0.00000000000E+00  0.78284083159E+03  0.12860170633E+04  0.10202941338E+04 0.  0.
        5    1    3    3  502    0  0.50272320361E+03 -0.56870081260E+02  0.30912325961E+03  0.59291154924E+03  0.46999998093E+01 0.  1.
       -5    1    3    3    0  502 -0.50272320361E+03  0.56870081260E+02  0.47371757199E+03  0.69310551404E+03  0.46999998093E+01 0. -1.
</event>
<event>
 5   0  0.5349685E-03  0.1004728E+04  0.7818609E-02  0.9303375E-01
        1   -1    0    0  501    0  0.00000000000E+00  0.00000000000E+00  0.72964705615E+03  0.72964705616E+03  0.50400001928E-02 0.  1.
       -1   -1    0    0    0  501  0.00000000000E+00  0.00000000000E+00 -0.34587876226E+03  0.34587876230E+03  0.50400001928E-02 0. -1.
    10030    2    1    2    0    0  0.00000000000E+00  0.00000000000E+00  0.38376829389E+03  0.10755258185E+04  0.10047276660E+04 0.  0.
        4    1    3    3  502    0  0.45187556584E+03  0.27863162949E+02  0.42494069319E+03  0.62092196650E+03  0.12699999809E+01 0.  1.
       -4    1    3    3    0  502 -0.45187556584E+03 -0.27863162949E+02 -0.41172399304E+02  0.45460385196E+03  0.12699999809E+01 0. -1.
</event>
<event>
 5   0  0.8875655E-03  0.1024363E+04  0.7818609E-02  0.9282220E-01
       -2   -1    0    0    0  501  0.00000000000E+00  0.00000000000E+00  0.25329588677E+03  0.25329588678E+03  0.25500000920E-02 0.  1.
        2   -1    0    0  501    0  0.00000000000E+00  0.00000000000E+00 -0.10356661969E+04  0.10356661969E+04  0.25500000920E-02 0. -1.
    10030    2    1    2    0    0  0.00000000000E+00  0.00000000000E+00 -0.78237031009E+03  0.12889620836E+04  0.10243631929E+04 0.  0.
        4    1    3    3  502    0 -0.10233077665E+03 -0.46509499553E+02 -0.10199524284E+04  0.10261283012E+04  0.12699999809E+01 0. -1.
       -4    1    3    3    0  502  0.10233077665E+03  0.46509499553E+02  0.23758211827E+03  0.26283378249E+03  0.12699999809E+01 0.  1.
</event>
<event>
 5   0  0.9040674E-03  0.9904107E+03  0.7818609E-02  0.9319125E-01
        2   -1    0    0  501    0  0.00000000000E+00  0.00000000000E+00  0.56226639102E+03  0.56226639103E+03  0.25500000920E-02 0.  1.
       -2   -1    0    0    0  501  0.00000000000E+00  0.00000000000E+00 -0.43614259337E+03  0.43614259338E+03  0.25500000920E-02 0. -1.
    10030    2    1    2    0    0  0.00000000000E+00  0.00000000000E+00  0.12612379765E+03  0.99840898441E+03  0.99041066624E+03 0.  0.
        1    1    3    3  502    0  0.87795163059E+01  0.31358368145E+03  0.44932269352E+03  0.54799880302E+03  0.50400001928E-02 0.  1.
       -1    1    3    3    0  502 -0.87795163059E+01 -0.31358368145E+03 -0.32319889586E+03  0.45041018138E+03  0.50400001928E-02 0. -1.
</event>
<event>
 5   0  0.8907355E-03  0.1001318E+04  0.7818609E-02  0.9307101E-01
        2   -1    0    0  501    0  0.00000000000E+00  0.00000000000E+00  0.18065013601E+04  0.18065013601E+04  0.25500000920E-02 0.  1.
       -2   -1    0    0    0  501  0.00000000000E+00  0.00000000000E+00 -0.13875402639E+03  0.13875402641E+03  0.25500000920E-02 0. -1.
    10030    2    1    2    0    0  0.00000000000E+00  0.00000000000E+00  0.16677473337E+04  0.19452553865E+04  0.10013178065E+04 0.  0.
        5    1    3    3  502    0  0.49852665106E+02  0.49597787387E+03  0.74362908589E+03  0.89525730769E+03  0.46999998093E+01 0. -1.
       -5    1    3    3    0  502 -0.49852665106E+02 -0.49597787387E+03  0.92411824785E+03  0.10499980788E+04  0.46999998093E+01 0.  1.
</event>
<event>
 5   0  0.8968798E-03  0.9977010E+03  0.7818609E-02  0.9311070E-01
       -2   -1    0    0    0  501  0.00000000000E+00  0.00000000000E+00  0.10631353947E+03  0.10631353950E+03  0.25500000920E-02 0. -1.
        2   -1    0    0  501    0  0.00000000000E+00  0.00000000000E+00 -0.23407348717E+04  0.23407348717E+04  0.25500000920E-02 0.  1.
    10030    2    1    2    0    0  0.00000000000E+00  0.00000000000E+00 -0.22344213323E+04  0.24470484112E+04  0.99770097567E+03 0.  0.
        2    1    3    3  502    0 -0.39522070541E+03  0.18100992097E+02 -0.18624594084E+04  0.19040173580E+04  0.25500000920E-02 0.  1.
       -2    1    3    3    0  502  0.39522070541E+03 -0.18100992097E+02 -0.37196192390E+03  0.54303105320E+03  0.25500000920E-02 0. -1.
</event>
<event>
 5   0  0.5201968E-03  0.1018374E+04  0.7818609E-02  0.9288619E-01
       -1   -1    0    0    0  501  0.00000000000E+00  0.00000000000E+00  0.50472859480E+03  0.50472859483E+03  0.50400001928E-02 0. -1.
        1   -1    0    0  501    0  0.00000000000E+00  0.00000000000E+00 -0.51368503613E+03  0.51368503615E+03  0.50400001928E-02 0.  1.
    10030    2    1    2    0    0  0.00000000000E+00  0.00000000000E+00 -0.89564413256E+01  0.10184136310E+04  0.10183742465E+04 0.  0.
        2    1    3    3  502    0  0.22528662254E+03  0.40965350118E+03 -0.20623208401E+03  0.51098114037E+03  0.25500000920E-02 0. -1.
       -2    1    3    3    0  502 -0.22528662254E+03 -0.40965350118E+03  0.19727564268E+03  0.50743249061E+03  0.25500000920E-02 0.  1.
</event>
<event>
 5   0  0.5310275E-03  0.1009026E+04  0.7818609E-02  0.9298700E-01
       -1   -1    0    0    0  501  0.00000000000E+00  0.00000000000E+00  0.15226001743E+03  0.15226001751E+03  0.50400001928E-02 0.  1.
        1   -1    0    0  501    0  0.00000000000E+00  0.00000000000E+00 -0.16717026608E+04  0.16717026608E+04  0.50400001928E-02 0. -1.
    10030    2    1    2    0    0  0.00000000000E+00  0.00000000000E+00 -0.15194426434E+04  0.18239626783E+04  0.10090262164E+04 0.  0.
        1    1    3    3  502    0 -0.17184924411E+03 -0.14593267213E+03  0.56136175402E+02  0.23233548526E+03  0.50400001928E-02 0.  1.
       -1    1    3    3    0  502  0.17184924411E+03  0.14593267213E+03 -0.15755788188E+04  0.15916271931E+04  0.50400001928E-02 0. -1.
</event>
<event>
 5   0  0.8907355E-03  0.1001296E+04  0.7818609E-02  0.9307125E-01
       -2   -1    0    0    0  501  0.00000000000E+00  0.00000000000E+00  0.20882200178E+03  0.20882200180E+03  0.25500000920E-02 0.  1.
        2   -1    0    0  501    0  0.00000000000E+00  0.00000000000E+00 -0.12002961926E+04  0.12002961926E+04  0.25500000920E-02 0. -1.
    10030    2    1    2    0    0  0.00000000000E+00  0.00000000000E+00 -0.99147419082E+03  0.14091181944E+04  0.10012956680E+04 0.  0.
        5    1    3    3  502    0  0.39468642262E+03 -0.29791279607E+03 -0.38585307439E+03  0.62724324729E+03  0.46999998093E+01 0.  1.
       -5    1    3    3    0  502 -0.39468642262E+03  0.29791279607E+03 -0.60562111643E+03  0.78187494711E+03  0.46999998093E+01 0. -1.
</event>
<event>
 5   0  0.9040674E-03  0.1006995E+04  0.7818609E-02  0.9300906E-01
        2   -1    0    0  501    0  0.00000000000E+00  0.00000000000E+00  0.70708283680E+03  0.70708283680E+03  0.25500000920E-02 0. -1.
       -2   -1    0    0    0  501  0.00000000000E+00  0.00000000000E+00 -0.35852910926E+03  0.35852910927E+03  0.25500000920E-02 0.  1.
    10030    2    1    2    0    0  0.00000000000E+00  0.00000000000E+00  0.34855372754E+03  0.10656119461E+04  0.10069950936E+04 0.  0.
        1    1    3    3  502    0 -0.34694718249E+03  0.35078008492E+03  0.67976743688E+02  0.49803599581E+03  0.50400001928E-02 0. -1.
       -1    1    3    3    0  502  0.34694718249E+03 -0.35078008492E+03  0.28057698385E+03  0.56757595026E+03  0.50400001928E-02 0.  1.
</event>
<event>
 5   0  0.5072205E-03  0.9950717E+03  0.7818609E-02  0.9313967E-01
        1   -1    0    0  501    0  0.00000000000E+00  0.00000000000E+00  0.94127152405E+03  0.94127152406E+03  0.50400001928E-02 0.  1.
       -1   -1    0    0    0  501  0.00000000000E+00  0.00000000000E+00 -0.26298670712E+03  0.26298670716E+03  0.50400001928E-02 0. -1.
    10030    2    1    2    0    0  0.00000000000E+00  0.00000000000E+00  0.67828481693E+03  0.12042582312E+04  0.99507165300E+03 0.  0.
        5    1    3    3  502    0 -0.13095017154E+03 -0.12694660551E+03 -0.22104351502E+03  0.28661073533E+03  0.46999998093E+01 0. -1.
       -5    1    3    3    0  502  0.13095017154E+03  0.12694660551E+03  0.89932833195E+03  0.91764749590E+03  0.46999998093E+01 0.  1.
</event>
<event>
 5   0  0.5189877E-03  0.9993300E+03  0.7818609E-02  0.9309280E-01
       -1   -1    0    0    0  501  0.00000000000E+00  0.00000000000E+00  0.26971172562E+03  0.26971172566E+03  0.50400001928E-02 0.  1.
        1   -1    0    0  501    0  0.00000000000E+00  0.00000000000E+00 -0.92567389292E+03  0.92567389294E+03  0.50400001928E-02 0. -1.
    10030    2    1    2    0    0  0.00000000000E+00  0.00000000000E+00 -0.65596216731E+03  0.11953856186E+04  0.99932998165E+03 0.  0.
        3    1    3    3  502    0 -0.44198284735E+02  0.94348035879E+02  0.25657395938E+03  0.27692101234E+03  0.10100000352E+00 0.  1.
       -3    1    3    3    0  502  0.44198284735E+02 -0.94348035879E+02 -0.91253612668E+03  0.91846460626E+03  0.10100000352E+00 0. -1.
</event>
<event>
 5   0  0.8907355E-03  0.1001262E+04  0.7818609E-02  0.9307162E-01
       -2   -1    0    0    0  501  0.00000000000E+00  0.00000000000E+00  0.21182621775E+03  0.21182621776E+03  0.25500000920E-02 0.  1.
        2   -1    0    0  501    0  0.00000000000E+00  0.00000000000E+00 -0.11831931294E+04  0.11831931294E+04  0.25500000920E-02 0. -1.
    10030    2    1    2    0    0  0.00000000000E+00  0.00000000000E+00 -0.97136691169E+03  0.13950193472E+04  0.10012618548E+04 0.  0.
        5    1    3    3  502    0  0.23679265091E+03 -0.37038898654E+03 -0.81934109137E+03  0.92983905859E+03  0.46999998093E+01 0. -1.
       -5    1    3    3    0  502 -0.23679265091E+03  0.37038898654E+03 -0.15202582033E+03  0.46518028862E+03  0.46999998093E+01 0.  1.
</event>
<event>
 5   0  0.5189877E-03  0.1007657E+04  0.7818609E-02  0.9300186E-01
        1   -1    0    0  501    0  0.00000000000E+00  0.00000000000E+00  0.18186709500E+04  0.18186709500E+04  0.50400001928E-02 0. -1.
       -1   -1    0    0    0  501  0.00000000000E+00  0.00000000000E+00 -0.13957621881E+03  0.13957621891E+03  0.50400001928E-02 0.  1.
    10030    2    1    2    0    0  0.00000000000E+00  0.00000000000E+00  0.16790947312E+04  0.19582471689E+04  0.10076571134E+04 0.  0.
        3    1    3    3  502    0  0.36292775136E+03 -0.76325964658E+02  0.17680237395E+03  0.41085434794E+03  0.10100000352E+00 0.  1.
       -3    1    3    3    0  502 -0.36292775136E+03  0.76325964658E+02  0.15022923572E+04  0.15473928210E+04  0.10100000352E+00 0. -1.
</event>
<event>
 5   0  0.8907355E-03  0.1034305E+04  0.7818609E-02  0.9271700E-01
        2   -1    0    0  501    0  0.00000000000E+00  0.00000000000E+00  0.13418173578E+04  0.13418173578E+04  0.25500000920E-02 0.  1.
       -2   -1    0    0    0  501  0.00000000000E+00  0.00000000000E+00 -0.19931677937E+03  0.19931677938E+03  0.25500000920E-02 0. -1.
    10030    2    1    2    0    0  0.00000000000E+00  0.00000000000E+00  0.11425005785E+04  0.15411341372E+04  0.10343050116E+04 0.  0.
        5    1    3    3  502    0  0.17785717338E+03 -0.15179492999E+02 -0.15192493124E+03  0.23445013513E+03  0.46999998093E+01 0. -1.
       -5    1    3    3    0  502 -0.17785717338E+03  0.15179492999E+02  0.12944255097E+04  0.13066840021E+04  0.46999998093E+01 0.  1.
</event>
<event>
 5   0  0.5201968E-03  0.9955706E+03  0.7818609E-02  0.9313416E-01
        1   -1    0    0  501    0  0.00000000000E+00  0.00000000000E+00  0.37548318650E+03  0.37548318653E+03  0.50400001928E-02 0.  1.
       -1   -1    0    0    0  501  0.00000000000E+00  0.00000000000E+00 -0.65992355680E+03  0.65992355682E+03  0.50400001928E-02 0. -1.
    10030    2    1    2    0    0  0.00000000000E+00  0.00000000000E+00 -0.28444037030E+03  0.10354067434E+04  0.99557059013E+03 0.  0.
        2    1    3    3  502    0 -0.13227537179E+03  0.20592684937E+03 -0.59302437324E+03  0.64154543763E+03  0.25500000920E-02 0. -1.
       -2    1    3    3    0  502  0.13227537179E+03 -0.20592684937E+03  0.30858400294E+03  0.39386130573E+03  0.25500000920E-02 0.  1.
</event>
<event>
 5   0  0.9040674E-03  0.9924205E+03  0.7818609E-02  0.9316897E-01
        2   -1    0    0  501    0  0.00000000000E+00  0.00000000000E+00  0.64405828330E+03  0.64405828330E+03  0.25500000920E-02 0. -1.
       -2   -1    0    0    0  501  0.00000000000E+00  0.00000000000E+00 -0.38230176812E+03  0.38230176812E+03  0.25500000920E-02 0.  1.
    10030    2    1    2    0    0  0.00000000000E+00  0.00000000000E+00  0.26175651518E+03  0.10263600514E+04  0.99242051668E+03 0.  0.
        1    1    3    3  502    0 -0.46897050006E+02  0.21901805432E+03  0.58880340566E+03  0.62996642129E+03  0.50400001928E-02 0. -1.
       -1    1    3    3    0  502  0.46897050006E+02 -0.21901805432E+03 -0.32704689048E+03  0.39639363014E+03  0.50400001928E-02 0.  1.
</event>
<event>
 5   0  0.5201968E-03  0.9896644E+03  0.7818609E-02  0.9319954E-01
        1   -1    0    0  501    0  0.00000000000E+00  0.00000000000E+00  0.16533373911E+04  0.16533373911E+04  0.50400001928E-02 0.  1.
       -1   -1    0    0    0  501  0.00000000000E+00  0.00000000000E+00 -0.14809976650E+03  0.14809976659E+03  0.50400001928E-02 0. -1.
    10030    2    1    2    0    0  0.00000000000E+00  0.00000000000E+00  0.15052376246E+04  0.18014371577E+04  0.98966435049E+03 0.  0.
        2    1    3    3  502    0  0.11000717464E+03 -0.16321099603E+03 -0.73781937966E+02  0.21019795926E+03  0.25500000920E-02 0. -1.
       -2    1    3    3    0  502 -0.11000717464E+03  0.16321099603E+03  0.15790195625E+04  0.15912391984E+04  0.25500000920E-02 0.  1.
</event>
<event>
 5   0  0.8875655E-03  0.1008012E+04  0.7818609E-02  0.9299801E-01
       -2   -1    0    0    0  501  0.00000000000E+00  0.00000000000E+00  0.50297223379E+03  0.50297223380E+03  0.25500000920E-02 0.  1.
        2   -1    0    0  501    0  0.00000000000E+00  0.00000000000E+00 -0.50504173598E+03  0.50504173599E+03  0.25500000920E-02 0. -1.
    10030    2    1    2    0    0  0.00000000000E+00  0.00000000000E+00 -0.20695021883E+01  0.10080139698E+04  0.10080118454E+04 0.  0.
        4    1    3    3  502    0  0.49397762062E+03 -0.62623982439E+02 -0.79039430524E+02  0.50416713233E+03  0.12699999809E+01 0.  1.
       -4    1    3    3    0  502 -0.49397762062E+03  0.62623982439E+02  0.76969928336E+02  0.50384683745E+03  0.12699999809E+01 0. -1.
</event>
<event>
 5   0  0.5349685E-03  0.9977990E+03  0.7818609E-02  0.9310962E-01
       -1   -1    0    0    0  501  0.00000000000E+00  0.00000000000E+00  0.25863657379E+03  0.25863657384E+03  0.50400001928E-02 0. -1.
        1   -1    0    0  501    0  0.00000000000E+00  0.00000000000E+00 -0.96235700212E+03  0.96235700213E+03  0.50400001928E-02 0.  1.
    10030    2    1    2    0    0  0.00000000000E+00  0.00000000000E+00 -0.70372042832E+03  0.12209935760E+04  0.99779901349E+03 0.  0.
        4    1    3    3  502    0 -0.22868329361E+03  0.40563827645E+03 -0.13275312198E+03  0.48421427529E+03  0.12699999809E+01 0. -1.
       -4    1    3    3    0  502  0.22868329361E+03 -0.40563827645E+03 -0.57096730635E+03  0.73677930068E+03  0.12699999809E+01 0.  1.
</event>
<event>
 5   0  0.3513625E-03  0.9937585E+03  0.7818609E-02  0.9315417E-01
        4   -1    0    0  501    0  0.00000000000E+00  0.00000000000E+00  0.21827066781E+03  0.21827436251E+03  0.12699999809E+01 0. -1.
       -4   -1    0    0    0  501  0.00000000000E+00  0.00000000000E+00 -0.11311002861E+04  0.11311009991E+04  0.12699999809E+01 0.  1.
    10030    2    1    2    0    0  0.00000000000E+00  0.00000000000E+00 -0.91282961829E+03  0.13493753616E+04  0.99375849905E+03 0.  0.
        1    1    3    3  502    0 -0.49280894665E+03 -0.36730815952E+02 -0.52669819764E+03  0.72223320483E+03  0.50400001928E-02 0. -1.
       -1    1    3    3    0  502  0.49280894665E+03  0.36730815952E+02 -0.38613142065E+03  0.62714215675E+03  0.50400001928E-02 0.  1.
</event>
<event>
 5   0  0.5189877E-03  0.9930383E+03  0.7818609E-02  0.9316213E-01
       -1   -1    0    0    0  501  0.00000000000E+00  0.00000000000E+00  0.14890367698E+03  0.14890367707E+03  0.50400001928E-02 0.  1.
        1   -1    0    0  501    0  0.00000000000E+00  0.00000000000E+00 -0.16556427306E+04  0.16556427306E+04  0.50400001928E-02 0. -1.
    10030    2    1    2    0    0  0.00000000000E+00  0.00000000000E+00 -0.15067390537E+04  0.18045464077E+04  0.99303834860E+03 0.  0.
        3    1    3    3  502    0 -0.44726766946E+03  0.11333845689E+03 -0.10866521264E+04  0.11805536108E+04  0.10100000352E+00 0.  1.
       -3    1    3    3    0  502  0.44726766946E+03 -0.11333845689E+03 -0.42008692724E+03  0.62399279690E+03  0.10100000352E+00 0. -1.
</event>
<event>
 5   0  0.5201968E-03  0.9540811E+03  0.7818609E-02  0.9360393E-01
       -1   -1    0    0    0  501  0.00000000000E+00  0.00000000000E+00  0.38651659536E+03  0.38651659540E+03  0.50400001928E-02 0.  1.
        1   -1    0    0  501    0  0.00000000000E+00  0.00000000000E+00 -0.58876560361E+03  0.58876560363E+03  0.50400001928E-02 0. -1.
    10030    2    1    2    0    0  0.00000000000E+00  0.00000000000E+00 -0.20224900825E+03  0.97528219903E+03  0.95408107958E+03 0.  0.
        2    1    3    3  502    0 -0.38155013214E+03 -0.17988841072E+03 -0.32884676249E+03  0.53486497067E+03  0.25500000920E-02 0.  1.
       -2    1    3    3    0  502  0.38155013214E+03  0.17988841072E+03  0.12659775424E+03  0.44041722836E+03  0.25500000920E-02 0. -1.
</event>
<event>
 5   0  0.5189877E-03  0.1006020E+04  0.7818609E-02  0.9301966E-01
        1   -1    0    0  501    0  0.00000000000E+00  0.00000000000E+00  0.35010434399E+03  0.35010434403E+03  0.50400001928E-02 0.  1.
       -1   -1    0    0    0  501  0.00000000000E+00  0.00000000000E+00 -0.72269681939E+03  0.72269681940E+03  0.50400001928E-02 0. -1.
    10030    2    1    2    0    0  0.00000000000E+00  0.00000000000E+00 -0.37259247539E+03  0.10728011634E+04  0.10060204687E+04 0.  0.
        3    1    3    3  502    0 -0.18090317539E+02  0.38967237248E+03 -0.52494143330E+03  0.65401478276E+03  0.10100000352E+00 0. -1.
       -3    1    3    3    0  502  0.18090317539E+02 -0.38967237248E+03  0.15234895791E+03  0.41878638068E+03  0.10100000352E+00 0.  1.
</event>
<event>
 5   0  0.5072205E-03  0.9970193E+03  0.7818609E-02  0.9311820E-01
       -1   -1    0    0    0  501  0.00000000000E+00  0.00000000000E+00  0.25808607202E+03  0.25808607207E+03  0.50400001928E-02 0.  1.
        1   -1    0    0  501    0  0.00000000000E+00  0.00000000000E+00 -0.96290301063E+03  0.96290301065E+03  0.50400001928E-02 0. -1.
    10030    2    1    2    0    0  0.00000000000E+00  0.00000000000E+00 -0.70481693861E+03  0.12209890827E+04  0.99701926920E+03 0.  0.
        5    1    3    3  502    0 -0.41656513441E+03  0.26443648036E+03 -0.26549700549E+03  0.56032482835E+03  0.46999998093E+01 0.  1.
       -5    1    3    3    0  502  0.41656513441E+03 -0.26443648036E+03 -0.43931993312E+03  0.66066425436E+03  0.46999998093E+01 0. -1.
</event>
<event>
 5   0  0.5072205E-03  0.9995741E+03  0.7818609E-02  0.9309012E-01
        1   -1    0    0  501    0  0.00000000000E+00  0.00000000000E+00  0.47176380445E+03  0.47176380448E+03  0.50400001928E-02 0. -1.
       -1   -1    0    0    0  501  0.00000000000E+00  0.00000000000E+00 -0.52947490681E+03  0.52947490683E+03  0.50400001928E-02 0.  1.
    10030    2    1    2    0    0  0.00000000000E+00  0.00000000000E+00 -0.57711102360E+02  0.10012387113E+04  0.99957410215E+03 0.  0.
        5    1    3    3  502    0  0.26052119233E+03 -0.13802552225E+03 -0.43306526332E+03  0.52391788358E+03  0.46999998093E+01 0.  1.
       -5    1    3    3    0  502 -0.26052119233E+03  0.13802552225E+03  0.37535416096E+03  0.47732082773E+03  0.46999998093E+01 0. -1.
</event>
<event>
 5   0  0.5072205E-03  0.1117458E+04  0.7818609E-02  0.9188341E-01
       -1   -1    0    0    0  501  0.00000000000E+00  0.00000000000E+00  0.80511573244E+03  0.80511573246E+03  0.50400001928E-02 0.  1.
        1   -1    0    0  501    0  0.00000000000E+00  0.00000000000E+00 -0.38774311784E+03  0.38774311788E+03  0.50400001928E-02 0. -1.
    10030    2    1    2    0    0  0.00000000000E+00  0.00000000000E+00  0.41737261460E+03  0.11928588503E+04  0.11174579801E+04 0.  0.
        5    1    3    3  502    0 -0.50609917380E+03  0.19519688479E+03  0.65796859006E+02  0.54643344902E+03  0.46999998093E+01 0. -1.
       -5    1    3    3    0  502  0.50609917380E+03 -0.19519688479E+03  0.35157575559E+03  0.64642540132E+03  0.46999998093E+01 0.  1.
</event>
<event>
 5   0  0.8875655E-03  0.8585496E+03  0.7818609E-02  0.9478933E-01
       -2   -1    0    0    0  501  0.00000000000E+00  0.00000000000E+00  0.16333661420E+03  0.16333661422E+03  0.25500000920E-02 0. -1.
        2   -1    0    0  501    0  0.00000000000E+00  0.00000000000E+00 -0.11282030588E+04  0.11282030588E+04  0.25500000920E-02 0.  1.
    10030    2    1    2    0    0  0.00000000000E+00  0.00000000000E+00 -0.96486644462E+03  0.12915396730E+04  0.85854963228E+03 0.  0.
        4    1    3    3  502    0 -0.15063347918E+03  0.29178870482E+03 -0.89835772452E+03  0.95649323438E+03  0.12699999809E+01 0.  1.
       -4    1    3    3    0  502  0.15063347918E+03 -0.29178870482E+03 -0.66508720100E+02  0.33504643866E+03  0.12699999809E+01 0. -1.
</event>
<event>
 5   0  0.5349685E-03  0.9953047E+03  0.7818609E-02  0.9313710E-01
       -1   -1    0    0    0  501  0.00000000000E+00  0.00000000000E+00  0.42554710757E+03  0.42554710760E+03  0.50400001928E-02 0. -1.
        1   -1    0    0  501    0  0.00000000000E+00  0.00000000000E+00 -0.58197519975E+03  0.58197519977E+03  0.50400001928E-02 0.  1.
    10030    2    1    2    0    0  0.00000000000E+00  0.00000000000E+00 -0.15642809217E+03  0.10075223074E+04  0.99530470301E+03 0.  0.
        4    1    3    3  502    0  0.20018779727E+03 -0.19982497119E+03 -0.49269233645E+03  0.56811312658E+03  0.12699999809E+01 0.  1.
       -4    1    3    3    0  502 -0.20018779727E+03  0.19982497119E+03  0.33626424428E+03  0.43940918080E+03  0.12699999809E+01 0. -1.
</event>
<event>
 5   0  0.9243773E-03  0.9870902E+03  0.7818609E-02  0.9322818E-01
       -2   -1    0    0    0  501  0.00000000000E+00  0.00000000000E+00  0.25403494031E+03  0.25403494032E+03  0.25500000920E-02 0.  1.
        2   -1    0    0  501    0  0.00000000000E+00  0.00000000000E+00 -0.95887106344E+03  0.95887106345E+03  0.25500000920E-02 0. -1.
    10030    2    1    2    0    0  0.00000000000E+00  0.00000000000E+00 -0.70483612314E+03  0.12129060038E+04  0.98709017496E+03 0.  0.
        3    1    3    3  502    0  0.26118094911E+03  0.16545362393E+03 -0.82512918710E+03  0.88115184586E+03  0.10100000352E+00 0. -1.
       -3    1    3    3    0  502 -0.26118094911E+03 -0.16545362393E+03  0.12029306397E+03  0.33175415791E+03  0.10100000352E+00 0.  1.
</event>
<event>
 5   0  0.9040674E-03  0.9998746E+03  0.7818609E-02  0.9308682E-01
       -2   -1    0    0    0  501  0.00000000000E+00  0.00000000000E+00  0.40211912488E+03  0.40211912489E+03  0.25500000920E-02 0. -1.
        2   -1    0    0  501    0  0.00000000000E+00  0.00000000000E+00 -0.62155038056E+03  0.62155038056E+03  0.25500000920E-02 0.  1.
    10030    2    1    2    0    0  0.00000000000E+00  0.00000000000E+00 -0.21943125568E+03  0.10236695055E+04  0.99987458235E+03 0.  0.
        1    1    3    3  502    0  0.33325048709E+03  0.25944821475E+03 -0.38360411337E+03  0.57054480902E+03  0.50400001928E-02 0.  1.
       -1    1    3    3    0  502 -0.33325048709E+03 -0.25944821475E+03  0.16417285769E+03  0.45312469643E+03  0.50400001928E-02 0. -1.
</event>
<event>
 5   0  0.5349685E-03  0.1000493E+04  0.7818609E-02  0.9308004E-01
        1   -1    0    0  501    0  0.00000000000E+00  0.00000000000E+00  0.70676909164E+03  0.70676909166E+03  0.50400001928E-02 0. -1.
       -1   -1    0    0    0  501  0.00000000000E+00  0.00000000000E+00 -0.35407129052E+03  0.35407129055E+03  0.50400001928E-02 0.  1.
    10030    2    1    2    0    0  0.00000000000E+00  0.00000000000E+00  0.35269780113E+03  0.10608403822E+04  0.10004931672E+04 0.  0.
        4    1    3    3  502    0 -0.21146587621E+03 -0.43486899730E+03  0.40495086621E+02  0.48525284807E+03  0.12699999809E+01 0.  1.
       -4    1    3    3    0  502  0.21146587621E+03  0.43486899730E+03  0.31220271450E+03  0.57558753414E+03  0.12699999809E+01 0. -1.
</event>
<event>
 5   0  0.9040674E-03  0.1026905E+04  0.7818609E-02  0.9279518E-01
        2   -1    0    0  501    0  0.00000000000E+00  0.00000000000E+00  0.13951234795E+04  0.13951234795E+04  0.25500000920E-02 0.  1.
       -2   -1    0    0    0  501  0.00000000000E+00  0.00000000000E+00 -0.18896795468E+03  0.18896795469E+03  0.25500000920E-02 0. -1.
    10030    2    1    2    0    0  0.00000000000E+00  0.00000000000E+00  0.12061555249E+04  0.15840914342E+04  0.10269053130E+04 0.  0.
        1    1    3    3  502    0  0.91848838434E+01 -0.20069620290E+03 -0.12581783178E+03  0.23705158672E+03  0.50400001928E-02 0.  1.
       -1    1    3    3    0  502 -0.91848838434E+01  0.20069620290E+03  0.13319733566E+04  0.13470398475E+04  0.50400001928E-02 0. -1.
</event>
<event>
 5   0  0.9243773E-03  0.1010132E+04  0.7818609E-02  0.9297501E-01
       -2   -1    0    0    0  501  0.00000000000E+00  0.00000000000E+00  0.20050383483E+03  0.20050383485E+03  0.25500000920E-02 0.  1.
        2   -1    0    0  501    0  0.00000000000E+00  0.00000000000E+00 -0.12722540542E+04  0.12722540542E+04  0.25500000920E-02 0. -1.
    10030    2    1    2    0    0  0.00000000000E+00  0.00000000000E+00 -0.10717502194E+04  0.14727578891E+04  0.10101323018E+04 0.  0.
        3    1    3    3  502    0  0.25522323515E+03 -0.16529240324E+02  0.99109962249E+02  0.27428982913E+03  0.10100000352E+00 0.  1.
       -3    1    3    3    0  502 -0.25522323515E+03  0.16529240324E+02 -0.11708601816E+04  0.11984680599E+04  0.10100000352E+00 0. -1.
</event>
<event>
 5   0  0.5201968E-03  0.9985527E+03  0.7818609E-02  0.9310134E-01
       -1   -1    0    0    0  501  0.00000000000E+00  0.00000000000E+00  0.16490412105E+04  0.16490412105E+04  0.50400001928E-02 0.  1.
        1   -1    0    0  501    0  0.00000000000E+00  0.00000000000E+00 -0.15116473612E+03  0.15116473621E+03  0.50400001928E-02 0. -1.
    10030    2    1    2    0    0  0.00000000000E+00  0.00000000000E+00  0.14978764744E+04  0.18002059467E+04  0.99855271172E+03 0.  0.
        2    1    3    3  502    0  0.47102920013E+03  0.33983942627E+02  0.45682953045E+03  0.65705147106E+03  0.25500000920E-02 0. -1.
       -2    1    3    3    0  502 -0.47102920013E+03 -0.33983942627E+02  0.10410469439E+04  0.11431544756E+04  0.25500000920E-02 0.  1.
</event>
<event>
 5   0  0.9243773E-03  0.1000988E+04  0.7818609E-02  0.9307462E-01
        2   -1    0    0  501    0  0.00000000000E+00  0.00000000000E+00  0.60341824272E+03  0.60341824273E+03  0.25500000920E-02 0.  1.
       -2   -1    0    0    0  501  0.00000000000E+00  0.00000000000E+00 -0.41512553733E+03  0.41512553734E+03  0.25500000920E-02 0. -1.
    10030    2    1    2    0    0  0.00000000000E+00  0.00000000000E+00  0.18829270539E+03  0.10185437801E+04  0.10009881563E+04 0.  0.
        3    1    3    3  502    0 -0.11592267772E+02 -0.49993432678E+03  0.11513825109E+03  0.51315254928E+03  0.10100000352E+00 0.  1.
       -3    1    3    3    0  502  0.11592267772E+02  0.49993432678E+03  0.73154454303E+02  0.50539123079E+03  0.10100000352E+00 0. -1.
</event>
<event>
 5   0  0.5349685E-03  0.9990094E+03  0.7818609E-02  0.9309632E-01
       -1   -1    0    0    0  501  0.00000000000E+00  0.00000000000E+00  0.30890160917E+03  0.30890160921E+03  0.50400001928E-02 0. -1.
        1   -1    0    0  501    0  0.00000000000E+00  0.00000000000E+00 -0.80771648761E+03  0.80771648763E+03  0.50400001928E-02 0.  1.
    10030    2    1    2    0    0  0.00000000000E+00  0.00000000000E+00 -0.49881487845E+03  0.11166180968E+04  0.99900935493E+03 0.  0.
        4    1    3    3  502    0 -0.39741913946E+03  0.27110210038E+03 -0.99178377843E+02  0.49119882407E+03  0.12699999809E+01 0.  1.
       -4    1    3    3    0  502  0.39741913946E+03 -0.27110210038E+03 -0.39963650060E+03  0.62541927277E+03  0.12699999809E+01 0. -1.
</event>
<event>
 5   0  0.3513625E-03  0.9674533E+03  0.7818609E-02  0.9344980E-01
       -4   -1    0    0    0  501  0.00000000000E+00  0.00000000000E+00  0.14641283107E+03  0.14641833902E+03  0.12699999809E+01 0. -1.
        4   -1    0    0  501    0  0.00000000000E+00  0.00000000000E+00 -0.15981264808E+04  0.15981269855E+04  0.12699999809E+01 0.  1.
    10030    2    1    2    0    0  0.00000000000E+00  0.00000000000E+00 -0.14517136498E+04  0.17445453245E+04  0.96745328995E+03 0.  0.
        5    1    3    3  502    0  0.31477243294E+03  0.31894605172E+03 -0.10542293192E+04  0.11455259997E+04  0.46999998093E+01 0.  1.
       -5    1    3    3    0  502 -0.31477243294E+03 -0.31894605172E+03 -0.39748433055E+03  0.59901932479E+03  0.46999998093E+01 0. -1.
</event>
<event>
 5   0  0.5349685E-03  0.1002520E+04  0.7818609E-02  0.9305785E-01
        1   -1    0    0  501    0  0.00000000000E+00  0.00000000000E+00  0.41410048879E+03  0.41410048882E+03  0.50400001928E-02 0. -1.
       -1   -1    0    0    0  501  0.00000000000E+00  0.00000000000E+00 -0.60676536934E+03  0.60676536936E+03  0.50400001928E-02 0.  1.
    10030    2    1    2    0    0  0.00000000000E+00  0.00000000000E+00 -0.19266488055E+03  0.10208658582E+04  0.10025204957E+04 0.  0.
        4    1    3    3  502    0  0.80816846162E+02  0.38996878546E+03 -0.40629243669E+03  0.56893072800E+03  0.12699999809E+01 0.  1.
       -4    1    3    3    0  502 -0.80816846162E+02 -0.38996878546E+03  0.21362755614E+03  0.45193513018E+03  0.12699999809E+01 0. -1.
</event>
<event>
 5   0  0.9040674E-03  0.1008289E+04  0.7818609E-02  0.9299500E-01
        2   -1    0    0  501    0  0.00000000000E+00  0.00000000000E+00  0.12467825824E+04  0.12467825824E+04  0.25500000920E-02 0. -1.
       -2   -1    0    0    0  501  0.00000000000E+00  0.00000000000E+00 -0.20385396497E+03  0.20385396498E+03  0.25500000920E-02 0.  1.
    10030    2    1    2    0    0  0.00000000000E+00  0.00000000000E+00  0.10429286174E+04  0.14506365474E+04  0.10082887937E+04 0.  0.
        1    1    3    3  502    0  0.21285173228E+03  0.29038025999E+02  0.11776373711E+04  0.11970709439E+04  0.50400001928E-02 0. -1.
       -1    1    3    3    0  502 -0.21285173228E+03 -0.29038025999E+02 -0.13470875373E+03  0.25356560343E+03  0.50400001928E-02 0.  1.
</event>
<event>
 5   0  0.5310275E-03  0.7253637E+03  0.7818609E-02  0.9674814E-01
        1   -1    0    0  501    0  0.00000000000E+00  0.00000000000E+00  0.38187228545E+03  0.38187228548E+03  0.50400001928E-02 0.  1.
       -1   -1    0    0    0  501  0.00000000000E+00  0.00000000000E+00 -0.34445580306E+03  0.34445580310E+03  0.50400001928E-02 0. -1.
    10030    2    1    2    0    0  0.00000000000E+00  0.00000000000E+00  0.37416482385E+02  0.72632808858E+03  0.72536370126E+03 0.  0.
        1    1    3    3  502    0  0.14474549526E+02  0.10999734671E+03 -0.32704664658E+03  0.34535262838E+03  0.50400001928E-02 0. -1.
       -1    1    3    3    0  502 -0.14474549526E+02 -0.10999734671E+03  0.36446312897E+03  0.38097546019E+03  0.50400001928E-02 0.  1.
</event>
<event>
 5   0  0.5201968E-03  0.1005767E+04  0.7818609E-02  0.9302242E-01
       -1   -1    0    0    0  501  0.00000000000E+00  0.00000000000E+00  0.25712735519E+03  0.25712735524E+03  0.50400001928E-02 0.  1.
        1   -1    0    0  501    0  0.00000000000E+00  0.00000000000E+00 -0.98352808739E+03  0.98352808740E+03  0.50400001928E-02 0. -1.
    10030    2    1    2    0    0  0.00000000000E+00  0.00000000000E+00 -0.72640073220E+03  0.12406554426E+04  0.10057673208E+04 0.  0.
        2    1    3    3  502    0  0.17564015909E+03 -0.38575597493E+03 -0.69702050064E+03  0.81577859497E+03  0.25500000920E-02 0. -1.
       -2    1    3    3    0  502 -0.17564015909E+03  0.38575597493E+03 -0.29380231552E+02  0.42487684768E+03  0.25500000920E-02 0.  1.
</event>
<event>
 5   0  0.8968798E-03  0.1005726E+04  0.7818609E-02  0.9302286E-01
        2   -1    0    0  501    0  0.00000000000E+00  0.00000000000E+00  0.47223355912E+03  0.47223355912E+03  0.25500000920E-02 0. -1.
       -2   -1    0    0    0  501  0.00000000000E+00  0.00000000000E+00 -0.53547961688E+03  0.53547961688E+03  0.25500000920E-02 0.  1.
    10030    2    1    2    0    0  0.00000000000E+00  0.00000000000E+00 -0.63246057763E+02  0.10077131760E+04  0.10057264943E+04 0.  0.
        2    1    3    3  502    0 -0.23250425362E+03 -0.21541208289E+03 -0.42279253461E+03  0.52840715432E+03  0.25500000920E-02 0.  1.
       -2    1    3    3    0  502  0.23250425362E+03  0.21541208289E+03  0.35954647685E+03  0.47930602169E+03  0.25500000920E-02 0. -1.
</event>
<event>
 5   0  0.8968798E-03  0.9978705E+03  0.7818609E-02  0.9310884E-01
        2   -1    0    0  501    0  0.00000000000E+00  0.00000000000E+00  0.71676483977E+03  0.71676483977E+03  0.25500000920E-02 0. -1.
       -2   -1    0    0    0  501  0.00000000000E+00  0.00000000000E+00 -0.34730549392E+03  0.34730549393E+03  0.25500000920E-02 0.  1.
    10030    2    1    2    0    0  0.00000000000E+00  0.00000000000E+00  0.36945934585E+03  0.10640703337E+04  0.99787046596E+03 0.  0.
        2    1    3    3  502    0  0.11716248739E+03  0.13496626165E+03 -0.31199925776E+03  0.35956428783E+03  0.25500000920E-02 0.  1.
       -2    1    3    3    0  502 -0.11716248739E+03 -0.13496626165E+03  0.68145860360E+03  0.70450604587E+03  0.25500000920E-02 0. -1.
</event>
<event>
 5   0  0.8907355E-03  0.9845031E+03  0.7818609E-02  0.9325707E-01
        2   -1    0    0  501    0  0.00000000000E+00  0.00000000000E+00  0.16355343337E+04  0.16355343337E+04  0.25500000920E-02 0.  1.
       -2   -1    0    0    0  501  0.00000000000E+00  0.00000000000E+00 -0.14815439167E+03  0.14815439169E+03  0.25500000920E-02 0. -1.
    10030    2    1    2    0    0  0.00000000000E+00  0.00000000000E+00  0.14873799420E+04  0.17836887254E+04  0.98450311180E+03 0.  0.
        5    1    3    3  502    0  0.48102229002E+03 -0.70553873365E+02  0.88319840196E+03  0.10081774644E+04  0.46999998093E+01 0. -1.
       -5    1    3    3    0  502 -0.48102229002E+03  0.70553873365E+02  0.60418154005E+03  0.77551126096E+03  0.46999998093E+01 0.  1.
</event>
<event>
 5   0  0.9040674E-03  0.1032713E+04  0.7818609E-02  0.9273376E-01
       -2   -1    0    0    0  501  0.00000000000E+00  0.00000000000E+00  0.17346787211E+03  0.17346787213E+03  0.25500000920E-02 0. -1.
        2   -1    0    0  501    0  0.00000000000E+00  0.00000000000E+00 -0.15370215235E+04  0.15370215235E+04  0.25500000920E-02 0.  1.
    10030    2    1    2    0    0  0.00000000000E+00  0.00000000000E+00 -0.13635536514E+04  0.17104893956E+04  0.10327126475E+04 0.  0.
        1    1    3    3  502    0 -0.26717027482E+03  0.28007831169E+03 -0.12478367120E+04  0.13064915905E+04  0.50400001928E-02 0.  1.
       -1    1    3    3    0  502  0.26717027482E+03 -0.28007831169E+03 -0.11571693945E+03  0.40399780510E+03  0.50400001928E-02 0. -1.
</event>
<event>
 5   0  0.5189877E-03  0.1004782E+04  0.7818609E-02  0.9303315E-01
        1   -1    0    0  501    0  0.00000000000E+00  0.00000000000E+00  0.21590643595E+04  0.21590643595E+04  0.50400001928E-02 0. -1.
       -1   -1    0    0    0  501  0.00000000000E+00  0.00000000000E+00 -0.11690106347E+03  0.11690106358E+03  0.50400001928E-02 0.  1.
    10030    2    1    2    0    0  0.00000000000E+00  0.00000000000E+00  0.20421632961E+04  0.22759654231E+04  0.10047824040E+04 0.  0.
        3    1    3    3  502    0 -0.20707371737E+03  0.31161550160E+02  0.20554969306E+04  0.20661360576E+04  0.10100000352E+00 0. -1.
       -3    1    3    3    0  502  0.20707371737E+03 -0.31161550160E+02 -0.13333634510E+02  0.20982936554E+03  0.10100000352E+00 0.  1.
</event>
<event>
 5   0  0.8875655E-03  0.9872173E+03  0.7818609E-02  0.9322677E-01
       -2   -1    0    0    0  501  0.00000000000E+00  0.00000000000E+00  0.12024212777E+03  0.12024212780E+03  0.25500000920E-02 0.  1.
        2   -1    0    0  501    0  0.00000000000E+00  0.00000000000E+00 -0.20263239608E+04  0.20263239608E+04  0.25500000920E-02 0. -1.
    10030    2    1    2    0    0  0.00000000000E+00  0.00000000000E+00 -0.19060818330E+04  0.21465660886E+04  0.98721731070E+03 0.  0.
        4    1    3    3  502    0  0.42704769962E+03  0.22388821935E+03 -0.11826622057E+04  0.12771793837E+04  0.12699999809E+01 0. -1.
       -4    1    3    3    0  502 -0.42704769962E+03 -0.22388821935E+03 -0.72341962732E+03  0.86938670488E+03  0.12699999809E+01 0.  1.
</event>
<event>
 5   0  0.8907355E-03  0.1025805E+04  0.7818609E-02  0.9280686E-01
        2   -1    0    0  501    0  0.00000000000E+00  0.00000000000E+00  0.67026424826E+03  0.67026424826E+03  0.25500000920E-02 0. -1.
       -2   -1    0    0    0  501  0.00000000000E+00  0.00000000000E+00 -0.39248584058E+03  0.39248584059E+03  0.25500000920E-02 0.  1.
    10030    2    1    2    0    0  0.00000000000E+00  0.00000000000E+00  0.27777840768E+03  0.10627500888E+04  0.10258054921E+04 0.  0.
        5    1    3    3  502    0 -0.64566260532E+02 -0.45096370225E+02  0.66394008774E+03  0.66861125829E+03  0.46999998093E+01 0. -1.
       -5    1    3    3    0  502  0.64566260532E+02  0.45096370225E+02 -0.38616168006E+03  0.39413883056E+03  0.46999998093E+01 0.  1.
</event>
<event>
 5   0  0.9040674E-03  0.9843542E+03  0.7818609E-02  0.9325873E-01
       -2   -1    0    0    0  501  0.00000000000E+00  0.00000000000E+00  0.57665853790E+03  0.57665853790E+03  0.25500000920E-02 0.  1.
        2   -1    0    0  501    0  0.00000000000E+00  0.00000000000E+00 -0.42007233271E+03  0.42007233272E+03  0.25500000920E-02 0. -1.
    10030    2    1    2    0    0  0.00000000000E+00  0.00000000000E+00  0.15658620519E+03  0.99673087062E+03  0.98435419885E+03 0.  0.
        1    1    3    3  502    0  0.49052885253E+03 -0.87681072002E+01  0.38519942774E+02  0.49211708046E+03  0.50400001928E-02 0.  1.
       -1    1    3    3    0  502 -0.49052885253E+03  0.87681072002E+01  0.11806626241E+03  0.50461379015E+03  0.50400001928E-02 0. -1.
</event>
<event>
 5   0  0.5310275E-03  0.9923346E+03  0.7818609E-02  0.9316992E-01
        1   -1    0    0  501    0  0.00000000000E+00  0.00000000000E+00  0.51644550683E+03  0.51644550686E+03  0.50400001928E-02 0. -1.
       -1   -1    0    0    0  501  0.00000000000E+00  0.00000000000E+00 -0.47668531613E+03  0.47668531615E+03  0.50400001928E-02 0.  1.
    10030    2    1    2    0    0  0.00000000000E+00  0.00000000000E+00  0.39760190708E+02  0.99313082301E+03  0.99233460025E+03 0.  0.
        1    1    3    3  502    0 -0.27211091670E+03  0.59578110684E+02  0.43080434277E+03  0.51301684576E+03  0.50400001928E-02 0. -1.
       -1    1    3    3    0  502  0.27211091670E+03 -0.59578110684E+02 -0.39104415207E+03  0.48011397725E+03  0.50400001928E-02 0.  1.
</event>
<event>
 5   0  0.3513625E-03  0.9943432E+03  0.7818609E-02  0.9314771E-01
       -4   -1    0    0    0  501  0.00000000000E+00  0.00000000000E+00  0.81417645193E+03  0.81417744244E+03  0.12699999809E+01 0.  1.
        4   -1    0    0  501    0  0.00000000000E+00  0.00000000000E+00 -0.30359210154E+03  0.30359475789E+03  0.12699999809E+01 0. -1.
    10030    2    1    2    0    0  0.00000000000E+00  0.00000000000E+00  0.51058435039E+03  0.11177722003E+04  0.99434315654E+03 0.  0.
        1    1    3    3  502    0 -0.12766149457E+03  0.33955044980E+03  0.63747631719E+03  0.73346303258E+03  0.50400001928E-02 0.  1.
       -1    1    3    3    0  502  0.12766149457E+03 -0.33955044980E+03 -0.12689196680E+03  0.38430916775E+03  0.50400001928E-02 0. -1.
</event>
<event>
 5   0  0.5201968E-03  0.9896103E+03  0.7818609E-02  0.9320014E-01
       -1   -1    0    0    0  501  0.00000000000E+00  0.00000000000E+00  0.18755742811E+03  0.18755742817E+03  0.50400001928E-02 0.  1.
        1   -1    0    0  501    0  0.00000000000E+00  0.00000000000E+00 -0.13053714762E+04  0.13053714762E+04  0.50400001928E-02 0. -1.
    10030    2    1    2    0    0  0.00000000000E+00  0.00000000000E+00 -0.11178140481E+04  0.14929289044E+04  0.98961026036E+03 0.  0.
        2    1    3    3  502    0 -0.42280305800E+03 -0.22910758057E+03 -0.38310845010E+03  0.61483720925E+03  0.25500000920E-02 0.  1.
       -2    1    3    3    0  502  0.42280305800E+03  0.22910758057E+03 -0.73470559797E+03  0.87809169511E+03  0.25500000920E-02 0. -1.
</event>
<event>
 5   0  0.8968798E-03  0.9988511E+03  0.7818609E-02  0.9309806E-01
        2   -1    0    0  501    0  0.00000000000E+00  0.00000000000E+00  0.71960639056E+03  0.71960639057E+03  0.25500000920E-02 0.  1.
       -2   -1    0    0    0  501  0.00000000000E+00  0.00000000000E+00 -0.34661430516E+03  0.34661430517E+03  0.25500000920E-02 0. -1.
    10030    2    1    2    0    0  0.00000000000E+00  0.00000000000E+00  0.37299208540E+03  0.10662206957E+04  0.99885107811E+03 0.  0.
        2    1    3    3  502    0  0.16679034606E+03  0.46784590815E+03  0.13075265319E+03  0.51360984184E+03  0.25500000920E-02 0.  1.
       -2    1    3    3    0  502 -0.16679034606E+03 -0.46784590815E+03  0.24223943221E+03  0.55261085389E+03  0.25500000920E-02 0. -1.
</event>
<event>
 5   0  0.8875655E-03  0.9894322E+03  0.7818609E-02  0.9320212E-01
        2   -1    0    0  501    0  0.00000000000E+00  0.00000000000E+00  0.82331425429E+03  0.82331425430E+03  0.25500000920E-02 0.  1.
       -2   -1    0    0    0  501  0.00000000000E+00  0.00000000000E+00 -0.29726683862E+03  0.29726683863E+03  0.25500000920E-02 0. -1.
    10030    2    1    2    0    0  0.00000000000E+00  0.00000000000E+00  0.52604741567E+03  0.11205810929E+04  0.98943221207E+03 0.  0.
        4    1    3    3  502    0  0.13241253895E+02  0.49212309907E+03  0.31829789972E+03  0.58623855324E+03  0.12699999809E+01 0.  1.
       -4    1    3    3    0  502 -0.13241253895E+02 -0.49212309907E+03  0.20774951595E+03  0.53434253969E+03  0.12699999809E+01 0. -1.
</event>
<event>
 5   0  0.8907355E-03  0.1102287E+04  0.7818609E-02  0.9202966E-01
        2   -1    0    0  501    0  0.00000000000E+00  0.00000000000E+00  0.22057643014E+04  0.22057643014E+04  0.25500000920E-02 0.  1.
       -2   -1    0    0    0  501  0.00000000000E+00  0.00000000000E+00 -0.13771144738E+03  0.13771144740E+03  0.25500000920E-02 0. -1.
    10030    2    1    2    0    0  0.00000000000E+00  0.00000000000E+00  0.20680528540E+04  0.23434757488E+04  0.11022867042E+04 0.  0.
        5    1    3    3  502    0 -0.36538766679E+03  0.27354899411E+03  0.16906846866E+04  0.17512207167E+04  0.46999998093E+01 0.  1.
       -5    1    3    3    0  502  0.36538766679E+03 -0.27354899411E+03  0.37736816742E+03  0.59225503206E+03  0.46999998093E+01 0. -1.
</event>
<event>
 5   0  0.5349685E-03  0.1004036E+04  0.7818609E-02  0.9304129E-01
        1   -1    0    0  501    0  0.00000000000E+00  0.00000000000E+00  0.39177018800E+03  0.39177018804E+03  0.50400001928E-02 0. -1.
       -1   -1    0    0    0  501  0.00000000000E+00  0.00000000000E+00 -0.64329121162E+03  0.64329121164E+03  0.50400001928E-02 0.  1.
    10030    2    1    2    0    0  0.00000000000E+00  0.00000000000E+00 -0.25152102362E+03  0.10350613997E+04  0.10040364913E+04 0.  0.
        4    1    3    3  502    0 -0.31033210103E+03 -0.31889914692E+03 -0.36536004916E+03  0.57575364286E+03  0.12699999809E+01 0.  1.
       -4    1    3    3    0  502  0.31033210103E+03  0.31889914692E+03  0.11383902555E+03  0.45930775682E+03  0.12699999809E+01 0. -1.
</event>
<event>
 5   0  0.5349685E-03  0.1002871E+04  0.7818609E-02  0.9305402E-01
        1   -1    0    0  501    0  0.00000000000E+00  0.00000000000E+00  0.21783689765E+04  0.21783689765E+04  0.50400001928E-02 0.  1.
       -1   -1    0    0    0  501  0.00000000000E+00  0.00000000000E+00 -0.11542459248E+03  0.11542459259E+03  0.50400001928E-02 0. -1.
    10030    2    1    2    0    0  0.00000000000E+00  0.00000000000E+00  0.20629443840E+04  0.22937935691E+04  0.10028705829E+04 0.  0.
        4    1    3    3  502    0 -0.21344162082E+01 -0.39893592871E+02  0.21747194002E+04  0.21750866964E+04  0.12699999809E+01 0.  1.
       -4    1    3    3    0  502  0.21344162082E+01  0.39893592871E+02 -0.11177501616E+03  0.11870687269E+03  0.12699999809E+01 0. -1.
</event>
<event>
 5   0  0.8968798E-03  0.1007540E+04  0.7818609E-02  0.9300313E-01
       -2   -1    0    0    0  501  0.00000000000E+00  0.00000000000E+00  0.22344605157E+03  0.22344605158E+03  0.25500000920E-02 0.  1.
        2   -1    0    0  501    0  0.00000000000E+00  0.00000000000E+00 -0.11357748647E+04  0.11357748647E+04  0.25500000920E-02 0. -1.
    10030    2    1    2    0    0  0.00000000000E+00  0.00000000000E+00 -0.91232881316E+03  0.13592209163E+04  0.10075403893E+04 0.  0.
        2    1    3    3  502    0  0.11263983963E+03 -0.20965481375E+03 -0.10551503775E+04  0.10816585384E+04  0.25500000920E-02 0. -1.
       -2    1    3    3    0  502 -0.11263983963E+03  0.20965481375E+03  0.14282156437E+03  0.27756237795E+03  0.25500000920E-02 0.  1.
</event>
<event>
 5   0  0.9040674E-03  0.9997431E+03  0.7818609E-02  0.9308827E-01
       -2   -1    0    0    0  501  0.00000000000E+00  0.00000000000E+00  0.18883347698E+03  0.18883347700E+03  0.25500000920E-02 0.  1.
        2   -1    0    0  501    0  0.00000000000E+00  0.00000000000E+00 -0.13232375749E+04  0.13232375749E+04  0.25500000920E-02 0. -1.
    10030    2    1    2    0    0  0.00000000000E+00  0.00000000000E+00 -0.11344040980E+04  0.15120710519E+04  0.99974307133E+03 0.  0.
        1    1    3    3  502    0 -0.20413931935E+03  0.29899119779E+03 -0.10885136816E+04  0.11471401977E+04  0.50400001928E-02 0. -1.
       -1    1    3    3    0  502  0.20413931935E+03 -0.29899119779E+03 -0.45890416366E+02  0.36493085428E+03  0.50400001928E-02 0.  1.
</event>
<event>
 5   0  0.9040674E-03  0.1001203E+04  0.7818609E-02  0.9307226E-01
        2   -1    0    0  501    0  0.00000000000E+00  0.00000000000E+00  0.48905762933E+03  0.48905762934E+03  0.25500000920E-02 0. -1.
       -2   -1    0    0    0  501  0.00000000000E+00  0.00000000000E+00 -0.51241832413E+03  0.51241832414E+03  0.25500000920E-02 0.  1.
    10030    2    1    2    0    0  0.00000000000E+00  0.00000000000E+00 -0.23360694804E+02  0.10014759535E+04  0.10012034575E+04 0.  0.
        1    1    3    3  502    0  0.11168887890E+03  0.44756020022E+03 -0.20620063068E+03  0.50527540867E+03  0.50400001928E-02 0.  1.
       -1    1    3    3    0  502 -0.11168887890E+03 -0.44756020022E+03  0.18283993587E+03  0.49620054480E+03  0.50400001928E-02 0. -1.
</event>
<event>
 5   0  0.5201968E-03  0.9823919E+03  0.7818609E-02  0.9328071E-01
        1   -1    0    0  501    0  0.00000000000E+00  0.00000000000E+00  0.86145524647E+03  0.86145524648E+03  0.50400001928E-02 0. -1.
       -1   -1    0    0    0  501  0.00000000000E+00  0.00000000000E+00 -0.28007661017E+03  0.28007661021E+03  0.50400001928E-02 0.  1.
    10030    2    1    2    0    0  0.00000000000E+00  0.00000000000E+00  0.58137863630E+03  0.11415318567E+04  0.98239190810E+03 0.  0.
        2    1    3    3  502    0  0.20062078284E+03  0.27257188950E+03 -0.12296906662E+03  0.36009099517E+03  0.25500000920E-02 0.  1.
       -2    1    3    3    0  502 -0.20062078284E+03 -0.27257188950E+03  0.70434770291E+03  0.78144086152E+03  0.25500000920E-02 0. -1.
</event>
<event>
 5   0  0.8907355E-03  0.1002591E+04  0.7818609E-02  0.9305708E-01
       -2   -1    0    0    0  501  0.00000000000E+00  0.00000000000E+00  0.52688500762E+03  0.52688500762E+03  0.25500000920E-02 0.  1.
        2   -1    0    0  501    0  0.00000000000E+00  0.00000000000E+00 -0.47694883989E+03  0.47694883990E+03  0.25500000920E-02 0. -1.
    10030    2    1    2    0    0  0.00000000000E+00  0.00000000000E+00  0.49936167725E+02  0.10038338475E+04  0.10025910296E+04 0.  0.
        5    1    3    3  502    0  0.38527893683E+03 -0.23502884286E+03 -0.19346900647E+03  0.49105067213E+03  0.46999998093E+01 0. -1.
       -5    1    3    3    0  502 -0.38527893683E+03  0.23502884286E+03  0.24340517419E+03  0.51278317539E+03  0.46999998093E+01 0.  1.
</event>
<event>
 5   0  0.5349685E-03  0.1010120E+04  0.7818609E-02  0.9297515E-01
        1   -1    0    0  501    0  0.00000000000E+00  0.00000000000E+00  0.13522607650E+04  0.13522607650E+04  0.50400001928E-02 0. -1.
       -1   -1    0    0    0  501  0.00000000000E+00  0.00000000000E+00 -0.18863621921E+03  0.18863621928E+03  0.50400001928E-02 0.  1.
    10030    2    1    2    0    0  0.00000000000E+00  0.00000000000E+00  0.11636245458E+04  0.15408969843E+04  0.10101195140E+04 0.  0.
        4    1    3    3  502    0  0.22268014787E+02  0.88596867659E+02 -0.17592610319E+03  0.19823439693E+03  0.12699999809E+01 0.  1.
       -4    1    3    3    0  502 -0.22268014787E+02 -0.88596867659E+02  0.13395506490E+04  0.13426625874E+04  0.12699999809E+01 0. -1.
</event>
<event>
 5   0  0.5310275E-03  0.9801892E+03  0.7818609E-02  0.9330544E-01
        1   -1    0    0  501    0  0.00000000000E+00  0.00000000000E+00  0.12448699852E+04  0.12448699852E+04  0.50400001928E-02 0.  1.
       -1   -1    0    0    0  501  0.00000000000E+00  0.00000000000E+00 -0.19294603160E+03  0.19294603166E+03  0.50400001928E-02 0. -1.
    10030    2    1    2    0    0  0.00000000000E+00  0.00000000000E+00  0.10519239536E+04  0.14378160168E+04  0.98018921346E+03 0.  0.
        1    1    3    3  502    0 -0.73333747632E+02  0.48450385663E+03  0.51361075107E+03  0.70987169916E+03  0.50400001928E-02 0. -1.
       -1    1    3    3    0  502  0.73333747632E+02 -0.48450385663E+03  0.53831320249E+03  0.72794431767E+03  0.50400001928E-02 0.  1.
</event>
<event>
 5   0  0.5310275E-03  0.1006454E+04  0.7818609E-02  0.9301494E-01
        1   -1    0    0  501    0  0.00000000000E+00  0.00000000000E+00  0.40281946478E+03  0.40281946481E+03  0.50400001928E-02 0. -1.
       -1   -1    0    0    0  501  0.00000000000E+00  0.00000000000E+00 -0.62866252913E+03  0.62866252915E+03  0.50400001928E-02 0.  1.
    10030    2    1    2    0    0  0.00000000000E+00  0.00000000000E+00 -0.22584306435E+03  0.10314819940E+04  0.10064541789E+04 0.  0.
        1    1    3    3  502    0 -0.40427061972E-01 -0.48600616751E+03  0.20844293801E+02  0.48645295878E+03  0.50400001928E-02 0. -1.
       -1    1    3    3    0  502  0.40427061972E-01  0.48600616751E+03 -0.24668735815E+03  0.54502903518E+03  0.50400001928E-02 0.  1.
</event>
<event>
 5   0  0.5201968E-03  0.1006193E+04  0.7818609E-02  0.9301779E-01
        1   -1    0    0  501    0  0.00000000000E+00  0.00000000000E+00  0.73262664138E+03  0.73262664139E+03  0.50400001928E-02 0. -1.
       -1   -1    0    0    0  501  0.00000000000E+00  0.00000000000E+00 -0.34547744268E+03  0.34547744272E+03  0.50400001928E-02 0.  1.
    10030    2    1    2    0    0  0.00000000000E+00  0.00000000000E+00  0.38714919869E+03  0.10781040841E+04  0.10061927818E+04 0.  0.
        2    1    3    3  502    0 -0.80856238165E+02 -0.39309434288E+03  0.51864677284E+03  0.65578606926E+03  0.25500000920E-02 0. -1.
       -2    1    3    3    0  502  0.80856238165E+02  0.39309434288E+03 -0.13149757415E+03  0.42231801485E+03  0.25500000920E-02 0.  1.
</event>
<event>
 5   0  0.3513625E-03  0.1010800E+04  0.7818609E-02  0.9296778E-01
        3   -1    0    0  501    0  0.00000000000E+00  0.00000000000E+00  0.50516359206E+03  0.50516360216E+03  0.10100000352E+00 0.  1.
       -3   -1    0    0    0  501  0.00000000000E+00  0.00000000000E+00 -0.50563692376E+03  0.50563693385E+03  0.10100000352E+00 0. -1.
    10030    2    1    2    0    0  0.00000000000E+00  0.00000000000E+00 -0.47333169839E+00  0.10108005360E+04  0.10108004252E+04 0.  0.
        3    1    3    3  502    0  0.45129437500E+03  0.58709650404E+02 -0.22004553583E+03  0.50550319880E+03  0.10100000352E+00 0. -1.
       -3    1    3    3    0  502 -0.45129437500E+03 -0.58709650404E+02  0.21957220413E+03  0.50529733721E+03  0.10100000352E+00 0.  1.
</event>
<event>
 5   0  0.5310275E-03  0.9885604E+03  0.7818609E-02  0.9321181E-01
        1   -1    0    0  501    0  0.00000000000E+00  0.00000000000E+00  0.14778799332E+04  0.14778799332E+04  0.50400001928E-02 0.  1.
       -1   -1    0    0    0  501  0.00000000000E+00  0.00000000000E+00 -0.16531308557E+03  0.16531308565E+03  0.50400001928E-02 0. -1.
    10030    2    1    2    0    0  0.00000000000E+00  0.00000000000E+00  0.13125668476E+04  0.16431930189E+04  0.98856035108E+03 0.  0.
        1    1    3    3  502    0 -0.46441923232E+03 -0.15528613106E+03  0.76795963969E+03  0.91080240122E+03  0.50400001928E-02 0.  1.
       -1    1    3    3    0  502  0.46441923232E+03  0.15528613106E+03  0.54460720794E+03  0.73239061764E+03  0.50400001928E-02 0. -1.
</event>
<event>
 5   0  0.9243773E-03  0.8703959E+03  0.7818609E-02  0.9463364E-01
       -2   -1    0    0    0  501  0.00000000000E+00  0.00000000000E+00  0.17229148567E+03  0.17229148568E+03  0.25500000920E-02 0.  1.
        2   -1    0    0  501    0  0.00000000000E+00  0.00000000000E+00 -0.10992837772E+04  0.10992837772E+04  0.25500000920E-02 0. -1.
    10030    2    1    2    0    0  0.00000000000E+00  0.00000000000E+00 -0.92699229157E+03  0.12715752629E+04  0.87039585284E+03 0.  0.
        3    1    3    3  502    0  0.73100991081E+02  0.26098536278E+01  0.16324647059E+03  0.17888540073E+03  0.10100000352E+00 0.  1.
       -3    1    3    3    0  502 -0.73100991081E+02 -0.26098536278E+01 -0.10902387622E+04  0.10926898622E+04  0.10100000352E+00 0. -1.
</event>
<event>
 5   0  0.5189877E-03  0.1031972E+04  0.7818609E-02  0.9274157E-01
       -1   -1    0    0    0  501  0.00000000000E+00  0.00000000000E+00  0.47684435294E+03  0.47684435297E+03  0.50400001928E-02 0.  1.
        1   -1    0    0  501    0  0.00000000000E+00  0.00000000000E+00 -0.55834092562E+03  0.55834092564E+03  0.50400001928E-02 0. -1.
    10030    2    1    2    0    0  0.00000000000E+00  0.00000000000E+00 -0.81496572679E+02  0.10351852786E+04  0.10319723202E+04 0.  0.
        3    1    3    3  502    0  0.28741195498E+03  0.42627512142E+03 -0.84766523915E+02  0.52105804359E+03  0.10100000352E+00 0.  1.
       -3    1    3    3    0  502 -0.28741195498E+03 -0.42627512142E+03  0.32699512362E+01  0.51412723502E+03  0.10100000352E+00 0. -1.
</event>
<event>
 5   0  0.8875655E-03  0.1005196E+04  0.7818609E-02  0.9302864E-01
       -2   -1    0    0    0  501  0.00000000000E+00  0.00000000000E+00  0.24537402127E+03  0.24537402128E+03  0.25500000920E-02 0. -1.
        2   -1    0    0  501    0  0.00000000000E+00  0.00000000000E+00 -0.10294680971E+04  0.10294680971E+04  0.25500000920E-02 0.  1.
    10030    2    1    2    0    0  0.00000000000E+00  0.00000000000E+00 -0.78409407586E+03  0.12748421184E+04  0.10051959546E+04 0.  0.
        4    1    3    3  502    0 -0.56969553223E+02 -0.72838506248E+02 -0.10185844049E+04  0.10227740615E+04  0.12699999809E+01 0.  1.
       -4    1    3    3    0  502  0.56969553223E+02  0.72838506248E+02  0.23449032908E+03  0.25206805691E+03  0.12699999809E+01 0. -1.
</event>
<event>
 5   0  0.9243773E-03  0.1062772E+04  0.7818609E-02  0.9242256E-01
        2   -1    0    0  501    0  0.00000000000E+00  0.00000000000E+00  0.70777975575E+03  0.70777975576E+03  0.25500000920E-02 0. -1.
       -2   -1    0    0    0  501  0.00000000000E+00  0.00000000000E+00 -0.39895333951E+03  0.39895333952E+03  0.25500000920E-02 0.  1.
    10030    2    1    2    0    0  0.00000000000E+00  0.00000000000E+00  0.30882641624E+03  0.11067330953E+04  0.10627720305E+04 0.  0.
        3    1    3    3  502    0  0.42688815868E+03  0.28519769076E+03  0.29719740282E+03  0.59320951550E+03  0.10100000352E+00 0.  1.
       -3    1    3    3    0  502 -0.42688815868E+03 -0.28519769076E+03  0.11629013422E+02  0.51352357978E+03  0.10100000352E+00 0. -1.
</event>
<event>
 5   0  0.8968798E-03  0.9959719E+03  0.7818609E-02  0.9312974E-01
        2   -1    0    0  501    0  0.00000000000E+00  0.00000000000E+00  0.70308205711E+03  0.70308205711E+03  0.25500000920E-02 0.  1.
       -2   -1    0    0    0  501  0.00000000000E+00  0.00000000000E+00 -0.35271847365E+03  0.35271847366E+03  0.25500000920E-02 0. -1.
    10030    2    1    2    0    0  0.00000000000E+00  0.00000000000E+00  0.35036358345E+03  0.10558005308E+04  0.99597194748E+03 0.  0.
        2    1    3    3  502    0  0.33388050114E+03 -0.71250156382E+02 -0.20913911643E+03  0.40036476350E+03  0.25500000920E-02 0. -1.
       -2    1    3    3    0  502 -0.33388050114E+03  0.71250156382E+02  0.55950269989E+03  0.65543576727E+03  0.25500000920E-02 0.  1.
</event>
<event>
 5   0  0.5072205E-03  0.1006003E+04  0.7818609E-02  0.9301985E-01
        1   -1    0    0  501    0  0.00000000000E+00  0.00000000000E+00  0.41468330604E+03  0.41468330607E+03  0.50400001928E-02 0.  1.
       -1   -1    0    0    0  501  0.00000000000E+00  0.00000000000E+00 -0.61012966588E+03  0.61012966590E+03  0.50400001928E-02 0. -1.
    10030    2    1    2    0    0  0.00000000000E+00  0.00000000000E+00 -0.19544635984E+03  0.10248129720E+04  0.10060031550E+04 0.  0.
        5    1    3    3  502    0 -0.33616980454E+03 -0.16240952465E+03 -0.44107338830E+03  0.57788823750E+03  0.46999998093E+01 0. -1.
       -5    1    3    3    0  502  0.33616980454E+03  0.16240952465E+03  0.24562702845E+03  0.44692473447E+03  0.46999998093E+01 0.  1.
</event>
<event>
 5   0  0.5310275E-03  0.1011200E+04  0.7818609E-02  0.9296345E-01
        1   -1    0    0  501    0  0.00000000000E+00  0.00000000000E+00  0.22526202733E+04  0.22526202733E+04  0.50400001928E-02 0. -1.
       -1   -1    0    0    0  501  0.00000000000E+00  0.00000000000E+00 -0.11348183022E+03  0.11348183033E+03  0.50400001928E-02 0.  1.
    10030    2    1    2    0    0  0.00000000000E+00  0.00000000000E+00  0.21391384431E+04  0.23661021036E+04  0.10112002206E+04 0.  0.
        1    1    3    3  502    0 -0.71397189352E+02  0.50022258263E+03  0.11108523320E+04  0.12203741616E+04  0.50400001928E-02 0.  1.
       -1    1    3    3    0  502  0.71397189352E+02 -0.50022258263E+03  0.10282861111E+04  0.11457279420E+04  0.50400001928E-02 0. -1.
</event>
<event>
 5   0  0.8875655E-03  0.1001433E+04  0.7818609E-02  0.9306975E-01
        2   -1    0    0  501    0  0.00000000000E+00  0.00000000000E+00  0.64944587920E+03  0.64944587921E+03  0.25500000920E-02 0. -1.
       -2   -1    0    0    0  501  0.00000000000E+00  0.00000000000E+00 -0.38604758580E+03  0.38604758581E+03  0.25500000920E-02 0.  1.
    10030    2    1    2    0    0  0.00000000000E+00  0.00000000000E+00  0.26339829340E+03  0.10354934650E+04  0.10014330008E+04 0.  0.
        4    1    3    3  502    0  0.47539600186E+03  0.94736675086E+02  0.26142128414E+03  0.55074413015E+03  0.12699999809E+01 0. -1.
       -4    1    3    3    0  502 -0.47539600186E+03 -0.94736675086E+02  0.19770092634E+01  0.48474933487E+03  0.12699999809E+01 0.  1.
</event>
<event>
 5   0  0.8875655E-03  0.9988389E+03  0.7818609E-02  0.9309819E-01
       -2   -1    0    0    0  501  0.00000000000E+00  0.00000000000E+00  0.21817122389E+03  0.21817122391E+03  0.25500000920E-02 0.  1.
        2   -1    0    0  501    0  0.00000000000E+00  0.00000000000E+00 -0.11432294978E+04  0.11432294978E+04  0.25500000920E-02 0. -1.
    10030    2    1    2    0    0  0.00000000000E+00  0.00000000000E+00 -0.92505827387E+03  0.13614007217E+04  0.99883888337E+03 0.  0.
        4    1    3    3  502    0 -0.18585124501E+03  0.45984111790E+03 -0.38277857573E+03  0.62651064629E+03  0.12699999809E+01 0. -1.
       -4    1    3    3    0  502  0.18585124501E+03 -0.45984111790E+03 -0.54227969814E+03  0.73489007538E+03  0.12699999809E+01 0.  1.
</event>
<event>
 5   0  0.8907355E-03  0.9921546E+03  0.7818609E-02  0.9317192E-01
        2   -1    0    0  501    0  0.00000000000E+00  0.00000000000E+00  0.26700281511E+03  0.26700281512E+03  0.25500000920E-02 0. -1.
       -2   -1    0    0    0  501  0.00000000000E+00  0.00000000000E+00 -0.92168567067E+03  0.92168567068E+03  0.25500000920E-02 0.  1.
    10030    2    1    2    0    0  0.00000000000E+00  0.00000000000E+00 -0.65468285556E+03  0.11886884858E+04  0.99215456200E+03 0.  0.
        5    1    3    3  502    0  0.77570580492E+02  0.48489583297E+03 -0.41145893823E+03  0.64067285851E+03  0.46999998093E+01 0. -1.
       -5    1    3    3    0  502 -0.77570580492E+02 -0.48489583297E+03 -0.24322391733E+03  0.54801562728E+03  0.46999998093E+01 0.  1.
</event>
<event>
 5   0  0.9243773E-03  0.9894327E+03  0.7818609E-02  0.9320211E-01
        2   -1    0    0  501    0  0.00000000000E+00  0.00000000000E+00  0.70424269940E+03  0.70424269941E+03  0.25500000920E-02 0. -1.
       -2   -1    0    0    0  501  0.00000000000E+00  0.00000000000E+00 -0.34752827848E+03  0.34752827849E+03  0.25500000920E-02 0.  1.
    10030    2    1    2    0    0  0.00000000000E+00  0.00000000000E+00  0.35671442092E+03  0.10517709779E+04  0.98943267172E+03 0.  0.
        3    1    3    3  502    0 -0.17975065828E+03 -0.33039918185E+02 -0.31032683262E+03  0.36014537147E+03  0.10100000352E+00 0.  1.
       -3    1    3    3    0  502  0.17975065828E+03  0.33039918185E+02  0.66704125354E+03  0.69162560643E+03  0.10100000352E+00 0. -1.
</event>
<event>
 5   0  0.8875655E-03  0.9986751E+03  0.7818609E-02  0.9309999E-01
       -2   -1    0    0    0  501  0.00000000000E+00  0.00000000000E+00  0.30272874355E+03  0.30272874356E+03  0.25500000920E-02 0. -1.
        2   -1    0    0  501    0  0.00000000000E+00  0.00000000000E+00 -0.82363507245E+03  0.82363507246E+03  0.25500000920E-02 0.  1.
    10030    2    1    2    0    0  0.00000000000E+00  0.00000000000E+00 -0.52090632890E+03  0.11263638160E+04  0.99867514365E+03 0.  0.
        4    1    3    3  502    0  0.24168149350E+03 -0.38146174098E+03 -0.50080443823E+03  0.67433649047E+03  0.12699999809E+01 0.  1.
       -4    1    3    3    0  502 -0.24168149350E+03  0.38146174098E+03 -0.20101890670E+02  0.45202732555E+03  0.12699999809E+01 0. -1.
</event>
<event>
 5   0  0.3513625E-03  0.9249279E+03  0.7818609E-02  0.9394946E-01
        3   -1    0    0  501    0  0.00000000000E+00  0.00000000000E+00  0.35720456993E+03  0.35720458421E+03  0.10100000352E+00 0.  1.
       -3   -1    0    0    0  501  0.00000000000E+00  0.00000000000E+00 -0.59874061062E+03  0.59874061914E+03  0.10100000352E+00 0. -1.
    10030    2    1    2    0    0  0.00000000000E+00  0.00000000000E+00 -0.24153604069E+03  0.95594520335E+03  0.92492787441E+03 0.  0.
        3    1    3    3  502    0  0.38966415866E+03  0.24572757359E+03 -0.78751477876E+02  0.46735639766E+03  0.10100000352E+00 0.  1.
       -3    1    3    3    0  502 -0.38966415866E+03 -0.24572757359E+03 -0.16278456281E+03  0.48858880570E+03  0.10100000352E+00 0. -1.
</event>
<event>
 5   0  0.5072205E-03  0.1003613E+04  0.7818609E-02  0.9304591E-01
       -1   -1    0    0    0  501  0.00000000000E+00  0.00000000000E+00  0.10085165061E+04  0.10085165061E+04  0.50400001928E-02 0. -1.
        1   -1    0    0  501    0  0.00000000000E+00  0.00000000000E+00 -0.24968328751E+03  0.24968328756E+03  0.50400001928E-02 0.  1.
    10030    2    1    2    0    0  0.00000000000E+00  0.00000000000E+00  0.75883321858E+03  0.12581997937E+04  0.10036129070E+04 0.  0.
        5    1    3    3  502    0 -0.39024499102E+03 -0.23934262919E+03  0.63698891991E+03  0.78444440290E+03  0.46999998093E+01 0. -1.
       -5    1    3    3    0  502  0.39024499102E+03  0.23934262919E+03  0.12184429868E+03  0.47375539077E+03  0.46999998093E+01 0.  1.
</event>
<event>
 5   0  0.5201968E-03  0.9865605E+03  0.7818609E-02  0.9323409E-01
        1   -1    0    0  501    0  0.00000000000E+00  0.00000000000E+00  0.23486046368E+04  0.23486046368E+04  0.50400001928E-02 0. -1.
       -1   -1    0    0    0  501  0.00000000000E+00  0.00000000000E+00 -0.10360423435E+03  0.10360423447E+03  0.50400001928E-02 0.  1.
    10030    2    1    2    0    0  0.00000000000E+00  0.00000000000E+00  0.22450004025E+04  0.24522088713E+04  0.98656046005E+03 0.  0.
        2    1    3    3  502    0  0.17838079401E+03  0.25388745481E+03  0.16934944086E+03  0.35349367817E+03  0.25500000920E-02 0.  1.
       -2    1    3    3    0  502 -0.17838079401E+03 -0.25388745481E+03  0.20756509616E+04  0.20987151931E+04  0.25500000920E-02 0. -1.
</event>
<event>
 5   0  0.3513625E-03  0.9658492E+03  0.7818609E-02  0.9346815E-01
        3   -1    0    0  501    0  0.00000000000E+00  0.00000000000E+00  0.18618758424E+04  0.18618758451E+04  0.10100000352E+00 0.  1.
       -3   -1    0    0    0  501  0.00000000000E+00  0.00000000000E+00 -0.12525868488E+03  0.12525872560E+03  0.10100000352E+00 0. -1.
    10030    2    1    2    0    0  0.00000000000E+00  0.00000000000E+00  0.17366171575E+04  0.19871345707E+04  0.96584918619E+03 0.  0.
        1    1    3    3  502    0  0.17889141900E+02 -0.17069188983E+03  0.17970137723E+04  0.18051909153E+04  0.50400001928E-02 0.  1.
       -1    1    3    3    0  502 -0.17889141900E+02  0.17069188983E+03 -0.60396614823E+02  0.18194365545E+03  0.50400001928E-02 0. -1.
</event>
<event>
 5   0  0.8875655E-03  0.9756806E+03  0.7818609E-02  0.9335628E-01
       -2   -1    0    0    0  501  0.00000000000E+00  0.00000000000E+00  0.43235234345E+03  0.43235234346E+03  0.25500000920E-02 0.  1.
        2   -1    0    0  501    0  0.00000000000E+00  0.00000000000E+00 -0.55044952708E+03  0.55044952709E+03  0.25500000920E-02 0. -1.
    10030    2    1    2    0    0  0.00000000000E+00  0.00000000000E+00 -0.11809718363E+03  0.98280187054E+03  0.97568056861E+03 0.  0.
        4    1    3    3  502    0 -0.14483139991E+02 -0.39181234873E+03  0.23334554848E+03  0.45626575135E+03  0.12699999809E+01 0.  1.
       -4    1    3    3    0  502  0.14483139991E+02  0.39181234873E+03 -0.35144273211E+03  0.52653611919E+03  0.12699999809E+01 0. -1.
</event>
<event>
 5   0  0.9243773E-03  0.1019503E+04  0.7818609E-02  0.9287409E-01
        2   -1    0    0  501    0  0.00000000000E+00  0.00000000000E+00  0.13217083452E+04  0.13217083452E+04  0.25500000920E-02 0.  1.
       -2   -1    0    0    0  501  0.00000000000E+00  0.00000000000E+00 -0.19659902210E+03  0.19659902212E+03  0.25500000920E-02 0. -1.
    10030    2    1    2    0    0  0.00000000000E+00  0.00000000000E+00  0.11251093231E+04  0.15183073673E+04  0.10195029538E+04 0.  0.
        3    1    3    3  502    0 -0.13971477088E+03 -0.48695196946E+03  0.47825504236E+03  0.69668524708E+03  0.10100000352E+00 0. -1.
       -3    1    3    3    0  502  0.13971477088E+03  0.48695196946E+03  0.64685428076E+03  0.82162212026E+03  0.10100000352E+00 0.  1.
</event>
<event>
 5   0  0.5072205E-03  0.1009429E+04  0.7818609E-02  0.9298263E-01
        1   -1    0    0  501    0  0.00000000000E+00  0.00000000000E+00  0.23610204052E+04  0.23610204053E+04  0.50400001928E-02 0.  1.
       -1   -1    0    0    0  501  0.00000000000E+00  0.00000000000E+00 -0.10789260724E+03  0.10789260736E+03  0.50400001928E-02 0. -1.
    10030    2    1    2    0    0  0.00000000000E+00  0.00000000000E+00  0.22531277980E+04  0.24689130126E+04  0.10094288433E+04 0.  0.
        5    1    3    3  502    0  0.41123345763E+03 -0.22811419043E+03  0.67846203736E+03  0.82551914980E+03  0.46999998093E+01 0. -1.
       -5    1    3    3    0  502 -0.41123345763E+03  0.22811419043E+03  0.15746657607E+04  0.16433938628E+04  0.46999998093E+01 0.  1.
</event>
<event>
 5   0  0.8968798E-03  0.1001887E+04  0.7818609E-02  0.9306477E-01
        2   -1    0    0  501    0  0.00000000000E+00  0.00000000000E+00  0.17269121166E+04  0.17269121166E+04  0.25500000920E-02 0.  1.
       -2   -1    0    0    0  501  0.00000000000E+00  0.00000000000E+00 -0.14531404414E+03  0.14531404416E+03  0.25500000920E-02 0. -1.
    10030    2    1    2    0    0  0.00000000000E+00  0.00000000000E+00  0.15815980725E+04  0.18722261608E+04  0.10018873860E+04 0.  0.
        2    1    3    3  502    0 -0.32863244950E+03 -0.35839052884E+03  0.56576601737E+03  0.74601222808E+03  0.25500000920E-02 0. -1.
       -2    1    3    3    0  502  0.32863244950E+03  0.35839052884E+03  0.10158320551E+04  0.11262139327E+04  0.25500000920E-02 0.  1.
</event>
<event>
 5   0  0.3513625E-03  0.9919539E+03  0.7818609E-02  0.9317414E-01
        3   -1    0    0  501    0  0.00000000000E+00  0.00000000000E+00  0.13730915080E+03  0.13730918794E+03  0.10100000352E+00 0.  1.
       -3   -1    0    0    0  501  0.00000000000E+00  0.00000000000E+00 -0.17915271573E+04  0.17915271601E+04  0.10100000352E+00 0. -1.
    10030    2    1    2    0    0  0.00000000000E+00  0.00000000000E+00 -0.16542180065E+04  0.19288363481E+04  0.99195385208E+03 0.  0.
        5    1    3    3  502    0  0.16072610403E+03 -0.93139691493E+02 -0.17212813817E+04  0.17312826365E+04  0.46999998093E+01 0. -1.
       -5    1    3    3    0  502 -0.16072610403E+03  0.93139691493E+02  0.67063375204E+02  0.19755371153E+03  0.46999998093E+01 0.  1.
</event>
<event>
 5   0  0.8875655E-03  0.1013412E+04  0.7818609E-02  0.9293956E-01
        2   -1    0    0  501    0  0.00000000000E+00  0.00000000000E+00  0.20459149867E+04  0.20459149867E+04  0.25500000920E-02 0.  1.
       -2   -1    0    0    0  501  0.00000000000E+00  0.00000000000E+00 -0.12549433751E+03  0.12549433753E+03  0.25500000920E-02 0. -1.
    10030    2    1    2    0    0  0.00000000000E+00  0.00000000000E+00  0.19204206492E+04  0.21714093242E+04  0.10134115568E+04 0.  0.
        4    1    3    3  502    0  0.15054234877E+03 -0.32014307488E+03  0.17374854876E+04  0.17731362101E+04  0.12699999809E+01 0.  1.
       -4    1    3    3    0  502 -0.15054234877E+03  0.32014307488E+03  0.18293516159E+03  0.39827311410E+03  0.12699999809E+01 0. -1.
</event>
<event>
 5   0  0.5310275E-03  0.1018333E+04  0.7818609E-02  0.9288663E-01
        1   -1    0    0  501    0  0.00000000000E+00  0.00000000000E+00  0.10911841693E+04  0.10911841693E+04  0.50400001928E-02 0. -1.
       -1   -1    0    0    0  501  0.00000000000E+00  0.00000000000E+00 -0.23758623295E+03  0.23758623300E+03  0.50400001928E-02 0.  1.
    10030    2    1    2    0    0  0.00000000000E+00  0.00000000000E+00  0.85359793638E+03  0.13287704023E+04  0.10183326299E+04 0.  0.
        1    1    3    3  502    0  0.21118996425E+03 -0.37550576917E+03  0.78090277854E+03  0.89186037765E+03  0.50400001928E-02 0.  1.
       -1    1    3    3    0  502 -0.21118996425E+03  0.37550576917E+03  0.72695157840E+02  0.43691002469E+03  0.50400001928E-02 0. -1.
</event>
<event>
 5   0  0.8968798E-03  0.9781050E+03  0.7818609E-02  0.9332890E-01
       -2   -1    0    0    0  501  0.00000000000E+00  0.00000000000E+00  0.30998010937E+03  0.30998010939E+03  0.25500000920E-02 0.  1.
        2   -1    0    0  501    0  0.00000000000E+00  0.00000000000E+00 -0.77157317947E+03  0.77157317947E+03  0.25500000920E-02 0. -1.
    10030    2    1    2    0    0  0.00000000000E+00  0.00000000000E+00 -0.46159307009E+03  0.10815532889E+04  0.97810498122E+03 0.  0.
        2    1    3    3  502    0 -0.33451164971E+03 -0.54146725971E+02  0.15912042088E+03  0.37436508929E+03  0.25500000920E-02 0.  1.
       -2    1    3    3    0  502  0.33451164971E+03  0.54146725971E+02 -0.62071349098E+03  0.70718819957E+03  0.25500000920E-02 0. -1.
</event>
<event>
 5   0  0.5072205E-03  0.1010655E+04  0.7818609E-02  0.9296935E-01
        1   -1    0    0  501    0  0.00000000000E+00  0.00000000000E+00  0.56510176230E+03  0.56510176232E+03  0.50400001928E-02 0.  1.
       -1   -1    0    0    0  501  0.00000000000E+00  0.00000000000E+00 -0.45187619076E+03  0.45187619079E+03  0.50400001928E-02 0. -1.
    10030    2    1    2    0    0  0.00000000000E+00  0.00000000000E+00  0.11322557154E+03  0.10169779531E+04  0.10106552959E+04 0.  0.
        5    1    3    3  502    0 -0.33196323779E+01  0.62124407584E+02  0.56121127107E+03  0.56466861322E+03  0.46999998093E+01 0.  1.
       -5    1    3    3    0  502  0.33196323779E+01 -0.62124407584E+02 -0.44798569953E+03  0.45230933989E+03  0.46999998093E+01 0. -1.
</event>
<event>
 5   0  0.3513625E-03  0.9826009E+03  0.7818609E-02  0.9327836E-01
        3   -1    0    0  501    0  0.00000000000E+00  0.00000000000E+00  0.24089524439E+03  0.24089526557E+03  0.10100000352E+00 0.  1.
       -3   -1    0    0    0  501  0.00000000000E+00  0.00000000000E+00 -0.10019960923E+04  0.10019960973E+04  0.10100000352E+00 0. -1.
    10030    2    1    2    0    0  0.00000000000E+00  0.00000000000E+00 -0.76110084786E+03  0.12428913629E+04  0.98260085456E+03 0.  0.
        4    1    3    3  502    0  0.36148328911E+03 -0.28770837400E+03 -0.16916372229E+03  0.49200025876E+03  0.12699999809E+01 0.  1.
       -4    1    3    3    0  502 -0.36148328911E+03  0.28770837400E+03 -0.59193712557E+03  0.75089110416E+03  0.12699999809E+01 0. -1.
</event>
<event>
 5   0  0.5310275E-03  0.1007170E+04  0.7818609E-02  0.9300716E-01
        1   -1    0    0  501    0  0.00000000000E+00  0.00000000000E+00  0.40367234807E+03  0.40367234810E+03  0.50400001928E-02 0. -1.
       -1   -1    0    0    0  501  0.00000000000E+00  0.00000000000E+00 -0.62822705127E+03  0.62822705129E+03  0.50400001928E-02 0.  1.
    10030    2    1    2    0    0  0.00000000000E+00  0.00000000000E+00 -0.22455470320E+03  0.10318993994E+04  0.10071700729E+04 0.  0.
        1    1    3    3  502    0  0.48290591997E+03  0.11638641603E+03 -0.27455950561E+02  0.49749146186E+03  0.50400001928E-02 0.  1.
       -1    1    3    3    0  502 -0.48290591997E+03 -0.11638641603E+03 -0.19709875264E+03  0.53440793753E+03  0.50400001928E-02 0. -1.
</event>
<event>
 5   0  0.8907355E-03  0.9884276E+03  0.7818609E-02  0.9321329E-01
       -2   -1    0    0    0  501  0.00000000000E+00  0.00000000000E+00  0.30985595092E+03  0.30985595093E+03  0.25500000920E-02 0.  1.
        2   -1    0    0  501    0  0.00000000000E+00  0.00000000000E+00 -0.78826076097E+03  0.78826076098E+03  0.25500000920E-02 0. -1.
    10030    2    1    2    0    0  0.00000000000E+00  0.00000000000E+00 -0.47840481006E+03  0.10981167119E+04  0.98842761529E+03 0.  0.
        5    1    3    3  502    0 -0.14706030984E+03 -0.42206172302E+02  0.28285707132E+03  0.32161826519E+03  0.46999998093E+01 0.  1.
       -5    1    3    3    0  502  0.14706030984E+03  0.42206172302E+02 -0.76126188138E+03  0.77649844671E+03  0.46999998093E+01 0. -1.
</event>
<event>
 5   0  0.5072205E-03  0.9962862E+03  0.7818609E-02  0.9312627E-01
       -1   -1    0    0    0  501  0.00000000000E+00  0.00000000000E+00  0.24645373343E+03  0.24645373348E+03  0.50400001928E-02 0.  1.
        1   -1    0    0  501    0  0.00000000000E+00  0.00000000000E+00 -0.10068687491E+04  0.10068687491E+04  0.50400001928E-02 0. -1.
    10030    2    1    2    0    0  0.00000000000E+00  0.00000000000E+00 -0.76041501565E+03  0.12533224826E+04  0.99628622860E+03 0.  0.
        5    1    3    3  502    0  0.48828918193E+03  0.83813452860E+02 -0.44525265780E+03  0.66612539311E+03  0.46999998093E+01 0. -1.
       -5    1    3    3    0  502 -0.48828918193E+03 -0.83813452860E+02 -0.31516235785E+03  0.58719708946E+03  0.46999998093E+01 0.  1.
</event>
<event>
 5   0  0.9243773E-03  0.9472699E+03  0.7818609E-02  0.9368347E-01
       -2   -1    0    0    0  501  0.00000000000E+00  0.00000000000E+00  0.36221904168E+03  0.36221904169E+03  0.25500000920E-02 0. -1.
        2   -1    0    0  501    0  0.00000000000E+00  0.00000000000E+00 -0.61932151353E+03  0.61932151353E+03  0.25500000920E-02 0.  1.
    10030    2    1    2    0    0  0.00000000000E+00  0.00000000000E+00 -0.25710247185E+03  0.98154055522E+03  0.94726985623E+03 0.  0.
        3    1    3    3  502    0 -0.12062853382E+03  0.35362295307E+02 -0.60172105124E+03  0.61471128899E+03  0.10100000352E+00 0.  1.
       -3    1    3    3    0  502  0.12062853382E+03 -0.35362295307E+02  0.34461857940E+03  0.36682926623E+03  0.10100000352E+00 0. -1.
</event>
<event>
 5   0  0.5310275E-03  0.1016499E+04  0.7818609E-02  0.9290631E-01
        1   -1    0    0  501    0  0.00000000000E+00  0.00000000000E+00  0.90528931970E+03  0.90528931972E+03  0.50400001928E-02 0. -1.
       -1   -1    0    0    0  501  0.00000000000E+00  0.00000000000E+00 -0.28534273949E+03  0.28534273954E+03  0.50400001928E-02 0.  1.
    10030    2    1    2    0    0  0.00000000000E+00  0.00000000000E+00  0.61994658021E+03  0.11906320593E+04  0.10164993548E+04 0.  0.
        1    1    3    3  502    0  0.25559275747E+03 -0.43698447304E+03  0.25713910415E+03  0.56780595828E+03  0.50400001928E-02 0.  1.
       -1    1    3    3    0  502 -0.25559275747E+03  0.43698447304E+03  0.36280747606E+03  0.62282610098E+03  0.50400001928E-02 0. -1.
</event>
<event>
 5   0  0.5189877E-03  0.9929992E+03  0.7818609E-02  0.9316257E-01
       -1   -1    0    0    0  501  0.00000000000E+00  0.00000000000E+00  0.28853027805E+03  0.28853027810E+03  0.50400001928E-02 0.  1.
        1   -1    0    0  501    0  0.00000000000E+00  0.00000000000E+00 -0.85437086213E+03  0.85437086214E+03  0.50400001928E-02 0. -1.
    10030    2    1    2    0    0  0.00000000000E+00  0.00000000000E+00 -0.56584058408E+03  0.11429011402E+04  0.99299921942E+03 0.  0.
        3    1    3    3  502    0  0.32561724920E+03  0.17258399996E+03 -0.66586283147E+03  0.76104214769E+03  0.10100000352E+00 0. -1.
       -3    1    3    3    0  502 -0.32561724920E+03 -0.17258399996E+03  0.10002224740E+03  0.38185899255E+03  0.10100000352E+00 0.  1.
</event>
<event>
 5   0  0.9243773E-03  0.9868816E+03  0.7818609E-02  0.9323051E-01
        2   -1    0    0  501    0  0.00000000000E+00  0.00000000000E+00  0.10685417670E+04  0.10685417670E+04  0.25500000920E-02 0. -1.
       -2   -1    0    0    0  501  0.00000000000E+00  0.00000000000E+00 -0.22786553074E+03  0.22786553075E+03  0.25500000920E-02 0.  1.
    10030    2    1    2    0    0  0.00000000000E+00  0.00000000000E+00  0.84067623627E+03  0.12964072978E+04  0.98688162789E+03 0.  0.
        3    1    3    3  502    0 -0.48978938713E+03  0.47109240043E+02  0.46897656240E+03  0.67974403309E+03  0.10100000352E+00 0.  1.
       -3    1    3    3    0  502  0.48978938713E+03 -0.47109240043E+02  0.37169967387E+03  0.61666326467E+03  0.10100000352E+00 0. -1.
</event>
<event>
 5   0  0.8907355E-03  0.1022038E+04  0.7818609E-02  0.9284699E-01
        2   -1    0    0  501    0  0.00000000000E+00  0.00000000000E+00  0.59397458492E+03  0.59397458493E+03  0.25500000920E-02 0.  1.
       -2   -1    0    0    0  501  0.00000000000E+00  0.00000000000E+00 -0.43964895241E+03  0.43964895242E+03  0.25500000920E-02 0. -1.
    10030    2    1    2    0    0  0.00000000000E+00  0.00000000000E+00  0.15432563251E+03  0.10336235373E+04  0.10220377763E+04 0.  0.
        5    1    3    3  502    0 -0.40609900044E+03  0.64164393190E+02 -0.22973181461E+03  0.47099072618E+03  0.46999998093E+01 0. -1.
       -5    1    3    3    0  502  0.40609900044E+03 -0.64164393190E+02  0.38405744712E+03  0.56263281116E+03  0.46999998093E+01 0.  1.
</event>
<event>
 5   0  0.8907355E-03  0.1013447E+04  0.7818609E-02  0.9293918E-01
       -2   -1    0    0    0  501  0.00000000000E+00  0.00000000000E+00  0.23329675782E+03  0.23329675783E+03  0.25500000920E-02 0.  1.
        2   -1    0    0  501    0  0.00000000000E+00  0.00000000000E+00 -0.11006101049E+04  0.11006101049E+04  0.25500000920E-02 0. -1.
    10030    2    1    2    0    0  0.00000000000E+00  0.00000000000E+00 -0.86731334712E+03  0.13339068628E+04  0.10134471256E+04 0.  0.
        5    1    3    3  502    0 -0.31482159493E+03  0.36367754088E+03 -0.22400049886E+03  0.53063386988E+03  0.46999998093E+01 0. -1.
       -5    1    3    3    0  502  0.31482159493E+03 -0.36367754088E+03 -0.64331284826E+03  0.80327299289E+03  0.46999998093E+01 0.  1.
</event>
<event>
 5   0  0.5349685E-03  0.1018682E+04  0.7818609E-02  0.9288289E-01
        1   -1    0    0  501    0  0.00000000000E+00  0.00000000000E+00  0.14859997814E+04  0.14859997814E+04  0.50400001928E-02 0. -1.
       -1   -1    0    0    0  501  0.00000000000E+00  0.00000000000E+00 -0.17458163809E+03  0.17458163816E+03  0.50400001928E-02 0.  1.
    10030    2    1    2    0    0  0.00000000000E+00  0.00000000000E+00  0.13114181433E+04  0.16605814196E+04  0.10186820428E+04 0.  0.
        4    1    3    3  502    0  0.35885397877E+03  0.36132689040E+03  0.63995800937E+03  0.81785155527E+03  0.12699999809E+01 0.  1.
       -4    1    3    3    0  502 -0.35885397877E+03 -0.36132689040E+03  0.67146013395E+03  0.84272986430E+03  0.12699999809E+01 0. -1.
</event>
<event>
 5   0  0.5072205E-03  0.1001690E+04  0.7818609E-02  0.9306694E-01
       -1   -1    0    0    0  501  0.00000000000E+00  0.00000000000E+00  0.20935029933E+03  0.20935029939E+03  0.50400001928E-02 0. -1.
        1   -1    0    0  501    0  0.00000000000E+00  0.00000000000E+00 -0.11982096892E+04  0.11982096892E+04  0.50400001928E-02 0.  1.
    10030    2    1    2    0    0  0.00000000000E+00  0.00000000000E+00 -0.98885938985E+03  0.14075599886E+04  0.10016896868E+04 0.  0.
        5    1    3    3  502    0 -0.64019192862E+02 -0.16928855317E+03  0.16175800221E+03  0.24278552792E+03  0.46999998093E+01 0. -1.
       -5    1    3    3    0  502  0.64019192862E+02  0.16928855317E+03 -0.11506173921E+04  0.11647744607E+04  0.46999998093E+01 0.  1.
</event>
<event>
 5   0  0.5201968E-03  0.9741569E+03  0.7818609E-02  0.9337352E-01
       -1   -1    0    0    0  501  0.00000000000E+00  0.00000000000E+00  0.15365206405E+03  0.15365206413E+03  0.50400001928E-02 0. -1.
        1   -1    0    0  501    0  0.00000000000E+00  0.00000000000E+00 -0.15440432057E+04  0.15440432057E+04  0.50400001928E-02 0.  1.
    10030    2    1    2    0    0  0.00000000000E+00  0.00000000000E+00 -0.13903911416E+04  0.16976952698E+04  0.97415691880E+03 0.  0.
        2    1    3    3  502    0  0.33819233631E+03 -0.22041801441E+01 -0.84327280346E+02  0.34855416360E+03  0.25500000920E-02 0. -1.
       -2    1    3    3    0  502 -0.33819233631E+03  0.22041801441E+01 -0.13060638613E+04  0.13491411062E+04  0.25500000920E-02 0.  1.
</event>
<event>
 5   0  0.5310275E-03  0.1000778E+04  0.7818609E-02  0.9307692E-01
        1   -1    0    0  501    0  0.00000000000E+00  0.00000000000E+00  0.28368334058E+03  0.28368334062E+03  0.50400001928E-02 0.  1.
       -1   -1    0    0    0  501  0.00000000000E+00  0.00000000000E+00 -0.88263621154E+03  0.88263621156E+03  0.50400001928E-02 0. -1.
    10030    2    1    2    0    0  0.00000000000E+00  0.00000000000E+00 -0.59895287096E+03  0.11663195522E+04  0.10007780754E+04 0.  0.
        1    1    3    3  502    0 -0.37091700515E+03 -0.26320632943E+03 -0.54263246544E+03  0.70803035891E+03  0.50400001928E-02 0. -1.
       -1    1    3    3    0  502  0.37091700515E+03  0.26320632943E+03 -0.56320405527E+02  0.45828919327E+03  0.50400001928E-02 0.  1.
</event>
<event>
 5   0  0.3513625E-03  0.1007501E+04  0.7818609E-02  0.9300356E-01
        3   -1    0    0  501    0  0.00000000000E+00  0.00000000000E+00  0.63201792097E+03  0.63201792904E+03  0.10100000352E+00 0. -1.
       -3   -1    0    0    0  501  0.00000000000E+00  0.00000000000E+00 -0.40151495693E+03  0.40151496964E+03  0.10100000352E+00 0.  1.
    10030    2    1    2    0    0  0.00000000000E+00  0.00000000000E+00  0.23050296404E+03  0.10335328987E+04  0.10075011842E+04 0.  0.
        3    1    3    3  502    0  0.34555155999E+02  0.26023432040E+03 -0.32579760447E+03  0.41840178011E+03  0.10100000352E+00 0.  1.
       -3    1    3    3    0  502 -0.34555155999E+02 -0.26023432040E+03  0.55630056851E+03  0.61513111857E+03  0.10100000352E+00 0. -1.
</event>
<event>
 5   0  0.5349685E-03  0.1007049E+04  0.7818609E-02  0.9300847E-01
        1   -1    0    0  501    0  0.00000000000E+00  0.00000000000E+00  0.38562816540E+03  0.38562816544E+03  0.50400001928E-02 0.  1.
       -1   -1    0    0    0  501  0.00000000000E+00  0.00000000000E+00 -0.65746537213E+03  0.65746537215E+03  0.50400001928E-02 0. -1.
    10030    2    1    2    0    0  0.00000000000E+00  0.00000000000E+00 -0.27183720672E+03  0.10430935376E+04  0.10070494830E+04 0.  0.
        4    1    3    3  502    0  0.34675946864E+03 -0.35876185413E+03 -0.65795002773E+02  0.50327208582E+03  0.12699999809E+01 0.  1.
       -4    1    3    3    0  502 -0.34675946864E+03  0.35876185413E+03 -0.20604220395E+03  0.53982145176E+03  0.12699999809E+01 0. -1.
</event>
<event>
 5   0  0.9243773E-03  0.1006661E+04  0.7818609E-02  0.9301269E-01
        2   -1    0    0  501    0  0.00000000000E+00  0.00000000000E+00  0.32541886376E+03  0.32541886377E+03  0.25500000920E-02 0.  1.
       -2   -1    0    0    0  501  0.00000000000E+00  0.00000000000E+00 -0.77850892652E+03  0.77850892653E+03  0.25500000920E-02 0. -1.
    10030    2    1    2    0    0  0.00000000000E+00  0.00000000000E+00 -0.45309006276E+03  0.11039277903E+04  0.10066607975E+04 0.  0.
        3    1    3    3  502    0  0.20683768063E+03  0.42924630042E+03 -0.40441203181E+03  0.62496665049E+03  0.10100000352E+00 0. -1.
       -3    1    3    3    0  502 -0.20683768063E+03 -0.42924630042E+03 -0.48678030954E+02  0.47896113981E+03  0.10100000352E+00 0.  1.
</event>
<event>
 5   0  0.8907355E-03  0.9797568E+03  0.7818609E-02  0.9331030E-01
       -2   -1    0    0    0  501  0.00000000000E+00  0.00000000000E+00  0.13441571267E+03  0.13441571269E+03  0.25500000920E-02 0.  1.
        2   -1    0    0  501    0  0.00000000000E+00  0.00000000000E+00 -0.17853630769E+04  0.17853630769E+04  0.25500000920E-02 0. -1.
    10030    2    1    2    0    0  0.00000000000E+00  0.00000000000E+00 -0.16509473642E+04  0.19197787896E+04  0.97975680732E+03 0.  0.
        5    1    3    3  502    0  0.20224502616E+03 -0.30629633070E+03 -0.14611261604E+04  0.15065298667E+04  0.46999998093E+01 0. -1.
       -5    1    3    3    0  502 -0.20224502616E+03  0.30629633070E+03 -0.18982120382E+03  0.41324892283E+03  0.46999998093E+01 0.  1.
</event>
<event>
 5   0  0.8907355E-03  0.1004974E+04  0.7818609E-02  0.9303106E-01
       -2   -1    0    0    0  501  0.00000000000E+00  0.00000000000E+00  0.19301279830E+03  0.19301279831E+03  0.25500000920E-02 0. -1.
        2   -1    0    0  501    0  0.00000000000E+00  0.00000000000E+00 -0.13081683112E+04  0.13081683112E+04  0.25500000920E-02 0.  1.
    10030    2    1    2    0    0  0.00000000000E+00  0.00000000000E+00 -0.11151555129E+04  0.15011811095E+04  0.10049740820E+04 0.  0.
        5    1    3    3  502    0  0.47330482413E+03  0.91113029664E+02 -0.76962778599E+03  0.90811236072E+03  0.46999998093E+01 0.  1.
       -5    1    3    3    0  502 -0.47330482413E+03 -0.91113029664E+02 -0.34552772687E+03  0.59306874876E+03  0.46999998093E+01 0. -1.
</event>
<event>
 5   0  0.5310275E-03  0.9049968E+03  0.7818609E-02  0.9419357E-01
       -1   -1    0    0    0  501  0.00000000000E+00  0.00000000000E+00  0.45605860510E+03  0.45605860513E+03  0.50400001928E-02 0. -1.
        1   -1    0    0  501    0  0.00000000000E+00  0.00000000000E+00 -0.44896598404E+03  0.44896598407E+03  0.50400001928E-02 0.  1.
    10030    2    1    2    0    0  0.00000000000E+00  0.00000000000E+00  0.70926210588E+01  0.90502458920E+03  0.90499679656E+03 0.  0.
        1    1    3    3  502    0 -0.15203613852E+03 -0.50057371685E+02 -0.41970902045E+03  0.44919526906E+03  0.50400001928E-02 0.  1.
       -1    1    3    3    0  502  0.15203613852E+03  0.50057371685E+02  0.42680164151E+03  0.45582932014E+03  0.50400001928E-02 0. -1.
</event>
<event>
 5   0  0.9040674E-03  0.1160863E+04  0.7818609E-02  0.9147820E-01
        2   -1    0    0  501    0  0.00000000000E+00  0.00000000000E+00  0.13463795117E+04  0.13463795117E+04  0.25500000920E-02 0. -1.
       -2   -1    0    0    0  501  0.00000000000E+00  0.00000000000E+00 -0.25022701562E+03  0.25022701563E+03  0.25500000920E-02 0.  1.
    10030    2    1    2    0    0  0.00000000000E+00  0.00000000000E+00  0.10961524961E+04  0.15966065274E+04  0.11608626570E+04 0.  0.
        1    1    3    3  502    0 -0.23571397319E+02 -0.49514462296E+03  0.13277901386E+03  0.51318035326E+03  0.50400001928E-02 0.  1.
       -1    1    3    3    0  502  0.23571397319E+02  0.49514462296E+03  0.96337348224E+03  0.10834261741E+04  0.50400001928E-02 0. -1.
</event>
<event>
 5   0  0.9040674E-03  0.1003779E+04  0.7818609E-02  0.9304410E-01
       -2   -1    0    0    0  501  0.00000000000E+00  0.00000000000E+00  0.45880277755E+03  0.45880277756E+03  0.25500000920E-02 0.  1.
        2   -1    0    0  501    0  0.00000000000E+00  0.00000000000E+00 -0.54902205484E+03  0.54902205485E+03  0.25500000920E-02 0. -1.
    10030    2    1    2    0    0  0.00000000000E+00  0.00000000000E+00 -0.90219277286E+02  0.10078248324E+04  0.10037785487E+04 0.  0.
        1    1    3    3  502    0  0.42370321591E+03 -0.17965983068E+03 -0.24614356912E+03  0.52190873395E+03  0.50400001928E-02 0.  1.
       -1    1    3    3    0  502 -0.42370321591E+03  0.17965983068E+03  0.15592429184E+03  0.48591609846E+03  0.50400001928E-02 0. -1.
</event>
<event>
 5   0  0.5189877E-03  0.9666967E+03  0.7818609E-02  0.9345845E-01
        1   -1    0    0  501    0  0.00000000000E+00  0.00000000000E+00  0.39913295578E+03  0.39913295581E+03  0.50400001928E-02 0.  1.
       -1   -1    0    0    0  501  0.00000000000E+00  0.00000000000E+00 -0.58533280319E+03  0.58533280322E+03  0.50400001928E-02 0. -1.
    10030    2    1    2    0    0  0.00000000000E+00  0.00000000000E+00 -0.18619984742E+03  0.98446575903E+03  0.96669666779E+03 0.  0.
        3    1    3    3  502    0 -0.47366863208E+03 -0.76788321520E+02 -0.34005879672E+02  0.48105595245E+03  0.10100000352E+00 0. -1.
       -3    1    3    3    0  502  0.47366863208E+03  0.76788321520E+02 -0.15219396774E+03  0.50340980657E+03  0.10100000352E+00 0.  1.
</event>
<event>
 5   0  0.8875655E-03  0.1015174E+04  0.7818609E-02  0.9292057E-01
       -2   -1    0    0    0  501  0.00000000000E+00  0.00000000000E+00  0.83436402664E+03  0.83436402664E+03  0.25500000920E-02 0.  1.
        2   -1    0    0  501    0  0.00000000000E+00  0.00000000000E+00 -0.30879143310E+03  0.30879143311E+03  0.25500000920E-02 0. -1.
    10030    2    1    2    0    0  0.00000000000E+00  0.00000000000E+00  0.52557259354E+03  0.11431554598E+04  0.10151738049E+04 0.  0.
        4    1    3    3  502    0  0.85442734623E+02 -0.26733135519E+03  0.73904325904E+03  0.79053973082E+03  0.12699999809E+01 0.  1.
       -4    1    3    3    0  502 -0.85442734623E+02  0.26733135519E+03 -0.21347066550E+03  0.35261572894E+03  0.12699999809E+01 0. -1.
</event>
<event>
 5   0  0.5201968E-03  0.1016757E+04  0.7818609E-02  0.9290354E-01
       -1   -1    0    0    0  501  0.00000000000E+00  0.00000000000E+00  0.99488934765E+03  0.99488934766E+03  0.50400001928E-02 0.  1.
        1   -1    0    0  501    0  0.00000000000E+00  0.00000000000E+00 -0.25977648277E+03  0.25977648282E+03  0.50400001928E-02 0. -1.
    10030    2    1    2    0    0  0.00000000000E+00  0.00000000000E+00  0.73511286488E+03  0.12546658305E+04  0.10167573074E+04 0.  0.
        2    1    3    3  502    0 -0.19517652320E+03  0.35247336277E+03 -0.15014545761E+02  0.40318331223E+03  0.25500000920E-02 0. -1.
       -2    1    3    3    0  502  0.19517652320E+03 -0.35247336277E+03  0.75012741064E+03  0.85148251825E+03  0.25500000920E-02 0.  1.
</event>
<event>
 5   0  0.8968798E-03  0.9895909E+03  0.7818609E-02  0.9320036E-01
       -2   -1    0    0    0  501  0.00000000000E+00  0.00000000000E+00  0.10707269648E+04  0.10707269648E+04  0.25500000920E-02 0.  1.
        2   -1    0    0  501    0  0.00000000000E+00  0.00000000000E+00 -0.22865077922E+03  0.22865077924E+03  0.25500000920E-02 0. -1.
    10030    2    1    2    0    0  0.00000000000E+00  0.00000000000E+00  0.84207618554E+03  0.12993777440E+04  0.98959093536E+03 0.  0.
        2    1    3    3  502    0 -0.95367498149E+02 -0.15132288106E+03 -0.18471424369E+03  0.25712433931E+03  0.25500000920E-02 0. -1.
       -2    1    3    3    0  502  0.95367498149E+02  0.15132288106E+03  0.10267904292E+04  0.10422534047E+04  0.25500000920E-02 0.  1.
</event>
<event>
 5   0  0.5310275E-03  0.9865163E+03  0.7818609E-02  0.9323458E-01
       -1   -1    0    0    0  501  0.00000000000E+00  0.00000000000E+00  0.31927319571E+03  0.31927319575E+03  0.50400001928E-02 0.  1.
        1   -1    0    0  501    0  0.00000000000E+00  0.00000000000E+00 -0.76205464759E+03  0.76205464761E+03  0.50400001928E-02 0. -1.
    10030    2    1    2    0    0  0.00000000000E+00  0.00000000000E+00 -0.44278145188E+03  0.10813278434E+04  0.98651634081E+03 0.  0.
        1    1    3    3  502    0  0.25072094376E+03  0.30427704981E+03  0.10350502063E+03  0.40762581371E+03  0.50400001928E-02 0.  1.
       -1    1    3    3    0  502 -0.25072094376E+03 -0.30427704981E+03 -0.54628647251E+03  0.67370202965E+03  0.50400001928E-02 0. -1.
</event>
<event>
 5   0  0.8968798E-03  0.1015031E+04  0.7818609E-02  0.9292211E-01
        2   -1    0    0  501    0  0.00000000000E+00  0.00000000000E+00  0.33869821267E+03  0.33869821268E+03  0.25500000920E-02 0. -1.
       -2   -1    0    0    0  501  0.00000000000E+00  0.00000000000E+00 -0.76047622123E+03  0.76047622124E+03  0.25500000920E-02 0.  1.
    10030    2    1    2    0    0  0.00000000000E+00  0.00000000000E+00 -0.42177800856E+03  0.10991744339E+04  0.10150309097E+04 0.  0.
        2    1    3    3  502    0 -0.49129604420E+03 -0.55731541492E+02 -0.86973496489E+02  0.50203804324E+03  0.25500000920E-02 0. -1.
       -2    1    3    3    0  502  0.49129604420E+03  0.55731541492E+02 -0.33480451208E+03  0.59713639068E+03  0.25500000920E-02 0.  1.
</event>
<event>
 5   0  0.8907355E-03  0.1005705E+04  0.7818609E-02  0.9302310E-01
       -2   -1    0    0    0  501  0.00000000000E+00  0.00000000000E+00  0.71215096491E+03  0.71215096491E+03  0.25500000920E-02 0.  1.
        2   -1    0    0  501    0  0.00000000000E+00  0.00000000000E+00 -0.35506607462E+03  0.35506607463E+03  0.25500000920E-02 0. -1.
    10030    2    1    2    0    0  0.00000000000E+00  0.00000000000E+00  0.35708489029E+03  0.10672170395E+04  0.10057050217E+04 0.  0.
        5    1    3    3  502    0  0.92248400974E+02  0.45744718569E+03  0.37726874907E+03  0.60010123663E+03  0.46999998093E+01 0.  1.
       -5    1    3    3    0  502 -0.92248400974E+02 -0.45744718569E+03 -0.20183858783E+02  0.46711580291E+03  0.46999998093E+01 0. -1.
</event>
<event>
 5   0  0.8907355E-03  0.1000080E+04  0.7818609E-02  0.9308457E-01
        2   -1    0    0  501    0  0.00000000000E+00  0.00000000000E+00  0.15298325112E+04  0.15298325112E+04  0.25500000920E-02 0. -1.
       -2   -1    0    0    0  501  0.00000000000E+00  0.00000000000E+00 -0.16344283082E+03  0.16344283084E+03  0.25500000920E-02 0.  1.
    10030    2    1    2    0    0  0.00000000000E+00  0.00000000000E+00  0.13663896803E+04  0.16932753420E+04  0.10000803094E+04 0.  0.
        5    1    3    3  502    0 -0.80346766410E+02  0.21924014542E+03 -0.65425964273E+02  0.24253760747E+03  0.46999998093E+01 0.  1.
       -5    1    3    3    0  502  0.80346766410E+02 -0.21924014542E+03  0.14318156446E+04  0.14507377345E+04  0.46999998093E+01 0. -1.
</event>
<event>
 5   0  0.8907355E-03  0.9703724E+03  0.7818609E-02  0.9341650E-01
       -2   -1    0    0    0  501  0.00000000000E+00  0.00000000000E+00  0.69714675071E+03  0.69714675071E+03  0.25500000920E-02 0.  1.
        2   -1    0    0  501    0  0.00000000000E+00  0.00000000000E+00 -0.33767013374E+03  0.33767013375E+03  0.25500000920E-02 0. -1.
    10030    2    1    2    0    0  0.00000000000E+00  0.00000000000E+00  0.35947661697E+03  0.10348168845E+04  0.97037237502E+03 0.  0.
        5    1    3    3  502    0 -0.25455484804E+03  0.32494505347E+03  0.45161294349E+03  0.61185275938E+03  0.46999998093E+01 0.  1.
       -5    1    3    3    0  502  0.25455484804E+03 -0.32494505347E+03 -0.92136326520E+02  0.42296412507E+03  0.46999998093E+01 0. -1.
</event>
<event>
 5   0  0.5310275E-03  0.9989615E+03  0.7818609E-02  0.9309685E-01
       -1   -1    0    0    0  501  0.00000000000E+00  0.00000000000E+00  0.36659341292E+03  0.36659341296E+03  0.50400001928E-02 0.  1.
        1   -1    0    0  501    0  0.00000000000E+00  0.00000000000E+00 -0.68053867648E+03  0.68053867650E+03  0.50400001928E-02 0. -1.
    10030    2    1    2    0    0  0.00000000000E+00  0.00000000000E+00 -0.31394526356E+03  0.10471320895E+04  0.99896145284E+03 0.  0.
        1    1    3    3  502    0 -0.30455387185E+03 -0.38388626980E+03 -0.25838096811E+03  0.55396972273E+03  0.50400001928E-02 0.  1.
       -1    1    3    3    0  502  0.30455387185E+03  0.38388626980E+03 -0.55564295448E+02  0.49316236673E+03  0.50400001928E-02 0. -1.
</event>
<event>
 5   0  0.5310275E-03  0.9929878E+03  0.7818609E-02  0.9316269E-01
       -1   -1    0    0    0  501  0.00000000000E+00  0.00000000000E+00  0.24021882071E+03  0.24021882076E+03  0.50400001928E-02 0. -1.
        1   -1    0    0  501    0  0.00000000000E+00  0.00000000000E+00 -0.10261736217E+04  0.10261736217E+04  0.50400001928E-02 0.  1.
    10030    2    1    2    0    0  0.00000000000E+00  0.00000000000E+00 -0.78595480101E+03  0.12663924425E+04  0.99298784946E+03 0.  0.
        1    1    3    3  502    0 -0.94877757618E+02  0.21468687547E+02  0.22794656592E+03  0.24783528881E+03  0.50400001928E-02 0. -1.
       -1    1    3    3    0  502  0.94877757618E+02 -0.21468687547E+02 -0.10139013669E+04  0.10185571537E+04  0.50400001928E-02 0.  1.
</event>
<event>
 5   0  0.5189877E-03  0.1008365E+04  0.7818609E-02  0.9299418E-01
       -1   -1    0    0    0  501  0.00000000000E+00  0.00000000000E+00  0.27922999256E+03  0.27922999261E+03  0.50400001928E-02 0.  1.
        1   -1    0    0  501    0  0.00000000000E+00  0.00000000000E+00 -0.91036006238E+03  0.91036006239E+03  0.50400001928E-02 0. -1.
    10030    2    1    2    0    0  0.00000000000E+00  0.00000000000E+00 -0.63113006982E+03  0.11895900550E+04  0.10083646830E+04 0.  0.
        3    1    3    3  502    0 -0.25137896344E+03  0.40353760122E+03 -0.11757602387E+03  0.48975311173E+03  0.10100000352E+00 0. -1.
       -3    1    3    3    0  502  0.25137896344E+03 -0.40353760122E+03 -0.51355404594E+03  0.69983694327E+03  0.10100000352E+00 0.  1.
</event>
<event>
 5   0  0.9040674E-03  0.9910196E+03  0.7818609E-02  0.9318450E-01
       -2   -1    0    0    0  501  0.00000000000E+00  0.00000000000E+00  0.10839342380E+03  0.10839342383E+03  0.25500000920E-02 0.  1.
        2   -1    0    0  501    0  0.00000000000E+00  0.00000000000E+00 -0.22651740139E+04  0.22651740139E+04  0.25500000920E-02 0. -1.
    10030    2    1    2    0    0  0.00000000000E+00  0.00000000000E+00 -0.21567805901E+04  0.23735674377E+04  0.99101961011E+03 0.  0.
        1    1    3    3  502    0  0.81830453554E+02 -0.31203740637E+03 -0.19792268046E+04  0.20053434395E+04  0.50400001928E-02 0. -1.
       -1    1    3    3    0  502 -0.81830453554E+02  0.31203740637E+03 -0.17755378542E+03  0.36822399819E+03  0.50400001928E-02 0.  1.
</event>
<event>
 5   0  0.5072205E-03  0.9960951E+03  0.7818609E-02  0.9312838E-01
       -1   -1    0    0    0  501  0.00000000000E+00  0.00000000000E+00  0.41299397271E+03  0.41299397275E+03  0.50400001928E-02 0.  1.
        1   -1    0    0  501    0  0.00000000000E+00  0.00000000000E+00 -0.60061735990E+03  0.60061735992E+03  0.50400001928E-02 0. -1.
    10030    2    1    2    0    0  0.00000000000E+00  0.00000000000E+00 -0.18762338718E+03  0.10136113327E+04  0.99609507492E+03 0.  0.
        5    1    3    3  502    0 -0.38394735520E+03  0.18135882691E+03  0.17100031855E+03  0.45778793628E+03  0.46999998093E+01 0. -1.
       -5    1    3    3    0  502  0.38394735520E+03 -0.18135882691E+03 -0.35862370573E+03  0.55582339639E+03  0.46999998093E+01 0.  1.
</event>
<event>
 5   0  0.9040674E-03  0.8363229E+03  0.7818609E-02  0.9508880E-01
        2   -1    0    0  501    0  0.00000000000E+00  0.00000000000E+00  0.72344710972E+03  0.72344710973E+03  0.25500000920E-02 0.  1.
       -2   -1    0    0    0  501  0.00000000000E+00  0.00000000000E+00 -0.24170252419E+03  0.24170252421E+03  0.25500000920E-02 0. -1.
    10030    2    1    2    0    0  0.00000000000E+00  0.00000000000E+00  0.48174458553E+03  0.96514963393E+03  0.83632288633E+03 0.  0.
        1    1    3    3  502    0  0.13540424417E+03 -0.21134107049E+03  0.62684568590E+03  0.67522949533E+03  0.50400001928E-02 0.  1.
       -1    1    3    3    0  502 -0.13540424417E+03  0.21134107049E+03 -0.14510110037E+03  0.28992013860E+03  0.50400001928E-02 0. -1.
</event>
<event>
 5   0  0.9243773E-03  0.1006742E+04  0.7818609E-02  0.9301181E-01
       -2   -1    0    0    0  501  0.00000000000E+00  0.00000000000E+00  0.45735956759E+03  0.45735956760E+03  0.25500000920E-02 0.  1.
        2   -1    0    0  501    0  0.00000000000E+00  0.00000000000E+00 -0.55401149531E+03  0.55401149531E+03  0.25500000920E-02 0. -1.
    10030    2    1    2    0    0  0.00000000000E+00  0.00000000000E+00 -0.96651927718E+02  0.10113710629E+04  0.10067421873E+04 0.  0.
        3    1    3    3  502    0 -0.38315054885E+03 -0.22105444808E+03 -0.28966591178E+03  0.52874924373E+03  0.10100000352E+00 0. -1.
       -3    1    3    3    0  502  0.38315054885E+03  0.22105444808E+03  0.19301398406E+03  0.48262181918E+03  0.10100000352E+00 0.  1.
</event>
<event>
 5   0  0.8968798E-03  0.9966575E+03  0.7818609E-02  0.9312218E-01
        2   -1    0    0  501    0  0.00000000000E+00  0.00000000000E+00  0.64383874372E+03  0.64383874373E+03  0.25500000920E-02 0. -1.
       -2   -1    0    0    0  501  0.00000000000E+00  0.00000000000E+00 -0.38570458964E+03  0.38570458965E+03  0.25500000920E-02 0.  1.
    10030    2    1    2    0    0  0.00000000000E+00  0.00000000000E+00  0.25813415408E+03  0.10295433334E+04  0.99665753085E+03 0.  0.
        2    1    3    3  502    0  0.48998239598E+03  0.37144829887E+02  0.43452502561E+02  0.49330579435E+03  0.25500000920E-02 0.  1.
       -2    1    3    3    0  502 -0.48998239598E+03 -0.37144829887E+02  0.21468165152E+03  0.53623753903E+03  0.25500000920E-02 0. -1.
</event>
<event>
 5   0  0.5201968E-03  0.8192777E+03  0.7818609E-02  0.9532525E-01
       -1   -1    0    0    0  501  0.00000000000E+00  0.00000000000E+00  0.33439793132E+03  0.33439793136E+03  0.50400001928E-02 0. -1.
        1   -1    0    0  501    0  0.00000000000E+00  0.00000000000E+00 -0.50180932111E+03  0.50180932114E+03  0.50400001928E-02 0.  1.
    10030    2    1    2    0    0  0.00000000000E+00  0.00000000000E+00 -0.16741138979E+03  0.83620725249E+03  0.81927772806E+03 0.  0.
        2    1    3    3  502    0 -0.28875416531E+03  0.28682293705E+03 -0.13111587893E+03  0.42759529805E+03  0.25500000920E-02 0.  1.
       -2    1    3    3    0  502  0.28875416531E+03 -0.28682293705E+03 -0.36295510861E+02  0.40861195444E+03  0.25500000920E-02 0. -1.
</event>
<event>
 5   0  0.8907355E-03  0.1002939E+04  0.7818609E-02  0.9305328E-01
        2   -1    0    0  501    0  0.00000000000E+00  0.00000000000E+00  0.11397319211E+04  0.11397319211E+04  0.25500000920E-02 0.  1.
       -2   -1    0    0    0  501  0.00000000000E+00  0.00000000000E+00 -0.22064093972E+03  0.22064093973E+03  0.25500000920E-02 0. -1.
    10030    2    1    2    0    0  0.00000000000E+00  0.00000000000E+00  0.91909098135E+03  0.13603728608E+04  0.10029387261E+04 0.  0.
        5    1    3    3  502    0 -0.38434333507E+03 -0.26240334291E+03  0.20624549760E+03  0.50905265824E+03  0.46999998093E+01 0. -1.
       -5    1    3    3    0  502  0.38434333507E+03  0.26240334291E+03  0.71284548376E+03  0.85132020256E+03  0.46999998093E+01 0.  1.
</event>
<event>
 5   0  0.5072205E-03  0.9928912E+03  0.7818609E-02  0.9316376E-01
        1   -1    0    0  501    0  0.00000000000E+00  0.00000000000E+00  0.32580816742E+03  0.32580816746E+03  0.50400001928E-02 0.  1.
       -1   -1    0    0    0  501  0.00000000000E+00  0.00000000000E+00 -0.75645191530E+03  0.75645191532E+03  0.50400001928E-02 0. -1.
    10030    2    1    2    0    0  0.00000000000E+00  0.00000000000E+00 -0.43064374788E+03  0.10822600828E+04  0.99289115677E+03 0.  0.
        5    1    3    3  502    0  0.29562780155E+03  0.25914598408E+03 -0.54572884231E+03  0.67260277835E+03  0.46999998093E+01 0. -1.
       -5    1    3    3    0  502 -0.29562780155E+03 -0.25914598408E+03  0.11508509443E+03  0.40965730443E+03  0.46999998093E+01 0.  1.
</event>
<event>
 5   0  0.8907355E-03  0.9769969E+03  0.7818609E-02  0.9334140E-01
        2   -1    0    0  501    0  0.00000000000E+00  0.00000000000E+00  0.39796799036E+03  0.39796799037E+03  0.25500000920E-02 0. -1.
       -2   -1    0    0    0  501  0.00000000000E+00  0.00000000000E+00 -0.59962292179E+03  0.59962292180E+03  0.25500000920E-02 0.  1.
    10030    2    1    2    0    0  0.00000000000E+00  0.00000000000E+00 -0.20165493143E+03  0.99759091216E+03  0.97699688672E+03 0.  0.
        5    1    3    3  502    0 -0.49767994844E+02 -0.14415631474E+03 -0.57466830773E+03  0.59457854847E+03  0.46999998093E+01 0.  1.
       -5    1    3    3    0  502  0.49767994844E+02  0.14415631474E+03  0.37301337630E+03  0.40301236369E+03  0.46999998093E+01 0. -1.
</event>
<event>
 5   0  0.9040674E-03  0.9990470E+03  0.7818609E-02  0.9309591E-01
       -2   -1    0    0    0  501  0.00000000000E+00  0.00000000000E+00  0.55817364033E+03  0.55817364034E+03  0.25500000920E-02 0.  1.
        2   -1    0    0  501    0  0.00000000000E+00  0.00000000000E+00 -0.44703606508E+03  0.44703606509E+03  0.25500000920E-02 0. -1.
    10030    2    1    2    0    0  0.00000000000E+00  0.00000000000E+00  0.11113757525E+03  0.10052097054E+04  0.99904704156E+03 0.  0.
        1    1    3    3  502    0 -0.19008906810E+03 -0.13584936079E+03  0.49980655082E+03  0.55172048259E+03  0.50400001928E-02 0.  1.
       -1    1    3    3    0  502  0.19008906810E+03  0.13584936079E+03 -0.38866897557E+03  0.45348922284E+03  0.50400001928E-02 0. -1.
</event>
<event>
 5   0  0.8875655E-03  0.9831864E+03  0.7818609E-02  0.9327180E-01
       -2   -1    0    0    0  501  0.00000000000E+00  0.00000000000E+00  0.33165512841E+03  0.33165512842E+03  0.25500000920E-02 0. -1.
        2   -1    0    0  501    0  0.00000000000E+00  0.00000000000E+00 -0.72866010167E+03  0.72866010167E+03  0.25500000920E-02 0.  1.
    10030    2    1    2    0    0  0.00000000000E+00  0.00000000000E+00 -0.39700497326E+03  0.10603152301E+04  0.98318637011E+03 0.  0.
        4    1    3    3  502    0 -0.18130823771E+03 -0.45619260422E+03 -0.22658104180E+03  0.54067083388E+03  0.12699999809E+01 0. -1.
       -4    1    3    3    0  502  0.18130823771E+03  0.45619260422E+03 -0.17042393146E+03  0.51964439621E+03  0.12699999809E+01 0.  1.
</event>
<event>
 5   0  0.5201968E-03  0.1039766E+04  0.7818609E-02  0.9265975E-01
        1   -1    0    0  501    0  0.00000000000E+00  0.00000000000E+00  0.18788849186E+03  0.18788849193E+03  0.50400001928E-02 0. -1.
       -1   -1    0    0    0  501  0.00000000000E+00  0.00000000000E+00 -0.14385030301E+04  0.14385030301E+04  0.50400001928E-02 0.  1.
    10030    2    1    2    0    0  0.00000000000E+00  0.00000000000E+00 -0.12506145382E+04  0.16263915220E+04  0.10397656754E+04 0.  0.
        2    1    3    3  502    0 -0.36568210812E+03  0.27367527158E+03 -0.10137074595E+04  0.11118562731E+04  0.25500000920E-02 0.  1.
       -2    1    3    3    0  502  0.36568210812E+03 -0.27367527158E+03 -0.23690707872E+03  0.51453524896E+03  0.25500000920E-02 0. -1.
</event>
<event>
 5   0  0.5201968E-03  0.1017386E+04  0.7818609E-02  0.9289679E-01
        1   -1    0    0  501    0  0.00000000000E+00  0.00000000000E+00  0.99283565820E+03  0.99283565821E+03  0.50400001928E-02 0. -1.
       -1   -1    0    0    0  501  0.00000000000E+00  0.00000000000E+00 -0.26063575365E+03  0.26063575370E+03  0.50400001928E-02 0.  1.
    10030    2    1    2    0    0  0.00000000000E+00  0.00000000000E+00  0.73219990455E+03  0.12534714119E+04  0.10173858070E+04 0.  0.
        2    1    3    3  502    0  0.15750873530E+03  0.31086590003E+03 -0.90460824228E+02  0.36004134516E+03  0.25500000920E-02 0.  1.
       -2    1    3    3    0  502 -0.15750873530E+03 -0.31086590003E+03  0.82266072878E+03  0.89343006675E+03  0.25500000920E-02 0. -1.
</event>
<event>
 5   0  0.8907355E-03  0.1003969E+04  0.7818609E-02  0.9304202E-01
        2   -1    0    0  501    0  0.00000000000E+00  0.00000000000E+00  0.14021720232E+04  0.14021720232E+04  0.25500000920E-02 0. -1.
       -2   -1    0    0    0  501  0.00000000000E+00  0.00000000000E+00 -0.17971305356E+03  0.17971305357E+03  0.25500000920E-02 0.  1.
    10030    2    1    2    0    0  0.00000000000E+00  0.00000000000E+00  0.12224589696E+04  0.15818850768E+04  0.10039693539E+04 0.  0.
        5    1    3    3  502    0  0.33693946917E+03  0.25716718873E+03  0.18755364021E+03  0.46353168910E+03  0.46999998093E+01 0. -1.
       -5    1    3    3    0  502 -0.33693946917E+03 -0.25716718873E+03  0.10349053294E+04  0.11183533877E+04  0.46999998093E+01 0.  1.
</event>
<event>
 5   0  0.9243773E-03  0.9916527E+03  0.7818609E-02  0.9317748E-01
        2   -1    0    0  501    0  0.00000000000E+00  0.00000000000E+00  0.13341350012E+04  0.13341350012E+04  0.25500000920E-02 0.  1.
       -2   -1    0    0    0  501  0.00000000000E+00  0.00000000000E+00 -0.18427204472E+03  0.18427204473E+03  0.25500000920E-02 0. -1.
    10030    2    1    2    0    0  0.00000000000E+00  0.00000000000E+00  0.11498629565E+04  0.15184070459E+04  0.99165273077E+03 0.  0.
        3    1    3    3  502    0 -0.24072529299E+03  0.43295370755E+03  0.60727526540E+03  0.78369690425E+03  0.10100000352E+00 0.  1.
       -3    1    3    3    0  502  0.24072529299E+03 -0.43295370755E+03  0.54258769106E+03  0.73471014166E+03  0.10100000352E+00 0. -1.
</event>
<event>
 5   0  0.5201968E-03  0.1004360E+04  0.7818609E-02  0.9303776E-01
        1   -1    0    0  501    0  0.00000000000E+00  0.00000000000E+00  0.11063630398E+04  0.11063630398E+04  0.50400001928E-02 0. -1.
       -1   -1    0    0    0  501  0.00000000000E+00  0.00000000000E+00 -0.22794013916E+03  0.22794013922E+03  0.50400001928E-02 0.  1.
    10030    2    1    2    0    0  0.00000000000E+00  0.00000000000E+00  0.87842290067E+03  0.13343031791E+04  0.10043595876E+04 0.  0.
        2    1    3    3  502    0 -0.10877400635E+03 -0.19289862848E+03 -0.15956690582E+03  0.27295285814E+03  0.25500000920E-02 0.  1.
       -2    1    3    3    0  502  0.10877400635E+03  0.19289862848E+03  0.10379898065E+04  0.10613503209E+04  0.25500000920E-02 0. -1.
</event>
<event>
 5   0  0.8875655E-03  0.1033065E+04  0.7818609E-02  0.9273005E-01
       -2   -1    0    0    0  501  0.00000000000E+00  0.00000000000E+00  0.28622177160E+03  0.28622177161E+03  0.25500000920E-02 0. -1.
        2   -1    0    0  501    0  0.00000000000E+00  0.00000000000E+00 -0.93216553348E+03  0.93216553348E+03  0.25500000920E-02 0.  1.
    10030    2    1    2    0    0  0.00000000000E+00  0.00000000000E+00 -0.64594376187E+03  0.12183873051E+04  0.10330654779E+04 0.  0.
        4    1    3    3  502    0  0.23764761149E+03 -0.13128850571E+03 -0.84122148669E+03  0.88395037279E+03  0.12699999809E+01 0.  1.
       -4    1    3    3    0  502 -0.23764761149E+03  0.13128850571E+03  0.19527772482E+03  0.33443693230E+03  0.12699999809E+01 0. -1.
</event>
<event>
 5   0  0.5201968E-03  0.9858415E+03  0.7818609E-02  0.9324211E-01
        1   -1    0    0  501    0  0.00000000000E+00  0.00000000000E+00  0.33966246759E+03  0.33966246762E+03  0.50400001928E-02 0. -1.
       -1   -1    0    0    0  501  0.00000000000E+00  0.00000000000E+00 -0.71533027848E+03  0.71533027849E+03  0.50400001928E-02 0.  1.
    10030    2    1    2    0    0  0.00000000000E+00  0.00000000000E+00 -0.37566781089E+03  0.10549927461E+04  0.98584146303E+03 0.  0.
        2    1    3    3  502    0  0.67905573928E+02  0.80207146542E+02  0.32753424427E+03  0.34398115429E+03  0.25500000920E-02 0. -1.
       -2    1    3    3    0  502 -0.67905573928E+02 -0.80207146542E+02 -0.70320205516E+03  0.71101159183E+03  0.25500000920E-02 0.  1.
</event>
<event>
 5   0  0.3513625E-03  0.1030832E+04  0.7818609E-02  0.9275361E-01
        3   -1    0    0  501    0  0.00000000000E+00  0.00000000000E+00  0.39672076559E+03  0.39672077844E+03  0.10100000352E+00 0. -1.
       -3   -1    0    0    0  501  0.00000000000E+00  0.00000000000E+00 -0.66962336658E+03  0.66962337419E+03  0.10100000352E+00 0.  1.
    10030    2    1    2    0    0  0.00000000000E+00  0.00000000000E+00 -0.27290260099E+03  0.10663441526E+04  0.10308317138E+04 0.  0.
        5    1    3    3  502    0 -0.33795948208E+03 -0.37946731269E+03 -0.47348178760E+02  0.51036848742E+03  0.46999998093E+01 0.  1.
       -5    1    3    3    0  502  0.33795948208E+03  0.37946731269E+03 -0.22555442223E+03  0.55597566521E+03  0.46999998093E+01 0. -1.
</event>
<event>
 5   0  0.5189877E-03  0.9915445E+03  0.7818609E-02  0.9317868E-01
        1   -1    0    0  501    0  0.00000000000E+00  0.00000000000E+00  0.10952331048E+04  0.10952331048E+04  0.50400001928E-02 0. -1.
       -1   -1    0    0    0  501  0.00000000000E+00  0.00000000000E+00 -0.22441811245E+03  0.22441811251E+03  0.50400001928E-02 0.  1.
    10030    2    1    2    0    0  0.00000000000E+00  0.00000000000E+00  0.87081499232E+03  0.13196512173E+04  0.99154454487E+03 0.  0.
        3    1    3    3  502    0 -0.12899552465E+03  0.35343734720E+03  0.57245069680E+01  0.37628524281E+03  0.10100000352E+00 0.  1.
       -3    1    3    3    0  502  0.12899552465E+03 -0.35343734720E+03  0.86509048535E+03  0.94336597449E+03  0.10100000352E+00 0. -1.
</event>
<event>
 5   0  0.9040674E-03  0.1099701E+04  0.7818609E-02  0.9205484E-01
        2   -1    0    0  501    0  0.00000000000E+00  0.00000000000E+00  0.55655995403E+03  0.55655995404E+03  0.25500000920E-02 0. -1.
       -2   -1    0    0    0  501  0.00000000000E+00  0.00000000000E+00 -0.54322172148E+03  0.54322172149E+03  0.25500000920E-02 0.  1.
    10030    2    1    2    0    0  0.00000000000E+00  0.00000000000E+00  0.13338232549E+02  0.10997816755E+04  0.10997007890E+04 0.  0.
        1    1    3    3  502    0  0.52891232282E+02 -0.47376149195E+03  0.28071120966E+03  0.55321444030E+03  0.50400001928E-02 0. -1.
       -1    1    3    3    0  502 -0.52891232282E+02  0.47376149195E+03 -0.26737297711E+03  0.54656723522E+03  0.50400001928E-02 0.  1.
</event>
<event>
 5   0  0.5201968E-03  0.9776790E+03  0.7818609E-02  0.9333371E-01
       -1   -1    0    0    0  501  0.00000000000E+00  0.00000000000E+00  0.16335118587E+03  0.16335118595E+03  0.50400001928E-02 0. -1.
        1   -1    0    0  501    0  0.00000000000E+00  0.00000000000E+00 -0.14628854955E+04  0.14628854955E+04  0.50400001928E-02 0.  1.
    10030    2    1    2    0    0  0.00000000000E+00  0.00000000000E+00 -0.12995343096E+04  0.16262366815E+04  0.97767904868E+03 0.  0.
        2    1    3    3  502    0 -0.38161889970E+03  0.16606173256E+02 -0.11571760464E+04  0.12185914623E+04  0.25500000920E-02 0.  1.
       -2    1    3    3    0  502  0.38161889970E+03 -0.16606173256E+02 -0.14235826324E+03  0.40764521918E+03  0.25500000920E-02 0. -1.
</event>
<event>
 5   0  0.9040674E-03  0.1000722E+04  0.7818609E-02  0.9307753E-01
       -2   -1    0    0    0  501  0.00000000000E+00  0.00000000000E+00  0.28959642394E+03  0.28959642395E+03  0.25500000920E-02 0. -1.
        2   -1    0    0  501    0  0.00000000000E+00  0.00000000000E+00 -0.86451713496E+03  0.86451713496E+03  0.25500000920E-02 0.  1.
    10030    2    1    2    0    0  0.00000000000E+00  0.00000000000E+00 -0.57492071102E+03  0.11541135589E+04  0.10007218809E+04 0.  0.
        1    1    3    3  502    0  0.16438305041E+03 -0.44586220142E+03 -0.10677327040E+03  0.48704765805E+03  0.50400001928E-02 0. -1.
       -1    1    3    3    0  502 -0.16438305041E+03  0.44586220142E+03 -0.46814744061E+03  0.66706590086E+03  0.50400001928E-02 0.  1.
</event>
<event>
 5   0  0.9243773E-03  0.9444572E+03  0.7818609E-02  0.9371653E-01
        2   -1    0    0  501    0  0.00000000000E+00  0.00000000000E+00  0.55773506117E+03  0.55773506118E+03  0.25500000920E-02 0.  1.
       -2   -1    0    0    0  501  0.00000000000E+00  0.00000000000E+00 -0.39983112504E+03  0.39983112504E+03  0.25500000920E-02 0. -1.
    10030    2    1    2    0    0  0.00000000000E+00  0.00000000000E+00  0.15790393614E+03  0.95756618622E+03  0.94445717105E+03 0.  0.
        3    1    3    3  502    0  0.17792254866E+02  0.20118415791E+03  0.51173526271E+03  0.55014963331E+03  0.10100000352E+00 0.  1.
       -3    1    3    3    0  502 -0.17792254866E+02 -0.20118415791E+03 -0.35383132657E+03  0.40741655292E+03  0.10100000352E+00 0. -1.
</event>
<event>
 5   0  0.5310275E-03  0.9953444E+03  0.7818609E-02  0.9313666E-01
       -1   -1    0    0    0  501  0.00000000000E+00  0.00000000000E+00  0.97179654590E+03  0.97179654592E+03  0.50400001928E-02 0.  1.
        1   -1    0    0  501    0  0.00000000000E+00  0.00000000000E+00 -0.25486569575E+03  0.25486569580E+03  0.50400001928E-02 0. -1.
    10030    2    1    2    0    0  0.00000000000E+00  0.00000000000E+00  0.71693085015E+03  0.12266622417E+04  0.99534436823E+03 0.  0.
        1    1    3    3  502    0 -0.33627168870E+03  0.35421833700E+03  0.47621169428E+03  0.68214870570E+03  0.50400001928E-02 0.  1.
       -1    1    3    3    0  502  0.33627168870E+03 -0.35421833700E+03  0.24071915587E+03  0.54451353603E+03  0.50400001928E-02 0. -1.
</event>
<event>
 5   0  0.5310275E-03  0.1080876E+04  0.7818609E-02  0.9224034E-01
       -1   -1    0    0    0  501  0.00000000000E+00  0.00000000000E+00  0.48293895989E+03  0.48293895992E+03  0.50400001928E-02 0. -1.
        1   -1    0    0  501    0  0.00000000000E+00  0.00000000000E+00 -0.60478307000E+03  0.60478307002E+03  0.50400001928E-02 0.  1.
    10030    2    1    2    0    0  0.00000000000E+00  0.00000000000E+00 -0.12184411011E+03  0.10877220299E+04  0.10808761387E+04 0.  0.
        1    1    3    3  502    0  0.40452099098E+03  0.35614820916E+03 -0.10110650583E+03  0.54836238435E+03  0.50400001928E-02 0. -1.
       -1    1    3    3    0  502 -0.40452099098E+03 -0.35614820916E+03 -0.20737604281E+02  0.53935964558E+03  0.50400001928E-02 0.  1.
</event>
<event>
 5   0  0.9040674E-03  0.1001786E+04  0.7818609E-02  0.9306588E-01
        2   -1    0    0  501    0  0.00000000000E+00  0.00000000000E+00  0.53065403175E+03  0.53065403175E+03  0.25500000920E-02 0.  1.
       -2   -1    0    0    0  501  0.00000000000E+00  0.00000000000E+00 -0.47280120757E+03  0.47280120757E+03  0.25500000920E-02 0. -1.
    10030    2    1    2    0    0  0.00000000000E+00  0.00000000000E+00  0.57852824180E+02  0.10034552393E+04  0.10017861389E+04 0.  0.
        1    1    3    3  502    0 -0.36638150616E+03  0.17434832080E+02  0.37060247312E+03  0.52142648047E+03  0.50400001928E-02 0.  1.
       -1    1    3    3    0  502  0.36638150616E+03 -0.17434832080E+02 -0.31274964894E+03  0.48202875886E+03  0.50400001928E-02 0. -1.
</event>
<event>
 5   0  0.5201968E-03  0.1008035E+04  0.7818609E-02  0.9299776E-01
       -1   -1    0    0    0  501  0.00000000000E+00  0.00000000000E+00  0.27976983549E+03  0.27976983553E+03  0.50400001928E-02 0. -1.
        1   -1    0    0  501    0  0.00000000000E+00  0.00000000000E+00 -0.90800887264E+03  0.90800887266E+03  0.50400001928E-02 0.  1.
    10030    2    1    2    0    0  0.00000000000E+00  0.00000000000E+00 -0.62823903716E+03  0.11877787082E+04  0.10080347076E+04 0.  0.
        2    1    3    3  502    0 -0.12285314256E+03  0.31879292468E+03 -0.75074972188E+03  0.82483147877E+03  0.25500000920E-02 0.  1.
       -2    1    3    3    0  502  0.12285314256E+03 -0.31879292468E+03  0.12251068473E+03  0.36294722942E+03  0.25500000920E-02 0. -1.
</event>
<event>
 5   0  0.5310275E-03  0.8740966E+03  0.7818609E-02  0.9458554E-01
        1   -1    0    0  501    0  0.00000000000E+00  0.00000000000E+00  0.52317545626E+03  0.52317545628E+03  0.50400001928E-02 0. -1.
       -1   -1    0    0    0  501  0.00000000000E+00  0.00000000000E+00 -0.36509976120E+03  0.36509976124E+03  0.50400001928E-02 0.  1.
    10030    2    1    2    0    0  0.00000000000E+00  0.00000000000E+00  0.15807569505E+03  0.88827521752E+03  0.87409664036E+03 0.  0.
        1    1    3    3  502    0 -0.24497922772E+03  0.32758902670E+03  0.23542311302E+03  0.47196762028E+03  0.50400001928E-02 0. -1.
       -1    1    3    3    0  502  0.24497922772E+03 -0.32758902670E+03 -0.77347417962E+02  0.41630759724E+03  0.50400001928E-02 0.  1.
</event>
<event>
 5   0  0.9243773E-03  0.9961357E+03  0.7818609E-02  0.9312793E-01
       -2   -1    0    0    0  501  0.00000000000E+00  0.00000000000E+00  0.10062093395E+04  0.10062093395E+04  0.25500000920E-02 0. -1.
        2   -1    0    0  501    0  0.00000000000E+00  0.00000000000E+00 -0.24654073328E+03  0.24654073329E+03  0.25500000920E-02 0.  1.
    10030    2    1    2    0    0  0.00000000000E+00  0.00000000000E+00  0.75966860618E+03  0.12527500728E+04  0.99613571042E+03 0.  0.
        3    1    3    3  502    0  0.41936720329E+03  0.16665145298E+03  0.64491871048E+03  0.78712242459E+03  0.10100000352E+00 0. -1.
       -3    1    3    3    0  502 -0.41936720329E+03 -0.16665145298E+03  0.11474989570E+03  0.46562764817E+03  0.10100000352E+00 0.  1.
</event>
<event>
 5   0  0.5349685E-03  0.1016013E+04  0.7818609E-02  0.9291154E-01
        1   -1    0    0  501    0  0.00000000000E+00  0.00000000000E+00  0.11392416348E+04  0.11392416349E+04  0.50400001928E-02 0. -1.
       -1   -1    0    0    0  501  0.00000000000E+00  0.00000000000E+00 -0.22652845607E+03  0.22652845612E+03  0.50400001928E-02 0.  1.
    10030    2    1    2    0    0  0.00000000000E+00  0.00000000000E+00  0.91271317878E+03  0.13657700910E+04  0.10160130879E+04 0.  0.
        4    1    3    3  502    0  0.11590717390E+03  0.33607781085E+03  0.94416416459E+03  0.10088757855E+04  0.12699999809E+01 0. -1.
       -4    1    3    3    0  502 -0.11590717390E+03 -0.33607781085E+03 -0.31450985808E+02  0.35689430552E+03  0.12699999809E+01 0.  1.
</event>
<event>
 5   0  0.5349685E-03  0.1001183E+04  0.7818609E-02  0.9307249E-01
       -1   -1    0    0    0  501  0.00000000000E+00  0.00000000000E+00  0.25842009588E+03  0.25842009593E+03  0.50400001928E-02 0.  1.
        1   -1    0    0  501    0  0.00000000000E+00  0.00000000000E+00 -0.96970668584E+03  0.96970668585E+03  0.50400001928E-02 0. -1.
    10030    2    1    2    0    0  0.00000000000E+00  0.00000000000E+00 -0.71128658996E+03  0.12281267818E+04  0.10011826902E+04 0.  0.
        4    1    3    3  502    0  0.49322007536E+03 -0.51861285389E+02 -0.43915143153E+03  0.66242828168E+03  0.12699999809E+01 0. -1.
       -4    1    3    3    0  502 -0.49322007536E+03  0.51861285389E+02 -0.27213515843E+03  0.56569850010E+03  0.12699999809E+01 0.  1.
</event>
<event>
 5   0  0.5349685E-03  0.9817114E+03  0.7818609E-02  0.9328834E-01
       -1   -1    0    0    0  501  0.00000000000E+00  0.00000000000E+00  0.88618431038E+02  0.88618431182E+02  0.50400001928E-02 0. -1.
        1   -1    0    0  501    0  0.00000000000E+00  0.00000000000E+00 -0.27188395770E+04  0.27188395770E+04  0.50400001928E-02 0.  1.
    10030    2    1    2    0    0  0.00000000000E+00  0.00000000000E+00 -0.26302211460E+04  0.28074580082E+04  0.98171135833E+03 0.  0.
        4    1    3    3  502    0  0.63483718046E+02  0.15797415989E+03  0.14713017468E+01  0.17026389893E+03  0.12699999809E+01 0. -1.
       -4    1    3    3    0  502 -0.63483718046E+02 -0.15797415989E+03 -0.26316924477E+04  0.26371941093E+04  0.12699999809E+01 0.  1.
</event>
<event>
 5   0  0.8968798E-03  0.1010381E+04  0.7818609E-02  0.9297232E-01
       -2   -1    0    0    0  501  0.00000000000E+00  0.00000000000E+00  0.41187444895E+03  0.41187444895E+03  0.25500000920E-02 0.  1.
        2   -1    0    0  501    0  0.00000000000E+00  0.00000000000E+00 -0.61964823240E+03  0.61964823241E+03  0.25500000920E-02 0. -1.
    10030    2    1    2    0    0  0.00000000000E+00  0.00000000000E+00 -0.20777378345E+03  0.10315226814E+04  0.10103806694E+04 0.  0.
        2    1    3    3  502    0 -0.10585343864E+03  0.17002095559E+03 -0.57738604436E+03  0.61113559874E+03  0.25500000920E-02 0. -1.
       -2    1    3    3    0  502  0.10585343864E+03 -0.17002095559E+03  0.36961226091E+03  0.42038708262E+03  0.25500000920E-02 0.  1.
</event>
<event>
 5   0  0.8875655E-03  0.9930065E+03  0.7818609E-02  0.9316249E-01
       -2   -1    0    0    0  501  0.00000000000E+00  0.00000000000E+00  0.32070524906E+03  0.32070524907E+03  0.25500000920E-02 0. -1.
        2   -1    0    0  501    0  0.00000000000E+00  0.00000000000E+00 -0.76866675053E+03  0.76866675054E+03  0.25500000920E-02 0.  1.
    10030    2    1    2    0    0  0.00000000000E+00  0.00000000000E+00 -0.44796150147E+03  0.10893719996E+04  0.99300646862E+03 0.  0.
        4    1    3    3  502    0 -0.15744657395E+03  0.14674187398E+03  0.26686685139E+03  0.34284417817E+03  0.12699999809E+01 0. -1.
       -4    1    3    3    0  502  0.15744657395E+03 -0.14674187398E+03 -0.71482835286E+03  0.74652782144E+03  0.12699999809E+01 0.  1.
</event>
<event>
 5   0  0.9243773E-03  0.9951878E+03  0.7818609E-02  0.9313838E-01
       -2   -1    0    0    0  501  0.00000000000E+00  0.00000000000E+00  0.31691469444E+03  0.31691469445E+03  0.25500000920E-02 0. -1.
        2   -1    0    0  501    0  0.00000000000E+00  0.00000000000E+00 -0.78128186471E+03  0.78128186471E+03  0.25500000920E-02 0.  1.
    10030    2    1    2    0    0  0.00000000000E+00  0.00000000000E+00 -0.46436717027E+03  0.10981965592E+04  0.99518782836E+03 0.  0.
        3    1    3    3  502    0 -0.41758448693E+03  0.16730670872E+03 -0.46687371251E+03  0.64833587911E+03  0.10100000352E+00 0.  1.
       -3    1    3    3    0  502  0.41758448693E+03 -0.16730670872E+03  0.25065422345E+01  0.44986068005E+03  0.10100000352E+00 0. -1.
</event>
<event>
 5   0  0.5189877E-03  0.1000315E+04  0.7818609E-02  0.9308200E-01
        1   -1    0    0  501    0  0.00000000000E+00  0.00000000000E+00  0.63364930486E+03  0.63364930488E+03  0.50400001928E-02 0. -1.
       -1   -1    0    0    0  501  0.00000000000E+00  0.00000000000E+00 -0.39478833400E+03  0.39478833404E+03  0.50400001928E-02 0.  1.
    10030    2    1    2    0    0  0.00000000000E+00  0.00000000000E+00  0.23886097086E+03  0.10284376389E+04  0.10003146574E+04 0.  0.
        3    1    3    3  502    0  0.46727967839E+03 -0.45534224327E+02  0.29671290091E+03  0.55539375149E+03  0.10100000352E+00 0.  1.
       -3    1    3    3    0  502 -0.46727967839E+03  0.45534224327E+02 -0.57851930052E+02  0.47304388743E+03  0.10100000352E+00 0. -1.
</event>
<event>
 5   0  0.8907355E-03  0.9788078E+03  0.7818609E-02  0.9332098E-01
       -2   -1    0    0    0  501  0.00000000000E+00  0.00000000000E+00  0.14318075739E+03  0.14318075741E+03  0.25500000920E-02 0.  1.
        2   -1    0    0  501    0  0.00000000000E+00  0.00000000000E+00 -0.16728238043E+04  0.16728238043E+04  0.25500000920E-02 0. -1.
    10030    2    1    2    0    0  0.00000000000E+00  0.00000000000E+00 -0.15296430469E+04  0.18160045617E+04  0.97880780403E+03 0.  0.
        5    1    3    3  502    0  0.46417482352E+03  0.63007256355E+02 -0.50200726581E+03  0.68663058923E+03  0.46999998093E+01 0.  1.
       -5    1    3    3    0  502 -0.46417482352E+03 -0.63007256355E+02 -0.10276357811E+04  0.11293739725E+04  0.46999998093E+01 0. -1.
</event>
<event>
 5   0  0.3513625E-03  0.9633891E+03  0.7818609E-02  0.9349636E-01
        3   -1    0    0  501    0  0.00000000000E+00  0.00000000000E+00  0.25392593203E+03  0.25392595211E+03  0.10100000352E+00 0. -1.
       -3   -1    0    0    0  501  0.00000000000E+00  0.00000000000E+00 -0.91376900632E+03  0.91376901190E+03  0.10100000352E+00 0.  1.
    10030    2    1    2    0    0  0.00000000000E+00  0.00000000000E+00 -0.65984307430E+03  0.11676949640E+04  0.96338914583E+03 0.  0.
        3    1    3    3  502    0  0.15245530739E+03  0.91265429955E+02 -0.87259549098E+03  0.89050261119E+03  0.10100000352E+00 0.  1.
       -3    1    3    3    0  502 -0.15245530739E+03 -0.91265429955E+02  0.21275241669E+03  0.27719235282E+03  0.10100000352E+00 0. -1.
</event>
<event>
 5   0  0.8968798E-03  0.9910405E+03  0.7818609E-02  0.9318426E-01
        2   -1    0    0  501    0  0.00000000000E+00  0.00000000000E+00  0.50137139884E+03  0.50137139885E+03  0.25500000920E-02 0. -1.
       -2   -1    0    0    0  501  0.00000000000E+00  0.00000000000E+00 -0.48973734169E+03  0.48973734170E+03  0.25500000920E-02 0.  1.
    10030    2    1    2    0    0  0.00000000000E+00  0.00000000000E+00  0.11634057155E+02  0.99110874055E+03  0.99104045543E+03 0.  0.
        2    1    3    3  502    0  0.10184211774E+03 -0.16579665013E+03 -0.44993352845E+03  0.49020457583E+03  0.25500000920E-02 0.  1.
       -2    1    3    3    0  502 -0.10184211774E+03  0.16579665013E+03  0.46156758560E+03  0.50090416471E+03  0.25500000920E-02 0. -1.
</event>
<event>
 5   0  0.5189877E-03  0.9619736E+03  0.7818609E-02  0.9351264E-01
        1   -1    0    0  501    0  0.00000000000E+00  0.00000000000E+00  0.45209256315E+03  0.45209256318E+03  0.50400001928E-02 0. -1.
       -1   -1    0    0    0  501  0.00000000000E+00  0.00000000000E+00 -0.51172772524E+03  0.51172772526E+03  0.50400001928E-02 0.  1.
    10030    2    1    2    0    0  0.00000000000E+00  0.00000000000E+00 -0.59635162088E+02  0.96382028844E+03  0.96197359416E+03 0.  0.
        3    1    3    3  502    0  0.47076912611E+03  0.31603617358E+01 -0.12857012626E+03  0.48802033313E+03  0.10100000352E+00 0.  1.
       -3    1    3    3    0  502 -0.47076912611E+03 -0.31603617358E+01  0.68934964170E+02  0.47579995531E+03  0.10100000352E+00 0. -1.
</event>
<event>
 5   0  0.8907355E-03  0.9907556E+03  0.7818609E-02  0.9318742E-01
        2   -1    0    0  501    0  0.00000000000E+00  0.00000000000E+00  0.98279331615E+03  0.98279331616E+03  0.25500000920E-02 0. -1.
       -2   -1    0    0    0  501  0.00000000000E+00  0.00000000000E+00 -0.24969558803E+03  0.24969558804E+03  0.25500000920E-02 0.  1.
    10030    2    1    2    0    0  0.00000000000E+00  0.00000000000E+00  0.73309772813E+03  0.12324889042E+04  0.99075558034E+03 0.  0.
        5    1    3    3  502    0 -0.20926550348E+03 -0.10583354193E+03 -0.17624137444E+03  0.29338694860E+03  0.46999998093E+01 0.  1.
       -5    1    3    3    0  502  0.20926550348E+03  0.10583354193E+03  0.90933910257E+03  0.93910195560E+03  0.46999998093E+01 0. -1.
</event>
<event>
 5   0  0.5072205E-03  0.9945834E+03  0.7818609E-02  0.9314506E-01
        1   -1    0    0  501    0  0.00000000000E+00  0.00000000000E+00  0.77869363373E+03  0.77869363375E+03  0.50400001928E-02 0.  1.
       -1   -1    0    0    0  501  0.00000000000E+00  0.00000000000E+00 -0.31758195251E+03  0.31758195255E+03  0.50400001928E-02 0. -1.
    10030    2    1    2    0    0  0.00000000000E+00  0.00000000000E+00  0.46111168122E+03  0.10962755863E+04  0.99458341961E+03 0.  0.
        5    1    3    3  502    0 -0.24908771143E+03 -0.40735802864E+03  0.38365182977E+03  0.61253250360E+03  0.46999998093E+01 0. -1.
       -5    1    3    3    0  502  0.24908771143E+03  0.40735802864E+03  0.77459851450E+02  0.48374308270E+03  0.46999998093E+01 0.  1.
</event>
<event>
 5   0  0.8907355E-03  0.9617689E+03  0.7818609E-02  0.9351499E-01
        2   -1    0    0  501    0  0.00000000000E+00  0.00000000000E+00  0.82792850046E+03  0.82792850047E+03  0.25500000920E-02 0.  1.
       -2   -1    0    0    0  501  0.00000000000E+00  0.00000000000E+00 -0.27931136837E+03  0.27931136839E+03  0.25500000920E-02 0. -1.
    10030    2    1    2    0    0  0.00000000000E+00  0.00000000000E+00  0.54861713209E+03  0.11072398689E+04  0.96176887533E+03 0.  0.
        5    1    3    3  502    0 -0.41270901164E+03 -0.24414775546E+03  0.23294510276E+03  0.53312509384E+03  0.46999998093E+01 0.  1.
       -5    1    3    3    0  502  0.41270901164E+03  0.24414775546E+03  0.31567202932E+03  0.57411477501E+03  0.46999998093E+01 0. -1.
</event>
<event>
 5   0  0.9040674E-03  0.9874887E+03  0.7818609E-02  0.9322374E-01
        2   -1    0    0  501    0  0.00000000000E+00  0.00000000000E+00  0.16211291055E+04  0.16211291055E+04  0.25500000920E-02 0. -1.
       -2   -1    0    0    0  501  0.00000000000E+00  0.00000000000E+00 -0.15037883342E+03  0.15037883344E+03  0.25500000920E-02 0.  1.
    10030    2    1    2    0    0  0.00000000000E+00  0.00000000000E+00  0.14707502721E+04  0.17715079390E+04  0.98748874168E+03 0.  0.
        1    1    3    3  502    0 -0.31431532879E+03 -0.35156982405E+03  0.47301586872E+03  0.66793673292E+03  0.50400001928E-02 0.  1.
       -1    1    3    3    0  502  0.31431532879E+03  0.35156982405E+03  0.99773440340E+03  0.11035712061E+04  0.50400001928E-02 0. -1.
</event>
<event>
 5   0  0.8875655E-03  0.9538136E+03  0.7818609E-02  0.9360704E-01
       -2   -1    0    0    0  501  0.00000000000E+00  0.00000000000E+00  0.23791873122E+03  0.23791873123E+03  0.25500000920E-02 0.  1.
        2   -1    0    0  501    0  0.00000000000E+00  0.00000000000E+00 -0.95595709460E+03  0.95595709460E+03  0.25500000920E-02 0. -1.
    10030    2    1    2    0    0  0.00000000000E+00  0.00000000000E+00 -0.71803836338E+03  0.11938758258E+04  0.95381360665E+03 0.  0.
        4    1    3    3  502    0  0.25346968120E+03  0.16829063695E+03  0.10065817548E+03  0.32047199403E+03  0.12699999809E+01 0.  1.
       -4    1    3    3    0  502 -0.25346968120E+03 -0.16829063695E+03 -0.81869653885E+03  0.87340383180E+03  0.12699999809E+01 0. -1.
</event>
<event>
 5   0  0.5189877E-03  0.1005736E+04  0.7818609E-02  0.9302276E-01
        1   -1    0    0  501    0  0.00000000000E+00  0.00000000000E+00  0.11584944164E+04  0.11584944164E+04  0.50400001928E-02 0. -1.
       -1   -1    0    0    0  501  0.00000000000E+00  0.00000000000E+00 -0.21827991941E+03  0.21827991947E+03  0.50400001928E-02 0.  1.
    10030    2    1    2    0    0  0.00000000000E+00  0.00000000000E+00  0.94021449699E+03  0.13767743359E+04  0.10057356867E+04 0.  0.
        3    1    3    3  502    0 -0.27527416875E+03  0.23335046386E+03  0.94951902190E+03  0.10157827967E+04  0.10100000352E+00 0. -1.
       -3    1    3    3    0  502  0.27527416875E+03 -0.23335046386E+03 -0.93045249054E+01  0.36099153916E+03  0.10100000352E+00 0.  1.
</event>
<event>
 5   0  0.5349685E-03  0.9942207E+03  0.7818609E-02  0.9314906E-01
       -1   -1    0    0    0  501  0.00000000000E+00  0.00000000000E+00  0.38872113136E+03  0.38872113139E+03  0.50400001928E-02 0.  1.
        1   -1    0    0  501    0  0.00000000000E+00  0.00000000000E+00 -0.63572237391E+03  0.63572237393E+03  0.50400001928E-02 0. -1.
    10030    2    1    2    0    0  0.00000000000E+00  0.00000000000E+00 -0.24700124255E+03  0.10244435053E+04  0.99422074097E+03 0.  0.
        4    1    3    3  502    0 -0.36096217510E+03  0.31972206067E+03 -0.24800933917E+03  0.54224176633E+03  0.12699999809E+01 0. -1.
       -4    1    3    3    0  502  0.36096217510E+03 -0.31972206067E+03  0.10080966215E+01  0.48220173900E+03  0.12699999809E+01 0.  1.
</event>
<event>
 5   0  0.9040674E-03  0.9353004E+03  0.7818609E-02  0.9382499E-01
       -2   -1    0    0    0  501  0.00000000000E+00  0.00000000000E+00  0.14224341715E+03  0.14224341717E+03  0.25500000920E-02 0.  1.
        2   -1    0    0  501    0  0.00000000000E+00  0.00000000000E+00 -0.15374819778E+04  0.15374819778E+04  0.25500000920E-02 0. -1.
    10030    2    1    2    0    0  0.00000000000E+00  0.00000000000E+00 -0.13952385606E+04  0.16797253949E+04  0.93530035891E+03 0.  0.
        1    1    3    3  502    0 -0.10925540112E+03 -0.29659418300E+03 -0.13166047988E+04  0.13540136810E+04  0.50400001928E-02 0. -1.
       -1    1    3    3    0  502  0.10925540112E+03  0.29659418300E+03 -0.78633761779E+02  0.32571171391E+03  0.50400001928E-02 0.  1.
</event>
<event>
 5   0  0.5349685E-03  0.1000970E+04  0.7818609E-02  0.9307481E-01
        1   -1    0    0  501    0  0.00000000000E+00  0.00000000000E+00  0.76400580479E+03  0.76400580481E+03  0.50400001928E-02 0.  1.
       -1   -1    0    0    0  501  0.00000000000E+00  0.00000000000E+00 -0.32785796650E+03  0.32785796654E+03  0.50400001928E-02 0. -1.
    10030    2    1    2    0    0  0.00000000000E+00  0.00000000000E+00  0.43614783829E+03  0.10918637714E+04  0.10009703084E+04 0.  0.
        4    1    3    3  502    0 -0.80728481870E+02  0.15921129210E+03 -0.29195014729E+03  0.34220143881E+03  0.12699999809E+01 0. -1.
       -4    1    3    3    0  502  0.80728481870E+02 -0.15921129210E+03  0.72809798558E+03  0.74966233254E+03  0.12699999809E+01 0.  1.
</event>
<event>
 5   0  0.8875655E-03  0.9999062E+03  0.7818609E-02  0.9308648E-01
       -2   -1    0    0    0  501  0.00000000000E+00  0.00000000000E+00  0.21703466199E+03  0.21703466200E+03  0.25500000920E-02 0. -1.
        2   -1    0    0  501    0  0.00000000000E+00  0.00000000000E+00 -0.11516737528E+04  0.11516737528E+04  0.25500000920E-02 0.  1.
    10030    2    1    2    0    0  0.00000000000E+00  0.00000000000E+00 -0.93463909082E+03  0.13687084148E+04  0.99990624295E+03 0.  0.
        4    1    3    3  502    0  0.22634500403E+03  0.20250484044E+03 -0.10109239662E+04  0.10555610591E+04  0.12699999809E+01 0.  1.
       -4    1    3    3    0  502 -0.22634500403E+03 -0.20250484044E+03  0.76284875371E+02  0.31314735567E+03  0.12699999809E+01 0. -1.
</event>
<event>
 5   0  0.8907355E-03  0.1008843E+04  0.7818609E-02  0.9298898E-01
       -2   -1    0    0    0  501  0.00000000000E+00  0.00000000000E+00  0.18905964799E+03  0.18905964801E+03  0.25500000920E-02 0. -1.
        2   -1    0    0  501    0  0.00000000000E+00  0.00000000000E+00 -0.13458250996E+04  0.13458250996E+04  0.25500000920E-02 0.  1.
    10030    2    1    2    0    0  0.00000000000E+00  0.00000000000E+00 -0.11567654516E+04  0.15348847476E+04  0.10088433369E+04 0.  0.
        5    1    3    3  502    0 -0.45199627103E+03  0.21138494962E+03 -0.69054529929E+03  0.85197366528E+03  0.46999998093E+01 0. -1.
       -5    1    3    3    0  502  0.45199627103E+03 -0.21138494962E+03 -0.46622015230E+03  0.68291108232E+03  0.46999998093E+01 0.  1.
</event>
<event>
 5   0  0.8907355E-03  0.1022154E+04  0.7818609E-02  0.9284575E-01
        2   -1    0    0  501    0  0.00000000000E+00  0.00000000000E+00  0.17701329788E+04  0.17701329788E+04  0.25500000920E-02 0.  1.
       -2   -1    0    0    0  501  0.00000000000E+00  0.00000000000E+00 -0.14755936930E+03  0.14755936933E+03  0.25500000920E-02 0. -1.
    10030    2    1    2    0    0  0.00000000000E+00  0.00000000000E+00  0.16225736095E+04  0.19176923481E+04  0.10221540118E+04 0.  0.
        5    1    3    3  502    0 -0.23199837106E+03  0.25439688054E+02 -0.41696230508E+02  0.23713095019E+03  0.46999998093E+01 0. -1.
       -5    1    3    3    0  502  0.23199837106E+03 -0.25439688054E+02  0.16642698400E+04  0.16805613979E+04  0.46999998093E+01 0.  1.
</event>
<event>
 5   0  0.5349685E-03  0.9288067E+03  0.7818609E-02  0.9390271E-01
       -1   -1    0    0    0  501  0.00000000000E+00  0.00000000000E+00  0.13384025597E+03  0.13384025606E+03  0.50400001928E-02 0. -1.
        1   -1    0    0  501    0  0.00000000000E+00  0.00000000000E+00 -0.16114021750E+04  0.16114021750E+04  0.50400001928E-02 0.  1.
    10030    2    1    2    0    0  0.00000000000E+00  0.00000000000E+00 -0.14775619190E+04  0.17452424311E+04  0.92880671759E+03 0.  0.
        4    1    3    3  502    0 -0.18551476374E+03 -0.36989837283E+03 -0.34272146902E+03  0.53730824674E+03  0.12699999809E+01 0. -1.
       -4    1    3    3    0  502  0.18551476374E+03  0.36989837283E+03 -0.11348404500E+04  0.12079341843E+04  0.12699999809E+01 0.  1.
</event>
<event>
 5   0  0.5349685E-03  0.1006991E+04  0.7818609E-02  0.9300910E-01
        1   -1    0    0  501    0  0.00000000000E+00  0.00000000000E+00  0.66216601182E+03  0.66216601184E+03  0.50400001928E-02 0. -1.
       -1   -1    0    0    0  501  0.00000000000E+00  0.00000000000E+00 -0.38284617606E+03  0.38284617610E+03  0.50400001928E-02 0.  1.
    10030    2    1    2    0    0  0.00000000000E+00  0.00000000000E+00  0.27931983576E+03  0.10450121879E+04  0.10069910140E+04 0.  0.
        4    1    3    3  502    0 -0.38601953226E+03  0.16498966967E+03  0.42813671669E+03  0.59961265119E+03  0.12699999809E+01 0. -1.
       -4    1    3    3    0  502  0.38601953226E+03 -0.16498966967E+03 -0.14881688093E+03  0.44539953675E+03  0.12699999809E+01 0.  1.
</event>
<event>
 5   0  0.3513625E-03  0.9914111E+03  0.7818609E-02  0.9318015E-01
       -3   -1    0    0    0  501  0.00000000000E+00  0.00000000000E+00  0.31759119011E+03  0.31759120617E+03  0.10100000352E+00 0. -1.
        3   -1    0    0  501    0  0.00000000000E+00  0.00000000000E+00 -0.77371158957E+03  0.77371159617E+03  0.10100000352E+00 0.  1.
    10030    2    1    2    0    0  0.00000000000E+00  0.00000000000E+00 -0.45612039946E+03  0.10913028023E+04  0.99141110927E+03 0.  0.
        1    1    3    3  502    0  0.10160662516E+02 -0.19662675189E+03 -0.72882444250E+03  0.75495058556E+03  0.50400001928E-02 0.  1.
       -1    1    3    3    0  502 -0.10160662516E+02  0.19662675189E+03  0.27270404304E+03  0.33635221678E+03  0.50400001928E-02 0. -1.
</event>
<event>
 5   0  0.5310275E-03  0.9859760E+03  0.7818609E-02  0.9324061E-01
        1   -1    0    0  501    0  0.00000000000E+00  0.00000000000E+00  0.98963625220E+03  0.98963625221E+03  0.50400001928E-02 0. -1.
       -1   -1    0    0    0  501  0.00000000000E+00  0.00000000000E+00 -0.24558230774E+03  0.24558230780E+03  0.50400001928E-02 0.  1.
    10030    2    1    2    0    0  0.00000000000E+00  0.00000000000E+00  0.74405394445E+03  0.12352185600E+04  0.98597597269E+03 0.  0.
        1    1    3    3  502    0  0.17424505460E+03  0.10672293023E+03  0.93408906479E+03  0.95617650247E+03  0.50400001928E-02 0. -1.
       -1    1    3    3    0  502 -0.17424505460E+03 -0.10672293023E+03 -0.19003512034E+03  0.27904205754E+03  0.50400001928E-02 0.  1.
</event>
<event>
 5   0  0.8907355E-03  0.8598974E+03  0.7818609E-02  0.9477148E-01
        2   -1    0    0  501    0  0.00000000000E+00  0.00000000000E+00  0.13519180554E+04  0.13519180554E+04  0.25500000920E-02 0.  1.
       -2   -1    0    0    0  501  0.00000000000E+00  0.00000000000E+00 -0.13673601831E+03  0.13673601833E+03  0.25500000920E-02 0. -1.
    10030    2    1    2    0    0  0.00000000000E+00  0.00000000000E+00  0.12151820371E+04  0.14886540737E+04  0.85989741712E+03 0.  0.
        5    1    3    3  502    0  0.41611227565E+03  0.93120992207E+02  0.70261569393E+03  0.82189527830E+03  0.46999998093E+01 0.  1.
       -5    1    3    3    0  502 -0.41611227565E+03 -0.93120992207E+02  0.51256634313E+03  0.66675879540E+03  0.46999998093E+01 0. -1.
</event>
<event>
 5   0  0.8875655E-03  0.1015518E+04  0.7818609E-02  0.9291686E-01
       -2   -1    0    0    0  501  0.00000000000E+00  0.00000000000E+00  0.47968379262E+03  0.47968379262E+03  0.25500000920E-02 0.  1.
        2   -1    0    0  501    0  0.00000000000E+00  0.00000000000E+00 -0.53747771889E+03  0.53747771890E+03  0.25500000920E-02 0. -1.
    10030    2    1    2    0    0  0.00000000000E+00  0.00000000000E+00 -0.57793926272E+02  0.10171615115E+04  0.10155182926E+04 0.  0.
        4    1    3    3  502    0 -0.26587650561E+03 -0.22604482327E+03 -0.39831778272E+03  0.52957081424E+03  0.12699999809E+01 0. -1.
       -4    1    3    3    0  502  0.26587650561E+03  0.22604482327E+03  0.34052385645E+03  0.48759069728E+03  0.12699999809E+01 0.  1.
</event>
<event>
 5   0  0.9040674E-03  0.9954049E+03  0.7818609E-02  0.9313599E-01
        2   -1    0    0  501    0  0.00000000000E+00  0.00000000000E+00  0.68585788343E+03  0.68585788344E+03  0.25500000920E-02 0.  1.
       -2   -1    0    0    0  501  0.00000000000E+00  0.00000000000E+00 -0.36116477082E+03  0.36116477083E+03  0.25500000920E-02 0. -1.
    10030    2    1    2    0    0  0.00000000000E+00  0.00000000000E+00  0.32469311261E+03  0.10470226543E+04  0.99540485290E+03 0.  0.
        1    1    3    3  502    0  0.93755258177E+02  0.43968680237E+03 -0.62251623271E+02  0.45386098890E+03  0.50400001928E-02 0. -1.
       -1    1    3    3    0  502 -0.93755258177E+02 -0.43968680237E+03  0.38694473588E+03  0.59316166537E+03  0.50400001928E-02 0.  1.
</event>
<event>
 5   0  0.9040674E-03  0.1000219E+04  0.7818609E-02  0.9308305E-01
        2   -1    0    0  501    0  0.00000000000E+00  0.00000000000E+00  0.86018697189E+03  0.86018697189E+03  0.25500000920E-02 0. -1.
       -2   -1    0    0    0  501  0.00000000000E+00  0.00000000000E+00 -0.29076185485E+03  0.29076185486E+03  0.25500000920E-02 0.  1.
    10030    2    1    2    0    0  0.00000000000E+00  0.00000000000E+00  0.56942511703E+03  0.11509488268E+04  0.10002190949E+04 0.  0.
        1    1    3    3  502    0  0.17697023930E+03  0.45516751282E+03  0.40871917267E+03  0.63682595146E+03  0.50400001928E-02 0. -1.
       -1    1    3    3    0  502 -0.17697023930E+03 -0.45516751282E+03  0.16070594436E+03  0.51412287529E+03  0.50400001928E-02 0.  1.
</event>
<event>
 5   0  0.5201968E-03  0.8488657E+03  0.7818609E-02  0.9491861E-01
       -1   -1    0    0    0  501  0.00000000000E+00  0.00000000000E+00  0.22843425388E+03  0.22843425394E+03  0.50400001928E-02 0. -1.
        1   -1    0    0  501    0  0.00000000000E+00  0.00000000000E+00 -0.78859998507E+03  0.78859998508E+03  0.50400001928E-02 0.  1.
    10030    2    1    2    0    0  0.00000000000E+00  0.00000000000E+00 -0.56016573119E+03  0.10170342390E+04  0.84886571196E+03 0.  0.
        2    1    3    3  502    0  0.97968758550E+02  0.37227147520E+03 -0.65894760005E+02  0.39054583381E+03  0.25500000920E-02 0.  1.
       -2    1    3    3    0  502 -0.97968758550E+02 -0.37227147520E+03 -0.49427097118E+03  0.62648840521E+03  0.25500000920E-02 0. -1.
</event>
<event>
 5   0  0.5072205E-03  0.9919271E+03  0.7818609E-02  0.9317444E-01
       -1   -1    0    0    0  501  0.00000000000E+00  0.00000000000E+00  0.19908024410E+03  0.19908024416E+03  0.50400001928E-02 0.  1.
        1   -1    0    0  501    0  0.00000000000E+00  0.00000000000E+00 -0.12355814344E+04  0.12355814344E+04  0.50400001928E-02 0. -1.
    10030    2    1    2    0    0  0.00000000000E+00  0.00000000000E+00 -0.10365011903E+04  0.14346616785E+04  0.99192712153E+03 0.  0.
        5    1    3    3  502    0 -0.42929331809E+03 -0.18014362964E+03 -0.27104407653E+03  0.53873134462E+03  0.46999998093E+01 0.  1.
       -5    1    3    3    0  502  0.42929331809E+03  0.18014362964E+03 -0.76545711373E+03  0.89593033391E+03  0.46999998093E+01 0. -1.
</event>
<event>
 5   0  0.8907355E-03  0.1001262E+04  0.7818609E-02  0.9307161E-01
       -2   -1    0    0    0  501  0.00000000000E+00  0.00000000000E+00  0.45134985821E+03  0.45134985822E+03  0.25500000920E-02 0.  1.
        2   -1    0    0  501    0  0.00000000000E+00  0.00000000000E+00 -0.55529344507E+03  0.55529344508E+03  0.25500000920E-02 0. -1.
    10030    2    1    2    0    0  0.00000000000E+00  0.00000000000E+00 -0.10394358686E+03  0.10066433033E+04  0.10012624385E+04 0.  0.
        5    1    3    3  502    0 -0.13925435963E+02 -0.92528938669E+02  0.44245765155E+03  0.45226804627E+03  0.46999998093E+01 0.  1.
       -5    1    3    3    0  502  0.13925435963E+02  0.92528938669E+02 -0.54640123842E+03  0.55437525702E+03  0.46999998093E+01 0. -1.
</event>
<event>
 5   0  0.5349685E-03  0.1031606E+04  0.7818609E-02  0.9274543E-01
        1   -1    0    0  501    0  0.00000000000E+00  0.00000000000E+00  0.15448561279E+04  0.15448561279E+04  0.50400001928E-02 0.  1.
       -1   -1    0    0    0  501  0.00000000000E+00  0.00000000000E+00 -0.17221850893E+03  0.17221850900E+03  0.50400001928E-02 0. -1.
    10030    2    1    2    0    0  0.00000000000E+00  0.00000000000E+00  0.13726376189E+04  0.17170746369E+04  0.10316061631E+04 0.  0.
        4    1    3    3  502    0  0.17656139353E+03 -0.32868058052E+03  0.12791270656E+04  0.13324310535E+04  0.12699999809E+01 0.  1.
       -4    1    3    3    0  502 -0.17656139353E+03  0.32868058052E+03  0.93510553368E+02  0.38464358332E+03  0.12699999809E+01 0. -1.
</event>
<event>
 5   0  0.8968798E-03  0.9787410E+03  0.7818609E-02  0.9332174E-01
        2   -1    0    0  501    0  0.00000000000E+00  0.00000000000E+00  0.11652133860E+04  0.11652133860E+04  0.25500000920E-02 0.  1.
       -2   -1    0    0    0  501  0.00000000000E+00  0.00000000000E+00 -0.20552757376E+03  0.20552757378E+03  0.25500000920E-02 0. -1.
    10030    2    1    2    0    0  0.00000000000E+00  0.00000000000E+00  0.95968581221E+03  0.13707409598E+04  0.97874098749E+03 0.  0.
        2    1    3    3  502    0 -0.42114753769E+02  0.30077866017E+03  0.10172501368E+04  0.10616210698E+04  0.25500000920E-02 0.  1.
       -2    1    3    3    0  502  0.42114753769E+02 -0.30077866017E+03 -0.57564324632E+02  0.30911988997E+03  0.25500000920E-02 0. -1.
</event>
<event>
 5   0  0.5310275E-03  0.9875768E+03  0.7818609E-02  0.9322276E-01
        1   -1    0    0  501    0  0.00000000000E+00  0.00000000000E+00  0.92005238998E+03  0.92005238999E+03  0.50400001928E-02 0.  1.
       -1   -1    0    0    0  501  0.00000000000E+00  0.00000000000E+00 -0.26501423322E+03  0.26501423327E+03  0.50400001928E-02 0. -1.
    10030    2    1    2    0    0  0.00000000000E+00  0.00000000000E+00  0.65503815676E+03  0.11850666233E+04  0.98757678930E+03 0.  0.
        1    1    3    3  502    0  0.47737606727E+03 -0.14007402268E+02  0.47808050912E+03  0.67575519986E+03  0.50400001928E-02 0.  1.
       -1    1    3    3    0  502 -0.47737606727E+03  0.14007402268E+02  0.17695764764E+03  0.50931142340E+03  0.50400001928E-02 0. -1.
</event>
<event>
 5   0  0.9243773E-03  0.9782827E+03  0.7818609E-02  0.9332690E-01
       -2   -1    0    0    0  501  0.00000000000E+00  0.00000000000E+00  0.54275139317E+03  0.54275139318E+03  0.25500000920E-02 0.  1.
        2   -1    0    0  501    0  0.00000000000E+00  0.00000000000E+00 -0.44082657280E+03  0.44082657280E+03  0.25500000920E-02 0. -1.
    10030    2    1    2    0    0  0.00000000000E+00  0.00000000000E+00  0.10192482038E+03  0.98357796598E+03  0.97828265146E+03 0.  0.
        3    1    3    3  502    0  0.42498565441E+03  0.14673164127E+03  0.24466099939E+03  0.51186130526E+03  0.10100000352E+00 0.  1.
       -3    1    3    3    0  502 -0.42498565441E+03 -0.14673164127E+03 -0.14273617901E+03  0.47171666072E+03  0.10100000352E+00 0. -1.
</event>
<event>
 5   0  0.8907355E-03  0.9821696E+03  0.7818609E-02  0.9328320E-01
       -2   -1    0    0    0  501  0.00000000000E+00  0.00000000000E+00  0.26774866822E+03  0.26774866823E+03  0.25500000920E-02 0.  1.
        2   -1    0    0  501    0  0.00000000000E+00  0.00000000000E+00 -0.90071141347E+03  0.90071141347E+03  0.25500000920E-02 0. -1.
    10030    2    1    2    0    0  0.00000000000E+00  0.00000000000E+00 -0.63296274525E+03  0.11684600817E+04  0.98216960127E+03 0.  0.
        5    1    3    3  502    0  0.41497010542E+03 -0.77738148070E+02 -0.61484681084E+03  0.74585662084E+03  0.46999998093E+01 0. -1.
       -5    1    3    3    0  502 -0.41497010542E+03  0.77738148070E+02 -0.18115934414E+02  0.42260346086E+03  0.46999998093E+01 0.  1.
</event>
<event>
 5   0  0.5310275E-03  0.1041682E+04  0.7818609E-02  0.9263975E-01
        1   -1    0    0  501    0  0.00000000000E+00  0.00000000000E+00  0.96631264965E+03  0.96631264967E+03  0.50400001928E-02 0.  1.
       -1   -1    0    0    0  501  0.00000000000E+00  0.00000000000E+00 -0.28073226984E+03  0.28073226989E+03  0.50400001928E-02 0. -1.
    10030    2    1    2    0    0  0.00000000000E+00  0.00000000000E+00  0.68558037981E+03  0.12470449196E+04  0.10416816088E+04 0.  0.
        1    1    3    3  502    0 -0.37368763138E+03 -0.12007253481E+03 -0.67073289874E+02  0.39819428135E+03  0.50400001928E-02 0. -1.
       -1    1    3    3    0  502  0.37368763138E+03  0.12007253481E+03  0.75265366969E+03  0.84885063820E+03  0.50400001928E-02 0.  1.
</event>
<event>
 5   0  0.5349685E-03  0.1022406E+04  0.7818609E-02  0.9284306E-01
        1   -1    0    0  501    0  0.00000000000E+00  0.00000000000E+00  0.11587446098E+04  0.11587446099E+04  0.50400001928E-02 0.  1.
       -1   -1    0    0    0  501  0.00000000000E+00  0.00000000000E+00 -0.22552728592E+03  0.22552728598E+03  0.50400001928E-02 0. -1.
    10030    2    1    2    0    0  0.00000000000E+00  0.00000000000E+00  0.93321732393E+03  0.13842718958E+04  0.10224060387E+04 0.  0.
        4    1    3    3  502    0  0.45009325275E+03 -0.70640516669E+02  0.78051416312E+03  0.90375770563E+03  0.12699999809E+01 0.  1.
       -4    1    3    3    0  502 -0.45009325275E+03  0.70640516669E+02  0.15270316081E+03  0.48051419020E+03  0.12699999809E+01 0. -1.
</event>
<event>
 5   0  0.5072205E-03  0.8873854E+03  0.7818609E-02  0.9441489E-01
        1   -1    0    0  501    0  0.00000000000E+00  0.00000000000E+00  0.17334476845E+03  0.17334476852E+03  0.50400001928E-02 0. -1.
       -1   -1    0    0    0  501  0.00000000000E+00  0.00000000000E+00 -0.11356743914E+04  0.11356743914E+04  0.50400001928E-02 0.  1.
    10030    2    1    2    0    0  0.00000000000E+00  0.00000000000E+00 -0.96232962294E+03  0.13090191599E+04  0.88738540548E+03 0.  0.
        5    1    3    3  502    0  0.36818010800E+03  0.24395829696E+03 -0.54320643280E+03  0.70011967635E+03  0.46999998093E+01 0.  1.
       -5    1    3    3    0  502 -0.36818010800E+03 -0.24395829696E+03 -0.41912319015E+03  0.60889948358E+03  0.46999998093E+01 0. -1.
</event>
<event>
 5   0  0.5072205E-03  0.1009801E+04  0.7818609E-02  0.9297860E-01
       -1   -1    0    0    0  501  0.00000000000E+00  0.00000000000E+00  0.40017436084E+03  0.40017436087E+03  0.50400001928E-02 0. -1.
        1   -1    0    0  501    0  0.00000000000E+00  0.00000000000E+00 -0.63703375008E+03  0.63703375010E+03  0.50400001928E-02 0.  1.
    10030    2    1    2    0    0  0.00000000000E+00  0.00000000000E+00 -0.23685938924E+03  0.10372081110E+04  0.10098011167E+04 0.  0.
        5    1    3    3  502    0 -0.26499379682E+03  0.10132967689E+03 -0.54739243245E+03  0.61656303885E+03  0.46999998093E+01 0.  1.
       -5    1    3    3    0  502  0.26499379682E+03 -0.10132967689E+03  0.31053304321E+03  0.42064507212E+03  0.46999998093E+01 0. -1.
</event>
<event>
 5   0  0.8907355E-03  0.1002555E+04  0.7818609E-02  0.9305747E-01
        2   -1    0    0  501    0  0.00000000000E+00  0.00000000000E+00  0.18064202774E+04  0.18064202774E+04  0.25500000920E-02 0.  1.
       -2   -1    0    0    0  501  0.00000000000E+00  0.00000000000E+00 -0.13910326490E+03  0.13910326492E+03  0.25500000920E-02 0. -1.
    10030    2    1    2    0    0  0.00000000000E+00  0.00000000000E+00  0.16673170125E+04  0.19455235423E+04  0.10025546536E+04 0.  0.
        5    1    3    3  502    0 -0.20909010844E+03 -0.32380924661E+03  0.14555055276E+04  0.15056857350E+04  0.46999998093E+01 0.  1.
       -5    1    3    3    0  502  0.20909010844E+03  0.32380924661E+03  0.21181148492E+03  0.43983780736E+03  0.46999998093E+01 0. -1.
</event>
<event>
 5   0  0.8907355E-03  0.1004820E+04  0.7818609E-02  0.9303274E-01
       -2   -1    0    0    0  501  0.00000000000E+00  0.00000000000E+00  0.19351929378E+03  0.19351929380E+03  0.25500000920E-02 0.  1.
        2   -1    0    0  501    0  0.00000000000E+00  0.00000000000E+00 -0.13043447238E+04  0.13043447238E+04  0.25500000920E-02 0. -1.
    10030    2    1    2    0    0  0.00000000000E+00  0.00000000000E+00 -0.11108254300E+04  0.14978640176E+04  0.10048201228E+04 0.  0.
        5    1    3    3  502    0  0.29893488515E+03  0.40326431369E+03 -0.52524321967E+03  0.72655812023E+03  0.46999998093E+01 0.  1.
       -5    1    3    3    0  502 -0.29893488515E+03 -0.40326431369E+03 -0.58558221036E+03  0.77130589738E+03  0.46999998093E+01 0. -1.
</event>
<event>
 5   0  0.9243773E-03  0.1027473E+04  0.7818609E-02  0.9278915E-01
        2   -1    0    0  501    0  0.00000000000E+00  0.00000000000E+00  0.34735495457E+03  0.34735495458E+03  0.25500000920E-02 0. -1.
       -2   -1    0    0    0  501  0.00000000000E+00  0.00000000000E+00 -0.75981475955E+03  0.75981475955E+03  0.25500000920E-02 0.  1.
    10030    2    1    2    0    0  0.00000000000E+00  0.00000000000E+00 -0.41245980498E+03  0.11071697141E+04  0.10274734474E+04 0.  0.
        3    1    3    3  502    0  0.29768799161E+03 -0.33985910992E+03 -0.46974486478E+03  0.65175348340E+03  0.10100000352E+00 0.  1.
       -3    1    3    3    0  502 -0.29768799161E+03  0.33985910992E+03  0.57285059799E+02  0.45541623074E+03  0.10100000352E+00 0. -1.
</event>
<event>
 5   0  0.8907355E-03  0.9506607E+03  0.7818609E-02  0.9364379E-01
        2   -1    0    0  501    0  0.00000000000E+00  0.00000000000E+00  0.46477489014E+03  0.46477489015E+03  0.25500000920E-02 0. -1.
       -2   -1    0    0    0  501  0.00000000000E+00  0.00000000000E+00 -0.48612554036E+03  0.48612554037E+03  0.25500000920E-02 0.  1.
    10030    2    1    2    0    0  0.00000000000E+00  0.00000000000E+00 -0.21350650215E+02  0.95090043052E+03  0.95066070629E+03 0.  0.
        5    1    3    3  502    0 -0.34028449363E+03 -0.28645178166E+03 -0.17825471681E+03  0.47921288994E+03  0.46999998093E+01 0.  1.
       -5    1    3    3    0  502  0.34028449363E+03  0.28645178166E+03  0.15690406660E+03  0.47168754058E+03  0.46999998093E+01 0. -1.
</event>
<event>
 5   0  0.5201968E-03  0.9785639E+03  0.7818609E-02  0.9332373E-01
       -1   -1    0    0    0  501  0.00000000000E+00  0.00000000000E+00  0.75442190797E+03  0.75442190799E+03  0.50400001928E-02 0.  1.
        1   -1    0    0  501    0  0.00000000000E+00  0.00000000000E+00 -0.31732488906E+03  0.31732488910E+03  0.50400001928E-02 0. -1.
    10030    2    1    2    0    0  0.00000000000E+00  0.00000000000E+00  0.43709701891E+03  0.10717467971E+04  0.97856394433E+03 0.  0.
        2    1    3    3  502    0  0.24130369533E+03 -0.14355314390E+03 -0.22030966564E+03  0.35689119811E+03  0.25500000920E-02 0. -1.
       -2    1    3    3    0  502 -0.24130369533E+03  0.14355314390E+03  0.65740668455E+03  0.71485559899E+03  0.25500000920E-02 0.  1.
</event>
<event>
 5   0  0.9243773E-03  0.1003354E+04  0.7818609E-02  0.9304873E-01
       -2   -1    0    0    0  501  0.00000000000E+00  0.00000000000E+00  0.41365989089E+03  0.41365989090E+03  0.25500000920E-02 0. -1.
        2   -1    0    0  501    0  0.00000000000E+00  0.00000000000E+00 -0.60842264369E+03  0.60842264369E+03  0.25500000920E-02 0.  1.
    10030    2    1    2    0    0  0.00000000000E+00  0.00000000000E+00 -0.19476275280E+03  0.10220825346E+04  0.10033544626E+04 0.  0.
        3    1    3    3  502    0 -0.92144871937E+02  0.26180218601E+03  0.32832935446E+03  0.42992003585E+03  0.10100000352E+00 0. -1.
       -3    1    3    3    0  502  0.92144871937E+02 -0.26180218601E+03 -0.52309210726E+03  0.59216249873E+03  0.10100000352E+00 0.  1.
</event>
<event>
 5   0  0.8875655E-03  0.9908585E+03  0.7818609E-02  0.9318628E-01
        2   -1    0    0  501    0  0.00000000000E+00  0.00000000000E+00  0.66009747333E+03  0.66009747333E+03  0.25500000920E-02 0. -1.
       -2   -1    0    0    0  501  0.00000000000E+00  0.00000000000E+00 -0.37183922786E+03  0.37183922786E+03  0.25500000920E-02 0.  1.
    10030    2    1    2    0    0  0.00000000000E+00  0.00000000000E+00  0.28825824547E+03  0.10319367012E+04  0.99085848596E+03 0.  0.
        4    1    3    3  502    0 -0.32979601506E+03  0.31758060561E+03 -0.52994459018E+02  0.46090441329E+03  0.12699999809E+01 0.  1.
       -4    1    3    3    0  502  0.32979601506E+03 -0.31758060561E+03  0.34125270449E+03  0.57103228790E+03  0.12699999809E+01 0. -1.
</event>
<event>
 5   0  0.9243773E-03  0.1001474E+04  0.7818609E-02  0.9306929E-01
       -2   -1    0    0    0  501  0.00000000000E+00  0.00000000000E+00  0.24645319916E+03  0.24645319917E+03  0.25500000920E-02 0.  1.
        2   -1    0    0  501    0  0.00000000000E+00  0.00000000000E+00 -0.10173844519E+04  0.10173844519E+04  0.25500000920E-02 0. -1.
    10030    2    1    2    0    0  0.00000000000E+00  0.00000000000E+00 -0.77093125278E+03  0.12638376511E+04  0.10014742193E+04 0.  0.
        3    1    3    3  502    0  0.70649672956E+02  0.18606908683E+03 -0.96532261487E+03  0.98562713150E+03  0.10100000352E+00 0. -1.
       -3    1    3    3    0  502 -0.70649672956E+02 -0.18606908683E+03  0.19439136209E+03  0.27821051961E+03  0.10100000352E+00 0.  1.
</event>
<event>
 5   0  0.5201968E-03  0.1018158E+04  0.7818609E-02  0.9288850E-01
        1   -1    0    0  501    0  0.00000000000E+00  0.00000000000E+00  0.65085614962E+03  0.65085614964E+03  0.50400001928E-02 0. -1.
       -1   -1    0    0    0  501  0.00000000000E+00  0.00000000000E+00 -0.39818561375E+03  0.39818561378E+03  0.50400001928E-02 0.  1.
    10030    2    1    2    0    0  0.00000000000E+00  0.00000000000E+00  0.25267053588E+03  0.10490417634E+04  0.10181582498E+04 0.  0.
        2    1    3    3  502    0 -0.18706910379E+03  0.15502556026E+03 -0.33459761773E+03  0.41350131768E+03  0.25500000920E-02 0.  1.
       -2    1    3    3    0  502  0.18706910379E+03 -0.15502556026E+03  0.58726815361E+03  0.63554044574E+03  0.25500000920E-02 0. -1.
</event>
<event>
 5   0  0.8968798E-03  0.9987537E+03  0.7818609E-02  0.9309913E-01
       -2   -1    0    0    0  501  0.00000000000E+00  0.00000000000E+00  0.13953089181E+03  0.13953089183E+03  0.25500000920E-02 0.  1.
        2   -1    0    0  501    0  0.00000000000E+00  0.00000000000E+00 -0.17872547972E+04  0.17872547972E+04  0.25500000920E-02 0. -1.
    10030    2    1    2    0    0  0.00000000000E+00  0.00000000000E+00 -0.16477239054E+04  0.19267856890E+04  0.99875373494E+03 0.  0.
        2    1    3    3  502    0  0.90390243160E+02 -0.40110501421E+03 -0.27710886440E+03  0.49582754182E+03  0.25500000920E-02 0.  1.
       -2    1    3    3    0  502 -0.90390243160E+02  0.40110501421E+03 -0.13706150410E+04  0.14309581472E+04  0.25500000920E-02 0. -1.
</event>
<event>
 5   0  0.5349685E-03  0.1013876E+04  0.7818609E-02  0.9293455E-01
       -1   -1    0    0    0  501  0.00000000000E+00  0.00000000000E+00  0.20958288449E+03  0.20958288455E+03  0.50400001928E-02 0. -1.
        1   -1    0    0  501    0  0.00000000000E+00  0.00000000000E+00 -0.12261796500E+04  0.12261796500E+04  0.50400001928E-02 0.  1.
    10030    2    1    2    0    0  0.00000000000E+00  0.00000000000E+00 -0.10165967655E+04  0.14357625345E+04  0.10138762607E+04 0.  0.
        4    1    3    3  502    0  0.91783966412E+02 -0.21477494422E+02 -0.12136574205E+04  0.12173132409E+04  0.12699999809E+01 0.  1.
       -4    1    3    3    0  502 -0.91783966412E+02  0.21477494422E+02  0.19706065499E+03  0.21844929366E+03  0.12699999809E+01 0. -1.
</event>
<event>
 5   0  0.5349685E-03  0.9434321E+03  0.7818609E-02  0.9372861E-01
       -1   -1    0    0    0  501  0.00000000000E+00  0.00000000000E+00  0.24764180406E+03  0.24764180411E+03  0.50400001928E-02 0.  1.
        1   -1    0    0  501    0  0.00000000000E+00  0.00000000000E+00 -0.89853986796E+03  0.89853986798E+03  0.50400001928E-02 0. -1.
    10030    2    1    2    0    0  0.00000000000E+00  0.00000000000E+00 -0.65089806390E+03  0.11461816721E+04  0.94343210451E+03 0.  0.
        4    1    3    3  502    0  0.29096288543E+03  0.10844280143E+02  0.12543907867E+03  0.31703875862E+03  0.12699999809E+01 0.  1.
       -4    1    3    3    0  502 -0.29096288543E+03 -0.10844280143E+02 -0.77633714257E+03  0.82914291346E+03  0.12699999809E+01 0. -1.
</event>
<event>
 5   0  0.8875655E-03  0.1005865E+04  0.7818609E-02  0.9302135E-01
        2   -1    0    0  501    0  0.00000000000E+00  0.00000000000E+00  0.80533099403E+03  0.80533099403E+03  0.25500000920E-02 0. -1.
       -2   -1    0    0    0  501  0.00000000000E+00  0.00000000000E+00 -0.31408348128E+03  0.31408348129E+03  0.25500000920E-02 0.  1.
    10030    2    1    2    0    0  0.00000000000E+00  0.00000000000E+00  0.49124751275E+03  0.11194144753E+04  0.10058651245E+04 0.  0.
        4    1    3    3  502    0 -0.16365812903E+03  0.36717413431E+03  0.58196384282E+03  0.70730782220E+03  0.12699999809E+01 0. -1.
       -4    1    3    3    0  502  0.16365812903E+03 -0.36717413431E+03 -0.90716330072E+02  0.41210665312E+03  0.12699999809E+01 0.  1.
</event>
<event>
 5   0  0.5189877E-03  0.1020042E+04  0.7818609E-02  0.9286832E-01
       -1   -1    0    0    0  501  0.00000000000E+00  0.00000000000E+00  0.28745226831E+03  0.28745226836E+03  0.50400001928E-02 0.  1.
        1   -1    0    0  501    0  0.00000000000E+00  0.00000000000E+00 -0.90492119507E+03  0.90492119508E+03  0.50400001928E-02 0. -1.
    10030    2    1    2    0    0  0.00000000000E+00  0.00000000000E+00 -0.61746892676E+03  0.11923734634E+04  0.10200424505E+04 0.  0.
        3    1    3    3  502    0  0.55062747946E+02 -0.40070006050E+03 -0.67191569671E+03  0.78425962435E+03  0.10100000352E+00 0. -1.
       -3    1    3    3    0  502 -0.55062747946E+02  0.40070006050E+03  0.54446769953E+02  0.40811383909E+03  0.10100000352E+00 0.  1.
</event>
<event>
 5   0  0.3513625E-03  0.1002071E+04  0.7818609E-02  0.9306277E-01
       -4   -1    0    0    0  501  0.00000000000E+00  0.00000000000E+00  0.32641476467E+03  0.32641723530E+03  0.12699999809E+01 0.  1.
        4   -1    0    0  501    0  0.00000000000E+00  0.00000000000E+00 -0.76906604408E+03  0.76906709269E+03  0.12699999809E+01 0. -1.
    10030    2    1    2    0    0  0.00000000000E+00  0.00000000000E+00 -0.44265127941E+03  0.10954843280E+04  0.10020707349E+04 0.  0.
        1    1    3    3  502    0  0.96156372251E+02 -0.30161220484E+03 -0.64588452467E+03  0.71929325680E+03  0.50400001928E-02 0. -1.
       -1    1    3    3    0  502 -0.96156372251E+02  0.30161220484E+03  0.20323324527E+03  0.37619107119E+03  0.50400001928E-02 0.  1.
</event>
<event>
 5   0  0.9040674E-03  0.1014805E+04  0.7818609E-02  0.9292455E-01
        2   -1    0    0  501    0  0.00000000000E+00  0.00000000000E+00  0.37953761222E+03  0.37953761223E+03  0.25500000920E-02 0. -1.
       -2   -1    0    0    0  501  0.00000000000E+00  0.00000000000E+00 -0.67834425244E+03  0.67834425245E+03  0.25500000920E-02 0.  1.
    10030    2    1    2    0    0  0.00000000000E+00  0.00000000000E+00 -0.29880664022E+03  0.10578818647E+04  0.10148047257E+04 0.  0.
        1    1    3    3  502    0  0.44764751803E+03  0.23872838583E+03 -0.14021939930E+03  0.52634686526E+03  0.50400001928E-02 0. -1.
       -1    1    3    3    0  502 -0.44764751803E+03 -0.23872838583E+03 -0.15858724093E+03  0.53153499942E+03  0.50400001928E-02 0.  1.
</event>
<event>
 5   0  0.9243773E-03  0.9797003E+03  0.7818609E-02  0.9331094E-01
       -2   -1    0    0    0  501  0.00000000000E+00  0.00000000000E+00  0.74600116229E+03  0.74600116230E+03  0.25500000920E-02 0.  1.
        2   -1    0    0  501    0  0.00000000000E+00  0.00000000000E+00 -0.32165254037E+03  0.32165254038E+03  0.25500000920E-02 0. -1.
    10030    2    1    2    0    0  0.00000000000E+00  0.00000000000E+00  0.42434862193E+03  0.10676537027E+04  0.97970029902E+03 0.  0.
        3    1    3    3  502    0 -0.22887224306E+03  0.45344666325E+02 -0.25720735190E+03  0.34726686349E+03  0.10100000352E+00 0. -1.
       -3    1    3    3    0  502  0.22887224306E+03 -0.45344666325E+02  0.68155597383E+03  0.72038683918E+03  0.10100000352E+00 0.  1.
</event>
<event>
 5   0  0.8875655E-03  0.1003745E+04  0.7818609E-02  0.9304447E-01
        2   -1    0    0  501    0  0.00000000000E+00  0.00000000000E+00  0.52395951930E+03  0.52395951931E+03  0.25500000920E-02 0.  1.
       -2   -1    0    0    0  501  0.00000000000E+00  0.00000000000E+00 -0.48071621648E+03  0.48071621649E+03  0.25500000920E-02 0. -1.
    10030    2    1    2    0    0  0.00000000000E+00  0.00000000000E+00  0.43243302824E+02  0.10046757358E+04  0.10037446642E+04 0.  0.
        4    1    3    3  502    0 -0.38667911721E+03 -0.31675397265E+03  0.66612271834E+02  0.50427435641E+03  0.12699999809E+01 0. -1.
       -4    1    3    3    0  502  0.38667911721E+03  0.31675397265E+03 -0.23368969010E+02  0.50040137938E+03  0.12699999809E+01 0.  1.
</event>
<event>
 5   0  0.5310275E-03  0.1001625E+04  0.7818609E-02  0.9306764E-01
        1   -1    0    0  501    0  0.00000000000E+00  0.00000000000E+00  0.16380001114E+04  0.16380001114E+04  0.50400001928E-02 0. -1.
       -1   -1    0    0    0  501  0.00000000000E+00  0.00000000000E+00 -0.15312161505E+03  0.15312161514E+03  0.50400001928E-02 0.  1.
    10030    2    1    2    0    0  0.00000000000E+00  0.00000000000E+00  0.14848784964E+04  0.17911217266E+04  0.10016251247E+04 0.  0.
        1    1    3    3  502    0 -0.28285102733E+02 -0.13236375217E+03 -0.11979415735E+03  0.18075079553E+03  0.50400001928E-02 0.  1.
       -1    1    3    3    0  502  0.28285102733E+02  0.13236375217E+03  0.16046726537E+04  0.16103709310E+04  0.50400001928E-02 0. -1.
</event>
<event>
 5   0  0.8875655E-03  0.9975424E+03  0.7818609E-02  0.9311244E-01
       -2   -1    0    0    0  501  0.00000000000E+00  0.00000000000E+00  0.26336320079E+03  0.26336320080E+03  0.25500000920E-02 0.  1.
        2   -1    0    0  501    0  0.00000000000E+00  0.00000000000E+00 -0.94459938608E+03  0.94459938608E+03  0.25500000920E-02 0. -1.
    10030    2    1    2    0    0  0.00000000000E+00  0.00000000000E+00 -0.68123618529E+03  0.12079625869E+04  0.99754241572E+03 0.  0.
        4    1    3    3  502    0 -0.40752276525E+02 -0.13513089531E+02 -0.94235557534E+03  0.94333397846E+03  0.12699999809E+01 0. -1.
       -4    1    3    3    0  502  0.40752276525E+02  0.13513089531E+02  0.26111939006E+03  0.26462860842E+03  0.12699999809E+01 0.  1.
</event>
<event>
 5   0  0.5189877E-03  0.9939353E+03  0.7818609E-02  0.9315222E-01
        1   -1    0    0  501    0  0.00000000000E+00  0.00000000000E+00  0.12215791002E+04  0.12215791002E+04  0.50400001928E-02 0.  1.
       -1   -1    0    0    0  501  0.00000000000E+00  0.00000000000E+00 -0.20217834106E+03  0.20217834112E+03  0.50400001928E-02 0. -1.
    10030    2    1    2    0    0  0.00000000000E+00  0.00000000000E+00  0.10194007591E+04  0.14237574413E+04  0.99393528160E+03 0.  0.
        3    1    3    3  502    0 -0.14657670175E+03  0.24684294453E+03  0.10907870407E+04  0.11279328647E+04  0.10100000352E+00 0.  1.
       -3    1    3    3    0  502  0.14657670175E+03 -0.24684294453E+03 -0.71386281588E+02  0.29582457667E+03  0.10100000352E+00 0. -1.
</event>
<event>
 5   0  0.9243773E-03  0.1001651E+04  0.7818609E-02  0.9306736E-01
       -2   -1    0    0    0  501  0.00000000000E+00  0.00000000000E+00  0.73664550314E+03  0.73664550314E+03  0.25500000920E-02 0.  1.
        2   -1    0    0  501    0  0.00000000000E+00  0.00000000000E+00 -0.34049791827E+03  0.34049791828E+03  0.25500000920E-02 0. -1.
    10030    2    1    2    0    0  0.00000000000E+00  0.00000000000E+00  0.39614758487E+03  0.10771434214E+04  0.10016511575E+04 0.  0.
        3    1    3    3  502    0 -0.41744306817E+03 -0.22673082942E+03  0.27497723286E+02  0.47583791270E+03  0.10100000352E+00 0.  1.
       -3    1    3    3    0  502  0.41744306817E+03  0.22673082942E+03  0.36864986159E+03  0.60130550872E+03  0.10100000352E+00 0. -1.
</event>
<event>
 5   0  0.9243773E-03  0.1038120E+04  0.7818609E-02  0.9267696E-01
       -2   -1    0    0    0  501  0.00000000000E+00  0.00000000000E+00  0.30689572285E+03  0.30689572286E+03  0.25500000920E-02 0.  1.
        2   -1    0    0  501    0  0.00000000000E+00  0.00000000000E+00 -0.87789885466E+03  0.87789885466E+03  0.25500000920E-02 0. -1.
    10030    2    1    2    0    0  0.00000000000E+00  0.00000000000E+00 -0.57100313181E+03  0.11847945775E+04  0.10381202312E+04 0.  0.
        3    1    3    3  502    0  0.43592211338E+03 -0.27941494178E+03 -0.24399576451E+03  0.57239386957E+03  0.10100000352E+00 0.  1.
       -3    1    3    3    0  502 -0.43592211338E+03  0.27941494178E+03 -0.32700736730E+03  0.61240070795E+03  0.10100000352E+00 0. -1.
</event>
<event>
 5   0  0.5349685E-03  0.1276883E+04  0.7818609E-02  0.9048101E-01
       -1   -1    0    0    0  501  0.00000000000E+00  0.00000000000E+00  0.52478674317E+03  0.52478674319E+03  0.50400001928E-02 0.  1.
        1   -1    0    0  501    0  0.00000000000E+00  0.00000000000E+00 -0.77671023687E+03  0.77671023689E+03  0.50400001928E-02 0. -1.
    10030    2    1    2    0    0  0.00000000000E+00  0.00000000000E+00 -0.25192349370E+03  0.13014969801E+04  0.12768825093E+04 0.  0.
        4    1    3    3  502    0 -0.10791656845E+03  0.13802990124E+03  0.49980077554E+03  0.52962313725E+03  0.12699999809E+01 0.  1.
       -4    1    3    3    0  502  0.10791656845E+03 -0.13802990124E+03 -0.75172426924E+03  0.77187384283E+03  0.12699999809E+01 0. -1.
</event>
<event>
 5   0  0.5310275E-03  0.9973314E+03  0.7818609E-02  0.9311477E-01
        1   -1    0    0  501    0  0.00000000000E+00  0.00000000000E+00  0.54018688070E+03  0.54018688072E+03  0.50400001928E-02 0.  1.
       -1   -1    0    0    0  501  0.00000000000E+00  0.00000000000E+00 -0.46033600598E+03  0.46033600601E+03  0.50400001928E-02 0. -1.
    10030    2    1    2    0    0  0.00000000000E+00  0.00000000000E+00  0.79850874720E+02  0.10005228867E+04  0.99733138158E+03 0.  0.
        1    1    3    3  502    0 -0.36491683772E+03 -0.33059591079E+03 -0.39127212925E+02  0.49395231905E+03  0.50400001928E-02 0. -1.
       -1    1    3    3    0  502  0.36491683772E+03  0.33059591079E+03  0.11897808765E+03  0.50657056768E+03  0.50400001928E-02 0.  1.
</event>
<event>
 5   0  0.9040674E-03  0.1006718E+04  0.7818609E-02  0.9301207E-01
       -2   -1    0    0    0  501  0.00000000000E+00  0.00000000000E+00  0.18361687815E+03  0.18361687817E+03  0.25500000920E-02 0. -1.
        2   -1    0    0  501    0  0.00000000000E+00  0.00000000000E+00 -0.13798869392E+04  0.13798869392E+04  0.25500000920E-02 0.  1.
    10030    2    1    2    0    0  0.00000000000E+00  0.00000000000E+00 -0.11962700610E+04  0.15635038173E+04  0.10067184949E+04 0.  0.
        1    1    3    3  502    0  0.38855514763E+03  0.51975645314E+02 -0.10776341298E+03  0.40655814302E+03  0.50400001928E-02 0. -1.
       -1    1    3    3    0  502 -0.38855514763E+03 -0.51975645314E+02 -0.10885066480E+04  0.11569456743E+04  0.50400001928E-02 0.  1.
</event>
<event>
 5   0  0.5349685E-03  0.8846302E+03  0.7818609E-02  0.9445001E-01
        1   -1    0    0  501    0  0.00000000000E+00  0.00000000000E+00  0.57751848799E+03  0.57751848801E+03  0.50400001928E-02 0. -1.
       -1   -1    0    0    0  501  0.00000000000E+00  0.00000000000E+00 -0.33876431883E+03  0.33876431887E+03  0.50400001928E-02 0.  1.
    10030    2    1    2    0    0  0.00000000000E+00  0.00000000000E+00  0.23875416916E+03  0.91628280688E+03  0.88463022155E+03 0.  0.
        4    1    3    3  502    0  0.10176228361E+03  0.20857644070E+01 -0.32646736324E+03  0.34196851455E+03  0.12699999809E+01 0.  1.
       -4    1    3    3    0  502 -0.10176228361E+03 -0.20857644070E+01  0.56522153240E+03  0.57431429233E+03  0.12699999809E+01 0. -1.
</event>
<event>
 5   0  0.8907355E-03  0.9945206E+03  0.7818609E-02  0.9314575E-01
       -2   -1    0    0    0  501  0.00000000000E+00  0.00000000000E+00  0.16266747623E+03  0.16266747625E+03  0.25500000920E-02 0.  1.
        2   -1    0    0  501    0  0.00000000000E+00  0.00000000000E+00 -0.15200813022E+04  0.15200813022E+04  0.25500000920E-02 0. -1.
    10030    2    1    2    0    0  0.00000000000E+00  0.00000000000E+00 -0.13574138260E+04  0.16827487785E+04  0.99452056613E+03 0.  0.
        5    1    3    3  502    0 -0.32434689803E+03  0.17137420168E+03 -0.11074319484E+03  0.38321817867E+03  0.46999998093E+01 0.  1.
       -5    1    3    3    0  502  0.32434689803E+03 -0.17137420168E+03 -0.12466706311E+04  0.12995305998E+04  0.46999998093E+01 0. -1.
</event>
<event>
 5   0  0.5201968E-03  0.1039223E+04  0.7818609E-02  0.9266542E-01
        1   -1    0    0  501    0  0.00000000000E+00  0.00000000000E+00  0.64937416645E+03  0.64937416647E+03  0.50400001928E-02 0.  1.
       -1   -1    0    0    0  501  0.00000000000E+00  0.00000000000E+00 -0.41577896267E+03  0.41577896270E+03  0.50400001928E-02 0. -1.
    10030    2    1    2    0    0  0.00000000000E+00  0.00000000000E+00  0.23359520378E+03  0.10651531292E+04  0.10392230123E+04 0.  0.
        2    1    3    3  502    0  0.27770846020E+03  0.17585692385E+03 -0.29567178225E+03  0.44211927051E+03  0.25500000920E-02 0. -1.
       -2    1    3    3    0  502 -0.27770846020E+03 -0.17585692385E+03  0.52926698603E+03  0.62303385866E+03  0.25500000920E-02 0.  1.
</event>
<event>
 5   0  0.5072205E-03  0.1006378E+04  0.7818609E-02  0.9301577E-01
       -1   -1    0    0    0  501  0.00000000000E+00  0.00000000000E+00  0.12752872561E+04  0.12752872561E+04  0.50400001928E-02 0. -1.
        1   -1    0    0  501    0  0.00000000000E+00  0.00000000000E+00 -0.19854301491E+03  0.19854301498E+03  0.50400001928E-02 0.  1.
    10030    2    1    2    0    0  0.00000000000E+00  0.00000000000E+00  0.10767442412E+04  0.14738302711E+04  0.10063784115E+04 0.  0.
        5    1    3    3  502    0  0.41532336053E+03  0.21100198551E+03  0.25988051337E+03  0.53345599905E+03  0.46999998093E+01 0.  1.
       -5    1    3    3    0  502 -0.41532336053E+03 -0.21100198551E+03  0.81686372784E+03  0.94037427206E+03  0.46999998093E+01 0. -1.
</event>
<event>
 5   0  0.5310275E-03  0.1003589E+04  0.7818609E-02  0.9304617E-01
        1   -1    0    0  501    0  0.00000000000E+00  0.00000000000E+00  0.75604869049E+03  0.75604869051E+03  0.50400001928E-02 0. -1.
       -1   -1    0    0    0  501  0.00000000000E+00  0.00000000000E+00 -0.33304455649E+03  0.33304455653E+03  0.50400001928E-02 0.  1.
    10030    2    1    2    0    0  0.00000000000E+00  0.00000000000E+00  0.42300413400E+03  0.10890932470E+04  0.10035893599E+04 0.  0.
        1    1    3    3  502    0  0.84568348164E+02 -0.29102426750E+03 -0.22251065244E+03  0.37597595702E+03  0.50400001928E-02 0.  1.
       -1    1    3    3    0  502 -0.84568348164E+02  0.29102426750E+03  0.64551478644E+03  0.71311729002E+03  0.50400001928E-02 0. -1.
</event>
<event>
 5   0  0.8907355E-03  0.9734760E+03  0.7818609E-02  0.9338124E-01
        2   -1    0    0  501    0  0.00000000000E+00  0.00000000000E+00  0.87762288240E+03  0.87762288240E+03  0.25500000920E-02 0.  1.
       -2   -1    0    0    0  501  0.00000000000E+00  0.00000000000E+00 -0.26994954022E+03  0.26994954023E+03  0.25500000920E-02 0. -1.
    10030    2    1    2    0    0  0.00000000000E+00  0.00000000000E+00  0.60767334217E+03  0.11475724226E+04  0.97347602662E+03 0.  0.
        5    1    3    3  502    0  0.78313884313E+02 -0.36883131097E+03 -0.58974572769E+02  0.38166698922E+03  0.46999998093E+01 0. -1.
       -5    1    3    3    0  502 -0.78313884313E+02  0.36883131097E+03  0.66664791494E+03  0.76590543341E+03  0.46999998093E+01 0.  1.
</event>
<event>
 5   0  0.5201968E-03  0.9071054E+03  0.7818609E-02  0.9416743E-01
        1   -1    0    0  501    0  0.00000000000E+00  0.00000000000E+00  0.57012185451E+03  0.57012185453E+03  0.50400001928E-02 0. -1.
       -1   -1    0    0    0  501  0.00000000000E+00  0.00000000000E+00 -0.36081771368E+03  0.36081771371E+03  0.50400001928E-02 0.  1.
    10030    2    1    2    0    0  0.00000000000E+00  0.00000000000E+00  0.20930414083E+03  0.93093956825E+03  0.90710542737E+03 0.  0.
        2    1    3    3  502    0  0.80096499500E+01 -0.43354157618E+03  0.24114127958E+03  0.49615679930E+03  0.25500000920E-02 0.  1.
       -2    1    3    3    0  502 -0.80096499500E+01  0.43354157618E+03 -0.31837138747E+02  0.43478276895E+03  0.25500000920E-02 0. -1.
</event>
<event>
 5   0  0.5189877E-03  0.1002777E+04  0.7818609E-02  0.9305504E-01
        1   -1    0    0  501    0  0.00000000000E+00  0.00000000000E+00  0.10711074116E+04  0.10711074116E+04  0.50400001928E-02 0.  1.
       -1   -1    0    0    0  501  0.00000000000E+00  0.00000000000E+00 -0.23470140055E+03  0.23470140061E+03  0.50400001928E-02 0. -1.
    10030    2    1    2    0    0  0.00000000000E+00  0.00000000000E+00  0.83640601105E+03  0.13058088122E+04  0.10027769636E+04 0.  0.
        3    1    3    3  502    0 -0.42799786809E+03  0.19355697799E+03  0.18987726653E+03  0.50665556877E+03  0.10100000352E+00 0. -1.
       -3    1    3    3    0  502  0.42799786809E+03 -0.19355697799E+03  0.64652874451E+03  0.79915324344E+03  0.10100000352E+00 0.  1.
</event>
<event>
 5   0  0.9243773E-03  0.9750960E+03  0.7818609E-02  0.9336289E-01
        2   -1    0    0  501    0  0.00000000000E+00  0.00000000000E+00  0.50112272080E+03  0.50112272081E+03  0.25500000920E-02 0.  1.
       -2   -1    0    0    0  501  0.00000000000E+00  0.00000000000E+00 -0.47434101851E+03  0.47434101852E+03  0.25500000920E-02 0. -1.
    10030    2    1    2    0    0  0.00000000000E+00  0.00000000000E+00  0.26781702291E+02  0.97546373933E+03  0.97509601946E+03 0.  0.
        3    1    3    3  502    0 -0.73751734030E+02  0.48132063065E+03  0.37775929786E+02  0.48840137063E+03  0.10100000352E+00 0. -1.
       -3    1    3    3    0  502  0.73751734030E+02 -0.48132063065E+03 -0.10994227495E+02  0.48706236870E+03  0.10100000352E+00 0.  1.
</event>
<event>
 5   0  0.8907355E-03  0.1003481E+04  0.7818609E-02  0.9304735E-01
       -2   -1    0    0    0  501  0.00000000000E+00  0.00000000000E+00  0.20889413874E+03  0.20889413875E+03  0.25500000920E-02 0.  1.
        2   -1    0    0  501    0  0.00000000000E+00  0.00000000000E+00 -0.12051245121E+04  0.12051245121E+04  0.25500000920E-02 0. -1.
    10030    2    1    2    0    0  0.00000000000E+00  0.00000000000E+00 -0.99623037333E+03  0.14140186508E+04  0.10034808359E+04 0.  0.
        5    1    3    3  502    0 -0.18084595514E+03 -0.66936793461E+02 -0.11507882697E+04  0.11668425453E+04  0.46999998093E+01 0. -1.
       -5    1    3    3    0  502  0.18084595514E+03  0.66936793461E+02  0.15455789638E+03  0.24717610552E+03  0.46999998093E+01 0.  1.
</event>
<event>
 5   0  0.9040674E-03  0.9989068E+03  0.7818609E-02  0.9309745E-01
       -2   -1    0    0    0  501  0.00000000000E+00  0.00000000000E+00  0.13342621279E+03  0.13342621282E+03  0.25500000920E-02 0. -1.
        2   -1    0    0  501    0  0.00000000000E+00  0.00000000000E+00 -0.18696003428E+04  0.18696003428E+04  0.25500000920E-02 0.  1.
    10030    2    1    2    0    0  0.00000000000E+00  0.00000000000E+00 -0.17361741300E+04  0.20030265556E+04  0.99890678884E+03 0.  0.
        1    1    3    3  502    0  0.29841699922E+03 -0.33845321807E+03 -0.43871544110E+03  0.62934451974E+03  0.50400001928E-02 0. -1.
       -1    1    3    3    0  502 -0.29841699922E+03  0.33845321807E+03 -0.12974586889E+04  0.13736820358E+04  0.50400001928E-02 0.  1.
</event>
<event>
 5   0  0.5349685E-03  0.9748879E+03  0.7818609E-02  0.9336524E-01
       -1   -1    0    0    0  501  0.00000000000E+00  0.00000000000E+00  0.47847664312E+03  0.47847664315E+03  0.50400001928E-02 0. -1.
        1   -1    0    0  501    0  0.00000000000E+00  0.00000000000E+00 -0.49657930019E+03  0.49657930021E+03  0.50400001928E-02 0.  1.
    10030    2    1    2    0    0  0.00000000000E+00  0.00000000000E+00 -0.18102657066E+02  0.97505594336E+03  0.97488788407E+03 0.  0.
        4    1    3    3  502    0  0.37942365815E+03 -0.60938243994E+02 -0.30897666628E+03  0.49309631427E+03  0.12699999809E+01 0.  1.
       -4    1    3    3    0  502 -0.37942365815E+03  0.60938243994E+02  0.29087400921E+03  0.48195962910E+03  0.12699999809E+01 0. -1.
</event>
<event>
 5   0  0.5189877E-03  0.1014146E+04  0.7818609E-02  0.9293165E-01
       -1   -1    0    0    0  501  0.00000000000E+00  0.00000000000E+00  0.97183115715E+03  0.97183115716E+03  0.50400001928E-02 0.  1.
        1   -1    0    0  501    0  0.00000000000E+00  0.00000000000E+00 -0.26457571510E+03  0.26457571515E+03  0.50400001928E-02 0. -1.
    10030    2    1    2    0    0  0.00000000000E+00  0.00000000000E+00  0.70725544205E+03  0.12364068723E+04  0.10141457950E+04 0.  0.
        3    1    3    3  502    0  0.19876339659E+03 -0.37608098343E+02  0.92050692407E+03  0.94247242100E+03  0.10100000352E+00 0.  1.
       -3    1    3    3    0  502 -0.19876339659E+03  0.37608098343E+02 -0.21325148202E+03  0.29393445132E+03  0.10100000352E+00 0. -1.
</event>
<event>
 5   0  0.5310275E-03  0.9999751E+03  0.7818609E-02  0.9308572E-01
        1   -1    0    0  501    0  0.00000000000E+00  0.00000000000E+00  0.15460476164E+04  0.15460476164E+04  0.50400001928E-02 0. -1.
       -1   -1    0    0    0  501  0.00000000000E+00  0.00000000000E+00 -0.16169459097E+03  0.16169459105E+03  0.50400001928E-02 0.  1.
    10030    2    1    2    0    0  0.00000000000E+00  0.00000000000E+00  0.13843530255E+04  0.17077422075E+04  0.99997507374E+03 0.  0.
        1    1    3    3  502    0 -0.28657354026E+03  0.40157008203E+03  0.55338695225E+03  0.74136363797E+03  0.50400001928E-02 0.  1.
       -1    1    3    3    0  502  0.28657354026E+03 -0.40157008203E+03  0.83096607320E+03  0.96637856951E+03  0.50400001928E-02 0. -1.
</event>
<event>
 5   0  0.8968798E-03  0.1013904E+04  0.7818609E-02  0.9293425E-01
       -2   -1    0    0    0  501  0.00000000000E+00  0.00000000000E+00  0.11068209920E+03  0.11068209923E+03  0.25500000920E-02 0. -1.
        2   -1    0    0  501    0  0.00000000000E+00  0.00000000000E+00 -0.23219700483E+04  0.23219700483E+04  0.25500000920E-02 0.  1.
    10030    2    1    2    0    0  0.00000000000E+00  0.00000000000E+00 -0.22112879491E+04  0.24326521475E+04  0.10139043727E+04 0.  0.
        2    1    3    3  502    0 -0.40682217377E+03 -0.22606871855E+02 -0.18293602104E+04  0.18741862584E+04  0.25500000920E-02 0.  1.
       -2    1    3    3    0  502  0.40682217377E+03  0.22606871855E+02 -0.38192773867E+03  0.55846588912E+03  0.25500000920E-02 0. -1.
</event>
<event>
 5   0  0.5310275E-03  0.8071225E+03  0.7818609E-02  0.9549764E-01
        1   -1    0    0  501    0  0.00000000000E+00  0.00000000000E+00  0.74090332193E+03  0.74090332195E+03  0.50400001928E-02 0. -1.
       -1   -1    0    0    0  501  0.00000000000E+00  0.00000000000E+00 -0.21981502082E+03  0.21981502088E+03  0.50400001928E-02 0.  1.
    10030    2    1    2    0    0  0.00000000000E+00  0.00000000000E+00  0.52108830111E+03  0.96071834283E+03  0.80712249175E+03 0.  0.
        1    1    3    3  502    0  0.42316476341E+02  0.29284669535E+03 -0.66109991706E+02  0.30318377624E+03  0.50400001928E-02 0.  1.
       -1    1    3    3    0  502 -0.42316476341E+02 -0.29284669535E+03  0.58719829281E+03  0.65753456659E+03  0.50400001928E-02 0. -1.
</event>
<event>
 5   0  0.3513625E-03  0.9610841E+03  0.7818609E-02  0.9352288E-01
       -4   -1    0    0    0  501  0.00000000000E+00  0.00000000000E+00  0.24407508422E+03  0.24407838830E+03  0.12699999809E+01 0.  1.
        4   -1    0    0  501    0  0.00000000000E+00  0.00000000000E+00 -0.94609494159E+03  0.94609579399E+03  0.12699999809E+01 0. -1.
    10030    2    1    2    0    0  0.00000000000E+00  0.00000000000E+00 -0.70201985738E+03  0.11901741823E+04  0.96108412954E+03 0.  0.
        4    1    3    3  502    0  0.27495169261E+03 -0.23023638554E+03 -0.74711651139E+03  0.82872909988E+03  0.12699999809E+01 0. -1.
       -4    1    3    3    0  502 -0.27495169261E+03  0.23023638554E+03  0.45096654011E+02  0.36144508241E+03  0.12699999809E+01 0.  1.
</event>
<event>
 5   0  0.5349685E-03  0.1280264E+04  0.7818609E-02  0.9045364E-01
       -1   -1    0    0    0  501  0.00000000000E+00  0.00000000000E+00  0.52570212928E+03  0.52570212930E+03  0.50400001928E-02 0.  1.
        1   -1    0    0  501    0  0.00000000000E+00  0.00000000000E+00 -0.77946938924E+03  0.77946938926E+03  0.50400001928E-02 0. -1.
    10030    2    1    2    0    0  0.00000000000E+00  0.00000000000E+00 -0.25376725996E+03  0.13051715186E+04  0.12802635942E+04 0.  0.
        4    1    3    3  502    0 -0.41142198690E+03 -0.16784646258E+03 -0.59663755080E+03  0.74392100806E+03  0.12699999809E+01 0. -1.
       -4    1    3    3    0  502  0.41142198690E+03  0.16784646258E+03  0.34287029083E+03  0.56125051050E+03  0.12699999809E+01 0.  1.
</event>
<event>
 5   0  0.9040674E-03  0.1004665E+04  0.7818609E-02  0.9303443E-01
       -2   -1    0    0    0  501  0.00000000000E+00  0.00000000000E+00  0.42313611547E+03  0.42313611548E+03  0.25500000920E-02 0. -1.
        2   -1    0    0  501    0  0.00000000000E+00  0.00000000000E+00 -0.59635197285E+03  0.59635197286E+03  0.25500000920E-02 0.  1.
    10030    2    1    2    0    0  0.00000000000E+00  0.00000000000E+00 -0.17321585738E+03  0.10194880883E+04  0.10046652323E+04 0.  0.
        1    1    3    3  502    0 -0.25729142545E+03  0.70087239443E+02  0.34538056928E+03  0.43634715125E+03  0.50400001928E-02 0. -1.
       -1    1    3    3    0  502  0.25729142545E+03 -0.70087239443E+02 -0.51859642666E+03  0.58314093709E+03  0.50400001928E-02 0.  1.
</event>
<event>
 5   0  0.9243773E-03  0.9342328E+03  0.7818609E-02  0.9383772E-01
       -2   -1    0    0    0  501  0.00000000000E+00  0.00000000000E+00  0.10747318642E+03  0.10747318645E+03  0.25500000920E-02 0. -1.
        2   -1    0    0  501    0  0.00000000000E+00  0.00000000000E+00 -0.20302525320E+04  0.20302525320E+04  0.25500000920E-02 0.  1.
    10030    2    1    2    0    0  0.00000000000E+00  0.00000000000E+00 -0.19227793456E+04  0.21377257185E+04  0.93423275235E+03 0.  0.
        3    1    3    3  502    0 -0.36174718766E+03  0.29541161160E+03 -0.98034883738E+03  0.10859156971E+04  0.10100000352E+00 0.  1.
       -3    1    3    3    0  502  0.36174718766E+03 -0.29541161160E+03 -0.94243050824E+03  0.10518100214E+04  0.10100000352E+00 0. -1.
</event>
<event>
 5   0  0.5201968E-03  0.9778197E+03  0.7818609E-02  0.9333212E-01
        1   -1    0    0  501    0  0.00000000000E+00  0.00000000000E+00  0.30524967687E+03  0.30524967691E+03  0.50400001928E-02 0.  1.
       -1   -1    0    0    0  501  0.00000000000E+00  0.00000000000E+00 -0.78307318121E+03  0.78307318122E+03  0.50400001928E-02 0. -1.
    10030    2    1    2    0    0  0.00000000000E+00  0.00000000000E+00 -0.47782350434E+03  0.10883228581E+04  0.97781968800E+03 0.  0.
        2    1    3    3  502    0 -0.20927452294E+03  0.32112341142E+03  0.98894987896E+02  0.39584882209E+03  0.25500000920E-02 0.  1.
       -2    1    3    3    0  502  0.20927452294E+03 -0.32112341142E+03 -0.57671849223E+03  0.69247403605E+03  0.25500000920E-02 0. -1.
</event>
<event>
 5   0  0.3513625E-03  0.1012288E+04  0.7818609E-02  0.9295169E-01
       -3   -1    0    0    0  501  0.00000000000E+00  0.00000000000E+00  0.21254565095E+03  0.21254567494E+03  0.10100000352E+00 0. -1.
        3   -1    0    0  501    0  0.00000000000E+00  0.00000000000E+00 -0.12053028333E+04  0.12053028376E+04  0.10100000352E+00 0.  1.
    10030    2    1    2    0    0  0.00000000000E+00  0.00000000000E+00 -0.99275718238E+03  0.14178485125E+04  0.10122882896E+04 0.  0.
        2    1    3    3  502    0  0.87884359337E+02 -0.45229350858E+03 -0.20294991424E+03  0.50346970735E+03  0.25500000920E-02 0. -1.
       -2    1    3    3    0  502 -0.87884359337E+02  0.45229350858E+03 -0.78980726814E+03  0.91437880516E+03  0.25500000920E-02 0.  1.
</event>
<event>
 5   0  0.5072205E-03  0.1008990E+04  0.7818609E-02  0.9298739E-01
        1   -1    0    0  501    0  0.00000000000E+00  0.00000000000E+00  0.68656641756E+03  0.68656641758E+03  0.50400001928E-02 0.  1.
       -1   -1    0    0    0  501  0.00000000000E+00  0.00000000000E+00 -0.37070731761E+03  0.37070731764E+03  0.50400001928E-02 0. -1.
    10030    2    1    2    0    0  0.00000000000E+00  0.00000000000E+00  0.31585909995E+03  0.10572737352E+04  0.10089899802E+04 0.  0.
        5    1    3    3  502    0  0.19076715853E+03  0.26938883982E+03  0.55766974824E+03  0.64805871177E+03  0.46999998093E+01 0.  1.
       -5    1    3    3    0  502 -0.19076715853E+03 -0.26938883982E+03 -0.24181064829E+03  0.40921502345E+03  0.46999998093E+01 0. -1.
</event>
<event>
 5   0  0.8907355E-03  0.9962543E+03  0.7818609E-02  0.9312663E-01
       -2   -1    0    0    0  501  0.00000000000E+00  0.00000000000E+00  0.76235328426E+03  0.76235328427E+03  0.25500000920E-02 0.  1.
        2   -1    0    0  501    0  0.00000000000E+00  0.00000000000E+00 -0.32547990897E+03  0.32547990898E+03  0.25500000920E-02 0. -1.
    10030    2    1    2    0    0  0.00000000000E+00  0.00000000000E+00  0.43687337529E+03  0.10878331932E+04  0.99625434017E+03 0.  0.
        5    1    3    3  502    0 -0.44413081568E+02  0.47497635741E+03  0.61969296064E+02  0.48107935475E+03  0.46999998093E+01 0. -1.
       -5    1    3    3    0  502  0.44413081568E+02 -0.47497635741E+03  0.37490407922E+03  0.60675383850E+03  0.46999998093E+01 0.  1.
</event>
<event>
 5   0  0.9040674E-03  0.1008345E+04  0.7818609E-02  0.9299439E-01
        2   -1    0    0  501    0  0.00000000000E+00  0.00000000000E+00  0.62091397054E+03  0.62091397054E+03  0.25500000920E-02 0. -1.
       -2   -1    0    0    0  501  0.00000000000E+00  0.00000000000E+00 -0.40938030585E+03  0.40938030585E+03  0.25500000920E-02 0.  1.
    10030    2    1    2    0    0  0.00000000000E+00  0.00000000000E+00  0.21153366469E+03  0.10302942764E+04  0.10083450821E+04 0.  0.
        1    1    3    3  502    0 -0.42549218159E+03  0.16745106054E+03 -0.11123912300E+03  0.47059281421E+03  0.50400001928E-02 0.  1.
       -1    1    3    3    0  502  0.42549218159E+03 -0.16745106054E+03  0.32277278769E+03  0.55970146219E+03  0.50400001928E-02 0. -1.
</event>
<event>
 5   0  0.5072205E-03  0.9977962E+03  0.7818609E-02  0.9310965E-01
       -1   -1    0    0    0  501  0.00000000000E+00  0.00000000000E+00  0.40648824961E+03  0.40648824964E+03  0.50400001928E-02 0. -1.
        1   -1    0    0  501    0  0.00000000000E+00  0.00000000000E+00 -0.61231612301E+03  0.61231612303E+03  0.50400001928E-02 0.  1.
    10030    2    1    2    0    0  0.00000000000E+00  0.00000000000E+00 -0.20582787340E+03  0.10188043727E+04  0.99779618977E+03 0.  0.
        5    1    3    3  502    0  0.14339514152E+03 -0.40761922481E+03  0.15165776244E+03  0.45797135932E+03  0.46999998093E+01 0. -1.
       -5    1    3    3    0  502 -0.14339514152E+03  0.40761922481E+03 -0.35748563583E+03  0.56083301336E+03  0.46999998093E+01 0.  1.
</event>
<event>
 5   0  0.5201968E-03  0.9814472E+03  0.7818609E-02  0.9329130E-01
       -1   -1    0    0    0  501  0.00000000000E+00  0.00000000000E+00  0.23534127795E+03  0.23534127801E+03  0.50400001928E-02 0. -1.
        1   -1    0    0  501    0  0.00000000000E+00  0.00000000000E+00 -0.10232359682E+04  0.10232359682E+04  0.50400001928E-02 0.  1.
    10030    2    1    2    0    0  0.00000000000E+00  0.00000000000E+00 -0.78789469025E+03  0.12585772462E+04  0.98144721803E+03 0.  0.
        2    1    3    3  502    0 -0.41734327251E+03 -0.64180851394E+02 -0.71457818612E+03  0.83000998361E+03  0.25500000920E-02 0.  1.
       -2    1    3    3    0  502  0.41734327251E+03  0.64180851394E+02 -0.73316504126E+02  0.42856726261E+03  0.25500000920E-02 0. -1.
</event>
<event>
 5   0  0.8875655E-03  0.1002436E+04  0.7818609E-02  0.9305877E-01
        2   -1    0    0  501    0  0.00000000000E+00  0.00000000000E+00  0.13650768015E+04  0.13650768015E+04  0.25500000920E-02 0.  1.
       -2   -1    0    0    0  501  0.00000000000E+00  0.00000000000E+00 -0.18403330886E+03  0.18403330888E+03  0.25500000920E-02 0. -1.
    10030    2    1    2    0    0  0.00000000000E+00  0.00000000000E+00  0.11810434926E+04  0.15491101104E+04  0.10024362337E+04 0.  0.
        4    1    3    3  502    0 -0.84730275678E+02 -0.83842080199E+02  0.13428514377E+04  0.13481321563E+04  0.12699999809E+01 0.  1.
       -4    1    3    3    0  502  0.84730275678E+02  0.83842080199E+02 -0.16180794511E+03  0.20097795409E+03  0.12699999809E+01 0. -1.
</event>
<event>
 5   0  0.9040674E-03  0.9885001E+03  0.7818609E-02  0.9321248E-01
        2   -1    0    0  501    0  0.00000000000E+00  0.00000000000E+00  0.12216085157E+04  0.12216085157E+04  0.25500000920E-02 0. -1.
       -2   -1    0    0    0  501  0.00000000000E+00  0.00000000000E+00 -0.19996841711E+03  0.19996841712E+03  0.25500000920E-02 0.  1.
    10030    2    1    2    0    0  0.00000000000E+00  0.00000000000E+00  0.10216400986E+04  0.14215769329E+04  0.98850011883E+03 0.  0.
        1    1    3    3  502    0  0.40550447570E+03  0.22200030930E+03  0.76224396238E+03  0.89147847722E+03  0.50400001928E-02 0. -1.
       -1    1    3    3    0  502 -0.40550447570E+03 -0.22200030930E+03  0.25939613624E+03  0.53009845563E+03  0.50400001928E-02 0.  1.
</event>
<event>
 5   0  0.8907355E-03  0.9946370E+03  0.7818609E-02  0.9314447E-01
        2   -1    0    0  501    0  0.00000000000E+00  0.00000000000E+00  0.19469620987E+03  0.19469620989E+03  0.25500000920E-02 0. -1.
       -2   -1    0    0    0  501  0.00000000000E+00  0.00000000000E+00 -0.12703157905E+04  0.12703157905E+04  0.25500000920E-02 0.  1.
    10030    2    1    2    0    0  0.00000000000E+00  0.00000000000E+00 -0.10756195806E+04  0.14650120004E+04  0.99463695842E+03 0.  0.
        5    1    3    3  502    0 -0.41041843874E+03  0.19959779123E+03 -0.24685479085E+03  0.51888529646E+03  0.46999998093E+01 0. -1.
       -5    1    3    3    0  502  0.41041843874E+03 -0.19959779123E+03 -0.82876478974E+03  0.94612670390E+03  0.46999998093E+01 0.  1.
</event>
<event>
 5   0  0.8907355E-03  0.1008514E+04  0.7818609E-02  0.9299255E-01
       -2   -1    0    0    0  501  0.00000000000E+00  0.00000000000E+00  0.13792012588E+03  0.13792012591E+03  0.25500000920E-02 0. -1.
        2   -1    0    0  501    0  0.00000000000E+00  0.00000000000E+00 -0.18436421032E+04  0.18436421032E+04  0.25500000920E-02 0.  1.
    10030    2    1    2    0    0  0.00000000000E+00  0.00000000000E+00 -0.17057219773E+04  0.19815622291E+04  0.10085144540E+04 0.  0.
        5    1    3    3  502    0 -0.33593349070E+02  0.21623986040E+02 -0.18404844223E+04  0.18409239823E+04  0.46999998093E+01 0.  1.
       -5    1    3    3    0  502  0.33593349070E+02 -0.21623986040E+02  0.13476244501E+03  0.14063824678E+03  0.46999998093E+01 0. -1.
</event>
<event>
 5   0  0.8907355E-03  0.1006362E+04  0.7818609E-02  0.9301595E-01
        2   -1    0    0  501    0  0.00000000000E+00  0.00000000000E+00  0.10196279880E+04  0.10196279880E+04  0.25500000920E-02 0. -1.
       -2   -1    0    0    0  501  0.00000000000E+00  0.00000000000E+00 -0.24831704316E+03  0.24831704317E+03  0.25500000920E-02 0.  1.
    10030    2    1    2    0    0  0.00000000000E+00  0.00000000000E+00  0.77131094486E+03  0.12679450312E+04  0.10063617781E+04 0.  0.
        5    1    3    3  502    0  0.49121300641E+03  0.10844644763E+03  0.39934572244E+03  0.64230051043E+03  0.46999998093E+01 0. -1.
       -5    1    3    3    0  502 -0.49121300641E+03 -0.10844644763E+03  0.37196522242E+03  0.62564452076E+03  0.46999998093E+01 0.  1.
</event>
<event>
 5   0  0.5072205E-03  0.1042998E+04  0.7818609E-02  0.9262603E-01
       -1   -1    0    0    0  501  0.00000000000E+00  0.00000000000E+00  0.62592521498E+03  0.62592521500E+03  0.50400001928E-02 0.  1.
        1   -1    0    0  501    0  0.00000000000E+00  0.00000000000E+00 -0.43449503490E+03  0.43449503493E+03  0.50400001928E-02 0. -1.
    10030    2    1    2    0    0  0.00000000000E+00  0.00000000000E+00  0.19143018008E+03  0.10604202499E+04  0.10429983665E+04 0.  0.
        5    1    3    3  502    0 -0.17522678659E+03 -0.29426961383E+02 -0.40274862984E+03  0.44022598927E+03  0.46999998093E+01 0. -1.
       -5    1    3    3    0  502  0.17522678659E+03  0.29426961383E+02  0.59417880992E+03  0.62019426066E+03  0.46999998093E+01 0.  1.
</event>
<event>
 5   0  0.9040674E-03  0.1000973E+04  0.7818609E-02  0.9307478E-01
       -2   -1    0    0    0  501  0.00000000000E+00  0.00000000000E+00  0.12107336117E+03  0.12107336120E+03  0.25500000920E-02 0. -1.
        2   -1    0    0  501    0  0.00000000000E+00  0.00000000000E+00 -0.20688840825E+04  0.20688840825E+04  0.25500000920E-02 0.  1.
    10030    2    1    2    0    0  0.00000000000E+00  0.00000000000E+00 -0.19478107214E+04  0.21899574437E+04  0.10009730262E+04 0.  0.
        1    1    3    3  502    0 -0.37536211306E+03 -0.15422502227E+03 -0.16147736455E+04  0.16649852851E+04  0.50400001928E-02 0.  1.
       -1    1    3    3    0  502  0.37536211306E+03  0.15422502227E+03 -0.33303707589E+03  0.52497215865E+03  0.50400001928E-02 0. -1.
</event>
<event>
 5   0  0.5201968E-03  0.9943716E+03  0.7818609E-02  0.9314740E-01
        1   -1    0    0  501    0  0.00000000000E+00  0.00000000000E+00  0.81422403419E+03  0.81422403421E+03  0.50400001928E-02 0.  1.
       -1   -1    0    0    0  501  0.00000000000E+00  0.00000000000E+00 -0.30359422686E+03  0.30359422690E+03  0.50400001928E-02 0. -1.
    10030    2    1    2    0    0  0.00000000000E+00  0.00000000000E+00  0.51062980733E+03  0.11178182611E+04  0.99437159288E+03 0.  0.
        2    1    3    3  502    0 -0.36563199853E+03 -0.24726532888E+03 -0.19322459242E+01  0.44139623333E+03  0.25500000920E-02 0. -1.
       -2    1    3    3    0  502  0.36563199853E+03  0.24726532888E+03  0.51256205326E+03  0.67642202778E+03  0.25500000920E-02 0.  1.
</event>
<event>
 5   0  0.5201968E-03  0.9905651E+03  0.7818609E-02  0.9318954E-01
        1   -1    0    0  501    0  0.00000000000E+00  0.00000000000E+00  0.91865046749E+03  0.91865046751E+03  0.50400001928E-02 0. -1.
       -1   -1    0    0    0  501  0.00000000000E+00  0.00000000000E+00 -0.26702736413E+03  0.26702736418E+03  0.50400001928E-02 0.  1.
    10030    2    1    2    0    0  0.00000000000E+00  0.00000000000E+00  0.65162310336E+03  0.11856778317E+04  0.99056511736E+03 0.  0.
        2    1    3    3  502    0  0.11145250331E+03 -0.48043749944E+03  0.27144531917E+03  0.56296040062E+03  0.25500000920E-02 0. -1.
       -2    1    3    3    0  502 -0.11145250331E+03  0.48043749944E+03  0.38017778419E+03  0.62271743107E+03  0.25500000920E-02 0.  1.
</event>
<event>
 5   0  0.5189877E-03  0.1004023E+04  0.7818609E-02  0.9304143E-01
        1   -1    0    0  501    0  0.00000000000E+00  0.00000000000E+00  0.46872310385E+03  0.46872310388E+03  0.50400001928E-02 0. -1.
       -1   -1    0    0    0  501  0.00000000000E+00  0.00000000000E+00 -0.53766436033E+03  0.53766436035E+03  0.50400001928E-02 0.  1.
    10030    2    1    2    0    0  0.00000000000E+00  0.00000000000E+00 -0.68941256474E+02  0.10063874642E+04  0.10040233221E+04 0.  0.
        3    1    3    3  502    0 -0.31517830386E+03 -0.24622606905E+03 -0.33858420432E+03  0.52402663474E+03  0.10100000352E+00 0.  1.
       -3    1    3    3    0  502  0.31517830386E+03  0.24622606905E+03  0.26964294784E+03  0.48236082949E+03  0.10100000352E+00 0. -1.
</event>
<event>
 5   0  0.9040674E-03  0.1005663E+04  0.7818609E-02  0.9302356E-01
       -2   -1    0    0    0  501  0.00000000000E+00  0.00000000000E+00  0.14492719092E+03  0.14492719095E+03  0.25500000920E-02 0. -1.
        2   -1    0    0  501    0  0.00000000000E+00  0.00000000000E+00 -0.17445960969E+04  0.17445960969E+04  0.25500000920E-02 0.  1.
    10030    2    1    2    0    0  0.00000000000E+00  0.00000000000E+00 -0.15996689060E+04  0.18895232878E+04  0.10056627897E+04 0.  0.
        1    1    3    3  502    0  0.21366529476E+03  0.45483637469E+03 -0.83293831723E+03  0.97278734895E+03  0.50400001928E-02 0. -1.
       -1    1    3    3    0  502 -0.21366529476E+03 -0.45483637469E+03 -0.76673058873E+03  0.91673593889E+03  0.50400001928E-02 0.  1.
</event>
<event>
 5   0  0.5349685E-03  0.1005150E+04  0.7818609E-02  0.9302915E-01
       -1   -1    0    0    0  501  0.00000000000E+00  0.00000000000E+00  0.14454885514E+03  0.14454885522E+03  0.50400001928E-02 0. -1.
        1   -1    0    0  501    0  0.00000000000E+00  0.00000000000E+00 -0.17473783743E+04  0.17473783743E+04  0.50400001928E-02 0.  1.
    10030    2    1    2    0    0  0.00000000000E+00  0.00000000000E+00 -0.16028295191E+04  0.18919272295E+04  0.10051498268E+04 0.  0.
        4    1    3    3  502    0  0.36605050479E+03 -0.33171342919E+03 -0.62733955609E+03  0.79848813560E+03  0.12699999809E+01 0.  1.
       -4    1    3    3    0  502 -0.36605050479E+03  0.33171342919E+03 -0.97548996303E+03  0.10934390939E+04  0.12699999809E+01 0. -1.
</event>
<event>
 5   0  0.5349685E-03  0.9916793E+03  0.7818609E-02  0.9317718E-01
       -1   -1    0    0    0  501  0.00000000000E+00  0.00000000000E+00  0.23843816870E+03  0.23843816875E+03  0.50400001928E-02 0.  1.
        1   -1    0    0  501    0  0.00000000000E+00  0.00000000000E+00 -0.10311141998E+04  0.10311141999E+04  0.50400001928E-02 0. -1.
    10030    2    1    2    0    0  0.00000000000E+00  0.00000000000E+00 -0.79267603115E+03  0.12695523686E+04  0.99167934650E+03 0.  0.
        4    1    3    3  502    0 -0.65152390075E+02 -0.10555197765E+03 -0.10109286063E+04  0.10185108315E+04  0.12699999809E+01 0. -1.
       -4    1    3    3    0  502  0.65152390075E+02  0.10555197765E+03  0.21825257513E+03  0.25104153714E+03  0.12699999809E+01 0.  1.
</event>
<event>
 5   0  0.5072205E-03  0.9556390E+03  0.7818609E-02  0.9358584E-01
       -1   -1    0    0    0  501  0.00000000000E+00  0.00000000000E+00  0.92046955943E+02  0.92046956081E+02  0.50400001928E-02 0.  1.
        1   -1    0    0  501    0  0.00000000000E+00  0.00000000000E+00 -0.24803804665E+04  0.24803804665E+04  0.50400001928E-02 0. -1.
    10030    2    1    2    0    0  0.00000000000E+00  0.00000000000E+00 -0.23883335105E+04  0.25724274226E+04  0.95563899398E+03 0.  0.
        5    1    3    3  502    0  0.32346744365E+03 -0.25355279554E+03 -0.53827862232E+03  0.67726373923E+03  0.46999998093E+01 0.  1.
       -5    1    3    3    0  502 -0.32346744365E+03  0.25355279554E+03 -0.18500548882E+04  0.18951636833E+04  0.46999998093E+01 0. -1.
</event>
<event>
 5   0  0.8968798E-03  0.9872785E+03  0.7818609E-02  0.9322609E-01
       -2   -1    0    0    0  501  0.00000000000E+00  0.00000000000E+00  0.32990926919E+03  0.32990926920E+03  0.25500000920E-02 0.  1.
        2   -1    0    0  501    0  0.00000000000E+00  0.00000000000E+00 -0.73862642670E+03  0.73862642671E+03  0.25500000920E-02 0. -1.
    10030    2    1    2    0    0  0.00000000000E+00  0.00000000000E+00 -0.40871715752E+03  0.10685356959E+04  0.98727849089E+03 0.  0.
        2    1    3    3  502    0  0.34424671666E+02 -0.26128394796E+03 -0.65611571978E+03  0.70706590727E+03  0.25500000920E-02 0. -1.
       -2    1    3    3    0  502 -0.34424671666E+02  0.26128394796E+03  0.24739856226E+03  0.36146978864E+03  0.25500000920E-02 0.  1.
</event>
<event>
 5   0  0.8875655E-03  0.1000022E+04  0.7818609E-02  0.9308520E-01
        2   -1    0    0  501    0  0.00000000000E+00  0.00000000000E+00  0.16461496571E+04  0.16461496571E+04  0.25500000920E-02 0.  1.
       -2   -1    0    0    0  501  0.00000000000E+00  0.00000000000E+00 -0.15187632662E+03  0.15187632664E+03  0.25500000920E-02 0. -1.
    10030    2    1    2    0    0  0.00000000000E+00  0.00000000000E+00  0.14942733305E+04  0.17980259838E+04  0.10000223258E+04 0.  0.
        4    1    3    3  502    0 -0.30673847810E+03  0.25385508558E+03  0.12909453576E+04  0.13509524150E+04  0.12699999809E+01 0.  1.
       -4    1    3    3    0  502  0.30673847810E+03 -0.25385508558E+03  0.20332797294E+03  0.44707356878E+03  0.12699999809E+01 0. -1.
</event>
<event>
 5   0  0.8907355E-03  0.9806723E+03  0.7818609E-02  0.9330001E-01
       -2   -1    0    0    0  501  0.00000000000E+00  0.00000000000E+00  0.95715778576E+02  0.95715778610E+02  0.25500000920E-02 0. -1.
        2   -1    0    0  501    0  0.00000000000E+00  0.00000000000E+00 -0.25119111074E+04  0.25119111074E+04  0.25500000920E-02 0.  1.
    10030    2    1    2    0    0  0.00000000000E+00  0.00000000000E+00 -0.24161953288E+04  0.26076268860E+04  0.98067227431E+03 0.  0.
        5    1    3    3  502    0  0.11358920094E+02 -0.41347873567E+02 -0.25068559911E+04  0.25072270981E+04  0.46999998093E+01 0.  1.
       -5    1    3    3    0  502 -0.11358920094E+02  0.41347873567E+02  0.90660662278E+02  0.10039978783E+03  0.46999998093E+01 0. -1.
</event>
<event>
 5   0  0.9243773E-03  0.1010274E+04  0.7818609E-02  0.9297348E-01
        2   -1    0    0  501    0  0.00000000000E+00  0.00000000000E+00  0.63650462250E+03  0.63650462251E+03  0.25500000920E-02 0.  1.
       -2   -1    0    0    0  501  0.00000000000E+00  0.00000000000E+00 -0.40088225056E+03  0.40088225057E+03  0.25500000920E-02 0. -1.
    10030    2    1    2    0    0  0.00000000000E+00  0.00000000000E+00  0.23562237195E+03  0.10373868731E+04  0.10102740333E+04 0.  0.
        3    1    3    3  502    0  0.10973620081E+02 -0.18657744377E+03 -0.36407181228E+03  0.40924302995E+03  0.10100000352E+00 0. -1.
       -3    1    3    3    0  502 -0.10973620081E+02  0.18657744377E+03  0.59969418423E+03  0.62814384313E+03  0.10100000352E+00 0.  1.
</event>
<event>
 5   0  0.8907355E-03  0.9973520E+03  0.7818609E-02  0.9311454E-01
       -2   -1    0    0    0  501  0.00000000000E+00  0.00000000000E+00  0.37278332927E+03  0.37278332928E+03  0.25500000920E-02 0. -1.
        2   -1    0    0  501    0  0.00000000000E+00  0.00000000000E+00 -0.66708384954E+03  0.66708384955E+03  0.25500000920E-02 0.  1.
    10030    2    1    2    0    0  0.00000000000E+00  0.00000000000E+00 -0.29430052027E+03  0.10398671788E+04  0.99735197066E+03 0.  0.
        5    1    3    3  502    0  0.49736721978E+03 -0.30112322768E+02 -0.12696671854E+03  0.51422129566E+03  0.46999998093E+01 0.  1.
       -5    1    3    3    0  502 -0.49736721978E+03  0.30112322768E+02 -0.16733380173E+03  0.52564588317E+03  0.46999998093E+01 0. -1.
</event>
<event>
 5   0  0.8968798E-03  0.9774434E+03  0.7818609E-02  0.9333636E-01
       -2   -1    0    0    0  501  0.00000000000E+00  0.00000000000E+00  0.21271873048E+03  0.21271873049E+03  0.25500000920E-02 0.  1.
        2   -1    0    0  501    0  0.00000000000E+00  0.00000000000E+00 -0.11228391097E+04  0.11228391097E+04  0.25500000920E-02 0. -1.
    10030    2    1    2    0    0  0.00000000000E+00  0.00000000000E+00 -0.91012037922E+03  0.13355578402E+04  0.97744342027E+03 0.  0.
        2    1    3    3  502    0 -0.12509850581E+03 -0.13309463816E+03  0.16432559294E+03  0.24569639672E+03  0.25500000920E-02 0.  1.
       -2    1    3    3    0  502  0.12509850581E+03  0.13309463816E+03 -0.10744459722E+04  0.10898614435E+04  0.25500000920E-02 0. -1.
</event>
<event>
 5   0  0.5310275E-03  0.1002588E+04  0.7818609E-02  0.9305710E-01
       -1   -1    0    0    0  501  0.00000000000E+00  0.00000000000E+00  0.31887307396E+03  0.31887307400E+03  0.50400001928E-02 0.  1.
        1   -1    0    0  501    0  0.00000000000E+00  0.00000000000E+00 -0.78807503032E+03  0.78807503034E+03  0.50400001928E-02 0. -1.
    10030    2    1    2    0    0  0.00000000000E+00  0.00000000000E+00 -0.46920195636E+03  0.11069481043E+04  0.10025884649E+04 0.  0.
        1    1    3    3  502    0  0.21531074408E+03  0.17705728584E+03  0.22540586509E+03  0.35849100829E+03  0.50400001928E-02 0.  1.
       -1    1    3    3    0  502 -0.21531074408E+03 -0.17705728584E+03 -0.69460782144E+03  0.74845709605E+03  0.50400001928E-02 0. -1.
</event>
<event>
 5   0  0.5349685E-03  0.9892900E+03  0.7818609E-02  0.9320370E-01
       -1   -1    0    0    0  501  0.00000000000E+00  0.00000000000E+00  0.33860848498E+03  0.33860848502E+03  0.50400001928E-02 0. -1.
        1   -1    0    0  501    0  0.00000000000E+00  0.00000000000E+00 -0.72258580206E+03  0.72258580208E+03  0.50400001928E-02 0.  1.
    10030    2    1    2    0    0  0.00000000000E+00  0.00000000000E+00 -0.38397731708E+03  0.10611942871E+04  0.98929001559E+03 0.  0.
        4    1    3    3  502    0 -0.27105624385E+03  0.99100853637E+02 -0.62290761600E+03  0.68651873791E+03  0.12699999809E+01 0.  1.
       -4    1    3    3    0  502  0.27105624385E+03 -0.99100853637E+02  0.23893029893E+03  0.37467554920E+03  0.12699999809E+01 0. -1.
</event>
<event>
 5   0  0.8875655E-03  0.8985619E+03  0.7818609E-02  0.9427381E-01
        2   -1    0    0  501    0  0.00000000000E+00  0.00000000000E+00  0.36944007457E+03  0.36944007458E+03  0.25500000920E-02 0.  1.
       -2   -1    0    0    0  501  0.00000000000E+00  0.00000000000E+00 -0.54637646325E+03  0.54637646326E+03  0.25500000920E-02 0. -1.
    10030    2    1    2    0    0  0.00000000000E+00  0.00000000000E+00 -0.17693638868E+03  0.91581653783E+03  0.89856187618E+03 0.  0.
        4    1    3    3  502    0  0.14753772265E+03  0.21277027743E+03 -0.46268791157E+03  0.53020777717E+03  0.12699999809E+01 0. -1.
       -4    1    3    3    0  502 -0.14753772265E+03 -0.21277027743E+03  0.28575152289E+03  0.38560876066E+03  0.12699999809E+01 0.  1.
</event>
<event>
 5   0  0.8875655E-03  0.9582879E+03  0.7818609E-02  0.9355515E-01
       -2   -1    0    0    0  501  0.00000000000E+00  0.00000000000E+00  0.19282769638E+03  0.19282769640E+03  0.25500000920E-02 0.  1.
        2   -1    0    0  501    0  0.00000000000E+00  0.00000000000E+00 -0.11905910748E+04  0.11905910748E+04  0.25500000920E-02 0. -1.
    10030    2    1    2    0    0  0.00000000000E+00  0.00000000000E+00 -0.99776337842E+03  0.13834187712E+04  0.95828791978E+03 0.  0.
        4    1    3    3  502    0  0.41248405105E+02  0.26045026729E+03  0.78647612303E+02  0.27517781974E+03  0.12699999809E+01 0.  1.
       -4    1    3    3    0  502 -0.41248405105E+02 -0.26045026729E+03 -0.10764109907E+04  0.11082409515E+04  0.12699999809E+01 0. -1.
</event>
<event>
 5   0  0.5201968E-03  0.9967197E+03  0.7818609E-02  0.9312150E-01
       -1   -1    0    0    0  501  0.00000000000E+00  0.00000000000E+00  0.26680950216E+03  0.26680950221E+03  0.50400001928E-02 0.  1.
        1   -1    0    0  501    0  0.00000000000E+00  0.00000000000E+00 -0.93086098850E+03  0.93086098851E+03  0.50400001928E-02 0. -1.
    10030    2    1    2    0    0  0.00000000000E+00  0.00000000000E+00 -0.66405148633E+03  0.11976704907E+04  0.99671973385E+03 0.  0.
        2    1    3    3  502    0  0.35833931900E+03  0.31394850131E+03 -0.15627861354E+03  0.50139179697E+03  0.25500000920E-02 0. -1.
       -2    1    3    3    0  502 -0.35833931900E+03 -0.31394850131E+03 -0.50777287279E+03  0.69627869375E+03  0.25500000920E-02 0.  1.
</event>
<event>
 5   0  0.3513625E-03  0.1034940E+04  0.7818609E-02  0.9271032E-01
       -4   -1    0    0    0  501  0.00000000000E+00  0.00000000000E+00  0.34897595522E+03  0.34897826612E+03  0.12699999809E+01 0.  1.
        4   -1    0    0  501    0  0.00000000000E+00  0.00000000000E+00 -0.76731226503E+03  0.76731331603E+03  0.12699999809E+01 0. -1.
    10030    2    1    2    0    0  0.00000000000E+00  0.00000000000E+00 -0.41833630981E+03  0.11162915821E+04  0.10349403984E+04 0.  0.
        5    1    3    3  502    0  0.40981948012E+03 -0.11516011035E+03  0.10813135397E+03  0.43923608346E+03  0.46999998093E+01 0.  1.
       -5    1    3    3    0  502 -0.40981948012E+03  0.11516011035E+03 -0.52646766378E+03  0.67705549869E+03  0.46999998093E+01 0. -1.
</event>
<event>
 5   0  0.8968798E-03  0.9826544E+03  0.7818609E-02  0.9327776E-01
        2   -1    0    0  501    0  0.00000000000E+00  0.00000000000E+00  0.66553489601E+03  0.66553489601E+03  0.25500000920E-02 0.  1.
       -2   -1    0    0    0  501  0.00000000000E+00  0.00000000000E+00 -0.36271941160E+03  0.36271941161E+03  0.25500000920E-02 0. -1.
    10030    2    1    2    0    0  0.00000000000E+00  0.00000000000E+00  0.30281548441E+03  0.10282543076E+04  0.98265441716E+03 0.  0.
        2    1    3    3  502    0  0.20497797838E+03  0.43262678034E+03  0.35731378861E+02  0.48006107333E+03  0.25500000920E-02 0.  1.
       -2    1    3    3    0  502 -0.20497797838E+03 -0.43262678034E+03  0.26708410555E+03  0.54819323430E+03  0.25500000920E-02 0. -1.
</event>
<event>
 5   0  0.9243773E-03  0.9759092E+03  0.7818609E-02  0.9335369E-01
        2   -1    0    0  501    0  0.00000000000E+00  0.00000000000E+00  0.29580701103E+03  0.29580701104E+03  0.25500000920E-02 0.  1.
       -2   -1    0    0    0  501  0.00000000000E+00  0.00000000000E+00 -0.80491557698E+03  0.80491557698E+03  0.25500000920E-02 0. -1.
    10030    2    1    2    0    0  0.00000000000E+00  0.00000000000E+00 -0.50910856595E+03  0.11007225880E+04  0.97590915758E+03 0.  0.
        3    1    3    3  502    0 -0.57695859955E+02  0.21522163944E+03  0.23507470977E+03  0.32389704493E+03  0.10100000352E+00 0.  1.
       -3    1    3    3    0  502  0.57695859955E+02 -0.21522163944E+03 -0.74418327572E+03  0.77682554309E+03  0.10100000352E+00 0. -1.
</event>
<event>
 5   0  0.3513625E-03  0.1068588E+04  0.7818609E-02  0.9236361E-01
       -3   -1    0    0    0  501  0.00000000000E+00  0.00000000000E+00  0.40932953461E+03  0.40932954707E+03  0.10100000352E+00 0. -1.
        3   -1    0    0  501    0  0.00000000000E+00  0.00000000000E+00 -0.69740843550E+03  0.69740844281E+03  0.10100000352E+00 0.  1.
    10030    2    1    2    0    0  0.00000000000E+00  0.00000000000E+00 -0.28807890088E+03  0.11067379899E+04  0.10685876310E+04 0.  0.
        3    1    3    3  502    0 -0.71366758486E+01  0.45477757102E+03 -0.43439874012E+03  0.62894820682E+03  0.10100000352E+00 0.  1.
       -3    1    3    3    0  502  0.71366758486E+01 -0.45477757102E+03  0.14631983924E+03  0.47778978306E+03  0.10100000352E+00 0. -1.
</event>
<event>
 5   0  0.8968798E-03  0.1008407E+04  0.7818609E-02  0.9299372E-01
        2   -1    0    0  501    0  0.00000000000E+00  0.00000000000E+00  0.70970291335E+03  0.70970291336E+03  0.25500000920E-02 0.  1.
       -2   -1    0    0    0  501  0.00000000000E+00  0.00000000000E+00 -0.35820776515E+03  0.35820776516E+03  0.25500000920E-02 0. -1.
    10030    2    1    2    0    0  0.00000000000E+00  0.00000000000E+00  0.35149514820E+03  0.10679106785E+04  0.10084068515E+04 0.  0.
        2    1    3    3  502    0 -0.46607262766E+03 -0.19088559785E+03  0.20081025840E+03  0.54220454222E+03  0.25500000920E-02 0.  1.
       -2    1    3    3    0  502  0.46607262766E+03  0.19088559785E+03  0.15068488980E+03  0.52570613630E+03  0.25500000920E-02 0. -1.
</event>
<event>
 5   0  0.9040674E-03  0.1156197E+04  0.7818609E-02  0.9152086E-01
        2   -1    0    0  501    0  0.00000000000E+00  0.00000000000E+00  0.11196928351E+04  0.11196928351E+04  0.25500000920E-02 0.  1.
       -2   -1    0    0    0  501  0.00000000000E+00  0.00000000000E+00 -0.29847280026E+03  0.29847280027E+03  0.25500000920E-02 0. -1.
    10030    2    1    2    0    0  0.00000000000E+00  0.00000000000E+00  0.82122003485E+03  0.14181656354E+04  0.11561969658E+04 0.  0.
        1    1    3    3  502    0 -0.53456345546E+02  0.21154395689E+03  0.10672468139E+04  0.10893228118E+04  0.50400001928E-02 0.  1.
       -1    1    3    3    0  502  0.53456345546E+02 -0.21154395689E+03 -0.24602677904E+03  0.32884282356E+03  0.50400001928E-02 0. -1.
</event>
<event>
 5   0  0.5189877E-03  0.9901361E+03  0.7818609E-02  0.9319430E-01
       -1   -1    0    0    0  501  0.00000000000E+00  0.00000000000E+00  0.20809787171E+03  0.20809787177E+03  0.50400001928E-02 0. -1.
        1   -1    0    0  501    0  0.00000000000E+00  0.00000000000E+00 -0.11777744713E+04  0.11777744713E+04  0.50400001928E-02 0.  1.
    10030    2    1    2    0    0  0.00000000000E+00  0.00000000000E+00 -0.96967659962E+03  0.13858723431E+04  0.99013607324E+03 0.  0.
        3    1    3    3  502    0 -0.19531736997E+03 -0.16993435930E+03  0.10579589803E+03  0.27967721345E+03  0.10100000352E+00 0. -1.
       -3    1    3    3    0  502  0.19531736997E+03  0.16993435930E+03 -0.10754724976E+04  0.11061951297E+04  0.10100000352E+00 0.  1.
</event>
<event>
 5   0  0.8907355E-03  0.1007501E+04  0.7818609E-02  0.9300356E-01
        2   -1    0    0  501    0  0.00000000000E+00  0.00000000000E+00  0.13365635269E+04  0.13365635269E+04  0.25500000920E-02 0.  1.
       -2   -1    0    0    0  501  0.00000000000E+00  0.00000000000E+00 -0.18986349980E+03  0.18986349982E+03  0.25500000920E-02 0. -1.
    10030    2    1    2    0    0  0.00000000000E+00  0.00000000000E+00  0.11467000271E+04  0.15264270267E+04  0.10075011245E+04 0.  0.
        5    1    3    3  502    0  0.12114436850E+03 -0.37572317811E+03  0.99305730914E+02  0.40709652760E+03  0.46999998093E+01 0. -1.
       -5    1    3    3    0  502 -0.12114436850E+03  0.37572317811E+03  0.10473942962E+04  0.11193304991E+04  0.46999998093E+01 0.  1.
</event>
<event>
 5   0  0.8875655E-03  0.8868269E+03  0.7818609E-02  0.9442200E-01
        2   -1    0    0  501    0  0.00000000000E+00  0.00000000000E+00  0.88452955336E+03  0.88452955336E+03  0.25500000920E-02 0. -1.
       -2   -1    0    0    0  501  0.00000000000E+00  0.00000000000E+00 -0.22228253424E+03  0.22228253425E+03  0.25500000920E-02 0.  1.
    10030    2    1    2    0    0  0.00000000000E+00  0.00000000000E+00  0.66224701912E+03  0.11068120876E+04  0.88682686188E+03 0.  0.
        4    1    3    3  502    0 -0.93455018407E+02  0.45945873207E+02  0.86904843564E+03  0.87526662231E+03  0.12699999809E+01 0. -1.
       -4    1    3    3    0  502  0.93455018407E+02 -0.45945873207E+02 -0.20680141652E+03  0.23154546531E+03  0.12699999809E+01 0.  1.
</event>
<event>
 5   0  0.8968798E-03  0.9936395E+03  0.7818609E-02  0.9315548E-01
        2   -1    0    0  501    0  0.00000000000E+00  0.00000000000E+00  0.44943186200E+03  0.44943186201E+03  0.25500000920E-02 0. -1.
       -2   -1    0    0    0  501  0.00000000000E+00  0.00000000000E+00 -0.54920424003E+03  0.54920424003E+03  0.25500000920E-02 0.  1.
    10030    2    1    2    0    0  0.00000000000E+00  0.00000000000E+00 -0.99772378024E+02  0.99863610205E+03  0.99363954073E+03 0.  0.
        2    1    3    3  502    0 -0.34718311636E+03 -0.60750044613E+02 -0.40179431857E+03  0.53447671478E+03  0.25500000920E-02 0.  1.
       -2    1    3    3    0  502  0.34718311636E+03  0.60750044613E+02  0.30202194055E+03  0.46415938726E+03  0.25500000920E-02 0. -1.
</event>
<event>
 5   0  0.5189877E-03  0.1005518E+04  0.7818609E-02  0.9302513E-01
       -1   -1    0    0    0  501  0.00000000000E+00  0.00000000000E+00  0.83421135891E+03  0.83421135893E+03  0.50400001928E-02 0.  1.
        1   -1    0    0  501    0  0.00000000000E+00  0.00000000000E+00 -0.30300075252E+03  0.30300075256E+03  0.50400001928E-02 0. -1.
    10030    2    1    2    0    0  0.00000000000E+00  0.00000000000E+00  0.53121060639E+03  0.11372121115E+04  0.10055181143E+04 0.  0.
        3    1    3    3  502    0  0.45208732794E+03 -0.84669882930E+02  0.36002204530E+02  0.46135464676E+03  0.10100000352E+00 0.  1.
       -3    1    3    3    0  502 -0.45208732794E+03  0.84669882930E+02  0.49520840186E+03  0.67585746473E+03  0.10100000352E+00 0. -1.
</event>
<event>
 5   0  0.5072205E-03  0.1020308E+04  0.7818609E-02  0.9286548E-01
       -1   -1    0    0    0  501  0.00000000000E+00  0.00000000000E+00  0.17031768573E+03  0.17031768580E+03  0.50400001928E-02 0. -1.
        1   -1    0    0  501    0  0.00000000000E+00  0.00000000000E+00 -0.15280670816E+04  0.15280670816E+04  0.50400001928E-02 0.  1.
    10030    2    1    2    0    0  0.00000000000E+00  0.00000000000E+00 -0.13577493959E+04  0.16983847674E+04  0.10203075008E+04 0.  0.
        5    1    3    3  502    0 -0.17864432075E+03 -0.23078633198E+03  0.17586258884E+02  0.29241663917E+03  0.46999998093E+01 0. -1.
       -5    1    3    3    0  502  0.17864432075E+03  0.23078633198E+03 -0.13753356548E+04  0.14059681282E+04  0.46999998093E+01 0.  1.
</event>
<event>
 5   0  0.9040674E-03  0.9956990E+03  0.7818609E-02  0.9313275E-01
       -2   -1    0    0    0  501  0.00000000000E+00  0.00000000000E+00  0.12477097203E+03  0.12477097205E+03  0.25500000920E-02 0. -1.
        2   -1    0    0  501    0  0.00000000000E+00  0.00000000000E+00 -0.19864725774E+04  0.19864725774E+04  0.25500000920E-02 0.  1.
    10030    2    1    2    0    0  0.00000000000E+00  0.00000000000E+00 -0.18617016054E+04  0.21112435495E+04  0.99569897945E+03 0.  0.
        1    1    3    3  502    0  0.26840214663E+03 -0.18922411743E+03 -0.13745904365E+03  0.35600627472E+03  0.50400001928E-02 0. -1.
       -1    1    3    3    0  502 -0.26840214663E+03  0.18922411743E+03 -0.17242425618E+04  0.17552372748E+04  0.50400001928E-02 0.  1.
</event>
<event>
 5   0  0.8907355E-03  0.1011453E+04  0.7818609E-02  0.9296072E-01
       -2   -1    0    0    0  501  0.00000000000E+00  0.00000000000E+00  0.32950632513E+03  0.32950632514E+03  0.25500000920E-02 0. -1.
        2   -1    0    0  501    0  0.00000000000E+00  0.00000000000E+00 -0.77618967124E+03  0.77618967125E+03  0.25500000920E-02 0.  1.
    10030    2    1    2    0    0  0.00000000000E+00  0.00000000000E+00 -0.44668334611E+03  0.11056959964E+04  0.10114532242E+04 0.  0.
        5    1    3    3  502    0 -0.13606389771E+03 -0.71633870475E+02 -0.74998975452E+03  0.76560532753E+03  0.46999998093E+01 0.  1.
       -5    1    3    3    0  502  0.13606389771E+03  0.71633870475E+02  0.30330640841E+03  0.34009066886E+03  0.46999998093E+01 0. -1.
</event>
<event>
 5   0  0.8907355E-03  0.1035119E+04  0.7818609E-02  0.9270844E-01
       -2   -1    0    0    0  501  0.00000000000E+00  0.00000000000E+00  0.27428218059E+03  0.27428218060E+03  0.25500000920E-02 0. -1.
        2   -1    0    0  501    0  0.00000000000E+00  0.00000000000E+00 -0.97661416959E+03  0.97661416959E+03  0.25500000920E-02 0.  1.
    10030    2    1    2    0    0  0.00000000000E+00  0.00000000000E+00 -0.70233198899E+03  0.12508963502E+04  0.10351190541E+04 0.  0.
        5    1    3    3  502    0 -0.40584463170E+03 -0.10951823683E+03  0.13663129886E+02  0.42061012874E+03  0.46999998093E+01 0. -1.
       -5    1    3    3    0  502  0.40584463170E+03  0.10951823683E+03 -0.71599511888E+03  0.83028622146E+03  0.46999998093E+01 0.  1.
</event>
<event>
 5   0  0.5349685E-03  0.1012327E+04  0.7818609E-02  0.9295127E-01
        1   -1    0    0  501    0  0.00000000000E+00  0.00000000000E+00  0.75597099962E+03  0.75597099964E+03  0.50400001928E-02 0. -1.
       -1   -1    0    0    0  501  0.00000000000E+00  0.00000000000E+00 -0.33890407323E+03  0.33890407327E+03  0.50400001928E-02 0.  1.
    10030    2    1    2    0    0  0.00000000000E+00  0.00000000000E+00  0.41706692639E+03  0.10948750729E+04  0.10123273207E+04 0.  0.
        4    1    3    3  502    0  0.15527570005E+03  0.47838159594E+03  0.14696581594E+03  0.52398478825E+03  0.12699999809E+01 0.  1.
       -4    1    3    3    0  502 -0.15527570005E+03 -0.47838159594E+03  0.27010111045E+03  0.57089028467E+03  0.12699999809E+01 0. -1.
</event>
<event>
 5   0  0.5349685E-03  0.9987994E+03  0.7818609E-02  0.9309863E-01
       -1   -1    0    0    0  501  0.00000000000E+00  0.00000000000E+00  0.18112677684E+03  0.18112677692E+03  0.50400001928E-02 0. -1.
        1   -1    0    0  501    0  0.00000000000E+00  0.00000000000E+00 -0.13769364332E+04  0.13769364332E+04  0.50400001928E-02 0.  1.
    10030    2    1    2    0    0  0.00000000000E+00  0.00000000000E+00 -0.11958096563E+04  0.15580632101E+04  0.99879939552E+03 0.  0.
        4    1    3    3  502    0  0.44888103114E+03  0.18578744432E+03 -0.77839482941E+03  0.91755723415E+03  0.12699999809E+01 0.  1.
       -4    1    3    3    0  502 -0.44888103114E+03 -0.18578744432E+03 -0.41741482691E+03  0.64050597594E+03  0.12699999809E+01 0. -1.
</event>
<event>
 5   0  0.5201968E-03  0.9865712E+03  0.7818609E-02  0.9323397E-01
       -1   -1    0    0    0  501  0.00000000000E+00  0.00000000000E+00  0.43593971260E+03  0.43593971263E+03  0.50400001928E-02 0.  1.
        1   -1    0    0  501    0  0.00000000000E+00  0.00000000000E+00 -0.55817513106E+03  0.55817513108E+03  0.50400001928E-02 0. -1.
    10030    2    1    2    0    0  0.00000000000E+00  0.00000000000E+00 -0.12223541847E+03  0.99411484371E+03  0.98657124677E+03 0.  0.
        2    1    3    3  502    0 -0.44287213668E+03 -0.21056509200E+03 -0.11498032683E+03  0.50368031824E+03  0.25500000920E-02 0. -1.
       -2    1    3    3    0  502  0.44287213668E+03  0.21056509200E+03 -0.72550916355E+01  0.49043452547E+03  0.25500000920E-02 0.  1.
</event>
<event>
 5   0  0.9040674E-03  0.9768417E+03  0.7818609E-02  0.9334315E-01
        2   -1    0    0  501    0  0.00000000000E+00  0.00000000000E+00  0.64193938495E+03  0.64193938496E+03  0.25500000920E-02 0. -1.
       -2   -1    0    0    0  501  0.00000000000E+00  0.00000000000E+00 -0.37161598790E+03  0.37161598790E+03  0.25500000920E-02 0.  1.
    10030    2    1    2    0    0  0.00000000000E+00  0.00000000000E+00  0.27032339706E+03  0.10135553729E+04  0.97684172457E+03 0.  0.
        1    1    3    3  502    0 -0.19231866469E+03  0.15785595052E+03  0.57125564787E+03  0.62308746188E+03  0.50400001928E-02 0. -1.
       -1    1    3    3    0  502  0.19231866469E+03 -0.15785595052E+03 -0.30093225082E+03  0.39046791098E+03  0.50400001928E-02 0.  1.
</event>
<event>
 5   0  0.8907355E-03  0.1014931E+04  0.7818609E-02  0.9292319E-01
       -2   -1    0    0    0  501  0.00000000000E+00  0.00000000000E+00  0.12699648742E+04  0.12699648742E+04  0.25500000920E-02 0. -1.
        2   -1    0    0  501    0  0.00000000000E+00  0.00000000000E+00 -0.20277816758E+03  0.20277816760E+03  0.25500000920E-02 0.  1.
    10030    2    1    2    0    0  0.00000000000E+00  0.00000000000E+00  0.10671867066E+04  0.14727430418E+04  0.10149308353E+04 0.  0.
        5    1    3    3  502    0  0.94102483558E+02  0.49856509766E+03  0.52089115737E+03  0.72716718974E+03  0.46999998093E+01 0. -1.
       -5    1    3    3    0  502 -0.94102483558E+02 -0.49856509766E+03  0.54629554922E+03  0.74557585202E+03  0.46999998093E+01 0.  1.
</event>
<event>
 5   0  0.9243773E-03  0.9994478E+03  0.7818609E-02  0.9309151E-01
        2   -1    0    0  501    0  0.00000000000E+00  0.00000000000E+00  0.12267125534E+04  0.12267125534E+04  0.25500000920E-02 0.  1.
       -2   -1    0    0    0  501  0.00000000000E+00  0.00000000000E+00 -0.20357172666E+03  0.20357172668E+03  0.25500000920E-02 0. -1.
    10030    2    1    2    0    0  0.00000000000E+00  0.00000000000E+00  0.10231408267E+04  0.14302842801E+04  0.99944783281E+03 0.  0.
        3    1    3    3  502    0  0.35922529391E+03 -0.19491604159E+03  0.10005523208E+03  0.42076850491E+03  0.10100000352E+00 0. -1.
       -3    1    3    3    0  502 -0.35922529391E+03  0.19491604159E+03  0.92308559465E+03  0.10095157752E+04  0.10100000352E+00 0.  1.
</event>
<event>
 5   0  0.5349685E-03  0.1017482E+04  0.7818609E-02  0.9289576E-01
        1   -1    0    0  501    0  0.00000000000E+00  0.00000000000E+00  0.40557510807E+03  0.40557510810E+03  0.50400001928E-02 0. -1.
       -1   -1    0    0    0  501  0.00000000000E+00  0.00000000000E+00 -0.63814907938E+03  0.63814907940E+03  0.50400001928E-02 0.  1.
    10030    2    1    2    0    0  0.00000000000E+00  0.00000000000E+00 -0.23257397131E+03  0.10437241875E+04  0.10174819544E+04 0.  0.
        4    1    3    3  502    0 -0.22295752802E+02 -0.33301081623E+03  0.27757209814E+03  0.43409813048E+03  0.12699999809E+01 0. -1.
       -4    1    3    3    0  502  0.22295752802E+02  0.33301081623E+03 -0.51014606945E+03  0.60962605702E+03  0.12699999809E+01 0.  1.
</event>
<event>
 5   0  0.9040674E-03  0.9963831E+03  0.7818609E-02  0.9312521E-01
        2   -1    0    0  501    0  0.00000000000E+00  0.00000000000E+00  0.24798228731E+03  0.24798228733E+03  0.25500000920E-02 0. -1.
       -2   -1    0    0    0  501  0.00000000000E+00  0.00000000000E+00 -0.10008570053E+04  0.10008570053E+04  0.25500000920E-02 0.  1.
    10030    2    1    2    0    0  0.00000000000E+00  0.00000000000E+00 -0.75287471797E+03  0.12488392926E+04  0.99638307785E+03 0.  0.
        1    1    3    3  502    0  0.11219926617E+03 -0.10274459262E+03 -0.97102984156E+03  0.98287541422E+03  0.50400001928E-02 0.  1.
       -1    1    3    3    0  502 -0.11219926617E+03  0.10274459262E+03  0.21815512359E+03  0.26596387840E+03  0.50400001928E-02 0. -1.
</event>
<event>
 5   0  0.5349685E-03  0.9960679E+03  0.7818609E-02  0.9312868E-01
        1   -1    0    0  501    0  0.00000000000E+00  0.00000000000E+00  0.94420575922E+03  0.94420575923E+03  0.50400001928E-02 0. -1.
       -1   -1    0    0    0  501  0.00000000000E+00  0.00000000000E+00 -0.26269464053E+03  0.26269464058E+03  0.50400001928E-02 0.  1.
    10030    2    1    2    0    0  0.00000000000E+00  0.00000000000E+00  0.68151111869E+03  0.12069003998E+04  0.99606785420E+03 0.  0.
        4    1    3    3  502    0 -0.19949010559E+03  0.19811186766E+03  0.83885381523E+03  0.88471574563E+03  0.12699999809E+01 0. -1.
       -4    1    3    3    0  502  0.19949010559E+03 -0.19811186766E+03 -0.15734269654E+03  0.32218465418E+03  0.12699999809E+01 0.  1.
</event>
<event>
 5   0  0.9243773E-03  0.1016402E+04  0.7818609E-02  0.9290736E-01
        2   -1    0    0  501    0  0.00000000000E+00  0.00000000000E+00  0.37443265944E+03  0.37443265944E+03  0.25500000920E-02 0.  1.
       -2   -1    0    0    0  501  0.00000000000E+00  0.00000000000E+00 -0.68975916514E+03  0.68975916514E+03  0.25500000920E-02 0. -1.
    10030    2    1    2    0    0  0.00000000000E+00  0.00000000000E+00 -0.31532650570E+03  0.10641918246E+04  0.10164022011E+04 0.  0.
        3    1    3    3  502    0  0.29626617529E+03 -0.23056550664E+03 -0.51630985462E+03  0.63836508022E+03  0.10100000352E+00 0. -1.
       -3    1    3    3    0  502 -0.29626617529E+03  0.23056550664E+03  0.20098334892E+03  0.42582674436E+03  0.10100000352E+00 0.  1.
</event>
<event>
 5   0  0.8875655E-03  0.1000820E+04  0.7818609E-02  0.9307646E-01
       -2   -1    0    0    0  501  0.00000000000E+00  0.00000000000E+00  0.28898770161E+03  0.28898770162E+03  0.25500000920E-02 0.  1.
        2   -1    0    0  501    0  0.00000000000E+00  0.00000000000E+00 -0.86650851587E+03  0.86650851587E+03  0.25500000920E-02 0. -1.
    10030    2    1    2    0    0  0.00000000000E+00  0.00000000000E+00 -0.57752081425E+03  0.11554962175E+04  0.10008202725E+04 0.  0.
        4    1    3    3  502    0 -0.24174114197E+02 -0.38025594608E+03  0.85765306464E+02  0.39055892388E+03  0.12699999809E+01 0.  1.
       -4    1    3    3    0  502  0.24174114197E+02  0.38025594608E+03 -0.66328612072E+03  0.76493729362E+03  0.12699999809E+01 0. -1.
</event>
<event>
 5   0  0.5310275E-03  0.1010775E+04  0.7818609E-02  0.9296805E-01
       -1   -1    0    0    0  501  0.00000000000E+00  0.00000000000E+00  0.16112307963E+03  0.16112307971E+03  0.50400001928E-02 0.  1.
        1   -1    0    0  501    0  0.00000000000E+00  0.00000000000E+00 -0.15852264411E+04  0.15852264411E+04  0.50400001928E-02 0. -1.
    10030    2    1    2    0    0  0.00000000000E+00  0.00000000000E+00 -0.14241033614E+04  0.17463495208E+04  0.10107750812E+04 0.  0.
        1    1    3    3  502    0 -0.58162319184E+01  0.10598037833E+03  0.14164934816E+03  0.17700340958E+03  0.50400001928E-02 0.  1.
       -1    1    3    3    0  502  0.58162319184E+01 -0.10598037833E+03 -0.15657527096E+04  0.15693461112E+04  0.50400001928E-02 0. -1.
</event>
<event>
 5   0  0.9040674E-03  0.9550370E+03  0.7818609E-02  0.9359282E-01
        2   -1    0    0  501    0  0.00000000000E+00  0.00000000000E+00  0.58372231001E+03  0.58372231002E+03  0.25500000920E-02 0. -1.
       -2   -1    0    0    0  501  0.00000000000E+00  0.00000000000E+00 -0.39063769767E+03  0.39063769768E+03  0.25500000920E-02 0.  1.
    10030    2    1    2    0    0  0.00000000000E+00  0.00000000000E+00  0.19308461234E+03  0.97436000770E+03  0.95503704487E+03 0.  0.
        1    1    3    3  502    0  0.20684096606E+03  0.41538141703E+03 -0.18427698196E+02  0.46439690669E+03  0.50400001928E-02 0. -1.
       -1    1    3    3    0  502 -0.20684096606E+03 -0.41538141703E+03  0.21151231054E+03  0.50996310101E+03  0.50400001928E-02 0.  1.
</event>
<event>
 5   0  0.5072205E-03  0.9826190E+03  0.7818609E-02  0.9327816E-01
        1   -1    0    0  501    0  0.00000000000E+00  0.00000000000E+00  0.62291239212E+03  0.62291239214E+03  0.50400001928E-02 0.  1.
       -1   -1    0    0    0  501  0.00000000000E+00  0.00000000000E+00 -0.38751040872E+03  0.38751040875E+03  0.50400001928E-02 0. -1.
    10030    2    1    2    0    0  0.00000000000E+00  0.00000000000E+00  0.23540198341E+03  0.10104228009E+04  0.98261902220E+03 0.  0.
        5    1    3    3  502    0  0.30732361410E+02  0.40121085032E+03 -0.17214035108E+03  0.43768597752E+03  0.46999998093E+01 0. -1.
       -5    1    3    3    0  502 -0.30732361410E+02 -0.40121085032E+03  0.40754233449E+03  0.57273682337E+03  0.46999998093E+01 0.  1.
</event>
<event>
 5   0  0.5072205E-03  0.1010594E+04  0.7818609E-02  0.9297001E-01
       -1   -1    0    0    0  501  0.00000000000E+00  0.00000000000E+00  0.48655842962E+03  0.48655842964E+03  0.50400001928E-02 0. -1.
        1   -1    0    0  501    0  0.00000000000E+00  0.00000000000E+00 -0.52475709349E+03  0.52475709351E+03  0.50400001928E-02 0.  1.
    10030    2    1    2    0    0  0.00000000000E+00  0.00000000000E+00 -0.38198663870E+02  0.10113155232E+04  0.10105938598E+04 0.  0.
        5    1    3    3  502    0 -0.32719158722E+02 -0.31316666415E+03 -0.41455109872E+03  0.52059447398E+03  0.46999998093E+01 0.  1.
       -5    1    3    3    0  502  0.32719158722E+02  0.31316666415E+03  0.37635243485E+03  0.49072104917E+03  0.46999998093E+01 0. -1.
</event>
<event>
 5   0  0.5349685E-03  0.1016660E+04  0.7818609E-02  0.9290459E-01
       -1   -1    0    0    0  501  0.00000000000E+00  0.00000000000E+00  0.10783791955E+03  0.10783791966E+03  0.50400001928E-02 0. -1.
        1   -1    0    0  501    0  0.00000000000E+00  0.00000000000E+00 -0.23961820553E+04  0.23961820553E+04  0.50400001928E-02 0.  1.
    10030    2    1    2    0    0  0.00000000000E+00  0.00000000000E+00 -0.22883441357E+04  0.25040199750E+04  0.10166598012E+04 0.  0.
        4    1    3    3  502    0  0.29854954882E+03 -0.33818484165E+03 -0.17212518623E+04  0.17793848394E+04  0.12699999809E+01 0.  1.
       -4    1    3    3    0  502 -0.29854954882E+03  0.33818484165E+03 -0.56709227344E+03  0.72463513558E+03  0.12699999809E+01 0. -1.
</event>
<event>
 5   0  0.5189877E-03  0.8383033E+03  0.7818609E-02  0.9506172E-01
       -1   -1    0    0    0  501  0.00000000000E+00  0.00000000000E+00  0.35233790451E+03  0.35233790455E+03  0.50400001928E-02 0. -1.
        1   -1    0    0  501    0  0.00000000000E+00  0.00000000000E+00 -0.49863522426E+03  0.49863522428E+03  0.50400001928E-02 0.  1.
    10030    2    1    2    0    0  0.00000000000E+00  0.00000000000E+00 -0.14629731975E+03  0.85097312883E+03  0.83830326268E+03 0.  0.
        3    1    3    3  502    0 -0.35073462501E+03  0.20757720331E+03 -0.17253138818E+03  0.44257221176E+03  0.10100000352E+00 0. -1.
       -3    1    3    3    0  502  0.35073462501E+03 -0.20757720331E+03  0.26234068428E+02  0.40840091707E+03  0.10100000352E+00 0.  1.
</event>
<event>
 5   0  0.5189877E-03  0.9970530E+03  0.7818609E-02  0.9311783E-01
       -1   -1    0    0    0  501  0.00000000000E+00  0.00000000000E+00  0.10348929897E+04  0.10348929897E+04  0.50400001928E-02 0. -1.
        1   -1    0    0  501    0  0.00000000000E+00  0.00000000000E+00 -0.24014915839E+03  0.24014915844E+03  0.50400001928E-02 0.  1.
    10030    2    1    2    0    0  0.00000000000E+00  0.00000000000E+00  0.79474383128E+03  0.12750421481E+04  0.99705301871E+03 0.  0.
        3    1    3    3  502    0  0.80608589848E+02  0.43425959432E+03  0.69302215506E+03  0.82180220103E+03  0.10100000352E+00 0.  1.
       -3    1    3    3    0  502 -0.80608589848E+02 -0.43425959432E+03  0.10172167622E+03  0.45323994708E+03  0.10100000352E+00 0. -1.
</event>
<event>
 5   0  0.5349685E-03  0.1005395E+04  0.7818609E-02  0.9302647E-01
        1   -1    0    0  501    0  0.00000000000E+00  0.00000000000E+00  0.14714305832E+04  0.14714305832E+04  0.50400001928E-02 0. -1.
       -1   -1    0    0    0  501  0.00000000000E+00  0.00000000000E+00 -0.17174088515E+03  0.17174088522E+03  0.50400001928E-02 0.  1.
    10030    2    1    2    0    0  0.00000000000E+00  0.00000000000E+00  0.12996896980E+04  0.16431714684E+04  0.10053950285E+04 0.  0.
        4    1    3    3  502    0 -0.32478083832E+03 -0.38234065554E+03  0.59723468561E+03  0.77997298185E+03  0.12699999809E+01 0.  1.
       -4    1    3    3    0  502  0.32478083832E+03  0.38234065554E+03  0.70245501240E+03  0.86319848654E+03  0.12699999809E+01 0. -1.
</event>
<event>
 5   0  0.5189877E-03  0.1062130E+04  0.7818609E-02  0.9242910E-01
        1   -1    0    0  501    0  0.00000000000E+00  0.00000000000E+00  0.40113634879E+03  0.40113634882E+03  0.50400001928E-02 0. -1.
       -1   -1    0    0    0  501  0.00000000000E+00  0.00000000000E+00 -0.70307735438E+03  0.70307735440E+03  0.50400001928E-02 0.  1.
    10030    2    1    2    0    0  0.00000000000E+00  0.00000000000E+00 -0.30194100559E+03  0.11042137032E+04  0.10621297150E+04 0.  0.
        3    1    3    3  502    0  0.35862777843E+03 -0.10265763795E+03  0.24199763639E+03  0.44465193164E+03  0.10100000352E+00 0. -1.
       -3    1    3    3    0  502 -0.35862777843E+03  0.10265763795E+03 -0.54393864198E+03  0.65956177158E+03  0.10100000352E+00 0.  1.
</event>
<event>
 5   0  0.5310275E-03  0.9886314E+03  0.7818609E-02  0.9321102E-01
       -1   -1    0    0    0  501  0.00000000000E+00  0.00000000000E+00  0.23727955244E+03  0.23727955250E+03  0.50400001928E-02 0.  1.
        1   -1    0    0  501    0  0.00000000000E+00  0.00000000000E+00 -0.10297895133E+04  0.10297895134E+04  0.50400001928E-02 0. -1.
    10030    2    1    2    0    0  0.00000000000E+00  0.00000000000E+00 -0.79250996089E+03  0.12670690658E+04  0.98863136685E+03 0.  0.
        1    1    3    3  502    0  0.39718653637E+03 -0.17813074713E+03 -0.69644409569E+03  0.82129293568E+03  0.50400001928E-02 0. -1.
       -1    1    3    3    0  502 -0.39718653637E+03  0.17813074713E+03 -0.96065865205E+02  0.44577613017E+03  0.50400001928E-02 0.  1.
</event>
<event>
 5   0  0.5072205E-03  0.1001618E+04  0.7818609E-02  0.9306772E-01
       -1   -1    0    0    0  501  0.00000000000E+00  0.00000000000E+00  0.13410328650E+03  0.13410328659E+03  0.50400001928E-02 0.  1.
        1   -1    0    0  501    0  0.00000000000E+00  0.00000000000E+00 -0.18702714345E+04  0.18702714345E+04  0.50400001928E-02 0. -1.
    10030    2    1    2    0    0  0.00000000000E+00  0.00000000000E+00 -0.17361681480E+04  0.20043747211E+04  0.10016177836E+04 0.  0.
        5    1    3    3  502    0  0.85161341898E+02 -0.44310123009E+03 -0.43334279863E+03  0.62561907370E+03  0.46999998093E+01 0.  1.
       -5    1    3    3    0  502 -0.85161341898E+02  0.44310123009E+03 -0.13028253493E+04  0.13787556474E+04  0.46999998093E+01 0. -1.
</event>
<event>
 5   0  0.9243773E-03  0.9995686E+03  0.7818609E-02  0.9309018E-01
       -2   -1    0    0    0  501  0.00000000000E+00  0.00000000000E+00  0.48135422337E+03  0.48135422337E+03  0.25500000920E-02 0.  1.
        2   -1    0    0  501    0  0.00000000000E+00  0.00000000000E+00 -0.51891999565E+03  0.51891999566E+03  0.25500000920E-02 0. -1.
    10030    2    1    2    0    0  0.00000000000E+00  0.00000000000E+00 -0.37565772290E+02  0.10002742190E+04  0.99956856994E+03 0.  0.
        3    1    3    3  502    0 -0.38694310127E+03  0.37617578238E+02 -0.33308147225E+03  0.51194074185E+03  0.10100000352E+00 0. -1.
       -3    1    3    3    0  502  0.38694310127E+03 -0.37617578238E+02  0.29551569996E+03  0.48833347718E+03  0.10100000352E+00 0.  1.
</event>
<event>
 5   0  0.8968798E-03  0.8142208E+03  0.7818609E-02  0.9539658E-01
       -2   -1    0    0    0  501  0.00000000000E+00  0.00000000000E+00  0.20940380151E+03  0.20940380153E+03  0.25500000920E-02 0. -1.
        2   -1    0    0  501    0  0.00000000000E+00  0.00000000000E+00 -0.79147987257E+03  0.79147987257E+03  0.25500000920E-02 0.  1.
    10030    2    1    2    0    0  0.00000000000E+00  0.00000000000E+00 -0.58207607106E+03  0.10008836741E+04  0.81422084019E+03 0.  0.
        2    1    3    3  502    0 -0.21985524721E+03 -0.23925587112E+03 -0.59254155811E+03  0.67578487678E+03  0.25500000920E-02 0.  1.
       -2    1    3    3    0  502  0.21985524721E+03  0.23925587112E+03  0.10465487052E+02  0.32509879732E+03  0.25500000920E-02 0. -1.
</event>
<event>
 5   0  0.5072205E-03  0.1015205E+04  0.7818609E-02  0.9292023E-01
       -1   -1    0    0    0  501  0.00000000000E+00  0.00000000000E+00  0.19253287018E+03  0.19253287024E+03  0.50400001928E-02 0.  1.
        1   -1    0    0  501    0  0.00000000000E+00  0.00000000000E+00 -0.13382672487E+04  0.13382672487E+04  0.50400001928E-02 0. -1.
    10030    2    1    2    0    0  0.00000000000E+00  0.00000000000E+00 -0.11457343785E+04  0.15308001189E+04  0.10152052689E+04 0.  0.
        5    1    3    3  502    0  0.37787437891E+03  0.25121045386E+03 -0.22987141156E+03  0.50868329461E+03  0.46999998093E+01 0. -1.
       -5    1    3    3    0  502 -0.37787437891E+03 -0.25121045386E+03 -0.91586296694E+03  0.10221168243E+04  0.46999998093E+01 0.  1.
</event>
<event>
 5   0  0.9243773E-03  0.9848085E+03  0.7818609E-02  0.9325365E-01
       -2   -1    0    0    0  501  0.00000000000E+00  0.00000000000E+00  0.21103479949E+03  0.21103479950E+03  0.25500000920E-02 0. -1.
        2   -1    0    0  501    0  0.00000000000E+00  0.00000000000E+00 -0.11489193483E+04  0.11489193483E+04  0.25500000920E-02 0.  1.
    10030    2    1    2    0    0  0.00000000000E+00  0.00000000000E+00 -0.93788454884E+03  0.13599541478E+04  0.98480853837E+03 0.  0.
        3    1    3    3  502    0 -0.39844037606E+03 -0.20458230746E+02 -0.70408204324E+02  0.40513034682E+03  0.10100000352E+00 0. -1.
       -3    1    3    3    0  502  0.39844037606E+03  0.20458230746E+02 -0.86747634451E+03  0.95482380101E+03  0.10100000352E+00 0.  1.
</event>
<event>
 5   0  0.9040674E-03  0.9792419E+03  0.7818609E-02  0.9331610E-01
       -2   -1    0    0    0  501  0.00000000000E+00  0.00000000000E+00  0.42266321937E+03  0.42266321938E+03  0.25500000920E-02 0.  1.
        2   -1    0    0  501    0  0.00000000000E+00  0.00000000000E+00 -0.56718599986E+03  0.56718599987E+03  0.25500000920E-02 0. -1.
    10030    2    1    2    0    0  0.00000000000E+00  0.00000000000E+00 -0.14452278049E+03  0.98984921925E+03  0.97924187143E+03 0.  0.
        1    1    3    3  502    0 -0.23895449050E+03 -0.37724629685E+03 -0.27522140338E+03  0.52455775461E+03  0.50400001928E-02 0. -1.
       -1    1    3    3    0  502  0.23895449050E+03  0.37724629685E+03  0.13069862289E+03  0.46529146464E+03  0.50400001928E-02 0.  1.
</event>
<event>
 5   0  0.8875655E-03  0.9867260E+03  0.7818609E-02  0.9323225E-01
        2   -1    0    0  501    0  0.00000000000E+00  0.00000000000E+00  0.82123220568E+03  0.82123220569E+03  0.25500000920E-02 0. -1.
       -2   -1    0    0    0  501  0.00000000000E+00  0.00000000000E+00 -0.29639246387E+03  0.29639246388E+03  0.25500000920E-02 0.  1.
    10030    2    1    2    0    0  0.00000000000E+00  0.00000000000E+00  0.52483974181E+03  0.11176246696E+04  0.98672597384E+03 0.  0.
        4    1    3    3  502    0 -0.12882678412E+03 -0.21263147547E+03  0.74509362178E+03  0.78547730889E+03  0.12699999809E+01 0. -1.
       -4    1    3    3    0  502  0.12882678412E+03  0.21263147547E+03 -0.22025387996E+03  0.33214736068E+03  0.12699999809E+01 0.  1.
</event>
<event>
 5   0  0.8968798E-03  0.1006648E+04  0.7818609E-02  0.9301283E-01
       -2   -1    0    0    0  501  0.00000000000E+00  0.00000000000E+00  0.30611817589E+03  0.30611817590E+03  0.25500000920E-02 0.  1.
        2   -1    0    0  501    0  0.00000000000E+00  0.00000000000E+00 -0.82757298612E+03  0.82757298612E+03  0.25500000920E-02 0. -1.
    10030    2    1    2    0    0  0.00000000000E+00  0.00000000000E+00 -0.52145481023E+03  0.11336911620E+04  0.10066481668E+04 0.  0.
        2    1    3    3  502    0 -0.28202336536E+03  0.20779573788E+03  0.14629661662E+03  0.37963001373E+03  0.25500000920E-02 0.  1.
       -2    1    3    3    0  502  0.28202336536E+03 -0.20779573788E+03 -0.66775142685E+03  0.75406114829E+03  0.25500000920E-02 0. -1.
</event>
<event>
 5   0  0.5072205E-03  0.9981134E+03  0.7818609E-02  0.9310616E-01
        1   -1    0    0  501    0  0.00000000000E+00  0.00000000000E+00  0.81664348454E+03  0.81664348456E+03  0.50400001928E-02 0.  1.
       -1   -1    0    0    0  501  0.00000000000E+00  0.00000000000E+00 -0.30497714363E+03  0.30497714367E+03  0.50400001928E-02 0. -1.
    10030    2    1    2    0    0  0.00000000000E+00  0.00000000000E+00  0.51166634091E+03  0.11216206282E+04  0.99811341503E+03 0.  0.
        5    1    3    3  502    0  0.35194089545E+03 -0.79138585025E+02  0.64333668521E+03  0.73758354786E+03  0.46999998093E+01 0.  1.
       -5    1    3    3    0  502 -0.35194089545E+03  0.79138585025E+02 -0.13167034431E+03  0.38403708037E+03  0.46999998093E+01 0. -1.
</event>
<event>
 5   0  0.8968798E-03  0.9931081E+03  0.7818609E-02  0.9316136E-01
        2   -1    0    0  501    0  0.00000000000E+00  0.00000000000E+00  0.21245646999E+04  0.21245646999E+04  0.25500000920E-02 0.  1.
       -2   -1    0    0    0  501  0.00000000000E+00  0.00000000000E+00 -0.11605479664E+03  0.11605479666E+03  0.25500000920E-02 0. -1.
    10030    2    1    2    0    0  0.00000000000E+00  0.00000000000E+00  0.20085099033E+04  0.22406194966E+04  0.99310809930E+03 0.  0.
        2    1    3    3  502    0 -0.10830215079E+03 -0.30060139337E+03  0.14668709289E+03  0.35157880595E+03  0.25500000920E-02 0. -1.
       -2    1    3    3    0  502  0.10830215079E+03  0.30060139337E+03  0.18618228104E+04  0.18890406906E+04  0.25500000920E-02 0.  1.
</event>
<event>
 5   0  0.5072205E-03  0.1033477E+04  0.7818609E-02  0.9272571E-01
       -1   -1    0    0    0  501  0.00000000000E+00  0.00000000000E+00  0.13124856844E+03  0.13124856853E+03  0.50400001928E-02 0. -1.
        1   -1    0    0  501    0  0.00000000000E+00  0.00000000000E+00 -0.20344518029E+04  0.20344518029E+04  0.50400001928E-02 0.  1.
    10030    2    1    2    0    0  0.00000000000E+00  0.00000000000E+00 -0.19032032345E+04  0.21657003715E+04  0.10334774053E+04 0.  0.
        5    1    3    3  502    0  0.19608115718E+03  0.39554641553E+03 -0.15142550221E+04  0.15773062952E+04  0.46999998093E+01 0.  1.
       -5    1    3    3    0  502 -0.19608115718E+03 -0.39554641553E+03 -0.38894821243E+03  0.58839407627E+03  0.46999998093E+01 0. -1.
</event>
<event>
 5   0  0.5201968E-03  0.9820001E+03  0.7818609E-02  0.9328510E-01
       -1   -1    0    0    0  501  0.00000000000E+00  0.00000000000E+00  0.13981111015E+04  0.13981111015E+04  0.50400001928E-02 0. -1.
        1   -1    0    0  501    0  0.00000000000E+00  0.00000000000E+00 -0.17243338930E+03  0.17243338937E+03  0.50400001928E-02 0.  1.
    10030    2    1    2    0    0  0.00000000000E+00  0.00000000000E+00  0.12256777122E+04  0.15705444909E+04  0.98200007314E+03 0.  0.
        2    1    3    3  502    0 -0.26703387387E+03  0.26772984708E+03  0.11192685122E+03  0.39435260978E+03  0.25500000920E-02 0.  1.
       -2    1    3    3    0  502  0.26703387387E+03 -0.26772984708E+03  0.11137508610E+04  0.11761918811E+04  0.25500000920E-02 0. -1.
</event>
<event>
 5   0  0.5201968E-03  0.9877654E+03  0.7818609E-02  0.9322066E-01
       -1   -1    0    0    0  501  0.00000000000E+00  0.00000000000E+00  0.61475152510E+03  0.61475152512E+03  0.50400001928E-02 0. -1.
        1   -1    0    0  501    0  0.00000000000E+00  0.00000000000E+00 -0.39677840232E+03  0.39677840235E+03  0.50400001928E-02 0.  1.
    10030    2    1    2    0    0  0.00000000000E+00  0.00000000000E+00  0.21797312279E+03  0.10115299275E+04  0.98776541340E+03 0.  0.
        2    1    3    3  502    0  0.69611390353E+02 -0.15872888631E+03  0.58258419596E+03  0.60781983384E+03  0.25500000920E-02 0. -1.
       -2    1    3    3    0  502 -0.69611390353E+02  0.15872888631E+03 -0.36461107317E+03  0.40371009364E+03  0.25500000920E-02 0.  1.
</event>
<event>
 5   0  0.5201968E-03  0.9800325E+03  0.7818609E-02  0.9330720E-01
        1   -1    0    0  501    0  0.00000000000E+00  0.00000000000E+00  0.32093676892E+03  0.32093676896E+03  0.50400001928E-02 0. -1.
       -1   -1    0    0    0  501  0.00000000000E+00  0.00000000000E+00 -0.74817207903E+03  0.74817207904E+03  0.50400001928E-02 0.  1.
    10030    2    1    2    0    0  0.00000000000E+00  0.00000000000E+00 -0.42723531011E+03  0.10691088480E+04  0.98003250899E+03 0.  0.
        2    1    3    3  502    0 -0.96227144125E+02  0.44880516315E+03 -0.40076255183E+03  0.60934092320E+03  0.25500000920E-02 0.  1.
       -2    1    3    3    0  502  0.96227144125E+02 -0.44880516315E+03 -0.26472758276E+02  0.45976792480E+03  0.25500000920E-02 0. -1.
</event>
<event>
 5   0  0.9040674E-03  0.9919791E+03  0.7818609E-02  0.9317386E-01
        2   -1    0    0  501    0  0.00000000000E+00  0.00000000000E+00  0.11446001990E+04  0.11446001990E+04  0.25500000920E-02 0.  1.
       -2   -1    0    0    0  501  0.00000000000E+00  0.00000000000E+00 -0.21492714028E+03  0.21492714030E+03  0.25500000920E-02 0. -1.
    10030    2    1    2    0    0  0.00000000000E+00  0.00000000000E+00  0.92967305873E+03  0.13595273393E+04  0.99197912791E+03 0.  0.
        1    1    3    3  502    0 -0.18732968843E+03  0.14811163793E+03  0.10606206746E+04  0.10871732543E+04  0.50400001928E-02 0.  1.
       -1    1    3    3    0  502  0.18732968843E+03 -0.14811163793E+03 -0.13094761591E+03  0.27235408496E+03  0.50400001928E-02 0. -1.
</event>
<event>
 5   0  0.8875655E-03  0.9964687E+03  0.7818609E-02  0.9312426E-01
        2   -1    0    0  501    0  0.00000000000E+00  0.00000000000E+00  0.97270574608E+03  0.97270574608E+03  0.25500000920E-02 0.  1.
       -2   -1    0    0    0  501  0.00000000000E+00  0.00000000000E+00 -0.25520306218E+03  0.25520306220E+03  0.25500000920E-02 0. -1.
    10030    2    1    2    0    0  0.00000000000E+00  0.00000000000E+00  0.71750268390E+03  0.12279088083E+04  0.99646873511E+03 0.  0.
        4    1    3    3  502    0 -0.48038381019E+03 -0.30869796709E+01  0.52156709350E+03  0.70909236384E+03  0.12699999809E+01 0.  1.
       -4    1    3    3    0  502  0.48038381019E+03  0.30869796709E+01  0.19593559040E+03  0.51881644444E+03  0.12699999809E+01 0. -1.
</event>
<event>
 5   0  0.5189877E-03  0.9926319E+03  0.7818609E-02  0.9316663E-01
        1   -1    0    0  501    0  0.00000000000E+00  0.00000000000E+00  0.16722470618E+03  0.16722470625E+03  0.50400001928E-02 0. -1.
       -1   -1    0    0    0  501  0.00000000000E+00  0.00000000000E+00 -0.14730448978E+04  0.14730448979E+04  0.50400001928E-02 0.  1.
    10030    2    1    2    0    0  0.00000000000E+00  0.00000000000E+00 -0.13058201917E+04  0.16402696041E+04  0.99263185582E+03 0.  0.
        3    1    3    3  502    0 -0.45438078874E+03 -0.19941785302E+03 -0.66944353465E+03  0.83329708842E+03  0.10100000352E+00 0. -1.
       -3    1    3    3    0  502  0.45438078874E+03  0.19941785302E+03 -0.63637665702E+03  0.80697251569E+03  0.10100000352E+00 0.  1.
</event>
<event>
 5   0  0.9243773E-03  0.9993040E+03  0.7818609E-02  0.9309308E-01
       -2   -1    0    0    0  501  0.00000000000E+00  0.00000000000E+00  0.32225102135E+03  0.32225102136E+03  0.25500000920E-02 0. -1.
        2   -1    0    0  501    0  0.00000000000E+00  0.00000000000E+00 -0.77471322849E+03  0.77471322849E+03  0.25500000920E-02 0.  1.
    10030    2    1    2    0    0  0.00000000000E+00  0.00000000000E+00 -0.45246220714E+03  0.10969642499E+04  0.99930401608E+03 0.  0.
        3    1    3    3  502    0 -0.48652443503E+03  0.99471640285E+02 -0.28686989276E+03  0.57349366053E+03  0.10100000352E+00 0.  1.
       -3    1    3    3    0  502  0.48652443503E+03 -0.99471640285E+02 -0.16559231438E+03  0.52347058932E+03  0.10100000352E+00 0. -1.
</event>
<event>
 5   0  0.5189877E-03  0.9907901E+03  0.7818609E-02  0.9318704E-01
       -1   -1    0    0    0  501  0.00000000000E+00  0.00000000000E+00  0.24738037188E+03  0.24738037193E+03  0.50400001928E-02 0.  1.
        1   -1    0    0  501    0  0.00000000000E+00  0.00000000000E+00 -0.99206039935E+03  0.99206039936E+03  0.50400001928E-02 0. -1.
    10030    2    1    2    0    0  0.00000000000E+00  0.00000000000E+00 -0.74468002747E+03  0.12394407713E+04  0.99079013026E+03 0.  0.
        3    1    3    3  502    0 -0.16616564399E+02  0.82115277594E+02  0.23845391294E+03  0.25274356139E+03  0.10100000352E+00 0.  1.
       -3    1    3    3    0  502  0.16616564399E+02 -0.82115277594E+02 -0.98313394041E+03  0.98669720990E+03  0.10100000352E+00 0. -1.
</event>
<event>
 5   0  0.5201968E-03  0.1003632E+04  0.7818609E-02  0.9304570E-01
       -1   -1    0    0    0  501  0.00000000000E+00  0.00000000000E+00  0.90823168027E+03  0.90823168029E+03  0.50400001928E-02 0.  1.
        1   -1    0    0  501    0  0.00000000000E+00  0.00000000000E+00 -0.27726325408E+03  0.27726325413E+03  0.50400001928E-02 0. -1.
    10030    2    1    2    0    0  0.00000000000E+00  0.00000000000E+00  0.63096842619E+03  0.11854949344E+04  0.10036319468E+04 0.  0.
        2    1    3    3  502    0  0.66479034821E+02  0.49738428972E+03  0.31896374563E+03  0.59459941538E+03  0.25500000920E-02 0.  1.
       -2    1    3    3    0  502 -0.66479034821E+02 -0.49738428972E+03  0.31200468055E+03  0.59089551904E+03  0.25500000920E-02 0. -1.
</event>
<event>
 5   0  0.8968798E-03  0.1263875E+04  0.7818609E-02  0.9058713E-01
        2   -1    0    0  501    0  0.00000000000E+00  0.00000000000E+00  0.13011047513E+04  0.13011047513E+04  0.25500000920E-02 0.  1.
       -2   -1    0    0    0  501  0.00000000000E+00  0.00000000000E+00 -0.30692771874E+03  0.30692771875E+03  0.25500000920E-02 0. -1.
    10030    2    1    2    0    0  0.00000000000E+00  0.00000000000E+00  0.99417703252E+03  0.16080324700E+04  0.12638751729E+04 0.  0.
        2    1    3    3  502    0  0.37853017007E+03 -0.17952986269E+01  0.11409001028E+04  0.12020571357E+04  0.25500000920E-02 0.  1.
       -2    1    3    3    0  502 -0.37853017007E+03  0.17952986269E+01 -0.14672307030E+03  0.40597533437E+03  0.25500000920E-02 0. -1.
</event>
<event>
 5   0  0.5072205E-03  0.1014340E+04  0.7818609E-02  0.9292956E-01
       -1   -1    0    0    0  501  0.00000000000E+00  0.00000000000E+00  0.68628406035E+03  0.68628406036E+03  0.50400001928E-02 0. -1.
        1   -1    0    0  501    0  0.00000000000E+00  0.00000000000E+00 -0.37480293270E+03  0.37480293273E+03  0.50400001928E-02 0.  1.
    10030    2    1    2    0    0  0.00000000000E+00  0.00000000000E+00  0.31148112764E+03  0.10610869931E+04  0.10143397429E+04 0.  0.
        5    1    3    3  502    0 -0.19444204896E+03  0.14007434880E+03  0.62329630669E+03  0.66779406222E+03  0.46999998093E+01 0. -1.
       -5    1    3    3    0  502  0.19444204896E+03 -0.14007434880E+03 -0.31181517905E+03  0.39329293088E+03  0.46999998093E+01 0.  1.
</event>
<event>
 5   0  0.5310275E-03  0.9581539E+03  0.7818609E-02  0.9355670E-01
        1   -1    0    0  501    0  0.00000000000E+00  0.00000000000E+00  0.16961846723E+04  0.16961846723E+04  0.50400001928E-02 0. -1.
       -1   -1    0    0    0  501  0.00000000000E+00  0.00000000000E+00 -0.13531233383E+03  0.13531233393E+03  0.50400001928E-02 0.  1.
    10030    2    1    2    0    0  0.00000000000E+00  0.00000000000E+00  0.15608723385E+04  0.18314970063E+04  0.95815386388E+03 0.  0.
        1    1    3    3  502    0  0.17385593139E+03 -0.13320215978E+03 -0.34013606026E+02  0.22164301403E+03  0.50400001928E-02 0.  1.
       -1    1    3    3    0  502 -0.17385593139E+03  0.13320215978E+03  0.15948859445E+04  0.16098539922E+04  0.50400001928E-02 0. -1.
</event>
<event>
 5   0  0.8875655E-03  0.9969178E+03  0.7818609E-02  0.9311932E-01
       -2   -1    0    0    0  501  0.00000000000E+00  0.00000000000E+00  0.44487600730E+03  0.44487600731E+03  0.25500000920E-02 0. -1.
        2   -1    0    0  501    0  0.00000000000E+00  0.00000000000E+00 -0.55849551838E+03  0.55849551839E+03  0.25500000920E-02 0.  1.
    10030    2    1    2    0    0  0.00000000000E+00  0.00000000000E+00 -0.11361951108E+03  0.10033715257E+04  0.99691776255E+03 0.  0.
        4    1    3    3  502    0 -0.15350978015E+02  0.39799351143E+03  0.24483892332E+03  0.46752775205E+03  0.12699999809E+01 0. -1.
       -4    1    3    3    0  502  0.15350978015E+02 -0.39799351143E+03 -0.35845843440E+03  0.53584377365E+03  0.12699999809E+01 0.  1.
</event>
<event>
 5   0  0.5310275E-03  0.9969624E+03  0.7818609E-02  0.9311883E-01
        1   -1    0    0  501    0  0.00000000000E+00  0.00000000000E+00  0.12477563580E+04  0.12477563580E+04  0.50400001928E-02 0.  1.
       -1   -1    0    0    0  501  0.00000000000E+00  0.00000000000E+00 -0.19914425068E+03  0.19914425074E+03  0.50400001928E-02 0. -1.
    10030    2    1    2    0    0  0.00000000000E+00  0.00000000000E+00  0.10486121074E+04  0.14469006088E+04  0.99696239649E+03 0.  0.
        1    1    3    3  502    0 -0.24542117961E+03  0.27046050646E+02 -0.10416351322E+03  0.26797962939E+03  0.50400001928E-02 0. -1.
       -1    1    3    3    0  502  0.24542117961E+03 -0.27046050646E+02  0.11527756206E+04  0.11789209794E+04  0.50400001928E-02 0.  1.
</event>
<event>
 5   0  0.8875655E-03  0.1002919E+04  0.7818609E-02  0.9305349E-01
        2   -1    0    0  501    0  0.00000000000E+00  0.00000000000E+00  0.11777149858E+04  0.11777149858E+04  0.25500000920E-02 0.  1.
       -2   -1    0    0    0  501  0.00000000000E+00  0.00000000000E+00 -0.21351669159E+03  0.21351669160E+03  0.25500000920E-02 0. -1.
    10030    2    1    2    0    0  0.00000000000E+00  0.00000000000E+00  0.96419829418E+03  0.13912316774E+04  0.10029193535E+04 0.  0.
        4    1    3    3  502    0  0.70546890505E+02  0.41674618683E+03  0.85639660003E+03  0.95502408212E+03  0.12699999809E+01 0.  1.
       -4    1    3    3    0  502 -0.70546890505E+02 -0.41674618683E+03  0.10780169416E+03  0.43620759526E+03  0.12699999809E+01 0. -1.
</event>
<event>
 5   0  0.8907355E-03  0.9911022E+03  0.7818609E-02  0.9318358E-01
        2   -1    0    0  501    0  0.00000000000E+00  0.00000000000E+00  0.48279948137E+03  0.48279948138E+03  0.25500000920E-02 0.  1.
       -2   -1    0    0    0  501  0.00000000000E+00  0.00000000000E+00 -0.50863949232E+03  0.50863949232E+03  0.25500000920E-02 0. -1.
    10030    2    1    2    0    0  0.00000000000E+00  0.00000000000E+00 -0.25840010946E+02  0.99143897370E+03  0.99110218061E+03 0.  0.
        5    1    3    3  502    0 -0.16447924312E+03  0.21554797089E+03 -0.42783130220E+03  0.50653337730E+03  0.46999998093E+01 0. -1.
       -5    1    3    3    0  502  0.16447924312E+03 -0.21554797089E+03  0.40199129126E+03  0.48490559640E+03  0.46999998093E+01 0.  1.
</event>
<event>
 5   0  0.5349685E-03  0.1011366E+04  0.7818609E-02  0.9296166E-01
       -1   -1    0    0    0  501  0.00000000000E+00  0.00000000000E+00  0.31339053287E+03  0.31339053291E+03  0.50400001928E-02 0. -1.
        1   -1    0    0  501    0  0.00000000000E+00  0.00000000000E+00 -0.81596390591E+03  0.81596390592E+03  0.50400001928E-02 0.  1.
    10030    2    1    2    0    0  0.00000000000E+00  0.00000000000E+00 -0.50257337304E+03  0.11293544388E+04  0.10113661321E+04 0.  0.
        4    1    3    3  502    0 -0.45797111437E+03  0.42986637553E+02 -0.16712218621E+02  0.46028936959E+03  0.12699999809E+01 0. -1.
       -4    1    3    3    0  502  0.45797111437E+03 -0.42986637553E+02 -0.48586115442E+03  0.66906506924E+03  0.12699999809E+01 0.  1.
</event>
<event>
 5   0  0.8907355E-03  0.1013395E+04  0.7818609E-02  0.9293974E-01
        2   -1    0    0  501    0  0.00000000000E+00  0.00000000000E+00  0.72436899684E+03  0.72436899685E+03  0.25500000920E-02 0. -1.
       -2   -1    0    0    0  501  0.00000000000E+00  0.00000000000E+00 -0.35443595327E+03  0.35443595328E+03  0.25500000920E-02 0.  1.
    10030    2    1    2    0    0  0.00000000000E+00  0.00000000000E+00  0.36993304357E+03  0.10788049501E+04  0.10133951173E+04 0.  0.
        5    1    3    3  502    0 -0.12366942481E+03 -0.26156693818E+03  0.62775712000E+03  0.69123981474E+03  0.46999998093E+01 0. -1.
       -5    1    3    3    0  502  0.12366942481E+03  0.26156693818E+03 -0.25782407643E+03  0.38756513538E+03  0.46999998093E+01 0.  1.
</event>
<event>
 5   0  0.3513625E-03  0.9896899E+03  0.7818609E-02  0.9319926E-01
        4   -1    0    0  501    0  0.00000000000E+00  0.00000000000E+00  0.89754484954E+03  0.89754574804E+03  0.12699999809E+01 0. -1.
       -4   -1    0    0    0  501  0.00000000000E+00  0.00000000000E+00 -0.27282118097E+03  0.27282413691E+03  0.12699999809E+01 0.  1.
    10030    2    1    2    0    0  0.00000000000E+00  0.00000000000E+00  0.62472366857E+03  0.11703698850E+04  0.98968985321E+03 0.  0.
        3    1    3    3  502    0 -0.19322791587E+03 -0.45507578271E+03  0.33718143896E+03  0.59843322807E+03  0.10100000352E+00 0. -1.
       -3    1    3    3    0  502  0.19322791587E+03  0.45507578271E+03  0.28754222961E+03  0.57193665689E+03  0.10100000352E+00 0.  1.
</event>
<event>
 5   0  0.8968798E-03  0.9977722E+03  0.7818609E-02  0.9310992E-01
       -2   -1    0    0    0  501  0.00000000000E+00  0.00000000000E+00  0.22374657468E+03  0.22374657469E+03  0.25500000920E-02 0. -1.
        2   -1    0    0  501    0  0.00000000000E+00  0.00000000000E+00 -0.11123626515E+04  0.11123626515E+04  0.25500000920E-02 0.  1.
    10030    2    1    2    0    0  0.00000000000E+00  0.00000000000E+00 -0.88861607685E+03  0.13361092262E+04  0.99777218460E+03 0.  0.
        2    1    3    3  502    0 -0.20740421774E+03  0.37618671826E+03 -0.78401121960E+03  0.89398352837E+03  0.25500000920E-02 0.  1.
       -2    1    3    3    0  502  0.20740421774E+03 -0.37618671826E+03 -0.10460485726E+03  0.44212569785E+03  0.25500000920E-02 0. -1.
</event>
<event>
 5   0  0.5189877E-03  0.1021559E+04  0.7818609E-02  0.9285210E-01
       -1   -1    0    0    0  501  0.00000000000E+00  0.00000000000E+00  0.22042318775E+03  0.22042318781E+03  0.50400001928E-02 0.  1.
        1   -1    0    0  501    0  0.00000000000E+00  0.00000000000E+00 -0.11836132270E+04  0.11836132270E+04  0.50400001928E-02 0. -1.
    10030    2    1    2    0    0  0.00000000000E+00  0.00000000000E+00 -0.96319003924E+03  0.14040364148E+04  0.10215592016E+04 0.  0.
        3    1    3    3  502    0  0.26086181854E+03 -0.42320938922E+03 -0.64270390616E+03  0.81254131999E+03  0.10100000352E+00 0. -1.
       -3    1    3    3    0  502 -0.26086181854E+03  0.42320938922E+03 -0.32048613308E+03  0.59149509482E+03  0.10100000352E+00 0.  1.
</event>
</LesHouchesEvents>
