<LesHouchesEvents version="3.0">
<header>
<!--
#*********************************************************************
#                                                                    *
#                        MadGraph5_aMC@NLO                           *
#                                                                    *
#                           Going Beyond                             *
#                                                                    *
#                   http://madgraph.hep.uiuc.edu                     *
#                   http://madgraph.phys.ucl.ac.be                   *
#                   http://amcatnlo.cern.ch                          *
#                                                                    *
#                     The MadGraph5_aMC@NLO team                     *
#                                                                    *
#....................................................................*
#                                                                    *
# This file contains all the information necessary to reproduce      *
# the events generated:                                              *
#                                                                    *
# 1. software version                                                *
# 2. proc_card          : code generation info including model       *
# 3. param_card         : model primary parameters in the LH format  *
# 4. run_card           : running parameters (collider and cuts)     *
# 5. pythia_card        : present only if pythia has been run        *
# 6. pgs_card           : present only if pgs has been run           *
# 7. delphes_cards      : present only if delphes has been run       *
#                                                                    *
#                                                                    *
#*********************************************************************
-->
<MGVersion>
#5.2.2.3
</MGVersion>
<MG5ProcCard>
#************************************************************
#*                     MadGraph5_aMC@NLO                    *
#*                                                          *
#*                *                       *                 *
#*                  *        * *        *                   *
#*                    * * * * 5 * * * *                     *
#*                  *        * *        *                   *
#*                *                       *                 *
#*                                                          *
#*                                                          *
#*         VERSION 2.2.3                 2015-02-10         *
#*                                                          *
#*    The MadGraph5_aMC@NLO Development Team - Find us at   *
#*    https://server06.fynu.ucl.ac.be/projects/madgraph     *
#*                                                          *
#************************************************************
#*                                                          *
#*               Command File for MadGraph5_aMC@NLO         *
#*                                                          *
#*     run as ./bin/mg5_aMC  filename                       *
#*                                                          *
#************************************************************
set group_subprocesses Auto
set ignore_six_quark_processes False
set loop_optimized_output True
set gauge unitary
set complex_mass_scheme False
import model sm
define p = g u c d s u~ c~ d~ s~
define j = g u c d s u~ c~ d~ s~
define l+ = e+ mu+
define l- = e- mu-
define vl = ve vm vt
define vl~ = ve~ vm~ vt~
import model Zprime_UFO
generate p p > zph, zph > j j
add process p p > zph, zph > b b~
output Dijet_signal
</MG5ProcCard>
<MGProcCard>
#*********************************************************************
#                        MadGraph/MadEvent                           *
#                   http://madgraph.hep.uiuc.edu                     *
#                                                                    *
#                          proc_card.dat                             *
#*********************************************************************
#                                                                    *
#            This Files is generated by MADGRAPH 5                   *
#                                                                    *
# WARNING: This Files is generated for MADEVENT (compatibility issue)*
#          This files is NOT a valid MG4 proc_card.dat               *
#          Running this in MG4 will NEVER reproduce the result of MG5*
#                                                                    *
#*********************************************************************
#*********************************************************************
# Process(es) requested : mg2 input                                  *
#*********************************************************************
# Begin PROCESS # This is TAG. Do not modify this line
p p > zph , zph > j j           #Process
# Be carefull the coupling are here in MG5 convention
          
end_coup           # End the couplings input

done               # this tells MG there are no more procs
# End PROCESS  # This is TAG. Do not modify this line
#*********************************************************************
# Model information                                                  *
#*********************************************************************
# Begin MODEL  # This is TAG. Do not modify this line
Zprime_UFO
# End   MODEL  # This is TAG. Do not modify this line
#*********************************************************************
# Start multiparticle definitions                                    *
#*********************************************************************
# Begin MULTIPARTICLES # This is TAG. Do not modify this line

# End  MULTIPARTICLES # This is TAG. Do not modify this line
</MGProcCard>
<MGRunCard>
#*********************************************************************
#                       MadGraph5_aMC@NLO                            *
#                                                                    *
#                     run_card.dat MadEvent                          *
#                                                                    *
#  This file is used to set the parameters of the run.               *
#                                                                    *
#  Some notation/conventions:                                        *
#                                                                    *
#   Lines starting with a '# ' are info or comments                  *
#                                                                    *
#   mind the format:   value    = variable     ! comment             *
#*********************************************************************
#
#*******************                                                 
# Running parameters
#*******************                                                 
#                                                                    
#*********************************************************************
# Tag name for the run (one word)                                    *
#*********************************************************************
  tag_1     = run_tag ! name of the run 
#*********************************************************************
# Run to generate the grid pack                                      *
#*********************************************************************
  .false.     = gridpack  !True = setting up the grid pack
#*********************************************************************
# Number of events and rnd seed                                      *
# Warning: Do not generate more than 1M events in a single run       *
# If you want to run Pythia, avoid more than 50k events in a run.    *
#*********************************************************************
  2000 = nevents ! Number of unweighted events requested 
 813 = iseed   ! rnd seed (0=assigned automatically=default))
#*********************************************************************
# Collider type and energy                                           *
# lpp: 0=No PDF, 1=proton, -1=antiproton, 2=photon from proton,      *
#                                         3=photon from electron     *
#*********************************************************************
        1     = lpp1    ! beam 1 type 
        1     = lpp2    ! beam 2 type
     4000     = ebeam1  ! beam 1 total energy in GeV
     4000     = ebeam2  ! beam 2 total energy in GeV
#*********************************************************************
# Beam polarization from -100 (left-handed) to 100 (right-handed)    *
#*********************************************************************
        0     = polbeam1 ! beam polarization for beam 1
        0     = polbeam2 ! beam polarization for beam 2
#*********************************************************************
# PDF CHOICE: this automatically fixes also alpha_s and its evol.    *
#*********************************************************************
 'nn23lo1'    = pdlabel     ! PDF set                                     
 230000    = lhaid     ! if pdlabel=lhapdf, this is the lhapdf number
#*********************************************************************
# Renormalization and factorization scales                           *
#*********************************************************************
 F        = fixed_ren_scale  ! if .true. use fixed ren scale
 F        = fixed_fac_scale  ! if .true. use fixed fac scale
 91.1880  = scale            ! fixed ren scale
 91.1880  = dsqrt_q2fact1    ! fixed fact scale for pdf1
 91.1880  = dsqrt_q2fact2    ! fixed fact scale for pdf2
 1        = scalefact        ! scale factor for event-by-event scales
#*********************************************************************
# Matching - Warning! ickkw > 1 is still beta
#*********************************************************************
 0        = ickkw            ! 0 no matching, 1 MLM, 2 CKKW matching
 1        = highestmult      ! for ickkw=2, highest mult group
 1        = ktscheme         ! for ickkw=1, 1 Durham kT, 2 Pythia pTE
 1        = alpsfact         ! scale factor for QCD emission vx
 F        = chcluster        ! cluster only according to channel diag
 T        = pdfwgt           ! for ickkw=1, perform pdf reweighting
 5        = asrwgtflavor     ! highest quark flavor for a_s reweight
 T        = clusinfo         ! include clustering tag in output
 3.0      = lhe_version       ! Change the way clustering information pass to shower.        
#*********************************************************************
#**********************************************************
#
#**********************************************************
# Automatic ptj and mjj cuts if xqcut > 0
# (turn off for VBF and single top processes)
#**********************************************************
   T  = auto_ptj_mjj  ! Automatic setting of ptj and mjj
#**********************************************************
#                                                                    
#**********************************
# BW cutoff (M+/-bwcutoff*Gamma)
#**********************************
  15  = bwcutoff      ! (M+/-bwcutoff*Gamma)
#**********************************************************
# Apply pt/E/eta/dr/mij cuts on decay products or not
# (note that etmiss/ptll/ptheavy/ht/sorted cuts always apply)
#**********************************************************
   T  = cut_decays    ! Cut decay products 
#*************************************************************
# Number of helicities to sum per event (0 = all helicities)
# 0 gives more stable result, but longer run time (needed for
# long decay chains e.g.).
# Use >=2 if most helicities contribute, e.g. pure QCD.
#*************************************************************
   0  = nhel          ! Number of helicities used per event
#*******************                                                 
# Standard Cuts
#*******************                                                 
#                                                                    
#*********************************************************************
# Minimum and maximum pt's (for max, -1 means no cut)                *
#*********************************************************************
 20  = ptj       ! minimum pt for the jets 
  0  = ptb       ! minimum pt for the b 
 10  = pta       ! minimum pt for the photons 
 10  = ptl       ! minimum pt for the charged leptons 
  0  = misset    ! minimum missing Et (sum of neutrino's momenta)
  0  = ptheavy   ! minimum pt for one heavy final state
 1.0 = ptonium   ! minimum pt for the quarkonium states
 -1  = ptjmax    ! maximum pt for the jets
 -1  = ptbmax    ! maximum pt for the b
 -1  = ptamax    ! maximum pt for the photons
 -1  = ptlmax    ! maximum pt for the charged leptons
 -1  = missetmax ! maximum missing Et (sum of neutrino's momenta)
#*********************************************************************
# Minimum and maximum E's (in the center of mass frame)              *
#*********************************************************************
  0  = ej     ! minimum E for the jets 
  0  = eb     ! minimum E for the b 
  0  = ea     ! minimum E for the photons 
  0  = el     ! minimum E for the charged leptons 
 -1   = ejmax ! maximum E for the jets
 -1   = ebmax ! maximum E for the b
 -1   = eamax ! maximum E for the photons
 -1   = elmax ! maximum E for the charged leptons
#*********************************************************************
# Maximum and minimum absolute rapidity (for max, -1 means no cut)   *
#*********************************************************************
   5  = etaj    ! max rap for the jets 
  -1  = etab    ! max rap for the b
 2.5  = etaa    ! max rap for the photons 
 2.5  = etal    ! max rap for the charged leptons 
 0.6  = etaonium ! max rap for the quarkonium states
   0  = etajmin ! min rap for the jets
   0  = etabmin ! min rap for the b
   0  = etaamin ! min rap for the photons
   0  = etalmin ! main rap for the charged leptons
#*********************************************************************
# Minimum and maximum DeltaR distance                                *
#*********************************************************************
 0.4 = drjj    ! min distance between jets 
 0   = drbb    ! min distance between b's 
 0.4 = drll    ! min distance between leptons 
 0.4 = draa    ! min distance between gammas 
 0   = drbj    ! min distance between b and jet 
 0.4 = draj    ! min distance between gamma and jet 
 0.4 = drjl    ! min distance between jet and lepton 
 0   = drab    ! min distance between gamma and b 
 0   = drbl    ! min distance between b and lepton 
 0.4 = dral    ! min distance between gamma and lepton 
 -1  = drjjmax ! max distance between jets
 -1  = drbbmax ! max distance between b's
 -1  = drllmax ! max distance between leptons
 -1  = draamax ! max distance between gammas
 -1  = drbjmax ! max distance between b and jet
 -1  = drajmax ! max distance between gamma and jet
 -1  = drjlmax ! max distance between jet and lepton
 -1  = drabmax ! max distance between gamma and b
 -1  = drblmax ! max distance between b and lepton
 -1  = dralmax ! maxdistance between gamma and lepton
#*********************************************************************
# Minimum and maximum invariant mass for pairs                       *
# WARNING: for four lepton final state mmll cut require to have      *
#          different lepton masses for each flavor!                  *           
#*********************************************************************
 0   = mmjj    ! min invariant mass of a jet pair 
 0   = mmbb    ! min invariant mass of a b pair 
 0   = mmaa    ! min invariant mass of gamma gamma pair
 0   = mmll    ! min invariant mass of l+l- (same flavour) lepton pair
 -1  = mmjjmax ! max invariant mass of a jet pair
 -1  = mmbbmax ! max invariant mass of a b pair
 -1  = mmaamax ! max invariant mass of gamma gamma pair
 -1  = mmllmax ! max invariant mass of l+l- (same flavour) lepton pair
#*********************************************************************
# Minimum and maximum invariant mass for all letpons                 *
#*********************************************************************
 0   = mmnl    ! min invariant mass for all letpons (l+- and vl) 
 -1  = mmnlmax ! max invariant mass for all letpons (l+- and vl) 
#*********************************************************************
# Minimum and maximum pt for 4-momenta sum of leptons                *
#*********************************************************************
 0   = ptllmin  ! Minimum pt for 4-momenta sum of leptons(l and vl)
 -1  = ptllmax  ! Maximum pt for 4-momenta sum of leptons(l and vl)
#*********************************************************************
# Inclusive cuts                                                     *
#*********************************************************************
 0  = xptj ! minimum pt for at least one jet  
 0  = xptb ! minimum pt for at least one b 
 0  = xpta ! minimum pt for at least one photon 
 0  = xptl ! minimum pt for at least one charged lepton 
#*********************************************************************
# Control the pt's of the jets sorted by pt                          *
#*********************************************************************
 0   = ptj1min ! minimum pt for the leading jet in pt
 0   = ptj2min ! minimum pt for the second jet in pt
 0   = ptj3min ! minimum pt for the third jet in pt
 0   = ptj4min ! minimum pt for the fourth jet in pt
 -1  = ptj1max ! maximum pt for the leading jet in pt 
 -1  = ptj2max ! maximum pt for the second jet in pt
 -1  = ptj3max ! maximum pt for the third jet in pt
 -1  = ptj4max ! maximum pt for the fourth jet in pt
 0   = cutuse  ! reject event if fails any (0) / all (1) jet pt cuts
#*********************************************************************
# Control the pt's of leptons sorted by pt                           *
#*********************************************************************
 0   = ptl1min ! minimum pt for the leading lepton in pt
 0   = ptl2min ! minimum pt for the second lepton in pt
 0   = ptl3min ! minimum pt for the third lepton in pt
 0   = ptl4min ! minimum pt for the fourth lepton in pt
 -1  = ptl1max ! maximum pt for the leading lepton in pt 
 -1  = ptl2max ! maximum pt for the second lepton in pt
 -1  = ptl3max ! maximum pt for the third lepton in pt
 -1  = ptl4max ! maximum pt for the fourth lepton in pt
#*********************************************************************
# Control the Ht(k)=Sum of k leading jets                            *
#*********************************************************************
 0   = htjmin ! minimum jet HT=Sum(jet pt)
 -1  = htjmax ! maximum jet HT=Sum(jet pt)
 0   = ihtmin  !inclusive Ht for all partons (including b)
 -1  = ihtmax  !inclusive Ht for all partons (including b)
 0   = ht2min ! minimum Ht for the two leading jets
 0   = ht3min ! minimum Ht for the three leading jets
 0   = ht4min ! minimum Ht for the four leading jets
 -1  = ht2max ! maximum Ht for the two leading jets
 -1  = ht3max ! maximum Ht for the three leading jets
 -1  = ht4max ! maximum Ht for the four leading jets
#***********************************************************************
# Photon-isolation cuts, according to hep-ph/9801442                   *
# When ptgmin=0, all the other parameters are ignored                  *
# When ptgmin>0, pta and draj are not going to be used                 *
#***********************************************************************
   0 = ptgmin ! Min photon transverse momentum
 0.4 = R0gamma ! Radius of isolation code
 1.0 = xn ! n parameter of eq.(3.4) in hep-ph/9801442
 1.0 = epsgamma ! epsilon_gamma parameter of eq.(3.4) in hep-ph/9801442
 .true. = isoEM ! isolate photons from EM energy (photons and leptons)
#*********************************************************************
# WBF cuts                                                           *
#*********************************************************************
 0   = xetamin ! minimum rapidity for two jets in the WBF case  
 0   = deltaeta ! minimum rapidity for two jets in the WBF case 
#*********************************************************************
# KT DURHAM CUT                                                      *
#*********************************************************************
 -1    =  ktdurham        
 0.4  =  dparameter 
#*********************************************************************
# maximal pdg code for quark to be considered as a light jet         *
# (otherwise b cuts are applied)                                     *
#*********************************************************************
 4 = maxjetflavor    ! Maximum jet pdg code
#*********************************************************************
# Jet measure cuts                                                   *
#*********************************************************************
 0   = xqcut   ! minimum kt jet measure between partons
#*********************************************************************
#
#*********************************************************************
# Store info for systematics studies                                 *
# WARNING: If use_syst is T, matched Pythia output is                *
#          meaningful ONLY if plotted taking matchscale              *
#          reweighting into account!                                 *
#*********************************************************************
   F  = use_syst      ! Enable systematics studies
#
#**************************************
# Parameter of the systematics study
#  will be used by SysCalc (if installed)
#**************************************                                  
#
0.5 1 2 = sys_scalefact  # factorization/renormalization scale factor
0.5 1 2 = sys_alpsfact  # \alpha_s emission scale factors
30 50 = sys_matchscale # variation of merging scale
# PDF sets and number of members (0 or none for all members).
CT10nlo.LHgrid = sys_pdf # matching scales
# MSTW2008nlo68cl.LHgrid 1  = sys_pdf
</MGRunCard>
<slha>
######################################################################
## PARAM_CARD AUTOMATICALY GENERATED BY MG5 FOLLOWING UFO MODEL   ####
######################################################################
##                                                                  ##
##  Width set on Auto will be computed following the information    ##
##        present in the decay.py files of the model.               ##
##        See  arXiv:1402.1178 for more details.                    ##
##                                                                  ##
######################################################################

###################################
## INFORMATION FOR CKMBLOCK
###################################
Block ckmblock 
    1 2.277360e-01 # cabi 

###################################
## INFORMATION FOR FRBLOCK
###################################
Block frblock 
    1 2.000000e-01 # gz 

###################################
## INFORMATION FOR MASS
###################################
Block mass 
    1 5.040000e-03 # MD 
    2 2.550000e-03 # MU 
    3 1.010000e-01 # MS 
    4 1.270000e+00 # MC 
    5 4.700000e+00 # MB 
    6 1.720000e+02 # MT 
   11 5.110000e-04 # Me 
   13 1.056600e-01 # MM 
   15 1.777000e+00 # MTA 
   23 9.118760e+01 # MZ 
   25 1.200000e+02 # MH 
  10030 4.000000e+03 # MZph 
  10031 3.000000e+02 # MZpl 
## Dependent parameters, given by model restrictions.
## Those values should be edited following the 
## analytical expression. MG5 ignores those values 
## but they are important for interfacing the output of MG5
## to external program such as Pythia.
  12 0.000000 # ve : 0.0 
  14 0.000000 # vm : 0.0 
  16 0.000000 # vt : 0.0 
  21 0.000000 # g : 0.0 
  22 0.000000 # a : 0.0 
  24 79.824360 # w+ : cmath.sqrt(MZ__exp__2/2. + cmath.sqrt(MZ__exp__4/4. - (aEW*cmath.pi*MZ__exp__2)/(Gf*sqrt__2))) 

###################################
## INFORMATION FOR SMINPUTS
###################################
Block sminputs 
    1 1.279000e+02 # aEWM1 
    2 1.166370e-05 # Gf 
    3 1.184000e-01 # aS 

###################################
## INFORMATION FOR YUKAWA
###################################
Block yukawa 
    1 5.040000e-03 # ymdo 
    2 2.550000e-03 # ymup 
    3 1.010000e-01 # yms 
    4 1.270000e+00 # ymc 
    5 4.700000e+00 # ymb 
    6 1.720000e+02 # ymt 
   11 5.110000e-04 # yme 
   13 1.056600e-01 # ymm 
   15 1.777000e+00 # ymtau 

###################################
## INFORMATION FOR DECAY
###################################
DECAY   6 1.508336e+00 # WT 
DECAY  23 2.495200e+00 # WZ 
DECAY  24 2.085000e+00 # WW 
DECAY  25 5.753088e-03 # WH 
## Dependent parameters, given by model restrictions.
## Those values should be edited following the 
## analytical expression. MG5 ignores those values 
## but they are important for interfacing the output of MG5
## to external program such as Pythia.
DECAY  1 0.000000 # d : 0.0 
DECAY  2 0.000000 # u : 0.0 
DECAY  3 0.000000 # s : 0.0 
DECAY  4 0.000000 # c : 0.0 
DECAY  5 0.000000 # b : 0.0 
DECAY  11 0.000000 # e- : 0.0 
DECAY  12 0.000000 # ve : 0.0 
DECAY  13 0.000000 # mu- : 0.0 
DECAY  14 0.000000 # vm : 0.0 
DECAY  15 0.000000 # ta- : 0.0 
DECAY  16 0.000000 # vt : 0.0 
DECAY  21 0.000000 # g : 0.0 
DECAY  22 0.000000 # a : 0.0 
DECAY  10030 0.308725 # zph : (gz__exp__2*MZph*(5 + cmath.sqrt(1 - (4*MT__exp__2)/MZph__exp__2)))/(144.*cmath.pi) 
DECAY  10031 0.132629 # zpl : (5*gz__exp__2*MZpl)/(144.*cmath.pi) 
#===========================================================
# QUANTUM NUMBERS OF NEW STATE(S) (NON SM PDG CODE)
#===========================================================

Block QNUMBERS 10030  # zph 
        1 0  # 3 times electric charge
        2 3  # number of spin states (2S+1)
        3 1  # colour rep (1: singlet, 3: triplet, 8: octet)
        4 0  # Particle/Antiparticle distinction (0=own anti)
Block QNUMBERS 10031  # zpl 
        1 0  # 3 times electric charge
        2 3  # number of spin states (2S+1)
        3 1  # colour rep (1: singlet, 3: triplet, 8: octet)
        4 0  # Particle/Antiparticle distinction (0=own anti)
</slha>
## END BANNER##
<MGGenerationInfo>
#  Number of Events        :         3803
#  Integrated weight (pb)  :  0.16625E-05
#  Max wgt                 :  0.67363E-09
#  Average wgt             :  0.43715E-09
</MGGenerationInfo>
</header>
<init>
     2212     2212  0.40000000000E+04  0.40000000000E+04 0 0  247000  247000 2   1
  0.16631938650E-05  0.32016356849E-08  0.67363350000E-09   0
</init>
<event>
 5   0  0.6736335E-09  0.4001242E+04  0.7818609E-02  0.8004296E-01
       -2   -1    0    0    0  501  0.00000000000E+00  0.00000000000E+00  0.18757179475E+04  0.18757179475E+04  0.25500000920E-02 0.  1.
        2   -1    0    0  501    0  0.00000000000E+00  0.00000000000E+00 -0.21338411113E+04  0.21338411113E+04  0.25500000920E-02 0. -1.
    10030    2    1    2    0    0  0.00000000000E+00  0.00000000000E+00 -0.25812316386E+03  0.40095590588E+04  0.40012418420E+04 0.  0.
        1    1    3    3  502    0  0.14439827065E+04 -0.13132215759E+04 -0.56911801645E+03  0.20331090184E+04  0.50400001928E-02 0. -1.
       -1    1    3    3    0  502 -0.14439827065E+04  0.13132215759E+04  0.31099485259E+03  0.19764500404E+04  0.50400001928E-02 0.  1.
</event>
<event>
 5   0  0.6736335E-09  0.3999967E+04  0.7818609E-02  0.8004553E-01
        2   -1    0    0  501    0  0.00000000000E+00  0.00000000000E+00  0.21949527746E+04  0.21949527746E+04  0.25500000920E-02 0.  1.
       -2   -1    0    0    0  501  0.00000000000E+00  0.00000000000E+00 -0.18223330352E+04  0.18223330352E+04  0.25500000920E-02 0. -1.
    10030    2    1    2    0    0  0.00000000000E+00  0.00000000000E+00  0.37261973934E+03  0.40172858098E+04  0.39999674758E+04 0.  0.
        1    1    3    3  502    0 -0.16852422655E+04 -0.10531635907E+04  0.41254034919E+03  0.20296267100E+04  0.50400001928E-02 0. -1.
       -1    1    3    3    0  502  0.16852422655E+04  0.10531635907E+04 -0.39920609852E+02  0.19876590999E+04  0.50400001928E-02 0.  1.
</event>
<event>
 5   0  0.6645526E-09  0.4002133E+04  0.7818609E-02  0.8004116E-01
        2   -1    0    0  501    0  0.00000000000E+00  0.00000000000E+00  0.11974099865E+04  0.11974099866E+04  0.25500000920E-02 0.  1.
       -2   -1    0    0    0  501  0.00000000000E+00  0.00000000000E+00 -0.33441076582E+04  0.33441076582E+04  0.25500000920E-02 0. -1.
    10030    2    1    2    0    0  0.00000000000E+00  0.00000000000E+00 -0.21466976716E+04  0.45415176447E+04  0.40021333841E+04 0.  0.
        3    1    3    3  502    0  0.93491267116E+02 -0.14070041481E+04 -0.26845150354E+04  0.30323295130E+04  0.10100000352E+00 0. -1.
       -3    1    3    3    0  502 -0.93491267116E+02  0.14070041481E+04  0.53781736380E+03  0.15091881317E+04  0.10100000352E+00 0.  1.
</event>
<event>
 5   0  0.6736335E-09  0.3999309E+04  0.7818609E-02  0.8004686E-01
       -2   -1    0    0    0  501  0.00000000000E+00  0.00000000000E+00  0.16453078332E+04  0.16453078332E+04  0.25500000920E-02 0.  1.
        2   -1    0    0  501    0  0.00000000000E+00  0.00000000000E+00 -0.24303157912E+04  0.24303157912E+04  0.25500000920E-02 0. -1.
    10030    2    1    2    0    0  0.00000000000E+00  0.00000000000E+00 -0.78500795803E+03  0.40756236243E+04  0.39993087444E+04 0.  0.
        1    1    3    3  502    0 -0.15767200868E+04  0.43153895457E+03 -0.15661509263E+04  0.22638685530E+04  0.50400001928E-02 0. -1.
       -1    1    3    3    0  502  0.15767200868E+04 -0.43153895457E+03  0.78114296826E+03  0.18117550713E+04  0.50400001928E-02 0.  1.
</event>
<event>
 5   0  0.6645526E-09  0.4001065E+04  0.7818609E-02  0.8004332E-01
       -2   -1    0    0    0  501  0.00000000000E+00  0.00000000000E+00  0.17660921021E+04  0.17660921021E+04  0.25500000920E-02 0. -1.
        2   -1    0    0  501    0  0.00000000000E+00  0.00000000000E+00 -0.22660939732E+04  0.22660939732E+04  0.25500000920E-02 0.  1.
    10030    2    1    2    0    0  0.00000000000E+00  0.00000000000E+00 -0.50000187109E+03  0.40321860752E+04  0.40010651924E+04 0.  0.
        3    1    3    3  502    0  0.13445154888E+03  0.12317683170E+04  0.13328205246E+04  0.18198189379E+04  0.10100000352E+00 0. -1.
       -3    1    3    3    0  502 -0.13445154888E+03 -0.12317683170E+04 -0.18328223957E+04  0.22123671373E+04  0.10100000352E+00 0.  1.
</event>
<event>
 5   0  0.2078125E-09  0.4000739E+04  0.7818609E-02  0.8004398E-01
       -1   -1    0    0    0  501  0.00000000000E+00  0.00000000000E+00  0.15112722268E+04  0.15112722268E+04  0.50400001928E-02 0. -1.
        1   -1    0    0  501    0  0.00000000000E+00  0.00000000000E+00 -0.26477543883E+04  0.26477543883E+04  0.50400001928E-02 0.  1.
    10030    2    1    2    0    0  0.00000000000E+00  0.00000000000E+00 -0.11364821616E+04  0.41590266151E+04  0.40007387670E+04 0.  0.
        1    1    3    3  502    0 -0.74473700199E+03  0.10076703430E+04 -0.21892437332E+04  0.25224632497E+04  0.50400001928E-02 0.  1.
       -1    1    3    3    0  502  0.74473700199E+03 -0.10076703430E+04  0.10527615717E+04  0.16365633655E+04  0.50400001928E-02 0. -1.
</event>
<event>
 5   0  0.2078125E-09  0.3998124E+04  0.7818609E-02  0.8004925E-01
       -1   -1    0    0    0  501  0.00000000000E+00  0.00000000000E+00  0.14648328194E+04  0.14648328194E+04  0.50400001928E-02 0. -1.
        1   -1    0    0  501    0  0.00000000000E+00  0.00000000000E+00 -0.27281257674E+04  0.27281257674E+04  0.50400001928E-02 0.  1.
    10030    2    1    2    0    0  0.00000000000E+00  0.00000000000E+00 -0.12632929480E+04  0.41929585868E+04  0.39981236397E+04 0.  0.
        3    1    3    3  502    0  0.14023993052E+03  0.12082158201E+04 -0.22953974075E+04  0.25977494057E+04  0.10100000352E+00 0.  1.
       -3    1    3    3    0  502 -0.14023993052E+03 -0.12082158201E+04  0.10321044595E+04  0.15952091812E+04  0.10100000352E+00 0. -1.
</event>
<event>
 5   0  0.6736335E-09  0.3999570E+04  0.7818609E-02  0.8004633E-01
        2   -1    0    0  501    0  0.00000000000E+00  0.00000000000E+00  0.24876198578E+04  0.24876198578E+04  0.25500000920E-02 0.  1.
       -2   -1    0    0    0  501  0.00000000000E+00  0.00000000000E+00 -0.16076173620E+04  0.16076173620E+04  0.25500000920E-02 0. -1.
    10030    2    1    2    0    0  0.00000000000E+00  0.00000000000E+00  0.88000249573E+03  0.40952372198E+04  0.39995704137E+04 0.  0.
        1    1    3    3  502    0  0.10872236531E+04 -0.11735841415E+04  0.16686130116E+04  0.23116280825E+04  0.50400001928E-02 0.  1.
       -1    1    3    3    0  502 -0.10872236531E+04  0.11735841415E+04 -0.78861051589E+03  0.17836091373E+04  0.50400001928E-02 0. -1.
</event>
<event>
 5   0  0.2078125E-09  0.3999366E+04  0.7818609E-02  0.8004675E-01
       -1   -1    0    0    0  501  0.00000000000E+00  0.00000000000E+00  0.15791027300E+04  0.15791027300E+04  0.50400001928E-02 0.  1.
        1   -1    0    0  501    0  0.00000000000E+00  0.00000000000E+00 -0.25322806371E+04  0.25322806371E+04  0.50400001928E-02 0. -1.
    10030    2    1    2    0    0  0.00000000000E+00  0.00000000000E+00 -0.95317790705E+03  0.41113833671E+04  0.39993655833E+04 0.  0.
        2    1    3    3  502    0 -0.17413198738E+04  0.73027154945E+03 -0.11532342343E+04  0.22125642675E+04  0.25500000920E-02 0. -1.
       -2    1    3    3    0  502  0.17413198738E+04 -0.73027154945E+03  0.20005632730E+03  0.18988190995E+04  0.25500000920E-02 0.  1.
</event>
<event>
 5   0  0.6736335E-09  0.3998308E+04  0.7818609E-02  0.8004888E-01
       -2   -1    0    0    0  501  0.00000000000E+00  0.00000000000E+00  0.21351476777E+04  0.21351476777E+04  0.25500000920E-02 0.  1.
        2   -1    0    0  501    0  0.00000000000E+00  0.00000000000E+00 -0.18718223122E+04  0.18718223122E+04  0.25500000920E-02 0. -1.
    10030    2    1    2    0    0  0.00000000000E+00  0.00000000000E+00  0.26332536551E+03  0.40069699899E+04  0.39983081737E+04 0.  0.
        1    1    3    3  502    0 -0.10910119061E+04 -0.14776715731E+04 -0.65922172443E+03  0.19515105788E+04  0.50400001928E-02 0. -1.
       -1    1    3    3    0  502  0.10910119061E+04  0.14776715731E+04  0.92254708993E+03  0.20554594111E+04  0.50400001928E-02 0.  1.
</event>
<event>
 5   0  0.2078125E-09  0.3999638E+04  0.7818609E-02  0.8004619E-01
       -4   -1    0    0    0  501  0.00000000000E+00  0.00000000000E+00  0.17406539755E+04  0.17406544388E+04  0.12699999809E+01 0. -1.
        4   -1    0    0  501    0  0.00000000000E+00  0.00000000000E+00 -0.22975705861E+04  0.22975709371E+04  0.12699999809E+01 0.  1.
    10030    2    1    2    0    0  0.00000000000E+00  0.00000000000E+00 -0.55691661059E+03  0.40382253759E+04  0.39996384931E+04 0.  0.
        2    1    3    3  502    0  0.15116682411E+04  0.67408944198E+03  0.85475117749E+03  0.18628303794E+04  0.25500000920E-02 0. -1.
       -2    1    3    3    0  502 -0.15116682411E+04 -0.67408944198E+03 -0.14116677881E+04  0.21753949965E+04  0.25500000920E-02 0.  1.
</event>
<event>
 5   0  0.6547327E-09  0.4001909E+04  0.7818609E-02  0.8004162E-01
        2   -1    0    0  501    0  0.00000000000E+00  0.00000000000E+00  0.18200465992E+04  0.18200465992E+04  0.25500000920E-02 0.  1.
       -2   -1    0    0    0  501  0.00000000000E+00  0.00000000000E+00 -0.21998436908E+04  0.21998436908E+04  0.25500000920E-02 0. -1.
    10030    2    1    2    0    0  0.00000000000E+00  0.00000000000E+00 -0.37979709155E+03  0.40198902900E+04  0.40019085588E+04 0.  0.
        5    1    3    3  502    0  0.15823750183E+04 -0.82406995084E+03  0.72014906630E+03  0.19239643318E+04  0.46999998093E+01 0.  1.
       -5    1    3    3    0  502 -0.15823750183E+04  0.82406995084E+03 -0.10999461578E+04  0.20959259583E+04  0.46999998093E+01 0. -1.
</event>
<event>
 5   0  0.2078125E-09  0.4001554E+04  0.7818609E-02  0.8004233E-01
        1   -1    0    0  501    0  0.00000000000E+00  0.00000000000E+00  0.12792318340E+04  0.12792318341E+04  0.50400001928E-02 0.  1.
       -1   -1    0    0    0  501  0.00000000000E+00  0.00000000000E+00 -0.31293071461E+04  0.31293071461E+04  0.50400001928E-02 0. -1.
    10030    2    1    2    0    0  0.00000000000E+00  0.00000000000E+00 -0.18500753121E+04  0.44085389802E+04  0.40015543579E+04 0.  0.
        5    1    3    3  502    0  0.12514724188E+04  0.64161753275E+03  0.64280776851E+03  0.15463118025E+04  0.46999998093E+01 0.  1.
       -5    1    3    3    0  502 -0.12514724188E+04 -0.64161753275E+03 -0.24928830806E+04  0.28622271777E+04  0.46999998093E+01 0. -1.
</event>
<event>
 5   0  0.2078125E-09  0.4005650E+04  0.7818609E-02  0.8003408E-01
       -1   -1    0    0    0  501  0.00000000000E+00  0.00000000000E+00  0.31158116350E+04  0.31158116350E+04  0.50400001928E-02 0. -1.
        1   -1    0    0  501    0  0.00000000000E+00  0.00000000000E+00 -0.12874036135E+04  0.12874036135E+04  0.50400001928E-02 0.  1.
    10030    2    1    2    0    0  0.00000000000E+00  0.00000000000E+00  0.18284080215E+04  0.44032152484E+04  0.40056495891E+04 0.  0.
        1    1    3    3  502    0 -0.13493092985E+04 -0.96527943841E+03 -0.31916722742E+03  0.16894578114E+04  0.50400001928E-02 0.  1.
       -1    1    3    3    0  502  0.13493092985E+04  0.96527943841E+03  0.21475752489E+04  0.27137574370E+04  0.50400001928E-02 0. -1.
</event>
<event>
 5   0  0.2078125E-09  0.4001895E+04  0.7818609E-02  0.8004164E-01
        1   -1    0    0  501    0  0.00000000000E+00  0.00000000000E+00  0.17831954365E+04  0.17831954365E+04  0.50400001928E-02 0. -1.
       -1   -1    0    0    0  501  0.00000000000E+00  0.00000000000E+00 -0.22452903682E+04  0.22452903682E+04  0.50400001928E-02 0.  1.
    10030    2    1    2    0    0  0.00000000000E+00  0.00000000000E+00 -0.46209493165E+03  0.40284858047E+04  0.40018953201E+04 0.  0.
        3    1    3    3  502    0 -0.29981356983E+02  0.14294285149E+04 -0.16402155382E+04  0.21758841382E+04  0.10100000352E+00 0.  1.
       -3    1    3    3    0  502  0.29981356983E+02 -0.14294285149E+04  0.11781206065E+04  0.18526016665E+04  0.10100000352E+00 0. -1.
</event>
<event>
 5   0  0.2078125E-09  0.3999730E+04  0.7818609E-02  0.8004601E-01
        1   -1    0    0  501    0  0.00000000000E+00  0.00000000000E+00  0.32733339516E+04  0.32733339516E+04  0.50400001928E-02 0. -1.
       -1   -1    0    0    0  501  0.00000000000E+00  0.00000000000E+00 -0.12218304395E+04  0.12218304395E+04  0.50400001928E-02 0.  1.
    10030    2    1    2    0    0  0.00000000000E+00  0.00000000000E+00  0.20515035122E+04  0.44951643911E+04  0.39997295212E+04 0.  0.
        3    1    3    3  502    0  0.90835349803E+03 -0.59927603190E+03  0.29114457521E+04  0.31081753840E+04  0.10100000352E+00 0. -1.
       -3    1    3    3    0  502 -0.90835349803E+03  0.59927603190E+03 -0.85994223993E+03  0.13869890072E+04  0.10100000352E+00 0.  1.
</event>
<event>
 5   0  0.6736335E-09  0.3996745E+04  0.7818609E-02  0.8005203E-01
        2   -1    0    0  501    0  0.00000000000E+00  0.00000000000E+00  0.23790409658E+04  0.23790409658E+04  0.25500000920E-02 0.  1.
       -2   -1    0    0    0  501  0.00000000000E+00  0.00000000000E+00 -0.16786148463E+04  0.16786148463E+04  0.25500000920E-02 0. -1.
    10030    2    1    2    0    0  0.00000000000E+00  0.00000000000E+00  0.70042611953E+03  0.40576558121E+04  0.39967454185E+04 0.  0.
        1    1    3    3  502    0  0.91489824982E+03 -0.17693936596E+04  0.18745531608E+03  0.20007329221E+04  0.50400001928E-02 0. -1.
       -1    1    3    3    0  502 -0.91489824982E+03  0.17693936596E+04  0.51297080345E+03  0.20569228900E+04  0.50400001928E-02 0.  1.
</event>
<event>
 5   0  0.2078125E-09  0.3999249E+04  0.7818609E-02  0.8004698E-01
        1   -1    0    0  501    0  0.00000000000E+00  0.00000000000E+00  0.28702577546E+04  0.28702577546E+04  0.50400001928E-02 0. -1.
       -1   -1    0    0    0  501  0.00000000000E+00  0.00000000000E+00 -0.13930798936E+04  0.13930798936E+04  0.50400001928E-02 0.  1.
    10030    2    1    2    0    0  0.00000000000E+00  0.00000000000E+00  0.14771778610E+04  0.42633376481E+04  0.39992491131E+04 0.  0.
        4    1    3    3  502    0  0.29337822521E+03  0.92392734605E+03 -0.11258393994E+04  0.14856744226E+04  0.12699999809E+01 0.  1.
       -4    1    3    3    0  502 -0.29337822521E+03 -0.92392734605E+03  0.26030172604E+04  0.27776632255E+04  0.12699999809E+01 0. -1.
</event>
<event>
 5   0  0.2078125E-09  0.3996565E+04  0.7818609E-02  0.8005240E-01
        1   -1    0    0  501    0  0.00000000000E+00  0.00000000000E+00  0.18000082230E+04  0.18000082230E+04  0.50400001928E-02 0.  1.
       -1   -1    0    0    0  501  0.00000000000E+00  0.00000000000E+00 -0.22183974700E+04  0.22183974700E+04  0.50400001928E-02 0. -1.
    10030    2    1    2    0    0  0.00000000000E+00  0.00000000000E+00 -0.41838924703E+03  0.40184056930E+04  0.39965653694E+04 0.  0.
        1    1    3    3  502    0  0.13190116193E+04  0.92614030988E+03 -0.13970082381E+04  0.21328758855E+04  0.50400001928E-02 0. -1.
       -1    1    3    3    0  502 -0.13190116193E+04 -0.92614030988E+03  0.97861899110E+03  0.18855298076E+04  0.50400001928E-02 0.  1.
</event>
<event>
 5   0  0.6599276E-09  0.3999092E+04  0.7818609E-02  0.8004730E-01
       -2   -1    0    0    0  501  0.00000000000E+00  0.00000000000E+00  0.20874257494E+04  0.20874257494E+04  0.25500000920E-02 0.  1.
        2   -1    0    0  501    0  0.00000000000E+00  0.00000000000E+00 -0.19153660815E+04  0.19153660815E+04  0.25500000920E-02 0. -1.
    10030    2    1    2    0    0  0.00000000000E+00  0.00000000000E+00  0.17205966787E+03  0.40027918309E+04  0.39990921360E+04 0.  0.
        2    1    3    3  502    0  0.19682174332E+04 -0.44380583481E+02  0.43611758688E+03  0.20164444079E+04  0.25500000920E-02 0. -1.
       -2    1    3    3    0  502 -0.19682174332E+04  0.44380583481E+02 -0.26405791900E+03  0.19863474230E+04  0.25500000920E-02 0.  1.
</event>
<event>
 5   0  0.2078125E-09  0.4001320E+04  0.7818609E-02  0.8004280E-01
       -1   -1    0    0    0  501  0.00000000000E+00  0.00000000000E+00  0.26086008560E+04  0.26086008560E+04  0.50400001928E-02 0.  1.
        1   -1    0    0  501    0  0.00000000000E+00  0.00000000000E+00 -0.15344014479E+04  0.15344014479E+04  0.50400001928E-02 0. -1.
    10030    2    1    2    0    0  0.00000000000E+00  0.00000000000E+00  0.10741994081E+04  0.41430023039E+04  0.40013202474E+04 0.  0.
        3    1    3    3  502    0 -0.15257125141E+04 -0.10809839742E+04  0.12738539420E+04  0.22625271057E+04  0.10100000352E+00 0.  1.
       -3    1    3    3    0  502  0.15257125141E+04  0.10809839742E+04 -0.19965453387E+03  0.18804751983E+04  0.10100000352E+00 0. -1.
</event>
<event>
 5   0  0.6645526E-09  0.4000489E+04  0.7818609E-02  0.8004448E-01
        2   -1    0    0  501    0  0.00000000000E+00  0.00000000000E+00  0.28392138147E+04  0.28392138147E+04  0.25500000920E-02 0.  1.
       -2   -1    0    0    0  501  0.00000000000E+00  0.00000000000E+00 -0.14091854579E+04  0.14091854579E+04  0.25500000920E-02 0. -1.
    10030    2    1    2    0    0  0.00000000000E+00  0.00000000000E+00  0.14300283568E+04  0.42483992727E+04  0.40004893799E+04 0.  0.
        3    1    3    3  502    0  0.15201455029E+04 -0.86522337632E+03 -0.31543867176E+03  0.17773450444E+04  0.10100000352E+00 0. -1.
       -3    1    3    3    0  502 -0.15201455029E+04  0.86522337632E+03  0.17454670286E+04  0.24710542283E+04  0.10100000352E+00 0.  1.
</event>
<event>
 5   0  0.2078125E-09  0.3979086E+04  0.7818609E-02  0.8008779E-01
       -1   -1    0    0    0  501  0.00000000000E+00  0.00000000000E+00  0.13499877882E+04  0.13499877882E+04  0.50400001928E-02 0.  1.
        1   -1    0    0  501    0  0.00000000000E+00  0.00000000000E+00 -0.29320866044E+04  0.29320866044E+04  0.50400001928E-02 0. -1.
    10030    2    1    2    0    0  0.00000000000E+00  0.00000000000E+00 -0.15820988162E+04  0.42820743926E+04  0.39790858799E+04 0.  0.
        1    1    3    3  502    0  0.11238685373E+04 -0.81757717258E+03 -0.23230993933E+04  0.27070839871E+04  0.50400001928E-02 0. -1.
       -1    1    3    3    0  502 -0.11238685373E+04  0.81757717258E+03  0.74100057707E+03  0.15749904055E+04  0.50400001928E-02 0.  1.
</event>
<event>
 5   0  0.6599276E-09  0.4000185E+04  0.7818609E-02  0.8004509E-01
       -2   -1    0    0    0  501  0.00000000000E+00  0.00000000000E+00  0.14537096696E+04  0.14537096696E+04  0.25500000920E-02 0.  1.
        2   -1    0    0  501    0  0.00000000000E+00  0.00000000000E+00 -0.27518355807E+04  0.27518355807E+04  0.25500000920E-02 0. -1.
    10030    2    1    2    0    0  0.00000000000E+00  0.00000000000E+00 -0.12981259110E+04  0.42055452503E+04  0.40001849921E+04 0.  0.
        2    1    3    3  502    0  0.18199562855E+04 -0.20579090051E+03 -0.14939220164E+04  0.23635553234E+04  0.25500000920E-02 0.  1.
       -2    1    3    3    0  502 -0.18199562855E+04  0.20579090051E+03  0.19579610540E+03  0.18419899269E+04  0.25500000920E-02 0. -1.
</event>
<event>
 5   0  0.2078125E-09  0.4003085E+04  0.7818609E-02  0.8003925E-01
       -1   -1    0    0    0  501  0.00000000000E+00  0.00000000000E+00  0.20507465575E+04  0.20507465575E+04  0.50400001928E-02 0.  1.
        1   -1    0    0  501    0  0.00000000000E+00  0.00000000000E+00 -0.19535186400E+04  0.19535186401E+04  0.50400001928E-02 0. -1.
    10030    2    1    2    0    0  0.00000000000E+00  0.00000000000E+00  0.97227917447E+02  0.40042651976E+04  0.40030846237E+04 0.  0.
        2    1    3    3  502    0 -0.14788724278E+04 -0.81514087237E+03  0.11234788239E+04  0.20282314876E+04  0.25500000920E-02 0.  1.
       -2    1    3    3    0  502  0.14788724278E+04  0.81514087237E+03 -0.10262509065E+04  0.19760337099E+04  0.25500000920E-02 0. -1.
</event>
<event>
 5   0  0.6645526E-09  0.4007740E+04  0.7818609E-02  0.8002987E-01
        2   -1    0    0  501    0  0.00000000000E+00  0.00000000000E+00  0.16072421590E+04  0.16072421591E+04  0.25500000920E-02 0. -1.
       -2   -1    0    0    0  501  0.00000000000E+00  0.00000000000E+00 -0.24983754533E+04  0.24983754533E+04  0.25500000920E-02 0.  1.
    10030    2    1    2    0    0  0.00000000000E+00  0.00000000000E+00 -0.89113329429E+03  0.41056176124E+04  0.40077396910E+04 0.  0.
        3    1    3    3  502    0  0.41040054717E+03 -0.13377554620E+04 -0.19149881392E+04  0.23717499592E+04  0.10100000352E+00 0.  1.
       -3    1    3    3    0  502 -0.41040054717E+03  0.13377554620E+04  0.10238548449E+04  0.17338676532E+04  0.10100000352E+00 0. -1.
</event>
<event>
 5   0  0.6547327E-09  0.3997973E+04  0.7818609E-02  0.8004955E-01
       -2   -1    0    0    0  501  0.00000000000E+00  0.00000000000E+00  0.14879670711E+04  0.14879670711E+04  0.25500000920E-02 0.  1.
        2   -1    0    0  501    0  0.00000000000E+00  0.00000000000E+00 -0.26855083103E+04  0.26855083103E+04  0.25500000920E-02 0. -1.
    10030    2    1    2    0    0  0.00000000000E+00  0.00000000000E+00 -0.11975412393E+04  0.41734753814E+04  0.39979734541E+04 0.  0.
        5    1    3    3  502    0 -0.47239682663E+03  0.14456751979E+04  0.75539863900E+03  0.16981709965E+04  0.46999998093E+01 0.  1.
       -5    1    3    3    0  502  0.47239682663E+03 -0.14456751979E+04 -0.19529398783E+04  0.24753043849E+04  0.46999998093E+01 0. -1.
</event>
<event>
 5   0  0.2078125E-09  0.4000621E+04  0.7818609E-02  0.8004421E-01
       -1   -1    0    0    0  501  0.00000000000E+00  0.00000000000E+00  0.32027029406E+04  0.32027029406E+04  0.50400001928E-02 0.  1.
        1   -1    0    0  501    0  0.00000000000E+00  0.00000000000E+00 -0.12493330289E+04  0.12493330289E+04  0.50400001928E-02 0. -1.
    10030    2    1    2    0    0  0.00000000000E+00  0.00000000000E+00  0.19533699117E+04  0.44520359695E+04  0.40006212345E+04 0.  0.
        2    1    3    3  502    0  0.14948729167E+04  0.53639039770E+03  0.23299975327E+04  0.28197957724E+04  0.25500000920E-02 0.  1.
       -2    1    3    3    0  502 -0.14948729167E+04 -0.53639039770E+03 -0.37662762102E+03  0.16322401971E+04  0.25500000920E-02 0. -1.
</event>
<event>
 5   0  0.6645526E-09  0.4000830E+04  0.7818609E-02  0.8004379E-01
       -2   -1    0    0    0  501  0.00000000000E+00  0.00000000000E+00  0.13833025961E+04  0.13833025961E+04  0.25500000920E-02 0.  1.
        2   -1    0    0  501    0  0.00000000000E+00  0.00000000000E+00 -0.28928300353E+04  0.28928300353E+04  0.25500000920E-02 0. -1.
    10030    2    1    2    0    0  0.00000000000E+00  0.00000000000E+00 -0.15095274392E+04  0.42761326314E+04  0.40008295630E+04 0.  0.
        3    1    3    3  502    0  0.49043762668E+01 -0.63418330436E+03  0.12730076845E+04  0.14222380572E+04  0.10100000352E+00 0.  1.
       -3    1    3    3    0  502 -0.49043762668E+01  0.63418330436E+03 -0.27825351236E+04  0.28538945742E+04  0.10100000352E+00 0. -1.
</event>
<event>
 5   0  0.6736335E-09  0.3999706E+04  0.7818609E-02  0.8004606E-01
       -2   -1    0    0    0  501  0.00000000000E+00  0.00000000000E+00  0.20887187207E+04  0.20887187207E+04  0.25500000920E-02 0.  1.
        2   -1    0    0  501    0  0.00000000000E+00  0.00000000000E+00 -0.19147684486E+04  0.19147684486E+04  0.25500000920E-02 0. -1.
    10030    2    1    2    0    0  0.00000000000E+00  0.00000000000E+00  0.17395027208E+03  0.40034871693E+04  0.39997063414E+04 0.  0.
        1    1    3    3  502    0 -0.82950428717E+03 -0.16672523686E+04  0.81677674144E+03  0.20334532374E+04  0.50400001928E-02 0. -1.
       -1    1    3    3    0  502  0.82950428717E+03  0.16672523686E+04 -0.64282646936E+03  0.19700339319E+04  0.50400001928E-02 0.  1.
</event>
<event>
 5   0  0.2078125E-09  0.4000378E+04  0.7818609E-02  0.8004470E-01
        1   -1    0    0  501    0  0.00000000000E+00  0.00000000000E+00  0.24207297884E+04  0.24207297885E+04  0.50400001928E-02 0. -1.
       -1   -1    0    0    0  501  0.00000000000E+00  0.00000000000E+00 -0.16527065925E+04  0.16527065925E+04  0.50400001928E-02 0.  1.
    10030    2    1    2    0    0  0.00000000000E+00  0.00000000000E+00  0.76802319598E+03  0.40734363809E+04  0.40003780221E+04 0.  0.
        5    1    3    3  502    0  0.19431823619E+04 -0.75279187272E+02  0.86065145206E+03  0.21265859163E+04  0.46999998093E+01 0. -1.
       -5    1    3    3    0  502 -0.19431823619E+04  0.75279187272E+02 -0.92628256076E+02  0.19468504646E+04  0.46999998093E+01 0.  1.
</event>
<event>
 5   0  0.6645526E-09  0.4004900E+04  0.7818609E-02  0.8003559E-01
       -2   -1    0    0    0  501  0.00000000000E+00  0.00000000000E+00  0.12920011848E+04  0.12920011848E+04  0.25500000920E-02 0. -1.
        2   -1    0    0  501    0  0.00000000000E+00  0.00000000000E+00 -0.31035618850E+04  0.31035618850E+04  0.25500000920E-02 0.  1.
    10030    2    1    2    0    0  0.00000000000E+00  0.00000000000E+00 -0.18115607003E+04  0.43955630698E+04  0.40048998152E+04 0.  0.
        3    1    3    3  502    0 -0.13511321408E+04 -0.92390989147E+03 -0.21718361067E+04  0.27195660746E+04  0.10100000352E+00 0.  1.
       -3    1    3    3    0  502  0.13511321408E+04  0.92390989147E+03  0.36027540640E+03  0.16759969953E+04  0.10100000352E+00 0. -1.
</event>
<event>
 5   0  0.2078125E-09  0.4006080E+04  0.7818609E-02  0.8003321E-01
        1   -1    0    0  501    0  0.00000000000E+00  0.00000000000E+00  0.16989591336E+04  0.16989591336E+04  0.50400001928E-02 0.  1.
       -1   -1    0    0    0  501  0.00000000000E+00  0.00000000000E+00 -0.23615454878E+04  0.23615454878E+04  0.50400001928E-02 0. -1.
    10030    2    1    2    0    0  0.00000000000E+00  0.00000000000E+00 -0.66258635423E+03  0.40605046214E+04  0.40060800171E+04 0.  0.
        4    1    3    3  502    0 -0.73516235607E+03 -0.18530260851E+04 -0.52887294911E+03  0.20624930475E+04  0.12699999809E+01 0.  1.
       -4    1    3    3    0  502  0.73516235607E+03  0.18530260851E+04 -0.13371340512E+03  0.19980115739E+04  0.12699999809E+01 0. -1.
</event>
<event>
 5   0  0.2078125E-09  0.4000183E+04  0.7818609E-02  0.8004510E-01
        1   -1    0    0  501    0  0.00000000000E+00  0.00000000000E+00  0.22076975910E+04  0.22076975910E+04  0.50400001928E-02 0. -1.
       -1   -1    0    0    0  501  0.00000000000E+00  0.00000000000E+00 -0.18120085474E+04  0.18120085474E+04  0.50400001928E-02 0.  1.
    10030    2    1    2    0    0  0.00000000000E+00  0.00000000000E+00  0.39568904363E+03  0.40197061383E+04  0.40001834482E+04 0.  0.
        1    1    3    3  502    0  0.85352080791E+03 -0.46483869086E+03  0.19544589374E+04  0.21827694601E+04  0.50400001928E-02 0. -1.
       -1    1    3    3    0  502 -0.85352080791E+03  0.46483869086E+03 -0.15587698938E+04  0.18369366782E+04  0.50400001928E-02 0.  1.
</event>
<event>
 5   0  0.2078125E-09  0.3999195E+04  0.7818609E-02  0.8004709E-01
        1   -1    0    0  501    0  0.00000000000E+00  0.00000000000E+00  0.21566052376E+04  0.21566052376E+04  0.50400001928E-02 0.  1.
       -1   -1    0    0    0  501  0.00000000000E+00  0.00000000000E+00 -0.18540206556E+04  0.18540206556E+04  0.50400001928E-02 0. -1.
    10030    2    1    2    0    0  0.00000000000E+00  0.00000000000E+00  0.30258458199E+03  0.40106258931E+04  0.39991952472E+04 0.  0.
        5    1    3    3  502    0 -0.42031525038E+03  0.87505098311E+03 -0.16018431518E+04  0.18730463704E+04  0.46999998093E+01 0. -1.
       -5    1    3    3    0  502  0.42031525038E+03 -0.87505098311E+03  0.19044277338E+04  0.21375795227E+04  0.46999998093E+01 0.  1.
</event>
<event>
 5   0  0.6538370E-09  0.3999549E+04  0.7818609E-02  0.8004638E-01
        2   -1    0    0  501    0  0.00000000000E+00  0.00000000000E+00  0.19097413062E+04  0.19097413062E+04  0.25500000920E-02 0. -1.
       -2   -1    0    0    0  501  0.00000000000E+00  0.00000000000E+00 -0.20940523069E+04  0.20940523069E+04  0.25500000920E-02 0.  1.
    10030    2    1    2    0    0  0.00000000000E+00  0.00000000000E+00 -0.18431100071E+03  0.40037936131E+04  0.39995490685E+04 0.  0.
        4    1    3    3  502    0 -0.19366278895E+04 -0.46731257225E+03  0.81775694152E+02  0.19938900421E+04  0.12699999809E+01 0. -1.
       -4    1    3    3    0  502  0.19366278895E+04  0.46731257225E+03 -0.26608669487E+03  0.20099035710E+04  0.12699999809E+01 0.  1.
</event>
<event>
 5   0  0.6538370E-09  0.3992318E+04  0.7818609E-02  0.8006098E-01
        2   -1    0    0  501    0  0.00000000000E+00  0.00000000000E+00  0.28888181469E+04  0.28888181469E+04  0.25500000920E-02 0.  1.
       -2   -1    0    0    0  501  0.00000000000E+00  0.00000000000E+00 -0.13793360334E+04  0.13793360334E+04  0.25500000920E-02 0. -1.
    10030    2    1    2    0    0  0.00000000000E+00  0.00000000000E+00  0.15094821135E+04  0.42681541804E+04  0.39923181056E+04 0.  0.
        4    1    3    3  502    0 -0.62091780749E+03  0.14238887285E+04 -0.58553130283E+03  0.16600742617E+04  0.12699999809E+01 0. -1.
       -4    1    3    3    0  502  0.62091780749E+03 -0.14238887285E+04  0.20950134163E+04  0.26080799187E+04  0.12699999809E+01 0.  1.
</event>
<event>
 5   0  0.2078125E-09  0.4005034E+04  0.7818609E-02  0.8003532E-01
       -1   -1    0    0    0  501  0.00000000000E+00  0.00000000000E+00  0.15318783647E+04  0.15318783647E+04  0.50400001928E-02 0.  1.
        1   -1    0    0  501    0  0.00000000000E+00  0.00000000000E+00 -0.26177494200E+04  0.26177494200E+04  0.50400001928E-02 0. -1.
    10030    2    1    2    0    0  0.00000000000E+00  0.00000000000E+00 -0.10858710554E+04  0.41496277847E+04  0.40050336831E+04 0.  0.
        2    1    3    3  502    0  0.84025451406E+03  0.12653991663E+04 -0.18949651092E+04  0.24286118388E+04  0.25500000920E-02 0. -1.
       -2    1    3    3    0  502 -0.84025451406E+03 -0.12653991663E+04  0.80909405382E+03  0.17210159460E+04  0.25500000920E-02 0.  1.
</event>
<event>
 5   0  0.2078125E-09  0.4000477E+04  0.7818609E-02  0.8004450E-01
       -1   -1    0    0    0  501  0.00000000000E+00  0.00000000000E+00  0.15178475895E+04  0.15178475895E+04  0.50400001928E-02 0. -1.
        1   -1    0    0  501    0  0.00000000000E+00  0.00000000000E+00 -0.26359392926E+04  0.26359392926E+04  0.50400001928E-02 0.  1.
    10030    2    1    2    0    0  0.00000000000E+00  0.00000000000E+00 -0.11180917031E+04  0.41537868820E+04  0.40004770222E+04 0.  0.
        5    1    3    3  502    0 -0.37916120600E+03 -0.23942256045E+03 -0.25830686820E+04  0.26217078954E+04  0.46999998093E+01 0.  1.
       -5    1    3    3    0  502  0.37916120600E+03  0.23942256045E+03  0.14649769789E+04  0.15320789867E+04  0.46999998093E+01 0. -1.
</event>
<event>
 5   0  0.2078125E-09  0.3999192E+04  0.7818609E-02  0.8004710E-01
        1   -1    0    0  501    0  0.00000000000E+00  0.00000000000E+00  0.18354115670E+04  0.18354115670E+04  0.50400001928E-02 0. -1.
       -1   -1    0    0    0  501  0.00000000000E+00  0.00000000000E+00 -0.21784669161E+04  0.21784669161E+04  0.50400001928E-02 0.  1.
    10030    2    1    2    0    0  0.00000000000E+00  0.00000000000E+00 -0.34305534910E+03  0.40138784831E+04  0.39991916064E+04 0.  0.
        5    1    3    3  502    0  0.82067445241E+03  0.15126796681E+04  0.85037402464E+03  0.19196000643E+04  0.46999998093E+01 0. -1.
       -5    1    3    3    0  502 -0.82067445241E+03 -0.15126796681E+04 -0.11934293737E+04  0.20942784188E+04  0.46999998093E+01 0.  1.
</event>
<event>
 5   0  0.6599276E-09  0.3997426E+04  0.7818609E-02  0.8005066E-01
        2   -1    0    0  501    0  0.00000000000E+00  0.00000000000E+00  0.15338421153E+04  0.15338421153E+04  0.25500000920E-02 0.  1.
       -2   -1    0    0    0  501  0.00000000000E+00  0.00000000000E+00 -0.26044755570E+04  0.26044755570E+04  0.25500000920E-02 0. -1.
    10030    2    1    2    0    0  0.00000000000E+00  0.00000000000E+00 -0.10706334417E+04  0.41383176722E+04  0.39974263208E+04 0.  0.
        2    1    3    3  502    0 -0.15916060331E+04  0.53824263022E+03 -0.16560336603E+04  0.23591020278E+04  0.25500000920E-02 0. -1.
       -2    1    3    3    0  502  0.15916060331E+04 -0.53824263022E+03  0.58540021859E+03  0.17792156444E+04  0.25500000920E-02 0.  1.
</event>
<event>
 5   0  0.6645526E-09  0.4003498E+04  0.7818609E-02  0.8003841E-01
       -2   -1    0    0    0  501  0.00000000000E+00  0.00000000000E+00  0.15748096621E+04  0.15748096621E+04  0.25500000920E-02 0.  1.
        2   -1    0    0  501    0  0.00000000000E+00  0.00000000000E+00 -0.25444340826E+04  0.25444340826E+04  0.25500000920E-02 0. -1.
    10030    2    1    2    0    0  0.00000000000E+00  0.00000000000E+00 -0.96962442049E+03  0.41192437448E+04  0.40034981593E+04 0.  0.
        3    1    3    3  502    0  0.10136424568E+04 -0.13958928331E+04  0.55993115087E+03  0.18137008396E+04  0.10100000352E+00 0.  1.
       -3    1    3    3    0  502 -0.10136424568E+04  0.13958928331E+04 -0.15295555714E+04  0.23055429052E+04  0.10100000352E+00 0. -1.
</event>
<event>
 5   0  0.6736335E-09  0.3986786E+04  0.7818609E-02  0.8007218E-01
        2   -1    0    0  501    0  0.00000000000E+00  0.00000000000E+00  0.24673829496E+04  0.24673829496E+04  0.25500000920E-02 0.  1.
       -2   -1    0    0    0  501  0.00000000000E+00  0.00000000000E+00 -0.16104572807E+04  0.16104572807E+04  0.25500000920E-02 0. -1.
    10030    2    1    2    0    0  0.00000000000E+00  0.00000000000E+00  0.85692566888E+03  0.40778402303E+04  0.39867855901E+04 0.  0.
        1    1    3    3  502    0 -0.19082929597E+04  0.17294365033E+03 -0.13374830019E+03  0.19207759198E+04  0.50400001928E-02 0.  1.
       -1    1    3    3    0  502  0.19082929597E+04 -0.17294365033E+03  0.99067396908E+03  0.21570643104E+04  0.50400001928E-02 0. -1.
</event>
<event>
 5   0  0.6599276E-09  0.4001673E+04  0.7818609E-02  0.8004209E-01
        2   -1    0    0  501    0  0.00000000000E+00  0.00000000000E+00  0.27384355969E+04  0.27384355969E+04  0.25500000920E-02 0.  1.
       -2   -1    0    0    0  501  0.00000000000E+00  0.00000000000E+00 -0.14619103928E+04  0.14619103928E+04  0.25500000920E-02 0. -1.
    10030    2    1    2    0    0  0.00000000000E+00  0.00000000000E+00  0.12765252041E+04  0.42003459897E+04  0.40016733795E+04 0.  0.
        2    1    3    3  502    0  0.74593627285E+01  0.19958652599E+04  0.78601209952E+03  0.21450754762E+04  0.25500000920E-02 0. -1.
       -2    1    3    3    0  502 -0.74593627285E+01 -0.19958652599E+04  0.49051310458E+03  0.20552705135E+04  0.25500000920E-02 0.  1.
</event>
<event>
 5   0  0.6645526E-09  0.4001600E+04  0.7818609E-02  0.8004224E-01
        2   -1    0    0  501    0  0.00000000000E+00  0.00000000000E+00  0.34134112443E+04  0.34134112443E+04  0.25500000920E-02 0.  1.
       -2   -1    0    0    0  501  0.00000000000E+00  0.00000000000E+00 -0.11727858978E+04  0.11727858978E+04  0.25500000920E-02 0. -1.
    10030    2    1    2    0    0  0.00000000000E+00  0.00000000000E+00  0.22406253465E+04  0.45861971421E+04  0.40015999653E+04 0.  0.
        3    1    3    3  502    0  0.25476019451E+03  0.61888834166E+03 -0.10406917196E+04  0.12373216241E+04  0.10100000352E+00 0. -1.
       -3    1    3    3    0  502 -0.25476019451E+03 -0.61888834166E+03  0.32813170661E+04  0.33488755179E+04  0.10100000352E+00 0.  1.
</event>
<event>
 5   0  0.2078125E-09  0.4000460E+04  0.7818609E-02  0.8004454E-01
       -1   -1    0    0    0  501  0.00000000000E+00  0.00000000000E+00  0.32872437053E+04  0.32872437053E+04  0.50400001928E-02 0. -1.
        1   -1    0    0  501    0  0.00000000000E+00  0.00000000000E+00 -0.12171049424E+04  0.12171049424E+04  0.50400001928E-02 0.  1.
    10030    2    1    2    0    0  0.00000000000E+00  0.00000000000E+00  0.20701387630E+04  0.45043486477E+04  0.40004602538E+04 0.  0.
        5    1    3    3  502    0 -0.37706718393E+03  0.41800092889E+03  0.31962023955E+04  0.32454023295E+04  0.46999998093E+01 0. -1.
       -5    1    3    3    0  502  0.37706718393E+03 -0.41800092889E+03 -0.11260636325E+04  0.12589463182E+04  0.46999998093E+01 0.  1.
</event>
<event>
 5   0  0.6547327E-09  0.3998743E+04  0.7818609E-02  0.8004800E-01
       -2   -1    0    0    0  501  0.00000000000E+00  0.00000000000E+00  0.14865569796E+04  0.14865569796E+04  0.25500000920E-02 0. -1.
        2   -1    0    0  501    0  0.00000000000E+00  0.00000000000E+00 -0.26890905273E+04  0.26890905273E+04  0.25500000920E-02 0.  1.
    10030    2    1    2    0    0  0.00000000000E+00  0.00000000000E+00 -0.12025335477E+04  0.41756475069E+04  0.39987429485E+04 0.  0.
        5    1    3    3  502    0 -0.16562822242E+04 -0.10227040494E+04 -0.10778223076E+04  0.22250657059E+04  0.46999998093E+01 0. -1.
       -5    1    3    3    0  502  0.16562822242E+04  0.10227040494E+04 -0.12471124016E+03  0.19505818010E+04  0.46999998093E+01 0.  1.
</event>
<event>
 5   0  0.2078125E-09  0.3999629E+04  0.7818609E-02  0.8004621E-01
       -1   -1    0    0    0  501  0.00000000000E+00  0.00000000000E+00  0.13399296197E+04  0.13399296197E+04  0.50400001928E-02 0.  1.
        1   -1    0    0  501    0  0.00000000000E+00  0.00000000000E+00 -0.29846772856E+04  0.29846772856E+04  0.50400001928E-02 0. -1.
    10030    2    1    2    0    0  0.00000000000E+00  0.00000000000E+00 -0.16447476658E+04  0.43246069053E+04  0.39996287329E+04 0.  0.
        5    1    3    3  502    0  0.18667101994E+04  0.29305863079E+03 -0.15303628698E+04  0.24315679988E+04  0.46999998093E+01 0. -1.
       -5    1    3    3    0  502 -0.18667101994E+04 -0.29305863079E+03 -0.11438479604E+03  0.18930389064E+04  0.46999998093E+01 0.  1.
</event>
<event>
 5   0  0.2078125E-09  0.3999817E+04  0.7818609E-02  0.8004583E-01
       -1   -1    0    0    0  501  0.00000000000E+00  0.00000000000E+00  0.33724957828E+04  0.33724957828E+04  0.50400001928E-02 0. -1.
        1   -1    0    0  501    0  0.00000000000E+00  0.00000000000E+00 -0.11859566544E+04  0.11859566545E+04  0.50400001928E-02 0.  1.
    10030    2    1    2    0    0  0.00000000000E+00  0.00000000000E+00  0.21865391284E+04  0.45584524373E+04  0.39998169037E+04 0.  0.
        3    1    3    3  502    0  0.18888269234E+04  0.35285440209E+03  0.17252038681E+04  0.25823442398E+04  0.10100000352E+00 0.  1.
       -3    1    3    3    0  502 -0.18888269234E+04 -0.35285440209E+03  0.46133526022E+03  0.19761081975E+04  0.10100000352E+00 0. -1.
</event>
<event>
 5   0  0.6645526E-09  0.4000205E+04  0.7818609E-02  0.8004505E-01
        2   -1    0    0  501    0  0.00000000000E+00  0.00000000000E+00  0.18433252699E+04  0.18433252699E+04  0.25500000920E-02 0. -1.
       -2   -1    0    0    0  501  0.00000000000E+00  0.00000000000E+00 -0.21702135892E+04  0.21702135892E+04  0.25500000920E-02 0.  1.
    10030    2    1    2    0    0  0.00000000000E+00  0.00000000000E+00 -0.32688831928E+03  0.40135388592E+04  0.40002047699E+04 0.  0.
        3    1    3    3  502    0  0.13187061946E+04 -0.14959025419E+04 -0.89858940334E+01  0.19941893588E+04  0.10100000352E+00 0. -1.
       -3    1    3    3    0  502 -0.13187061946E+04  0.14959025419E+04 -0.31790242525E+03  0.20193495003E+04  0.10100000352E+00 0.  1.
</event>
<event>
 5   0  0.2078125E-09  0.3997970E+04  0.7818609E-02  0.8004956E-01
        1   -1    0    0  501    0  0.00000000000E+00  0.00000000000E+00  0.12248553851E+04  0.12248553852E+04  0.50400001928E-02 0.  1.
       -1   -1    0    0    0  501  0.00000000000E+00  0.00000000000E+00 -0.32623771422E+04  0.32623771422E+04  0.50400001928E-02 0. -1.
    10030    2    1    2    0    0  0.00000000000E+00  0.00000000000E+00 -0.20375217570E+04  0.44872325273E+04  0.39979695902E+04 0.  0.
        1    1    3    3  502    0 -0.12823549604E+02  0.16570852666E+04  0.23601749819E+03  0.16738579043E+04  0.50400001928E-02 0.  1.
       -1    1    3    3    0  502  0.12823549604E+02 -0.16570852666E+04 -0.22735392552E+04  0.28133746230E+04  0.50400001928E-02 0. -1.
</event>
<event>
 5   0  0.2078125E-09  0.3999868E+04  0.7818609E-02  0.8004573E-01
       -1   -1    0    0    0  501  0.00000000000E+00  0.00000000000E+00  0.29750100745E+04  0.29750100745E+04  0.50400001928E-02 0. -1.
        1   -1    0    0  501    0  0.00000000000E+00  0.00000000000E+00 -0.13444447390E+04  0.13444447390E+04  0.50400001928E-02 0.  1.
    10030    2    1    2    0    0  0.00000000000E+00  0.00000000000E+00  0.16305653355E+04  0.43194548135E+04  0.39998683194E+04 0.  0.
        5    1    3    3  502    0  0.38504190646E+03 -0.91658559384E+03 -0.10586858123E+04  0.14523168248E+04  0.46999998093E+01 0.  1.
       -5    1    3    3    0  502 -0.38504190646E+03  0.91658559384E+03  0.26892511477E+04  0.28671379887E+04  0.46999998093E+01 0. -1.
</event>
<event>
 5   0  0.2078125E-09  0.3999944E+04  0.7818609E-02  0.8004558E-01
       -1   -1    0    0    0  501  0.00000000000E+00  0.00000000000E+00  0.18560390516E+04  0.18560390516E+04  0.50400001928E-02 0.  1.
        1   -1    0    0  501    0  0.00000000000E+00  0.00000000000E+00 -0.21550668980E+04  0.21550668980E+04  0.50400001928E-02 0. -1.
    10030    2    1    2    0    0  0.00000000000E+00  0.00000000000E+00 -0.29902784642E+03  0.40111059496E+04  0.39999441603E+04 0.  0.
        4    1    3    3  502    0 -0.65648293867E+03  0.12139653418E+03 -0.20400279265E+04  0.21464907456E+04  0.12699999809E+01 0. -1.
       -4    1    3    3    0  502  0.65648293867E+03 -0.12139653418E+03  0.17410000800E+04  0.18646152040E+04  0.12699999809E+01 0.  1.
</event>
<event>
 5   0  0.2078125E-09  0.3986365E+04  0.7818609E-02  0.8007303E-01
        1   -1    0    0  501    0  0.00000000000E+00  0.00000000000E+00  0.20074998486E+04  0.20074998486E+04  0.50400001928E-02 0. -1.
       -1   -1    0    0    0  501  0.00000000000E+00  0.00000000000E+00 -0.19789671768E+04  0.19789671768E+04  0.50400001928E-02 0.  1.
    10030    2    1    2    0    0  0.00000000000E+00  0.00000000000E+00  0.28532671876E+02  0.39864670254E+04  0.39863649145E+04 0.  0.
        5    1    3    3  502    0 -0.88497266489E+03 -0.10048048961E+04  0.14907677417E+04  0.20038013990E+04  0.46999998093E+01 0. -1.
       -5    1    3    3    0  502  0.88497266489E+03  0.10048048961E+04 -0.14622350698E+04  0.19826656264E+04  0.46999998093E+01 0.  1.
</event>
<event>
 5   0  0.6538370E-09  0.3993255E+04  0.7818609E-02  0.8005909E-01
        2   -1    0    0  501    0  0.00000000000E+00  0.00000000000E+00  0.30156257449E+04  0.30156257449E+04  0.25500000920E-02 0. -1.
       -2   -1    0    0    0  501  0.00000000000E+00  0.00000000000E+00 -0.13219548603E+04  0.13219548603E+04  0.25500000920E-02 0.  1.
    10030    2    1    2    0    0  0.00000000000E+00  0.00000000000E+00  0.16936708846E+04  0.43375806052E+04  0.39932548680E+04 0.  0.
        4    1    3    3  502    0  0.22681402979E+03 -0.68313301870E+03 -0.11761156283E+04  0.13788998910E+04  0.12699999809E+01 0.  1.
       -4    1    3    3    0  502 -0.22681402979E+03  0.68313301870E+03  0.28697865130E+04  0.29586807141E+04  0.12699999809E+01 0. -1.
</event>
<event>
 5   0  0.6736335E-09  0.3996851E+04  0.7818609E-02  0.8005182E-01
        2   -1    0    0  501    0  0.00000000000E+00  0.00000000000E+00  0.20812275615E+04  0.20812275615E+04  0.25500000920E-02 0. -1.
       -2   -1    0    0    0  501  0.00000000000E+00  0.00000000000E+00 -0.19189179083E+04  0.19189179083E+04  0.25500000920E-02 0.  1.
    10030    2    1    2    0    0  0.00000000000E+00  0.00000000000E+00  0.16230965317E+03  0.40001454698E+04  0.39968511801E+04 0.  0.
        1    1    3    3  502    0  0.27459910417E+03  0.68111833409E+03  0.19412824233E+04  0.20755491563E+04  0.50400001928E-02 0. -1.
       -1    1    3    3    0  502 -0.27459910417E+03 -0.68111833409E+03 -0.17789727701E+04  0.19245963135E+04  0.50400001928E-02 0.  1.
</event>
<event>
 5   0  0.2078125E-09  0.4000554E+04  0.7818609E-02  0.8004435E-01
        1   -1    0    0  501    0  0.00000000000E+00  0.00000000000E+00  0.15107523212E+04  0.15107523212E+04  0.50400001928E-02 0. -1.
       -1   -1    0    0    0  501  0.00000000000E+00  0.00000000000E+00 -0.26484208171E+04  0.26484208171E+04  0.50400001928E-02 0.  1.
    10030    2    1    2    0    0  0.00000000000E+00  0.00000000000E+00 -0.11376684959E+04  0.41591731383E+04  0.40005539102E+04 0.  0.
        4    1    3    3  502    0 -0.36880210773E+03 -0.11223773352E+04  0.11092771101E+04  0.16205687882E+04  0.12699999809E+01 0. -1.
       -4    1    3    3    0  502  0.36880210773E+03  0.11223773352E+04 -0.22469456060E+04  0.25386043501E+04  0.12699999809E+01 0.  1.
</event>
<event>
 5   0  0.6599276E-09  0.4002084E+04  0.7818609E-02  0.8004126E-01
        2   -1    0    0  501    0  0.00000000000E+00  0.00000000000E+00  0.11865288889E+04  0.11865288889E+04  0.25500000920E-02 0. -1.
       -2   -1    0    0    0  501  0.00000000000E+00  0.00000000000E+00 -0.33746908388E+04  0.33746908388E+04  0.25500000920E-02 0.  1.
    10030    2    1    2    0    0  0.00000000000E+00  0.00000000000E+00 -0.21881619499E+04  0.45612197277E+04  0.40020835430E+04 0.  0.
        2    1    3    3  502    0  0.79763316611E+03 -0.17142474117E+04 -0.18408356954E+04  0.26388518172E+04  0.25500000920E-02 0.  1.
       -2    1    3    3    0  502 -0.79763316611E+03  0.17142474117E+04 -0.34732625455E+03  0.19223679105E+04  0.25500000920E-02 0. -1.
</event>
<event>
 5   0  0.2078125E-09  0.3999882E+04  0.7818609E-02  0.8004570E-01
       -1   -1    0    0    0  501  0.00000000000E+00  0.00000000000E+00  0.15193868064E+04  0.15193868064E+04  0.50400001928E-02 0.  1.
        1   -1    0    0  501    0  0.00000000000E+00  0.00000000000E+00 -0.26324859693E+04  0.26324859693E+04  0.50400001928E-02 0. -1.
    10030    2    1    2    0    0  0.00000000000E+00  0.00000000000E+00 -0.11130991629E+04  0.41518727758E+04  0.39998822233E+04 0.  0.
        5    1    3    3  502    0 -0.65276529139E+03 -0.55115351878E+03 -0.24335399860E+04  0.25791494103E+04  0.46999998093E+01 0. -1.
       -5    1    3    3    0  502  0.65276529139E+03  0.55115351878E+03  0.13204408232E+04  0.15727233655E+04  0.46999998093E+01 0.  1.
</event>
<event>
 5   0  0.6599276E-09  0.3999925E+04  0.7818609E-02  0.8004562E-01
        2   -1    0    0  501    0  0.00000000000E+00  0.00000000000E+00  0.24665719666E+04  0.24665719666E+04  0.25500000920E-02 0. -1.
       -2   -1    0    0    0  501  0.00000000000E+00  0.00000000000E+00 -0.16216227169E+04  0.16216227169E+04  0.25500000920E-02 0.  1.
    10030    2    1    2    0    0  0.00000000000E+00  0.00000000000E+00  0.84494924966E+03  0.40881946835E+04  0.39999245663E+04 0.  0.
        2    1    3    3  502    0 -0.16717054588E+04 -0.10976749300E+04  0.44186002553E+03  0.20481039219E+04  0.25500000920E-02 0.  1.
       -2    1    3    3    0  502  0.16717054588E+04  0.10976749300E+04  0.40308922413E+03  0.20400907616E+04  0.25500000920E-02 0. -1.
</event>
<event>
 5   0  0.2078125E-09  0.4001846E+04  0.7818609E-02  0.8004174E-01
        1   -1    0    0  501    0  0.00000000000E+00  0.00000000000E+00  0.27331172340E+04  0.27331172340E+04  0.50400001928E-02 0.  1.
       -1   -1    0    0    0  501  0.00000000000E+00  0.00000000000E+00 -0.14648814064E+04  0.14648814064E+04  0.50400001928E-02 0. -1.
    10030    2    1    2    0    0  0.00000000000E+00  0.00000000000E+00  0.12682358276E+04  0.41979986405E+04  0.40018458830E+04 0.  0.
        4    1    3    3  502    0 -0.83258576779E+03 -0.11643183447E+04  0.21008107803E+04  0.25420943759E+04  0.12699999809E+01 0.  1.
       -4    1    3    3    0  502  0.83258576779E+03  0.11643183447E+04 -0.83257495271E+03  0.16559042646E+04  0.12699999809E+01 0. -1.
</event>
<event>
 5   0  0.2078125E-09  0.4001531E+04  0.7818609E-02  0.8004238E-01
       -1   -1    0    0    0  501  0.00000000000E+00  0.00000000000E+00  0.15786366941E+04  0.15786366941E+04  0.50400001928E-02 0.  1.
        1   -1    0    0  501    0  0.00000000000E+00  0.00000000000E+00 -0.25357720607E+04  0.25357720607E+04  0.50400001928E-02 0. -1.
    10030    2    1    2    0    0  0.00000000000E+00  0.00000000000E+00 -0.95713536653E+03  0.41144087548E+04  0.40015311184E+04 0.  0.
        4    1    3    3  502    0 -0.96830354974E+03 -0.57673311062E+03  0.12211915742E+04  0.16617891922E+04  0.12699999809E+01 0.  1.
       -4    1    3    3    0  502  0.96830354974E+03  0.57673311062E+03 -0.21783269408E+04  0.24526195627E+04  0.12699999809E+01 0. -1.
</event>
<event>
 5   0  0.2078125E-09  0.4002385E+04  0.7818609E-02  0.8004066E-01
       -1   -1    0    0    0  501  0.00000000000E+00  0.00000000000E+00  0.27009240824E+04  0.27009240824E+04  0.50400001928E-02 0.  1.
        1   -1    0    0  501    0  0.00000000000E+00  0.00000000000E+00 -0.14827414226E+04  0.14827414226E+04  0.50400001928E-02 0. -1.
    10030    2    1    2    0    0  0.00000000000E+00  0.00000000000E+00  0.12181826598E+04  0.41836655050E+04  0.40023852970E+04 0.  0.
        4    1    3    3  502    0 -0.18026484276E+04  0.69858943697E+03  0.68762937508E+02  0.19345021348E+04  0.12699999809E+01 0.  1.
       -4    1    3    3    0  502  0.18026484276E+04 -0.69858943697E+03  0.11494197223E+04  0.22491633702E+04  0.12699999809E+01 0. -1.
</event>
<event>
 5   0  0.6599276E-09  0.3998882E+04  0.7818609E-02  0.8004772E-01
        2   -1    0    0  501    0  0.00000000000E+00  0.00000000000E+00  0.21330673651E+04  0.21330673651E+04  0.25500000920E-02 0.  1.
       -2   -1    0    0    0  501  0.00000000000E+00  0.00000000000E+00 -0.18741856514E+04  0.18741856514E+04  0.25500000920E-02 0. -1.
    10030    2    1    2    0    0  0.00000000000E+00  0.00000000000E+00  0.25888171368E+03  0.40072530165E+04  0.39988819683E+04 0.  0.
        2    1    3    3  502    0  0.11811720560E+04 -0.19512038583E+03 -0.14753248512E+04  0.18999533698E+04  0.25500000920E-02 0. -1.
       -2    1    3    3    0  502 -0.11811720560E+04  0.19512038583E+03  0.17342065649E+04  0.21072996466E+04  0.25500000920E-02 0.  1.
</event>
<event>
 5   0  0.6547327E-09  0.3998661E+04  0.7818609E-02  0.8004817E-01
        2   -1    0    0  501    0  0.00000000000E+00  0.00000000000E+00  0.23667886975E+04  0.23667886975E+04  0.25500000920E-02 0.  1.
       -2   -1    0    0    0  501  0.00000000000E+00  0.00000000000E+00 -0.16889222026E+04  0.16889222026E+04  0.25500000920E-02 0. -1.
    10030    2    1    2    0    0  0.00000000000E+00  0.00000000000E+00  0.67786649486E+03  0.40557109001E+04  0.39986607658E+04 0.  0.
        5    1    3    3  502    0 -0.17425417703E+04 -0.74922579501E+03  0.98001821129E+03  0.21350055966E+04  0.46999998093E+01 0.  1.
       -5    1    3    3    0  502  0.17425417703E+04  0.74922579501E+03 -0.30215171643E+03  0.19207053035E+04  0.46999998093E+01 0. -1.
</event>
<event>
 5   0  0.6547327E-09  0.3998278E+04  0.7818609E-02  0.8004894E-01
       -2   -1    0    0    0  501  0.00000000000E+00  0.00000000000E+00  0.18705033331E+04  0.18705033331E+04  0.25500000920E-02 0.  1.
        2   -1    0    0  501    0  0.00000000000E+00  0.00000000000E+00 -0.21366211579E+04  0.21366211579E+04  0.25500000920E-02 0. -1.
    10030    2    1    2    0    0  0.00000000000E+00  0.00000000000E+00 -0.26611782481E+03  0.40071244911E+04  0.39982781282E+04 0.  0.
        5    1    3    3  502    0 -0.99237362223E+03  0.88673978904E+03  0.13620265791E+04  0.19042718692E+04  0.46999998093E+01 0.  1.
       -5    1    3    3    0  502  0.99237362223E+03 -0.88673978904E+03 -0.16281444039E+04  0.21028526219E+04  0.46999998093E+01 0. -1.
</event>
<event>
 5   0  0.6538370E-09  0.4001735E+04  0.7818609E-02  0.8004197E-01
       -2   -1    0    0    0  501  0.00000000000E+00  0.00000000000E+00  0.18862222205E+04  0.18862222205E+04  0.25500000920E-02 0.  1.
        2   -1    0    0  501    0  0.00000000000E+00  0.00000000000E+00 -0.21224814752E+04  0.21224814752E+04  0.25500000920E-02 0. -1.
    10030    2    1    2    0    0  0.00000000000E+00  0.00000000000E+00 -0.23625925479E+03  0.40087036957E+04  0.40017354841E+04 0.  0.
        4    1    3    3  502    0 -0.16357957462E+04 -0.16829787799E+03 -0.12599908921E+04  0.20716492367E+04  0.12699999809E+01 0. -1.
       -4    1    3    3    0  502  0.16357957462E+04  0.16829787799E+03  0.10237316373E+04  0.19370544590E+04  0.12699999809E+01 0.  1.
</event>
<event>
 5   0  0.2078125E-09  0.4002562E+04  0.7818609E-02  0.8004030E-01
       -1   -1    0    0    0  501  0.00000000000E+00  0.00000000000E+00  0.16677222136E+04  0.16677222136E+04  0.50400001928E-02 0.  1.
        1   -1    0    0  501    0  0.00000000000E+00  0.00000000000E+00 -0.24015542690E+04  0.24015542690E+04  0.50400001928E-02 0. -1.
    10030    2    1    2    0    0  0.00000000000E+00  0.00000000000E+00 -0.73383205532E+03  0.40692764826E+04  0.40025618804E+04 0.  0.
        1    1    3    3  502    0  0.17031139931E+04 -0.98253112477E+03 -0.74617640445E+03  0.21030320757E+04  0.50400001928E-02 0. -1.
       -1    1    3    3    0  502 -0.17031139931E+04  0.98253112477E+03  0.12344349128E+02  0.19662444069E+04  0.50400001928E-02 0.  1.
</event>
<event>
 5   0  0.2078125E-09  0.3997502E+04  0.7818609E-02  0.8005051E-01
       -1   -1    0    0    0  501  0.00000000000E+00  0.00000000000E+00  0.21765631748E+04  0.21765631748E+04  0.50400001928E-02 0. -1.
        1   -1    0    0  501    0  0.00000000000E+00  0.00000000000E+00 -0.18354651238E+04  0.18354651238E+04  0.50400001928E-02 0.  1.
    10030    2    1    2    0    0  0.00000000000E+00  0.00000000000E+00  0.34109805103E+03  0.40120282986E+04  0.39975021186E+04 0.  0.
        2    1    3    3  502    0  0.19122425267E+04 -0.10385704068E+03 -0.40384879287E+03  0.19571795046E+04  0.25500000920E-02 0.  1.
       -2    1    3    3    0  502 -0.19122425267E+04  0.10385704068E+03  0.74494684390E+03  0.20548487940E+04  0.25500000920E-02 0. -1.
</event>
<event>
 5   0  0.6599276E-09  0.4000940E+04  0.7818609E-02  0.8004357E-01
        2   -1    0    0  501    0  0.00000000000E+00  0.00000000000E+00  0.24732943215E+04  0.24732943215E+04  0.25500000920E-02 0.  1.
       -2   -1    0    0    0  501  0.00000000000E+00  0.00000000000E+00 -0.16180364987E+04  0.16180364987E+04  0.25500000920E-02 0. -1.
    10030    2    1    2    0    0  0.00000000000E+00  0.00000000000E+00  0.85525782275E+03  0.40913308202E+04  0.40009401317E+04 0.  0.
        2    1    3    3  502    0 -0.11747523287E+04  0.10950352128E+04 -0.79210360937E+03  0.17906907268E+04  0.25500000920E-02 0. -1.
       -2    1    3    3    0  502  0.11747523287E+04 -0.10950352128E+04  0.16473614321E+04  0.23006400934E+04  0.25500000920E-02 0.  1.
</event>
<event>
 5   0  0.2078125E-09  0.3999838E+04  0.7818609E-02  0.8004579E-01
       -1   -1    0    0    0  501  0.00000000000E+00  0.00000000000E+00  0.29297974054E+04  0.29297974054E+04  0.50400001928E-02 0. -1.
        1   -1    0    0  501    0  0.00000000000E+00  0.00000000000E+00 -0.13651717878E+04  0.13651717878E+04  0.50400001928E-02 0.  1.
    10030    2    1    2    0    0  0.00000000000E+00  0.00000000000E+00  0.15646256176E+04  0.42949691932E+04  0.39998383777E+04 0.  0.
        2    1    3    3  502    0 -0.59500857268E+02  0.14644580094E+03  0.29230790284E+04  0.29273499502E+04  0.25500000920E-02 0. -1.
       -2    1    3    3    0  502  0.59500857268E+02 -0.14644580094E+03 -0.13584534108E+04  0.13676192430E+04  0.25500000920E-02 0.  1.
</event>
<event>
 5   0  0.6645526E-09  0.4000352E+04  0.7818609E-02  0.8004476E-01
        2   -1    0    0  501    0  0.00000000000E+00  0.00000000000E+00  0.24593465663E+04  0.24593465663E+04  0.25500000920E-02 0.  1.
       -2   -1    0    0    0  501  0.00000000000E+00  0.00000000000E+00 -0.16267343181E+04  0.16267343181E+04  0.25500000920E-02 0. -1.
    10030    2    1    2    0    0  0.00000000000E+00  0.00000000000E+00  0.83261224822E+03  0.40860808845E+04  0.40003517144E+04 0.  0.
        3    1    3    3  502    0 -0.15558143757E+04 -0.12018183143E+04  0.39929022082E+02  0.19663468588E+04  0.10100000352E+00 0.  1.
       -3    1    3    3    0  502  0.15558143757E+04  0.12018183143E+04  0.79268322614E+03  0.21197340256E+04  0.10100000352E+00 0. -1.
</event>
<event>
 5   0  0.6547327E-09  0.4000172E+04  0.7818609E-02  0.8004512E-01
        2   -1    0    0  501    0  0.00000000000E+00  0.00000000000E+00  0.13801572738E+04  0.13801572738E+04  0.25500000920E-02 0.  1.
       -2   -1    0    0    0  501  0.00000000000E+00  0.00000000000E+00 -0.28984697409E+04  0.28984697409E+04  0.25500000920E-02 0. -1.
    10030    2    1    2    0    0  0.00000000000E+00  0.00000000000E+00 -0.15183124672E+04  0.42786270147E+04  0.40001720442E+04 0.  0.
        5    1    3    3  502    0  0.11846735534E+04 -0.51009687846E+02 -0.24819497443E+04  0.27506635635E+04  0.46999998093E+01 0. -1.
       -5    1    3    3    0  502 -0.11846735534E+04  0.51009687846E+02  0.96363727711E+03  0.15279634512E+04  0.46999998093E+01 0.  1.
</event>
<event>
 5   0  0.2078125E-09  0.3998756E+04  0.7818609E-02  0.8004797E-01
       -1   -1    0    0    0  501  0.00000000000E+00  0.00000000000E+00  0.21286101383E+04  0.21286101383E+04  0.50400001928E-02 0. -1.
        1   -1    0    0  501    0  0.00000000000E+00  0.00000000000E+00 -0.18779920782E+04  0.18779920782E+04  0.50400001928E-02 0.  1.
    10030    2    1    2    0    0  0.00000000000E+00  0.00000000000E+00  0.25061806009E+03  0.40066022165E+04  0.39987562953E+04 0.  0.
        5    1    3    3  502    0 -0.48177173305E+03  0.17416059142E+04  0.98267232013E+03  0.20569302715E+04  0.46999998093E+01 0. -1.
       -5    1    3    3    0  502  0.48177173305E+03 -0.17416059142E+04 -0.73205426004E+03  0.19496719449E+04  0.46999998093E+01 0.  1.
</event>
<event>
 5   0  0.2078125E-09  0.4000291E+04  0.7818609E-02  0.8004488E-01
       -1   -1    0    0    0  501  0.00000000000E+00  0.00000000000E+00  0.20875204169E+04  0.20875204169E+04  0.50400001928E-02 0.  1.
        1   -1    0    0  501    0  0.00000000000E+00  0.00000000000E+00 -0.19164276092E+04  0.19164276092E+04  0.50400001928E-02 0. -1.
    10030    2    1    2    0    0  0.00000000000E+00  0.00000000000E+00  0.17109280777E+03  0.40039480261E+04  0.40002908703E+04 0.  0.
        3    1    3    3  502    0  0.85454740641E+03  0.17076827224E+03 -0.17164240971E+04  0.19249739645E+04  0.10100000352E+00 0. -1.
       -3    1    3    3    0  502 -0.85454740641E+03 -0.17076827224E+03  0.18875169049E+04  0.20789740616E+04  0.10100000352E+00 0.  1.
</event>
<event>
 5   0  0.6645526E-09  0.4002890E+04  0.7818609E-02  0.8003964E-01
        2   -1    0    0  501    0  0.00000000000E+00  0.00000000000E+00  0.19767685812E+04  0.19767685812E+04  0.25500000920E-02 0. -1.
       -2   -1    0    0    0  501  0.00000000000E+00  0.00000000000E+00 -0.20264297052E+04  0.20264297052E+04  0.25500000920E-02 0.  1.
    10030    2    1    2    0    0  0.00000000000E+00  0.00000000000E+00 -0.49661123943E+02  0.40031982864E+04  0.40028902424E+04 0.  0.
        3    1    3    3  502    0  0.42062750215E+03  0.12497287595E+04  0.14809523007E+04  0.19829193617E+04  0.10100000352E+00 0. -1.
       -3    1    3    3    0  502 -0.42062750215E+03 -0.12497287595E+04 -0.15306134246E+04  0.20202789247E+04  0.10100000352E+00 0.  1.
</event>
<event>
 5   0  0.6736335E-09  0.3998755E+04  0.7818609E-02  0.8004798E-01
        2   -1    0    0  501    0  0.00000000000E+00  0.00000000000E+00  0.30789420615E+04  0.30789420615E+04  0.25500000920E-02 0.  1.
       -2   -1    0    0    0  501  0.00000000000E+00  0.00000000000E+00 -0.12983387520E+04  0.12983387520E+04  0.25500000920E-02 0. -1.
    10030    2    1    2    0    0  0.00000000000E+00  0.00000000000E+00  0.17806033095E+04  0.43772808135E+04  0.39987547029E+04 0.  0.
        1    1    3    3  502    0 -0.67698525901E+03 -0.88555995841E+03 -0.92663258775E+03  0.14495424911E+04  0.50400001928E-02 0. -1.
       -1    1    3    3    0  502  0.67698525901E+03  0.88555995841E+03  0.27072358972E+04  0.29277383224E+04  0.50400001928E-02 0.  1.
</event>
<event>
 5   0  0.6736335E-09  0.3999283E+04  0.7818609E-02  0.8004691E-01
        2   -1    0    0  501    0  0.00000000000E+00  0.00000000000E+00  0.16676238105E+04  0.16676238105E+04  0.25500000920E-02 0.  1.
       -2   -1    0    0    0  501  0.00000000000E+00  0.00000000000E+00 -0.23977620842E+04  0.23977620842E+04  0.25500000920E-02 0. -1.
    10030    2    1    2    0    0  0.00000000000E+00  0.00000000000E+00 -0.73013827370E+03  0.40653858946E+04  0.39992825074E+04 0.  0.
        1    1    3    3  502    0  0.14605972425E+04  0.12903781898E+04 -0.81983936734E+03  0.21143691177E+04  0.50400001928E-02 0. -1.
       -1    1    3    3    0  502 -0.14605972425E+04 -0.12903781898E+04  0.89701093634E+02  0.19510167769E+04  0.50400001928E-02 0.  1.
</event>
<event>
 5   0  0.6599276E-09  0.3999596E+04  0.7818609E-02  0.8004628E-01
       -2   -1    0    0    0  501  0.00000000000E+00  0.00000000000E+00  0.16954906036E+04  0.16954906036E+04  0.25500000920E-02 0.  1.
        2   -1    0    0  501    0  0.00000000000E+00  0.00000000000E+00 -0.23587230071E+04  0.23587230071E+04  0.25500000920E-02 0. -1.
    10030    2    1    2    0    0  0.00000000000E+00  0.00000000000E+00 -0.66323240348E+03  0.40542136107E+04  0.39995963272E+04 0.  0.
        2    1    3    3  502    0 -0.12277591233E+04 -0.14824564039E+04  0.21812101308E+03  0.19371748064E+04  0.25500000920E-02 0.  1.
       -2    1    3    3    0  502  0.12277591233E+04  0.14824564039E+04 -0.88135341656E+03  0.21170388043E+04  0.25500000920E-02 0. -1.
</event>
<event>
 5   0  0.2078125E-09  0.4000682E+04  0.7818609E-02  0.8004409E-01
        1   -1    0    0  501    0  0.00000000000E+00  0.00000000000E+00  0.27394871662E+04  0.27394871662E+04  0.50400001928E-02 0.  1.
       -1   -1    0    0    0  501  0.00000000000E+00  0.00000000000E+00 -0.14606252342E+04  0.14606252342E+04  0.50400001928E-02 0. -1.
    10030    2    1    2    0    0  0.00000000000E+00  0.00000000000E+00  0.12788619321E+04  0.42001124004E+04  0.40006819838E+04 0.  0.
        1    1    3    3  502    0  0.58479129221E+03 -0.19031985905E+04  0.43689345939E+03  0.20383870156E+04  0.50400001928E-02 0. -1.
       -1    1    3    3    0  502 -0.58479129221E+03  0.19031985905E+04  0.84196847266E+03  0.21617253848E+04  0.50400001928E-02 0.  1.
</event>
<event>
 5   0  0.6736335E-09  0.4001031E+04  0.7818609E-02  0.8004339E-01
        2   -1    0    0  501    0  0.00000000000E+00  0.00000000000E+00  0.16221684003E+04  0.16221684004E+04  0.25500000920E-02 0. -1.
       -2   -1    0    0    0  501  0.00000000000E+00  0.00000000000E+00 -0.24671068890E+04  0.24671068890E+04  0.25500000920E-02 0.  1.
    10030    2    1    2    0    0  0.00000000000E+00  0.00000000000E+00 -0.84493848865E+03  0.40892752894E+04  0.40010312849E+04 0.  0.
        1    1    3    3  502    0  0.61507732721E+03 -0.36477350418E+03 -0.23320129673E+04  0.24391933723E+04  0.50400001928E-02 0.  1.
       -1    1    3    3    0  502 -0.61507732721E+03  0.36477350418E+03  0.14870744787E+04  0.16500819170E+04  0.50400001928E-02 0. -1.
</event>
<event>
 5   0  0.6538370E-09  0.4000778E+04  0.7818609E-02  0.8004390E-01
        2   -1    0    0  501    0  0.00000000000E+00  0.00000000000E+00  0.19900389776E+04  0.19900389776E+04  0.25500000920E-02 0.  1.
       -2   -1    0    0    0  501  0.00000000000E+00  0.00000000000E+00 -0.20107932669E+04  0.20107932669E+04  0.25500000920E-02 0. -1.
    10030    2    1    2    0    0  0.00000000000E+00  0.00000000000E+00 -0.20754289350E+02  0.40008322445E+04  0.40007784128E+04 0.  0.
        4    1    3    3  502    0 -0.14710045641E+04 -0.57047459466E+02  0.13440584907E+04  0.19933899969E+04  0.12699999809E+01 0.  1.
       -4    1    3    3    0  502  0.14710045641E+04  0.57047459466E+02 -0.13648127801E+04  0.20074422477E+04  0.12699999809E+01 0. -1.
</event>
<event>
 5   0  0.6645526E-09  0.3999881E+04  0.7818609E-02  0.8004571E-01
       -2   -1    0    0    0  501  0.00000000000E+00  0.00000000000E+00  0.13426853428E+04  0.13426853428E+04  0.25500000920E-02 0. -1.
        2   -1    0    0  501    0  0.00000000000E+00  0.00000000000E+00 -0.29789271410E+04  0.29789271410E+04  0.25500000920E-02 0.  1.
    10030    2    1    2    0    0  0.00000000000E+00  0.00000000000E+00 -0.16362417982E+04  0.43216124838E+04  0.39998809030E+04 0.  0.
        3    1    3    3  502    0 -0.35357047519E+03 -0.41488692035E+03  0.12608731587E+04  0.13736609371E+04  0.10100000352E+00 0. -1.
       -3    1    3    3    0  502  0.35357047519E+03  0.41488692035E+03 -0.28971149569E+04  0.29479515467E+04  0.10100000352E+00 0.  1.
</event>
<event>
 5   0  0.2078125E-09  0.4003271E+04  0.7818609E-02  0.8003887E-01
       -1   -1    0    0    0  501  0.00000000000E+00  0.00000000000E+00  0.21323693778E+04  0.21323693778E+04  0.50400001928E-02 0. -1.
        1   -1    0    0  501    0  0.00000000000E+00  0.00000000000E+00 -0.18789167229E+04  0.18789167229E+04  0.50400001928E-02 0.  1.
    10030    2    1    2    0    0  0.00000000000E+00  0.00000000000E+00  0.25345265490E+03  0.40112861007E+04  0.40032709044E+04 0.  0.
        5    1    3    3  502    0 -0.14961534127E+04 -0.11074256841E+03 -0.12009864451E+04  0.19217516702E+04  0.46999998093E+01 0.  1.
       -5    1    3    3    0  502  0.14961534127E+04  0.11074256841E+03  0.14544391000E+04  0.20895344305E+04  0.46999998093E+01 0. -1.
</event>
<event>
 5   0  0.2078125E-09  0.3998915E+04  0.7818609E-02  0.8004765E-01
       -1   -1    0    0    0  501  0.00000000000E+00  0.00000000000E+00  0.14857764561E+04  0.14857764561E+04  0.50400001928E-02 0. -1.
        1   -1    0    0  501    0  0.00000000000E+00  0.00000000000E+00 -0.26907349589E+04  0.26907349589E+04  0.50400001928E-02 0.  1.
    10030    2    1    2    0    0  0.00000000000E+00  0.00000000000E+00 -0.12049585027E+04  0.41765114150E+04  0.39989151787E+04 0.  0.
        2    1    3    3  502    0  0.97549259181E+03  0.66904645364E+03  0.10811366176E+04  0.16025184366E+04  0.25500000920E-02 0. -1.
       -2    1    3    3    0  502 -0.97549259181E+03 -0.66904645364E+03 -0.22860951203E+04  0.25739929784E+04  0.25500000920E-02 0.  1.
</event>
<event>
 5   0  0.6736335E-09  0.3999708E+04  0.7818609E-02  0.8004606E-01
        2   -1    0    0  501    0  0.00000000000E+00  0.00000000000E+00  0.21100666134E+04  0.21100666134E+04  0.25500000920E-02 0. -1.
       -2   -1    0    0    0  501  0.00000000000E+00  0.00000000000E+00 -0.18953976195E+04  0.18953976195E+04  0.25500000920E-02 0.  1.
    10030    2    1    2    0    0  0.00000000000E+00  0.00000000000E+00  0.21466899391E+03  0.40054642328E+04  0.39997076073E+04 0.  0.
        1    1    3    3  502    0 -0.79752629153E+03 -0.54071990791E+03 -0.16476114583E+04  0.19086774799E+04  0.50400001928E-02 0.  1.
       -1    1    3    3    0  502  0.79752629153E+03  0.54071990791E+03  0.18622804523E+04  0.20967867530E+04  0.50400001928E-02 0. -1.
</event>
<event>
 5   0  0.6538370E-09  0.4002581E+04  0.7818609E-02  0.8004026E-01
        2   -1    0    0  501    0  0.00000000000E+00  0.00000000000E+00  0.23509147057E+04  0.23509147057E+04  0.25500000920E-02 0. -1.
       -2   -1    0    0    0  501  0.00000000000E+00  0.00000000000E+00 -0.17036619901E+04  0.17036619901E+04  0.25500000920E-02 0.  1.
    10030    2    1    2    0    0  0.00000000000E+00  0.00000000000E+00  0.64725271558E+03  0.40545766957E+04  0.40025811802E+04 0.  0.
        4    1    3    3  502    0  0.21002863976E+03  0.24389246644E+03  0.23245241133E+04  0.23467018411E+04  0.12699999809E+01 0. -1.
       -4    1    3    3    0  502 -0.21002863976E+03 -0.24389246644E+03 -0.16772713977E+04  0.17078748547E+04  0.12699999809E+01 0.  1.
</event>
<event>
 5   0  0.6645526E-09  0.3999034E+04  0.7818609E-02  0.8004742E-01
        2   -1    0    0  501    0  0.00000000000E+00  0.00000000000E+00  0.15201932720E+04  0.15201932720E+04  0.25500000920E-02 0. -1.
       -2   -1    0    0    0  501  0.00000000000E+00  0.00000000000E+00 -0.26299733021E+04  0.26299733021E+04  0.25500000920E-02 0.  1.
    10030    2    1    2    0    0  0.00000000000E+00  0.00000000000E+00 -0.11097800301E+04  0.41501665742E+04  0.39990337431E+04 0.  0.
        3    1    3    3  502    0  0.14474034445E+04 -0.49388308157E+02 -0.19856333688E+04  0.24576728467E+04  0.10100000352E+00 0.  1.
       -3    1    3    3    0  502 -0.14474034445E+04  0.49388308157E+02  0.87585333869E+03  0.16924937274E+04  0.10100000352E+00 0. -1.
</event>
<event>
 5   0  0.2078125E-09  0.4001160E+04  0.7818609E-02  0.8004313E-01
        1   -1    0    0  501    0  0.00000000000E+00  0.00000000000E+00  0.24722448775E+04  0.24722448775E+04  0.50400001928E-02 0.  1.
       -1   -1    0    0    0  501  0.00000000000E+00  0.00000000000E+00 -0.16189014912E+04  0.16189014912E+04  0.50400001928E-02 0. -1.
    10030    2    1    2    0    0  0.00000000000E+00  0.00000000000E+00  0.85334338627E+03  0.40911463688E+04  0.40011602912E+04 0.  0.
        3    1    3    3  502    0 -0.65413096148E+03 -0.35241564234E+02 -0.15061296610E+04  0.16424237725E+04  0.10100000352E+00 0. -1.
       -3    1    3    3    0  502  0.65413096148E+03  0.35241564234E+02  0.23594730472E+04  0.24487225963E+04  0.10100000352E+00 0.  1.
</event>
<event>
 5   0  0.6599276E-09  0.3999311E+04  0.7818609E-02  0.8004686E-01
        2   -1    0    0  501    0  0.00000000000E+00  0.00000000000E+00  0.15713891371E+04  0.15713891371E+04  0.25500000920E-02 0.  1.
       -2   -1    0    0    0  501  0.00000000000E+00  0.00000000000E+00 -0.25446412329E+04  0.25446412329E+04  0.25500000920E-02 0. -1.
    10030    2    1    2    0    0  0.00000000000E+00  0.00000000000E+00 -0.97325209578E+03  0.41160303701E+04  0.39993107363E+04 0.  0.
        2    1    3    3  502    0  0.71840676165E+03  0.63888322429E+03  0.13179262723E+04  0.16313214608E+04  0.25500000920E-02 0.  1.
       -2    1    3    3    0  502 -0.71840676165E+03 -0.63888322429E+03 -0.22911783680E+04  0.24847089092E+04  0.25500000920E-02 0. -1.
</event>
<event>
 5   0  0.2078125E-09  0.3996654E+04  0.7818609E-02  0.8005222E-01
       -1   -1    0    0    0  501  0.00000000000E+00  0.00000000000E+00  0.23810924246E+04  0.23810924246E+04  0.50400001928E-02 0.  1.
        1   -1    0    0  501    0  0.00000000000E+00  0.00000000000E+00 -0.16770922025E+04  0.16770922025E+04  0.50400001928E-02 0. -1.
    10030    2    1    2    0    0  0.00000000000E+00  0.00000000000E+00  0.70400022209E+03  0.40581846271E+04  0.39966543702E+04 0.  0.
        1    1    3    3  502    0  0.13131077277E+04  0.15035341986E+04  0.44530908388E+03  0.20452792404E+04  0.50400001928E-02 0.  1.
       -1    1    3    3    0  502 -0.13131077277E+04 -0.15035341986E+04  0.25869113821E+03  0.20129053867E+04  0.50400001928E-02 0. -1.
</event>
<event>
 5   0  0.2078125E-09  0.3994872E+04  0.7818609E-02  0.8005582E-01
        1   -1    0    0  501    0  0.00000000000E+00  0.00000000000E+00  0.15508562680E+04  0.15508562680E+04  0.50400001928E-02 0. -1.
       -1   -1    0    0    0  501  0.00000000000E+00  0.00000000000E+00 -0.25726113126E+04  0.25726113126E+04  0.50400001928E-02 0.  1.
    10030    2    1    2    0    0  0.00000000000E+00  0.00000000000E+00 -0.10217550446E+04  0.41234675806E+04  0.39948719024E+04 0.  0.
        2    1    3    3  502    0  0.12685502883E+04  0.12957402755E+04  0.35369355857E+03  0.18475015098E+04  0.25500000920E-02 0. -1.
       -2    1    3    3    0  502 -0.12685502883E+04 -0.12957402755E+04 -0.13754486031E+04  0.22759660708E+04  0.25500000920E-02 0.  1.
</event>
<event>
 5   0  0.6547327E-09  0.3997230E+04  0.7818609E-02  0.8005106E-01
        2   -1    0    0  501    0  0.00000000000E+00  0.00000000000E+00  0.29730939451E+04  0.29730939451E+04  0.25500000920E-02 0.  1.
       -2   -1    0    0    0  501  0.00000000000E+00  0.00000000000E+00 -0.13435371281E+04  0.13435371281E+04  0.25500000920E-02 0. -1.
    10030    2    1    2    0    0  0.00000000000E+00  0.00000000000E+00  0.16295568170E+04  0.43166310731E+04  0.39972300911E+04 0.  0.
        5    1    3    3  502    0 -0.11734399322E+04 -0.15339395466E+04  0.13701777460E+04  0.23679824646E+04  0.46999998093E+01 0.  1.
       -5    1    3    3    0  502  0.11734399322E+04  0.15339395466E+04  0.25937907102E+03  0.19486486085E+04  0.46999998093E+01 0. -1.
</event>
<event>
 5   0  0.2078125E-09  0.3998111E+04  0.7818609E-02  0.8004928E-01
       -1   -1    0    0    0  501  0.00000000000E+00  0.00000000000E+00  0.14920132875E+04  0.14920132875E+04  0.50400001928E-02 0.  1.
        1   -1    0    0  501    0  0.00000000000E+00  0.00000000000E+00 -0.26784101454E+04  0.26784101454E+04  0.50400001928E-02 0. -1.
    10030    2    1    2    0    0  0.00000000000E+00  0.00000000000E+00 -0.11863968579E+04  0.41704234329E+04  0.39981113172E+04 0.  0.
        1    1    3    3  502    0  0.11971768247E+04 -0.12014829093E+04  0.51043218809E+03  0.17712522547E+04  0.50400001928E-02 0.  1.
       -1    1    3    3    0  502 -0.11971768247E+04  0.12014829093E+04 -0.16968290460E+04  0.23991711782E+04  0.50400001928E-02 0. -1.
</event>
<event>
 5   0  0.6538370E-09  0.4000698E+04  0.7818609E-02  0.8004406E-01
        2   -1    0    0  501    0  0.00000000000E+00  0.00000000000E+00  0.26620059365E+04  0.26620059365E+04  0.25500000920E-02 0.  1.
       -2   -1    0    0    0  501  0.00000000000E+00  0.00000000000E+00 -0.15031507480E+04  0.15031507480E+04  0.25500000920E-02 0. -1.
    10030    2    1    2    0    0  0.00000000000E+00  0.00000000000E+00  0.11588551885E+04  0.41651566845E+04  0.40006980464E+04 0.  0.
        4    1    3    3  502    0 -0.19473550929E+04  0.28124818941E+03  0.20390342903E+03  0.19780977284E+04  0.12699999809E+01 0. -1.
       -4    1    3    3    0  502  0.19473550929E+04 -0.28124818941E+03  0.95495175943E+03  0.21870589561E+04  0.12699999809E+01 0.  1.
</event>
<event>
 5   0  0.6645526E-09  0.4000343E+04  0.7818609E-02  0.8004477E-01
       -2   -1    0    0    0  501  0.00000000000E+00  0.00000000000E+00  0.23045459706E+04  0.23045459706E+04  0.25500000920E-02 0. -1.
        2   -1    0    0  501    0  0.00000000000E+00  0.00000000000E+00 -0.17359971149E+04  0.17359971149E+04  0.25500000920E-02 0.  1.
    10030    2    1    2    0    0  0.00000000000E+00  0.00000000000E+00  0.56854885571E+03  0.40405430855E+04  0.40003425634E+04 0.  0.
        3    1    3    3  502    0 -0.75227147474E+03 -0.47240497902E+03 -0.15258303317E+04  0.17655698930E+04  0.10100000352E+00 0.  1.
       -3    1    3    3    0  502  0.75227147474E+03  0.47240497902E+03  0.20943791874E+04  0.22749731925E+04  0.10100000352E+00 0. -1.
</event>
<event>
 5   0  0.6645526E-09  0.3992604E+04  0.7818609E-02  0.8006040E-01
        2   -1    0    0  501    0  0.00000000000E+00  0.00000000000E+00  0.14071953607E+04  0.14071953608E+04  0.25500000920E-02 0.  1.
       -2   -1    0    0    0  501  0.00000000000E+00  0.00000000000E+00 -0.28320321790E+04  0.28320321790E+04  0.25500000920E-02 0. -1.
    10030    2    1    2    0    0  0.00000000000E+00  0.00000000000E+00 -0.14248368183E+04  0.42392275398E+04  0.39926044351E+04 0.  0.
        3    1    3    3  502    0 -0.10761885828E+04 -0.10558793409E+03  0.10692973811E+04  0.15207654576E+04  0.10100000352E+00 0.  1.
       -3    1    3    3    0  502  0.10761885828E+04  0.10558793409E+03 -0.24941341994E+04  0.27184620822E+04  0.10100000352E+00 0. -1.
</event>
<event>
 5   0  0.2078125E-09  0.3999747E+04  0.7818609E-02  0.8004598E-01
        1   -1    0    0  501    0  0.00000000000E+00  0.00000000000E+00  0.27450432361E+04  0.27450432361E+04  0.50400001928E-02 0.  1.
       -1   -1    0    0    0  501  0.00000000000E+00  0.00000000000E+00 -0.14569877848E+04  0.14569877848E+04  0.50400001928E-02 0. -1.
    10030    2    1    2    0    0  0.00000000000E+00  0.00000000000E+00  0.12880554513E+04  0.42020310210E+04  0.39997472240E+04 0.  0.
        5    1    3    3  502    0 -0.13879202831E+03 -0.13676526823E+04 -0.88192363930E+03  0.16332631393E+04  0.46999998093E+01 0. -1.
       -5    1    3    3    0  502  0.13879202831E+03  0.13676526823E+04  0.21699790906E+04  0.25687678817E+04  0.46999998093E+01 0.  1.
</event>
<event>
 5   0  0.6599276E-09  0.4018661E+04  0.7818609E-02  0.8000793E-01
        2   -1    0    0  501    0  0.00000000000E+00  0.00000000000E+00  0.15574808577E+04  0.15574808577E+04  0.25500000920E-02 0. -1.
       -2   -1    0    0    0  501  0.00000000000E+00  0.00000000000E+00 -0.25922689053E+04  0.25922689053E+04  0.25500000920E-02 0.  1.
    10030    2    1    2    0    0  0.00000000000E+00  0.00000000000E+00 -0.10347880476E+04  0.41497497630E+04  0.40186610696E+04 0.  0.
        2    1    3    3  502    0 -0.13155027781E+04  0.14704650519E+04 -0.91005335315E+03  0.21727890219E+04  0.25500000920E-02 0.  1.
       -2    1    3    3    0  502  0.13155027781E+04 -0.14704650519E+04 -0.12473469449E+03  0.19769607412E+04  0.25500000920E-02 0. -1.
</event>
<event>
 5   0  0.6538370E-09  0.3999184E+04  0.7818609E-02  0.8004711E-01
       -2   -1    0    0    0  501  0.00000000000E+00  0.00000000000E+00  0.28663708714E+04  0.28663708714E+04  0.25500000920E-02 0. -1.
        2   -1    0    0  501    0  0.00000000000E+00  0.00000000000E+00 -0.13949231921E+04  0.13949231921E+04  0.25500000920E-02 0.  1.
    10030    2    1    2    0    0  0.00000000000E+00  0.00000000000E+00  0.14714476793E+04  0.42612940635E+04  0.39991835195E+04 0.  0.
        4    1    3    3  502    0 -0.13238601202E+04  0.14021364482E+04  0.12993269055E+04  0.23252621911E+04  0.12699999809E+01 0. -1.
       -4    1    3    3    0  502  0.13238601202E+04 -0.14021364482E+04  0.17212077378E+03  0.19360318724E+04  0.12699999809E+01 0.  1.
</event>
<event>
 5   0  0.6538370E-09  0.4001731E+04  0.7818609E-02  0.8004197E-01
       -2   -1    0    0    0  501  0.00000000000E+00  0.00000000000E+00  0.17370843483E+04  0.17370843483E+04  0.25500000920E-02 0.  1.
        2   -1    0    0  501    0  0.00000000000E+00  0.00000000000E+00 -0.23047024141E+04  0.23047024141E+04  0.25500000920E-02 0. -1.
    10030    2    1    2    0    0  0.00000000000E+00  0.00000000000E+00 -0.56761806581E+03  0.40417867623E+04  0.40017308709E+04 0.  0.
        4    1    3    3  502    0  0.78331295546E+02  0.97583450012E+03 -0.20462894922E+04  0.22684115725E+04  0.12699999809E+01 0. -1.
       -4    1    3    3    0  502 -0.78331295546E+02 -0.97583450012E+03  0.14786714264E+04  0.17733751898E+04  0.12699999809E+01 0.  1.
</event>
<event>
 5   0  0.2078125E-09  0.3990807E+04  0.7818609E-02  0.8006404E-01
        1   -1    0    0  501    0  0.00000000000E+00  0.00000000000E+00  0.24250590773E+04  0.24250590773E+04  0.50400001928E-02 0. -1.
       -1   -1    0    0    0  501  0.00000000000E+00  0.00000000000E+00 -0.16418711946E+04  0.16418711946E+04  0.50400001928E-02 0.  1.
    10030    2    1    2    0    0  0.00000000000E+00  0.00000000000E+00  0.78318788275E+03  0.40669302720E+04  0.39908067577E+04 0.  0.
        4    1    3    3  502    0  0.19538125584E+04  0.20210815438E+03  0.74958056238E+03  0.21024043026E+04  0.12699999809E+01 0. -1.
       -4    1    3    3    0  502 -0.19538125584E+04 -0.20210815438E+03  0.33607320369E+02  0.19645259693E+04  0.12699999809E+01 0.  1.
</event>
<event>
 5   0  0.2078125E-09  0.4000596E+04  0.7818609E-02  0.8004426E-01
       -1   -1    0    0    0  501  0.00000000000E+00  0.00000000000E+00  0.34144008798E+04  0.34144008798E+04  0.50400001928E-02 0.  1.
        1   -1    0    0  501    0  0.00000000000E+00  0.00000000000E+00 -0.11718578869E+04  0.11718578869E+04  0.50400001928E-02 0. -1.
    10030    2    1    2    0    0  0.00000000000E+00  0.00000000000E+00  0.22425429930E+04  0.45862587667E+04  0.40005962556E+04 0.  0.
        5    1    3    3  502    0  0.60915335276E+03  0.59778576677E+03  0.31951846704E+04  0.33072107278E+04  0.46999998093E+01 0.  1.
       -5    1    3    3    0  502 -0.60915335276E+03 -0.59778576677E+03 -0.95264167747E+03  0.12790480389E+04  0.46999998093E+01 0. -1.
</event>
<event>
 5   0  0.2078125E-09  0.4000839E+04  0.7818609E-02  0.8004377E-01
       -1   -1    0    0    0  501  0.00000000000E+00  0.00000000000E+00  0.24037633718E+04  0.24037633718E+04  0.50400001928E-02 0.  1.
        1   -1    0    0  501    0  0.00000000000E+00  0.00000000000E+00 -0.16647556445E+04  0.16647556445E+04  0.50400001928E-02 0. -1.
    10030    2    1    2    0    0  0.00000000000E+00  0.00000000000E+00  0.73900772728E+03  0.40685190163E+04  0.40008392326E+04 0.  0.
        1    1    3    3  502    0 -0.97169594488E+03 -0.48911738435E+03 -0.13376591524E+04  0.17241696068E+04  0.50400001928E-02 0. -1.
       -1    1    3    3    0  502  0.97169594488E+03  0.48911738435E+03  0.20766668797E+04  0.23443494096E+04  0.50400001928E-02 0.  1.
</event>
<event>
 5   0  0.2078125E-09  0.3981932E+04  0.7818609E-02  0.8008201E-01
        1   -1    0    0  501    0  0.00000000000E+00  0.00000000000E+00  0.23792531111E+04  0.23792531111E+04  0.50400001928E-02 0. -1.
       -1   -1    0    0    0  501  0.00000000000E+00  0.00000000000E+00 -0.16660465096E+04  0.16660465096E+04  0.50400001928E-02 0.  1.
    10030    2    1    2    0    0  0.00000000000E+00  0.00000000000E+00  0.71320660154E+03  0.40452996207E+04  0.39819323656E+04 0.  0.
        4    1    3    3  502    0 -0.14413864836E+04 -0.10246195895E+04  0.12857642249E+04  0.21864655390E+04  0.12699999809E+01 0. -1.
       -4    1    3    3    0  502  0.14413864836E+04  0.10246195895E+04 -0.57255762333E+03  0.18588340817E+04  0.12699999809E+01 0.  1.
</event>
<event>
 5   0  0.2078125E-09  0.4000111E+04  0.7818609E-02  0.8004524E-01
       -1   -1    0    0    0  501  0.00000000000E+00  0.00000000000E+00  0.18767195664E+04  0.18767195664E+04  0.50400001928E-02 0.  1.
        1   -1    0    0  501    0  0.00000000000E+00  0.00000000000E+00 -0.21314969287E+04  0.21314969287E+04  0.50400001928E-02 0. -1.
    10030    2    1    2    0    0  0.00000000000E+00  0.00000000000E+00 -0.25477736235E+03  0.40082164951E+04  0.40001109943E+04 0.  0.
        1    1    3    3  502    0 -0.19530685467E+04  0.27231610198E+03  0.20733788322E+03  0.19828317643E+04  0.50400001928E-02 0. -1.
       -1    1    3    3    0  502  0.19530685467E+04 -0.27231610198E+03 -0.46211524557E+03  0.20253847308E+04  0.50400001928E-02 0.  1.
</event>
<event>
 5   0  0.6599276E-09  0.3995929E+04  0.7818609E-02  0.8005368E-01
       -2   -1    0    0    0  501  0.00000000000E+00  0.00000000000E+00  0.31980732683E+04  0.31980732683E+04  0.25500000920E-02 0. -1.
        2   -1    0    0  501    0  0.00000000000E+00  0.00000000000E+00 -0.12482085957E+04  0.12482085957E+04  0.25500000920E-02 0.  1.
    10030    2    1    2    0    0  0.00000000000E+00  0.00000000000E+00  0.19498646726E+04  0.44462818640E+04  0.39959292002E+04 0.  0.
        2    1    3    3  502    0 -0.16812559259E+04 -0.10766930317E+04  0.10609290111E+04  0.22608537634E+04  0.25500000920E-02 0.  1.
       -2    1    3    3    0  502  0.16812559259E+04  0.10766930317E+04  0.88893566147E+03  0.21854281006E+04  0.25500000920E-02 0. -1.
</event>
<event>
 5   0  0.2078125E-09  0.3999980E+04  0.7818609E-02  0.8004551E-01
       -1   -1    0    0    0  501  0.00000000000E+00  0.00000000000E+00  0.24547383581E+04  0.24547383581E+04  0.50400001928E-02 0. -1.
        1   -1    0    0  501    0  0.00000000000E+00  0.00000000000E+00 -0.16294850585E+04  0.16294850585E+04  0.50400001928E-02 0.  1.
    10030    2    1    2    0    0  0.00000000000E+00  0.00000000000E+00  0.82525329962E+03  0.40842234166E+04  0.39999797385E+04 0.  0.
        4    1    3    3  502    0 -0.69463172582E+03 -0.18679361635E+04  0.58427159015E+03  0.20767940797E+04  0.12699999809E+01 0. -1.
       -4    1    3    3    0  502  0.69463172582E+03  0.18679361635E+04  0.24098170946E+03  0.20074293369E+04  0.12699999809E+01 0.  1.
</event>
<event>
 5   0  0.6599276E-09  0.4004227E+04  0.7818609E-02  0.8003694E-01
        2   -1    0    0  501    0  0.00000000000E+00  0.00000000000E+00  0.21703159796E+04  0.21703159796E+04  0.25500000920E-02 0. -1.
       -2   -1    0    0    0  501  0.00000000000E+00  0.00000000000E+00 -0.18469466588E+04  0.18469466588E+04  0.25500000920E-02 0.  1.
    10030    2    1    2    0    0  0.00000000000E+00  0.00000000000E+00  0.32336932073E+03  0.40172626384E+04  0.40042266904E+04 0.  0.
        2    1    3    3  502    0  0.40675008391E+02  0.34883566229E+03 -0.18158022828E+04  0.18494536236E+04  0.25500000920E-02 0.  1.
       -2    1    3    3    0  502 -0.40675008391E+02 -0.34883566229E+03  0.21391716035E+04  0.21678090148E+04  0.25500000920E-02 0. -1.
</event>
<event>
 5   0  0.2078125E-09  0.3999206E+04  0.7818609E-02  0.8004707E-01
        1   -1    0    0  501    0  0.00000000000E+00  0.00000000000E+00  0.18235636663E+04  0.18235636663E+04  0.50400001928E-02 0. -1.
       -1   -1    0    0    0  501  0.00000000000E+00  0.00000000000E+00 -0.21926366144E+04  0.21926366144E+04  0.50400001928E-02 0.  1.
    10030    2    1    2    0    0  0.00000000000E+00  0.00000000000E+00 -0.36907294809E+03  0.40162002807E+04  0.39992061529E+04 0.  0.
        1    1    3    3  502    0 -0.44465681585E+03 -0.17567739361E+03  0.17653192007E+04  0.18289161027E+04  0.50400001928E-02 0. -1.
       -1    1    3    3    0  502  0.44465681585E+03  0.17567739361E+03 -0.21343921487E+04  0.21872841780E+04  0.50400001928E-02 0.  1.
</event>
<event>
 5   0  0.2078125E-09  0.4000373E+04  0.7818609E-02  0.8004471E-01
       -1   -1    0    0    0  501  0.00000000000E+00  0.00000000000E+00  0.29205475848E+04  0.29205475848E+04  0.50400001928E-02 0. -1.
        1   -1    0    0  501    0  0.00000000000E+00  0.00000000000E+00 -0.13698618132E+04  0.13698618132E+04  0.50400001928E-02 0.  1.
    10030    2    1    2    0    0  0.00000000000E+00  0.00000000000E+00  0.15506857716E+04  0.42904093980E+04  0.40003732876E+04 0.  0.
        5    1    3    3  502    0 -0.13897596249E+04  0.14377170213E+04  0.72432883657E+03  0.21267666543E+04  0.46999998093E+01 0.  1.
       -5    1    3    3    0  502  0.13897596249E+04 -0.14377170213E+04  0.82635693501E+03  0.21636427437E+04  0.46999998093E+01 0. -1.
</event>
<event>
 5   0  0.6599276E-09  0.3998412E+04  0.7818609E-02  0.8004867E-01
        2   -1    0    0  501    0  0.00000000000E+00  0.00000000000E+00  0.23679578338E+04  0.23679578338E+04  0.25500000920E-02 0. -1.
       -2   -1    0    0    0  501  0.00000000000E+00  0.00000000000E+00 -0.16878782161E+04  0.16878782161E+04  0.25500000920E-02 0.  1.
    10030    2    1    2    0    0  0.00000000000E+00  0.00000000000E+00  0.68007961770E+03  0.40558360500E+04  0.39984119070E+04 0.  0.
        2    1    3    3  502    0 -0.32689918815E+03 -0.12863368618E+04  0.18566035055E+04  0.22822143147E+04  0.25500000920E-02 0. -1.
       -2    1    3    3    0  502  0.32689918815E+03  0.12863368618E+04 -0.11765238878E+04  0.17736217353E+04  0.25500000920E-02 0.  1.
</event>
<event>
 5   0  0.6736335E-09  0.4001337E+04  0.7818609E-02  0.8004277E-01
       -2   -1    0    0    0  501  0.00000000000E+00  0.00000000000E+00  0.27176711615E+04  0.27176711615E+04  0.25500000920E-02 0. -1.
        2   -1    0    0  501    0  0.00000000000E+00  0.00000000000E+00 -0.14728321824E+04  0.14728321824E+04  0.25500000920E-02 0.  1.
    10030    2    1    2    0    0  0.00000000000E+00  0.00000000000E+00  0.12448389791E+04  0.41905033439E+04  0.40013365506E+04 0.  0.
        1    1    3    3  502    0  0.34648683104E+02  0.13340686720E+04 -0.93859567084E+03  0.16315335075E+04  0.50400001928E-02 0.  1.
       -1    1    3    3    0  502 -0.34648683104E+02 -0.13340686720E+04  0.21834346499E+04  0.25589698364E+04  0.50400001928E-02 0. -1.
</event>
<event>
 5   0  0.6547327E-09  0.3999560E+04  0.7818609E-02  0.8004635E-01
        2   -1    0    0  501    0  0.00000000000E+00  0.00000000000E+00  0.11176967968E+04  0.11176967968E+04  0.25500000920E-02 0.  1.
       -2   -1    0    0    0  501  0.00000000000E+00  0.00000000000E+00 -0.35780006147E+04  0.35780006147E+04  0.25500000920E-02 0. -1.
    10030    2    1    2    0    0  0.00000000000E+00  0.00000000000E+00 -0.24603038179E+04  0.46956974116E+04  0.39995598889E+04 0.  0.
        5    1    3    3  502    0  0.19794001586E+04  0.28428610211E+03 -0.12488691575E+04  0.23576555809E+04  0.46999998093E+01 0. -1.
       -5    1    3    3    0  502 -0.19794001586E+04 -0.28428610211E+03 -0.12114346604E+04  0.23380418307E+04  0.46999998093E+01 0.  1.
</event>
<event>
 5   0  0.2078125E-09  0.4009924E+04  0.7818609E-02  0.8002548E-01
       -1   -1    0    0    0  501  0.00000000000E+00  0.00000000000E+00  0.20733536337E+04  0.20733536337E+04  0.50400001928E-02 0.  1.
        1   -1    0    0  501    0  0.00000000000E+00  0.00000000000E+00 -0.19388260620E+04  0.19388260620E+04  0.50400001928E-02 0. -1.
    10030    2    1    2    0    0  0.00000000000E+00  0.00000000000E+00  0.13452757174E+03  0.40121796957E+04  0.40099237203E+04 0.  0.
        4    1    3    3  502    0 -0.99536837473E+03 -0.17399152261E+04  0.24728077909E+02  0.20046636342E+04  0.12699999809E+01 0. -1.
       -4    1    3    3    0  502  0.99536837473E+03  0.17399152261E+04  0.10979949383E+03  0.20075160615E+04  0.12699999809E+01 0.  1.
</event>
<event>
 5   0  0.2078125E-09  0.3999663E+04  0.7818609E-02  0.8004615E-01
        1   -1    0    0  501    0  0.00000000000E+00  0.00000000000E+00  0.18767648036E+04  0.18767648036E+04  0.50400001928E-02 0.  1.
       -1   -1    0    0    0  501  0.00000000000E+00  0.00000000000E+00 -0.21309682483E+04  0.21309682483E+04  0.50400001928E-02 0. -1.
    10030    2    1    2    0    0  0.00000000000E+00  0.00000000000E+00 -0.25420344473E+03  0.40077330519E+04  0.39996630888E+04 0.  0.
        1    1    3    3  502    0  0.42596974518E+03 -0.49422248464E+03 -0.20213180172E+04  0.21240133274E+04  0.50400001928E-02 0. -1.
       -1    1    3    3    0  502 -0.42596974518E+03  0.49422248464E+03  0.17671145725E+04  0.18837197245E+04  0.50400001928E-02 0.  1.
</event>
<event>
 5   0  0.2078125E-09  0.4000330E+04  0.7818609E-02  0.8004480E-01
        1   -1    0    0  501    0  0.00000000000E+00  0.00000000000E+00  0.18143898682E+04  0.18143898682E+04  0.50400001928E-02 0.  1.
       -1   -1    0    0    0  501  0.00000000000E+00  0.00000000000E+00 -0.22049619601E+04  0.22049619602E+04  0.50400001928E-02 0. -1.
    10030    2    1    2    0    0  0.00000000000E+00  0.00000000000E+00 -0.39057209199E+03  0.40193518283E+04  0.40003303065E+04 0.  0.
        5    1    3    3  502    0  0.17356853482E+03  0.14889775175E+03  0.18012058476E+04  0.18156709977E+04  0.46999998093E+01 0.  1.
       -5    1    3    3    0  502 -0.17356853482E+03 -0.14889775175E+03 -0.21917779396E+04  0.22036808306E+04  0.46999998093E+01 0. -1.
</event>
<event>
 5   0  0.6645526E-09  0.4004097E+04  0.7818609E-02  0.8003721E-01
       -2   -1    0    0    0  501  0.00000000000E+00  0.00000000000E+00  0.21061028677E+04  0.21061028678E+04  0.25500000920E-02 0. -1.
        2   -1    0    0  501    0  0.00000000000E+00  0.00000000000E+00 -0.19031352209E+04  0.19031352209E+04  0.25500000920E-02 0.  1.
    10030    2    1    2    0    0  0.00000000000E+00  0.00000000000E+00  0.20296764689E+03  0.40092380886E+04  0.40040971748E+04 0.  0.
        3    1    3    3  502    0  0.13333390630E+04 -0.14909507199E+04  0.18803223655E+03  0.20090005570E+04  0.10100000352E+00 0.  1.
       -3    1    3    3    0  502 -0.13333390630E+04  0.14909507199E+04  0.14935410339E+02  0.20002375316E+04  0.10100000352E+00 0. -1.
</event>
<event>
 5   0  0.6599276E-09  0.3999895E+04  0.7818609E-02  0.8004568E-01
       -2   -1    0    0    0  501  0.00000000000E+00  0.00000000000E+00  0.22068499859E+04  0.22068499859E+04  0.25500000920E-02 0.  1.
        2   -1    0    0  501    0  0.00000000000E+00  0.00000000000E+00 -0.18124430723E+04  0.18124430723E+04  0.25500000920E-02 0. -1.
    10030    2    1    2    0    0  0.00000000000E+00  0.00000000000E+00  0.39440691358E+03  0.40192930583E+04  0.39998949830E+04 0.  0.
        2    1    3    3  502    0  0.55229522832E+03  0.17924811297E+04 -0.50026017734E+03  0.19412055184E+04  0.25500000920E-02 0.  1.
       -2    1    3    3    0  502 -0.55229522832E+03 -0.17924811297E+04  0.89466709092E+03  0.20780875398E+04  0.25500000920E-02 0. -1.
</event>
<event>
 5   0  0.2078125E-09  0.3999088E+04  0.7818609E-02  0.8004731E-01
       -1   -1    0    0    0  501  0.00000000000E+00  0.00000000000E+00  0.15321929515E+04  0.15321929515E+04  0.50400001928E-02 0. -1.
        1   -1    0    0  501    0  0.00000000000E+00  0.00000000000E+00 -0.26094472170E+04  0.26094472170E+04  0.50400001928E-02 0.  1.
    10030    2    1    2    0    0  0.00000000000E+00  0.00000000000E+00 -0.10772542656E+04  0.41416401685E+04  0.39990882127E+04 0.  0.
        2    1    3    3  502    0 -0.38677147232E+03 -0.89032217693E+03 -0.23490570706E+04  0.25417188813E+04  0.25500000920E-02 0.  1.
       -2    1    3    3    0  502  0.38677147232E+03  0.89032217693E+03  0.12718028050E+04  0.15999212872E+04  0.25500000920E-02 0. -1.
</event>
<event>
 5   0  0.2078125E-09  0.4000968E+04  0.7818609E-02  0.8004351E-01
       -1   -1    0    0    0  501  0.00000000000E+00  0.00000000000E+00  0.12375694973E+04  0.12375694973E+04  0.50400001928E-02 0.  1.
        1   -1    0    0  501    0  0.00000000000E+00  0.00000000000E+00 -0.32337059177E+04  0.32337059177E+04  0.50400001928E-02 0. -1.
    10030    2    1    2    0    0  0.00000000000E+00  0.00000000000E+00 -0.19961364204E+04  0.44712754150E+04  0.40009677864E+04 0.  0.
        2    1    3    3  502    0  0.95420581586E+03 -0.17358513697E+04 -0.68545993843E+03  0.20960782533E+04  0.25500000920E-02 0.  1.
       -2    1    3    3    0  502 -0.95420581586E+03  0.17358513697E+04 -0.13106764820E+04  0.23751971618E+04  0.25500000920E-02 0. -1.
</event>
<event>
 5   0  0.6538370E-09  0.3996404E+04  0.7818609E-02  0.8005272E-01
       -2   -1    0    0    0  501  0.00000000000E+00  0.00000000000E+00  0.31537736099E+04  0.31537736099E+04  0.25500000920E-02 0. -1.
        2   -1    0    0  501    0  0.00000000000E+00  0.00000000000E+00 -0.12660425989E+04  0.12660425989E+04  0.25500000920E-02 0.  1.
    10030    2    1    2    0    0  0.00000000000E+00  0.00000000000E+00  0.18877310110E+04  0.44198162088E+04  0.39964042525E+04 0.  0.
        4    1    3    3  502    0  0.10539220493E+04 -0.16619548302E+04  0.56081034456E+03  0.20463028611E+04  0.12699999809E+01 0.  1.
       -4    1    3    3    0  502 -0.10539220493E+04  0.16619548302E+04  0.13269206665E+04  0.23735133477E+04  0.12699999809E+01 0. -1.
</event>
<event>
 5   0  0.2078125E-09  0.4010266E+04  0.7818609E-02  0.8002479E-01
        1   -1    0    0  501    0  0.00000000000E+00  0.00000000000E+00  0.29596005026E+04  0.29596005026E+04  0.50400001928E-02 0.  1.
       -1   -1    0    0    0  501  0.00000000000E+00  0.00000000000E+00 -0.13584802075E+04  0.13584802075E+04  0.50400001928E-02 0. -1.
    10030    2    1    2    0    0  0.00000000000E+00  0.00000000000E+00  0.16011202951E+04  0.43180807102E+04  0.40102661782E+04 0.  0.
        3    1    3    3  502    0  0.39080328850E+03  0.19600161262E+04  0.97474286349E+03  0.22236263367E+04  0.10100000352E+00 0. -1.
       -3    1    3    3    0  502 -0.39080328850E+03 -0.19600161262E+04  0.62637743163E+03  0.20944543734E+04  0.10100000352E+00 0.  1.
</event>
<event>
 5   0  0.6736335E-09  0.3998536E+04  0.7818609E-02  0.8004842E-01
       -2   -1    0    0    0  501  0.00000000000E+00  0.00000000000E+00  0.19794029647E+04  0.19794029647E+04  0.25500000920E-02 0. -1.
        2   -1    0    0  501    0  0.00000000000E+00  0.00000000000E+00 -0.20193325781E+04  0.20193325781E+04  0.25500000920E-02 0.  1.
    10030    2    1    2    0    0  0.00000000000E+00  0.00000000000E+00 -0.39929613430E+02  0.39987355427E+04  0.39985361780E+04 0.  0.
        1    1    3    3  502    0  0.65573561683E+03  0.13475503571E+04 -0.13433567965E+04  0.20125825814E+04  0.50400001928E-02 0.  1.
       -1    1    3    3    0  502 -0.65573561683E+03 -0.13475503571E+04  0.13034271831E+04  0.19861529613E+04  0.50400001928E-02 0. -1.
</event>
<event>
 5   0  0.2078125E-09  0.4000503E+04  0.7818609E-02  0.8004445E-01
       -1   -1    0    0    0  501  0.00000000000E+00  0.00000000000E+00  0.14134820185E+04  0.14134820185E+04  0.50400001928E-02 0. -1.
        1   -1    0    0  501    0  0.00000000000E+00  0.00000000000E+00 -0.28306027506E+04  0.28306027506E+04  0.50400001928E-02 0.  1.
    10030    2    1    2    0    0  0.00000000000E+00  0.00000000000E+00 -0.14171207322E+04  0.42440847691E+04  0.40005030131E+04 0.  0.
        2    1    3    3  502    0  0.17245114424E+04  0.23791200353E+03 -0.17536636666E+04  0.24710075054E+04  0.25500000920E-02 0.  1.
       -2    1    3    3    0  502 -0.17245114424E+04 -0.23791200353E+03  0.33654293445E+03  0.17730772637E+04  0.25500000920E-02 0. -1.
</event>
<event>
 5   0  0.2078125E-09  0.4003775E+04  0.7818609E-02  0.8003785E-01
       -1   -1    0    0    0  501  0.00000000000E+00  0.00000000000E+00  0.20685818313E+04  0.20685818313E+04  0.50400001928E-02 0.  1.
        1   -1    0    0  501    0  0.00000000000E+00  0.00000000000E+00 -0.19373438392E+04  0.19373438392E+04  0.50400001928E-02 0. -1.
    10030    2    1    2    0    0  0.00000000000E+00  0.00000000000E+00  0.13123799206E+03  0.40059256705E+04  0.40037753517E+04 0.  0.
        4    1    3    3  502    0  0.11938638623E+04  0.12069462011E+04  0.11270952791E+04  0.20377378230E+04  0.12699999809E+01 0.  1.
       -4    1    3    3    0  502 -0.11938638623E+04 -0.12069462011E+04 -0.99585728706E+03  0.19681878475E+04  0.12699999809E+01 0. -1.
</event>
<event>
 5   0  0.6538370E-09  0.4000019E+04  0.7818609E-02  0.8004543E-01
        2   -1    0    0  501    0  0.00000000000E+00  0.00000000000E+00  0.22470517572E+04  0.22470517572E+04  0.25500000920E-02 0.  1.
       -2   -1    0    0    0  501  0.00000000000E+00  0.00000000000E+00 -0.17801275020E+04  0.17801275020E+04  0.25500000920E-02 0. -1.
    10030    2    1    2    0    0  0.00000000000E+00  0.00000000000E+00  0.46692425522E+03  0.40271792591E+04  0.40000193156E+04 0.  0.
        4    1    3    3  502    0 -0.10404605365E+04 -0.61269248221E+03 -0.13717560233E+04  0.18274754188E+04  0.12699999809E+01 0. -1.
       -4    1    3    3    0  502  0.10404605365E+04  0.61269248221E+03  0.18386802785E+04  0.21997038404E+04  0.12699999809E+01 0.  1.
</event>
<event>
 5   0  0.6599276E-09  0.3995547E+04  0.7818609E-02  0.8005445E-01
       -2   -1    0    0    0  501  0.00000000000E+00  0.00000000000E+00  0.17975785215E+04  0.17975785215E+04  0.25500000920E-02 0.  1.
        2   -1    0    0  501    0  0.00000000000E+00  0.00000000000E+00 -0.22202641140E+04  0.22202641140E+04  0.25500000920E-02 0. -1.
    10030    2    1    2    0    0  0.00000000000E+00  0.00000000000E+00 -0.42268559254E+03  0.40178426355E+04  0.39955470631E+04 0.  0.
        2    1    3    3  502    0 -0.14298068555E+04 -0.13849099763E+04 -0.40761915465E+02  0.19909758462E+04  0.25500000920E-02 0. -1.
       -2    1    3    3    0  502  0.14298068555E+04  0.13849099763E+04 -0.38192367708E+03  0.20268667893E+04  0.25500000920E-02 0.  1.
</event>
<event>
 5   0  0.2078125E-09  0.3994626E+04  0.7818609E-02  0.8005632E-01
       -1   -1    0    0    0  501  0.00000000000E+00  0.00000000000E+00  0.18936722542E+04  0.18936722542E+04  0.50400001928E-02 0.  1.
        1   -1    0    0  501    0  0.00000000000E+00  0.00000000000E+00 -0.21066261071E+04  0.21066261071E+04  0.50400001928E-02 0. -1.
    10030    2    1    2    0    0  0.00000000000E+00  0.00000000000E+00 -0.21295385287E+03  0.40002983612E+04  0.39946260946E+04 0.  0.
        5    1    3    3  502    0 -0.28599852106E+03  0.12733377429E+04  0.14076399913E+04  0.19195459350E+04  0.46999998093E+01 0.  1.
       -5    1    3    3    0  502  0.28599852106E+03 -0.12733377429E+04 -0.16205938441E+04  0.20807524262E+04  0.46999998093E+01 0. -1.
</event>
<event>
 5   0  0.6547327E-09  0.3998994E+04  0.7818609E-02  0.8004750E-01
        2   -1    0    0  501    0  0.00000000000E+00  0.00000000000E+00  0.23837746777E+04  0.23837746777E+04  0.25500000920E-02 0. -1.
       -2   -1    0    0    0  501  0.00000000000E+00  0.00000000000E+00 -0.16771668946E+04  0.16771668946E+04  0.25500000920E-02 0.  1.
    10030    2    1    2    0    0  0.00000000000E+00  0.00000000000E+00  0.70660778305E+03  0.40609415723E+04  0.39989938603E+04 0.  0.
        5    1    3    3  502    0  0.16410288885E+04 -0.15401945940E+03 -0.79616178219E+03  0.18304626410E+04  0.46999998093E+01 0.  1.
       -5    1    3    3    0  502 -0.16410288885E+04  0.15401945940E+03  0.15027695652E+04  0.22304789313E+04  0.46999998093E+01 0. -1.
</event>
<event>
 5   0  0.6599276E-09  0.3979861E+04  0.7818609E-02  0.8008622E-01
        2   -1    0    0  501    0  0.00000000000E+00  0.00000000000E+00  0.12182620215E+04  0.12182620215E+04  0.25500000920E-02 0.  1.
       -2   -1    0    0    0  501  0.00000000000E+00  0.00000000000E+00 -0.32503869154E+04  0.32503869154E+04  0.25500000920E-02 0. -1.
    10030    2    1    2    0    0  0.00000000000E+00  0.00000000000E+00 -0.20321248939E+04  0.44686489369E+04  0.39798607686E+04 0.  0.
        2    1    3    3  502    0  0.15403715225E+04 -0.53894595941E+03 -0.22946015239E+04  0.28157420564E+04  0.25500000920E-02 0. -1.
       -2    1    3    3    0  502 -0.15403715225E+04  0.53894595941E+03  0.26247663000E+03  0.16529068806E+04  0.25500000920E-02 0.  1.
</event>
<event>
 5   0  0.6547327E-09  0.3999862E+04  0.7818609E-02  0.8004574E-01
        2   -1    0    0  501    0  0.00000000000E+00  0.00000000000E+00  0.20588510615E+04  0.20588510615E+04  0.25500000920E-02 0.  1.
       -2   -1    0    0    0  501  0.00000000000E+00  0.00000000000E+00 -0.19426975040E+04  0.19426975040E+04  0.25500000920E-02 0. -1.
    10030    2    1    2    0    0  0.00000000000E+00  0.00000000000E+00  0.11615355749E+03  0.40015485655E+04  0.39998624068E+04 0.  0.
        5    1    3    3  502    0  0.13944067474E+04 -0.50920344429E+03 -0.12826539857E+04  0.19618566874E+04  0.46999998093E+01 0. -1.
       -5    1    3    3    0  502 -0.13944067474E+04  0.50920344429E+03  0.13988075432E+04  0.20396918781E+04  0.46999998093E+01 0.  1.
</event>
<event>
 5   0  0.2078125E-09  0.4001682E+04  0.7818609E-02  0.8004207E-01
       -1   -1    0    0    0  501  0.00000000000E+00  0.00000000000E+00  0.19823904146E+04  0.19823904146E+04  0.50400001928E-02 0.  1.
        1   -1    0    0  501    0  0.00000000000E+00  0.00000000000E+00 -0.20194636733E+04  0.20194636733E+04  0.50400001928E-02 0. -1.
    10030    2    1    2    0    0  0.00000000000E+00  0.00000000000E+00 -0.37073258626E+02  0.40018540879E+04  0.40016823605E+04 0.  0.
        3    1    3    3  502    0  0.87764900080E+03 -0.17528989798E+04 -0.41910695671E+03  0.20046379357E+04  0.10100000352E+00 0. -1.
       -3    1    3    3    0  502 -0.87764900080E+03  0.17528989798E+04  0.38203369809E+03  0.19972161522E+04  0.10100000352E+00 0.  1.
</event>
<event>
 5   0  0.6736335E-09  0.4005859E+04  0.7818609E-02  0.8003366E-01
       -2   -1    0    0    0  501  0.00000000000E+00  0.00000000000E+00  0.14374196896E+04  0.14374196896E+04  0.25500000920E-02 0.  1.
        2   -1    0    0  501    0  0.00000000000E+00  0.00000000000E+00 -0.27909222924E+04  0.27909222924E+04  0.25500000920E-02 0. -1.
    10030    2    1    2    0    0  0.00000000000E+00  0.00000000000E+00 -0.13535026028E+04  0.42283419820E+04  0.40058590366E+04 0.  0.
        1    1    3    3  502    0  0.19995754185E+04 -0.40220376935E+02 -0.79144682563E+03  0.21508853086E+04  0.50400001928E-02 0.  1.
       -1    1    3    3    0  502 -0.19995754185E+04  0.40220376935E+02 -0.56205577716E+03  0.20774566734E+04  0.50400001928E-02 0. -1.
</event>
<event>
 5   0  0.2078125E-09  0.4000836E+04  0.7818609E-02  0.8004378E-01
        1   -1    0    0  501    0  0.00000000000E+00  0.00000000000E+00  0.12996340318E+04  0.12996340318E+04  0.50400001928E-02 0. -1.
       -1   -1    0    0    0  501  0.00000000000E+00  0.00000000000E+00 -0.30790764048E+04  0.30790764048E+04  0.50400001928E-02 0.  1.
    10030    2    1    2    0    0  0.00000000000E+00  0.00000000000E+00 -0.17794423730E+04  0.43787104366E+04  0.40008361537E+04 0.  0.
        3    1    3    3  502    0  0.17476406686E+04 -0.64711461274E+03 -0.16854895353E+04  0.25127435628E+04  0.10100000352E+00 0. -1.
       -3    1    3    3    0  502 -0.17476406686E+04  0.64711461274E+03 -0.93952837735E+02  0.18659668739E+04  0.10100000352E+00 0.  1.
</event>
<event>
 5   0  0.6599276E-09  0.3999316E+04  0.7818609E-02  0.8004684E-01
        2   -1    0    0  501    0  0.00000000000E+00  0.00000000000E+00  0.12248098783E+04  0.12248098783E+04  0.25500000920E-02 0.  1.
       -2   -1    0    0    0  501  0.00000000000E+00  0.00000000000E+00 -0.32646968263E+04  0.32646968263E+04  0.25500000920E-02 0. -1.
    10030    2    1    2    0    0  0.00000000000E+00  0.00000000000E+00 -0.20398869480E+04  0.44895067046E+04  0.39993164028E+04 0.  0.
        2    1    3    3  502    0 -0.39622775286E+02 -0.89981737141E+03  0.98420815392E+03  0.13341315364E+04  0.25500000920E-02 0.  1.
       -2    1    3    3    0  502  0.39622775286E+02  0.89981737141E+03 -0.30240951019E+04  0.31553751681E+04  0.25500000920E-02 0. -1.
</event>
<event>
 5   0  0.6645526E-09  0.4002012E+04  0.7818609E-02  0.8004141E-01
        2   -1    0    0  501    0  0.00000000000E+00  0.00000000000E+00  0.24437639054E+04  0.24437639054E+04  0.25500000920E-02 0. -1.
       -2   -1    0    0    0  501  0.00000000000E+00  0.00000000000E+00 -0.16384662983E+04  0.16384662983E+04  0.25500000920E-02 0.  1.
    10030    2    1    2    0    0  0.00000000000E+00  0.00000000000E+00  0.80529760703E+03  0.40822302037E+04  0.40020118940E+04 0.  0.
        3    1    3    3  502    0  0.63635545151E+03 -0.11366335035E+02 -0.15324665664E+04  0.16593767630E+04  0.10100000352E+00 0.  1.
       -3    1    3    3    0  502 -0.63635545151E+03  0.11366335035E+02  0.23377641734E+04  0.24228534407E+04  0.10100000352E+00 0. -1.
</event>
<event>
 5   0  0.6736335E-09  0.3997646E+04  0.7818609E-02  0.8005022E-01
        2   -1    0    0  501    0  0.00000000000E+00  0.00000000000E+00  0.25813107653E+04  0.25813107653E+04  0.25500000920E-02 0.  1.
       -2   -1    0    0    0  501  0.00000000000E+00  0.00000000000E+00 -0.15477770092E+04  0.15477770092E+04  0.25500000920E-02 0. -1.
    10030    2    1    2    0    0  0.00000000000E+00  0.00000000000E+00  0.10335337561E+04  0.41290877745E+04  0.39976460354E+04 0.  0.
        1    1    3    3  502    0 -0.16272319740E+04 -0.80610940072E+03 -0.34591790903E+03  0.18486090617E+04  0.50400001928E-02 0. -1.
       -1    1    3    3    0  502  0.16272319740E+04  0.80610940072E+03  0.13794516652E+04  0.22804787128E+04  0.50400001928E-02 0.  1.
</event>
<event>
 5   0  0.6547327E-09  0.4019266E+04  0.7818609E-02  0.8000671E-01
        2   -1    0    0  501    0  0.00000000000E+00  0.00000000000E+00  0.19580610578E+04  0.19580610578E+04  0.25500000920E-02 0. -1.
       -2   -1    0    0    0  501  0.00000000000E+00  0.00000000000E+00 -0.20625634066E+04  0.20625634066E+04  0.25500000920E-02 0.  1.
    10030    2    1    2    0    0  0.00000000000E+00  0.00000000000E+00 -0.10450234884E+03  0.40206244644E+04  0.40192661448E+04 0.  0.
        5    1    3    3  502    0 -0.14229935712E+04 -0.92301256547E+03 -0.11304559110E+04  0.20383364679E+04  0.46999998093E+01 0.  1.
       -5    1    3    3    0  502  0.14229935712E+04  0.92301256547E+03  0.10259535622E+04  0.19822879966E+04  0.46999998093E+01 0. -1.
</event>
<event>
 5   0  0.2078125E-09  0.3998650E+04  0.7818609E-02  0.8004819E-01
       -1   -1    0    0    0  501  0.00000000000E+00  0.00000000000E+00  0.32624871854E+04  0.32624871855E+04  0.50400001928E-02 0.  1.
        1   -1    0    0  501    0  0.00000000000E+00  0.00000000000E+00 -0.12252310906E+04  0.12252310906E+04  0.50400001928E-02 0. -1.
    10030    2    1    2    0    0  0.00000000000E+00  0.00000000000E+00  0.20372560949E+04  0.44877182760E+04  0.39986501383E+04 0.  0.
        4    1    3    3  502    0  0.14757143863E+04  0.71000192428E+03 -0.26858836658E+03  0.16595110743E+04  0.12699999809E+01 0. -1.
       -4    1    3    3    0  502 -0.14757143863E+04 -0.71000192428E+03  0.23058444615E+04  0.28282072017E+04  0.12699999809E+01 0.  1.
</event>
<event>
 5   0  0.2078125E-09  0.3997766E+04  0.7818609E-02  0.8004997E-01
        1   -1    0    0  501    0  0.00000000000E+00  0.00000000000E+00  0.23591534119E+04  0.23591534119E+04  0.50400001928E-02 0. -1.
       -1   -1    0    0    0  501  0.00000000000E+00  0.00000000000E+00 -0.16936298796E+04  0.16936298796E+04  0.50400001928E-02 0.  1.
    10030    2    1    2    0    0  0.00000000000E+00  0.00000000000E+00  0.66552353233E+03  0.40527832916E+04  0.39977657305E+04 0.  0.
        5    1    3    3  502    0  0.19324719235E+03 -0.22106959599E+03  0.23371656172E+04  0.23555427094E+04  0.46999998093E+01 0. -1.
       -5    1    3    3    0  502 -0.19324719235E+03  0.22106959599E+03 -0.16716420849E+04  0.16972405821E+04  0.46999998093E+01 0.  1.
</event>
<event>
 5   0  0.6538370E-09  0.4001944E+04  0.7818609E-02  0.8004155E-01
       -2   -1    0    0    0  501  0.00000000000E+00  0.00000000000E+00  0.25338072868E+04  0.25338072868E+04  0.25500000920E-02 0. -1.
        2   -1    0    0  501    0  0.00000000000E+00  0.00000000000E+00 -0.15801866761E+04  0.15801866761E+04  0.25500000920E-02 0.  1.
    10030    2    1    2    0    0  0.00000000000E+00  0.00000000000E+00  0.95362061070E+03  0.41139939630E+04  0.40019437850E+04 0.  0.
        4    1    3    3  502    0 -0.19869363362E+04 -0.66138457646E+02  0.24330152449E+03  0.20028698271E+04  0.12699999809E+01 0.  1.
       -4    1    3    3    0  502  0.19869363362E+04  0.66138457646E+02  0.71031908620E+03  0.21111241358E+04  0.12699999809E+01 0. -1.
</event>
<event>
 5   0  0.2078125E-09  0.4005851E+04  0.7818609E-02  0.8003367E-01
        1   -1    0    0  501    0  0.00000000000E+00  0.00000000000E+00  0.16543402230E+04  0.16543402230E+04  0.50400001928E-02 0.  1.
       -1   -1    0    0    0  501  0.00000000000E+00  0.00000000000E+00 -0.24249613341E+04  0.24249613341E+04  0.50400001928E-02 0. -1.
    10030    2    1    2    0    0  0.00000000000E+00  0.00000000000E+00 -0.77062111107E+03  0.40793015571E+04  0.40058512574E+04 0.  0.
        4    1    3    3  502    0 -0.12207540657E+03  0.18377935478E+04  0.41608922987E+03  0.18882582952E+04  0.12699999809E+01 0.  1.
       -4    1    3    3    0  502  0.12207540657E+03 -0.18377935478E+04 -0.11867103409E+04  0.21910432619E+04  0.12699999809E+01 0. -1.
</event>
<event>
 5   0  0.2078125E-09  0.3998199E+04  0.7818609E-02  0.8004910E-01
       -1   -1    0    0    0  501  0.00000000000E+00  0.00000000000E+00  0.15145216062E+04  0.15145216062E+04  0.50400001928E-02 0.  1.
        1   -1    0    0  501    0  0.00000000000E+00  0.00000000000E+00 -0.26387198055E+04  0.26387198055E+04  0.50400001928E-02 0. -1.
    10030    2    1    2    0    0  0.00000000000E+00  0.00000000000E+00 -0.11241981993E+04  0.41532414117E+04  0.39981986735E+04 0.  0.
        3    1    3    3  502    0 -0.10595824582E+04 -0.24582120598E+03  0.11802186547E+04  0.16050106337E+04  0.10100000352E+00 0.  1.
       -3    1    3    3    0  502  0.10595824582E+04  0.24582120598E+03 -0.23044168540E+04  0.25482307780E+04  0.10100000352E+00 0. -1.
</event>
<event>
 5   0  0.6736335E-09  0.4000694E+04  0.7818609E-02  0.8004407E-01
        2   -1    0    0  501    0  0.00000000000E+00  0.00000000000E+00  0.22308986221E+04  0.22308986221E+04  0.25500000920E-02 0.  1.
       -2   -1    0    0    0  501  0.00000000000E+00  0.00000000000E+00 -0.17936216366E+04  0.17936216366E+04  0.25500000920E-02 0. -1.
    10030    2    1    2    0    0  0.00000000000E+00  0.00000000000E+00  0.43727698543E+03  0.40245202587E+04  0.40006939587E+04 0.  0.
        1    1    3    3  502    0  0.78536516161E+03  0.59839094753E+03  0.19686883000E+04  0.22024086328E+04  0.50400001928E-02 0.  1.
       -1    1    3    3    0  502 -0.78536516161E+03 -0.59839094753E+03 -0.15314113145E+04  0.18221116260E+04  0.50400001928E-02 0. -1.
</event>
<event>
 5   0  0.2078125E-09  0.3999291E+04  0.7818609E-02  0.8004690E-01
        1   -1    0    0  501    0  0.00000000000E+00  0.00000000000E+00  0.31406790059E+04  0.31406790059E+04  0.50400001928E-02 0.  1.
       -1   -1    0    0    0  501  0.00000000000E+00  0.00000000000E+00 -0.12731586079E+04  0.12731586079E+04  0.50400001928E-02 0. -1.
    10030    2    1    2    0    0  0.00000000000E+00  0.00000000000E+00  0.18675203980E+04  0.44138376138E+04  0.39992911927E+04 0.  0.
        5    1    3    3  502    0  0.10701827552E+04  0.11447625513E+04  0.23045991932E+04  0.27869287683E+04  0.46999998093E+01 0.  1.
       -5    1    3    3    0  502 -0.10701827552E+04 -0.11447625513E+04 -0.43707879518E+03  0.16269088455E+04  0.46999998093E+01 0. -1.
</event>
<event>
 5   0  0.6538370E-09  0.3999255E+04  0.7818609E-02  0.8004697E-01
        2   -1    0    0  501    0  0.00000000000E+00  0.00000000000E+00  0.25369063073E+04  0.25369063073E+04  0.25500000920E-02 0. -1.
       -2   -1    0    0    0  501  0.00000000000E+00  0.00000000000E+00 -0.15761363797E+04  0.15761363797E+04  0.25500000920E-02 0.  1.
    10030    2    1    2    0    0  0.00000000000E+00  0.00000000000E+00  0.96076992760E+03  0.41130426869E+04  0.39992550920E+04 0.  0.
        4    1    3    3  502    0  0.63087576507E+03  0.15675695400E+04 -0.61925612120E+03  0.17996550364E+04  0.12699999809E+01 0.  1.
       -4    1    3    3    0  502 -0.63087576507E+03 -0.15675695400E+04  0.15800260488E+04  0.23133876505E+04  0.12699999809E+01 0. -1.
</event>
<event>
 5   0  0.6736335E-09  0.3999573E+04  0.7818609E-02  0.8004633E-01
        2   -1    0    0  501    0  0.00000000000E+00  0.00000000000E+00  0.23530365141E+04  0.23530365141E+04  0.25500000920E-02 0. -1.
       -2   -1    0    0    0  501  0.00000000000E+00  0.00000000000E+00 -0.16995678110E+04  0.16995678110E+04  0.25500000920E-02 0.  1.
    10030    2    1    2    0    0  0.00000000000E+00  0.00000000000E+00  0.65346870313E+03  0.40526043252E+04  0.39995725360E+04 0.  0.
        1    1    3    3  502    0 -0.16516379030E+04  0.54746979814E+03 -0.67198898267E+03  0.18652614121E+04  0.50400001928E-02 0.  1.
       -1    1    3    3    0  502  0.16516379030E+04 -0.54746979814E+03  0.13254576858E+04  0.21873429131E+04  0.50400001928E-02 0. -1.
</event>
<event>
 5   0  0.6645526E-09  0.3995380E+04  0.7818609E-02  0.8005479E-01
       -2   -1    0    0    0  501  0.00000000000E+00  0.00000000000E+00  0.22369851245E+04  0.22369851245E+04  0.25500000920E-02 0. -1.
        2   -1    0    0  501    0  0.00000000000E+00  0.00000000000E+00 -0.17839925276E+04  0.17839925276E+04  0.25500000920E-02 0.  1.
    10030    2    1    2    0    0  0.00000000000E+00  0.00000000000E+00  0.45299259688E+03  0.40209776521E+04  0.39953797049E+04 0.  0.
        3    1    3    3  502    0  0.91026728549E+03  0.17394046006E+04  0.59852647213E+03  0.20524007512E+04  0.10100000352E+00 0. -1.
       -3    1    3    3    0  502 -0.91026728549E+03 -0.17394046006E+04 -0.14553387525E+03  0.19685769009E+04  0.10100000352E+00 0.  1.
</event>
<event>
 5   0  0.6599276E-09  0.3999044E+04  0.7818609E-02  0.8004739E-01
        2   -1    0    0  501    0  0.00000000000E+00  0.00000000000E+00  0.22766996524E+04  0.22766996524E+04  0.25500000920E-02 0. -1.
       -2   -1    0    0    0  501  0.00000000000E+00  0.00000000000E+00 -0.17560898522E+04  0.17560898522E+04  0.25500000920E-02 0.  1.
    10030    2    1    2    0    0  0.00000000000E+00  0.00000000000E+00  0.52060980018E+03  0.40327895046E+04  0.39990444640E+04 0.  0.
        2    1    3    3  502    0  0.23019763795E+03 -0.14092169923E+04 -0.11512225749E+04  0.18341747193E+04  0.25500000920E-02 0.  1.
       -2    1    3    3    0  502 -0.23019763795E+03  0.14092169923E+04  0.16718323751E+04  0.21986147853E+04  0.25500000920E-02 0. -1.
</event>
<event>
 5   0  0.6736335E-09  0.3986845E+04  0.7818609E-02  0.8007206E-01
        2   -1    0    0  501    0  0.00000000000E+00  0.00000000000E+00  0.27156734280E+04  0.27156734280E+04  0.25500000920E-02 0. -1.
       -2   -1    0    0    0  501  0.00000000000E+00  0.00000000000E+00 -0.14632586947E+04  0.14632586947E+04  0.25500000920E-02 0.  1.
    10030    2    1    2    0    0  0.00000000000E+00  0.00000000000E+00  0.12524147333E+04  0.41789321227E+04  0.39868447452E+04 0.  0.
        1    1    3    3  502    0  0.12559538375E+04  0.13096783207E+04  0.14912294937E+04  0.23487108695E+04  0.50400001928E-02 0. -1.
       -1    1    3    3    0  502 -0.12559538375E+04 -0.13096783207E+04 -0.23881476046E+03  0.18302212532E+04  0.50400001928E-02 0.  1.
</event>
<event>
 5   0  0.6547327E-09  0.3998250E+04  0.7818609E-02  0.8004900E-01
       -2   -1    0    0    0  501  0.00000000000E+00  0.00000000000E+00  0.18370940951E+04  0.18370940951E+04  0.25500000920E-02 0.  1.
        2   -1    0    0  501    0  0.00000000000E+00  0.00000000000E+00 -0.21754473031E+04  0.21754473031E+04  0.25500000920E-02 0. -1.
    10030    2    1    2    0    0  0.00000000000E+00  0.00000000000E+00 -0.33835320797E+03  0.40125413982E+04  0.39982503147E+04 0.  0.
        5    1    3    3  502    0 -0.42682613364E+03  0.11645790155E+04 -0.17425988913E+04  0.21389478295E+04  0.46999998093E+01 0.  1.
       -5    1    3    3    0  502  0.42682613364E+03 -0.11645790155E+04  0.14042456833E+04  0.18735935687E+04  0.46999998093E+01 0. -1.
</event>
<event>
 5   0  0.6599276E-09  0.3998216E+04  0.7818609E-02  0.8004906E-01
       -2   -1    0    0    0  501  0.00000000000E+00  0.00000000000E+00  0.19145130986E+04  0.19145130986E+04  0.25500000920E-02 0.  1.
        2   -1    0    0  501    0  0.00000000000E+00  0.00000000000E+00 -0.20874410408E+04  0.20874410408E+04  0.25500000920E-02 0. -1.
    10030    2    1    2    0    0  0.00000000000E+00  0.00000000000E+00 -0.17292794221E+03  0.40019541395E+04  0.39982162099E+04 0.  0.
        2    1    3    3  502    0  0.19716602686E+03  0.13803097182E+04  0.13474617744E+04  0.19390158828E+04  0.25500000920E-02 0.  1.
       -2    1    3    3    0  502 -0.19716602686E+03 -0.13803097182E+04 -0.15203897166E+04  0.20629382566E+04  0.25500000920E-02 0. -1.
</event>
<event>
 5   0  0.2078125E-09  0.4000795E+04  0.7818609E-02  0.8004386E-01
        1   -1    0    0  501    0  0.00000000000E+00  0.00000000000E+00  0.20545854839E+04  0.20545854839E+04  0.50400001928E-02 0. -1.
       -1   -1    0    0    0  501  0.00000000000E+00  0.00000000000E+00 -0.19476384554E+04  0.19476384554E+04  0.50400001928E-02 0.  1.
    10030    2    1    2    0    0  0.00000000000E+00  0.00000000000E+00  0.10694702846E+03  0.40022239393E+04  0.40007947702E+04 0.  0.
        3    1    3    3  502    0  0.98962846866E+02 -0.15651998443E+03 -0.19390456074E+04  0.19478680726E+04  0.10100000352E+00 0.  1.
       -3    1    3    3    0  502 -0.98962846866E+02  0.15651998443E+03  0.20459926359E+04  0.20543558666E+04  0.10100000352E+00 0. -1.
</event>
<event>
 5   0  0.2078125E-09  0.4010410E+04  0.7818609E-02  0.8002450E-01
        1   -1    0    0  501    0  0.00000000000E+00  0.00000000000E+00  0.20603671897E+04  0.20603671897E+04  0.50400001928E-02 0.  1.
       -1   -1    0    0    0  501  0.00000000000E+00  0.00000000000E+00 -0.19515192306E+04  0.19515192306E+04  0.50400001928E-02 0. -1.
    10030    2    1    2    0    0  0.00000000000E+00  0.00000000000E+00  0.10884795907E+03  0.40118864203E+04  0.40104095515E+04 0.  0.
        1    1    3    3  502    0  0.40223463858E+03 -0.18614440256E+04 -0.57356481656E+03  0.19889050162E+04  0.50400001928E-02 0. -1.
       -1    1    3    3    0  502 -0.40223463858E+03  0.18614440256E+04  0.68241277562E+03  0.20229814040E+04  0.50400001928E-02 0.  1.
</event>
<event>
 5   0  0.6599276E-09  0.4001612E+04  0.7818609E-02  0.8004221E-01
        2   -1    0    0  501    0  0.00000000000E+00  0.00000000000E+00  0.13354731477E+04  0.13354731477E+04  0.25500000920E-02 0.  1.
       -2   -1    0    0    0  501  0.00000000000E+00  0.00000000000E+00 -0.29976084191E+04  0.29976084191E+04  0.25500000920E-02 0. -1.
    10030    2    1    2    0    0  0.00000000000E+00  0.00000000000E+00 -0.16621352714E+04  0.43330815668E+04  0.40016124505E+04 0.  0.
        2    1    3    3  502    0 -0.73556223699E+02 -0.19841742997E+04 -0.10982170015E+04  0.22690171335E+04  0.25500000920E-02 0. -1.
       -2    1    3    3    0  502  0.73556223699E+02  0.19841742997E+04 -0.56391826989E+03  0.20640644333E+04  0.25500000920E-02 0.  1.
</event>
<event>
 5   0  0.6547327E-09  0.3999003E+04  0.7818609E-02  0.8004748E-01
        2   -1    0    0  501    0  0.00000000000E+00  0.00000000000E+00  0.28062630333E+04  0.28062630333E+04  0.25500000920E-02 0. -1.
       -2   -1    0    0    0  501  0.00000000000E+00  0.00000000000E+00 -0.14246724001E+04  0.14246724001E+04  0.25500000920E-02 0.  1.
    10030    2    1    2    0    0  0.00000000000E+00  0.00000000000E+00  0.13815906332E+04  0.42309354334E+04  0.39990026211E+04 0.  0.
        5    1    3    3  502    0 -0.84517084627E+03 -0.13840296413E+04 -0.54671447805E+03  0.17113651328E+04  0.46999998093E+01 0.  1.
       -5    1    3    3    0  502  0.84517084627E+03  0.13840296413E+04  0.19283051113E+04  0.25195703006E+04  0.46999998093E+01 0. -1.
</event>
<event>
 5   0  0.6547327E-09  0.3999653E+04  0.7818609E-02  0.8004617E-01
       -2   -1    0    0    0  501  0.00000000000E+00  0.00000000000E+00  0.19817698612E+04  0.19817698612E+04  0.25500000920E-02 0. -1.
        2   -1    0    0  501    0  0.00000000000E+00  0.00000000000E+00 -0.20180475736E+04  0.20180475736E+04  0.25500000920E-02 0.  1.
    10030    2    1    2    0    0  0.00000000000E+00  0.00000000000E+00 -0.36277712441E+02  0.39998174348E+04  0.39996529149E+04 0.  0.
        5    1    3    3  502    0 -0.17321506830E+04 -0.86117971880E+03  0.48913665241E+03  0.19953078087E+04  0.46999998093E+01 0. -1.
       -5    1    3    3    0  502  0.17321506830E+04  0.86117971880E+03 -0.52541436485E+03  0.20045096262E+04  0.46999998093E+01 0.  1.
</event>
<event>
 5   0  0.2078125E-09  0.4002604E+04  0.7818609E-02  0.8004021E-01
       -1   -1    0    0    0  501  0.00000000000E+00  0.00000000000E+00  0.24470283254E+04  0.24470283254E+04  0.50400001928E-02 0. -1.
        1   -1    0    0  501    0  0.00000000000E+00  0.00000000000E+00 -0.16367645748E+04  0.16367645748E+04  0.50400001928E-02 0.  1.
    10030    2    1    2    0    0  0.00000000000E+00  0.00000000000E+00  0.81026375062E+03  0.40837929002E+04  0.40026037908E+04 0.  0.
        4    1    3    3  502    0  0.39665426922E+03  0.11638012610E+04  0.20162246152E+04  0.23615527299E+04  0.12699999809E+01 0. -1.
       -4    1    3    3    0  502 -0.39665426922E+03 -0.11638012610E+04 -0.12059608646E+04  0.17222401703E+04  0.12699999809E+01 0.  1.
</event>
<event>
 5   0  0.2078125E-09  0.3998957E+04  0.7818609E-02  0.8004757E-01
       -3   -1    0    0    0  501  0.00000000000E+00  0.00000000000E+00  0.16263839740E+04  0.16263839771E+04  0.10100000352E+00 0.  1.
        3   -1    0    0  501    0  0.00000000000E+00  0.00000000000E+00 -0.24581608989E+04  0.24581609010E+04  0.10100000352E+00 0. -1.
    10030    2    1    2    0    0  0.00000000000E+00  0.00000000000E+00 -0.83177692492E+03  0.40845448781E+04  0.39989566150E+04 0.  0.
        5    1    3    3  502    0 -0.70130926117E+03  0.57301491500E+03  0.14048776160E+04  0.16714915430E+04  0.46999998093E+01 0.  1.
       -5    1    3    3    0  502  0.70130926117E+03 -0.57301491500E+03 -0.22366545409E+04  0.24130533351E+04  0.46999998093E+01 0. -1.
</event>
<event>
 5   0  0.6736335E-09  0.4000531E+04  0.7818609E-02  0.8004439E-01
        2   -1    0    0  501    0  0.00000000000E+00  0.00000000000E+00  0.21305507653E+04  0.21305507653E+04  0.25500000920E-02 0. -1.
       -2   -1    0    0    0  501  0.00000000000E+00  0.00000000000E+00 -0.18779477350E+04  0.18779477350E+04  0.25500000920E-02 0.  1.
    10030    2    1    2    0    0  0.00000000000E+00  0.00000000000E+00  0.25260303036E+03  0.40084985003E+04  0.40005314567E+04 0.  0.
        1    1    3    3  502    0  0.14661694359E+03 -0.96703781083E+03 -0.16219954397E+04  0.18940770476E+04  0.50400001928E-02 0.  1.
       -1    1    3    3    0  502 -0.14661694359E+03  0.96703781083E+03  0.18745984701E+04  0.21144214527E+04  0.50400001928E-02 0. -1.
</event>
<event>
 5   0  0.6538370E-09  0.4000499E+04  0.7818609E-02  0.8004446E-01
       -2   -1    0    0    0  501  0.00000000000E+00  0.00000000000E+00  0.16207620090E+04  0.16207620090E+04  0.25500000920E-02 0.  1.
        2   -1    0    0  501    0  0.00000000000E+00  0.00000000000E+00 -0.24685901153E+04  0.24685901153E+04  0.25500000920E-02 0. -1.
    10030    2    1    2    0    0  0.00000000000E+00  0.00000000000E+00 -0.84782810629E+03  0.40893521243E+04  0.40004985063E+04 0.  0.
        4    1    3    3  502    0  0.80350051800E+03 -0.16283730923E+04 -0.12814649808E+04  0.22224684745E+04  0.12699999809E+01 0. -1.
       -4    1    3    3    0  502 -0.80350051800E+03  0.16283730923E+04  0.43363687456E+03  0.18668836498E+04  0.12699999809E+01 0.  1.
</event>
<event>
 5   0  0.6599276E-09  0.4000982E+04  0.7818609E-02  0.8004348E-01
       -2   -1    0    0    0  501  0.00000000000E+00  0.00000000000E+00  0.15675446337E+04  0.15675446337E+04  0.25500000920E-02 0.  1.
        2   -1    0    0  501    0  0.00000000000E+00  0.00000000000E+00 -0.25530145566E+04  0.25530145566E+04  0.25500000920E-02 0. -1.
    10030    2    1    2    0    0  0.00000000000E+00  0.00000000000E+00 -0.98546992286E+03  0.41205591903E+04  0.40009820134E+04 0.  0.
        2    1    3    3  502    0  0.89366765065E+03  0.15476002297E+04  0.43316487434E+03  0.18388420675E+04  0.25500000920E-02 0.  1.
       -2    1    3    3    0  502 -0.89366765065E+03 -0.15476002297E+04 -0.14186347972E+04  0.22817171228E+04  0.25500000920E-02 0. -1.
</event>
<event>
 5   0  0.6599276E-09  0.4000757E+04  0.7818609E-02  0.8004394E-01
        2   -1    0    0  501    0  0.00000000000E+00  0.00000000000E+00  0.13372406966E+04  0.13372406966E+04  0.25500000920E-02 0.  1.
       -2   -1    0    0    0  501  0.00000000000E+00  0.00000000000E+00 -0.29923659734E+04  0.29923659734E+04  0.25500000920E-02 0. -1.
    10030    2    1    2    0    0  0.00000000000E+00  0.00000000000E+00 -0.16551252768E+04  0.43296066701E+04  0.40007567079E+04 0.  0.
        2    1    3    3  502    0  0.62947247180E+03  0.70706131376E+03 -0.27346080685E+04  0.28938300887E+04  0.25500000920E-02 0. -1.
       -2    1    3    3    0  502 -0.62947247180E+03 -0.70706131376E+03  0.10794827916E+04  0.14357765814E+04  0.25500000920E-02 0.  1.
</event>
<event>
 5   0  0.2078125E-09  0.4006589E+04  0.7818609E-02  0.8003219E-01
       -1   -1    0    0    0  501  0.00000000000E+00  0.00000000000E+00  0.31460508584E+04  0.31460508584E+04  0.50400001928E-02 0.  1.
        1   -1    0    0  501    0  0.00000000000E+00  0.00000000000E+00 -0.12756273300E+04  0.12756273300E+04  0.50400001928E-02 0. -1.
    10030    2    1    2    0    0  0.00000000000E+00  0.00000000000E+00  0.18704235283E+04  0.44216781884E+04  0.40065888018E+04 0.  0.
        2    1    3    3  502    0  0.39834997453E+03  0.42205416073E+03 -0.11808206783E+04  0.13157316942E+04  0.25500000920E-02 0. -1.
       -2    1    3    3    0  502 -0.39834997453E+03 -0.42205416073E+03  0.30512442066E+04  0.31059464942E+04  0.25500000920E-02 0.  1.
</event>
<event>
 5   0  0.2078125E-09  0.3999318E+04  0.7818609E-02  0.8004684E-01
        1   -1    0    0  501    0  0.00000000000E+00  0.00000000000E+00  0.25178063100E+04  0.25178063100E+04  0.50400001928E-02 0.  1.
       -1   -1    0    0    0  501  0.00000000000E+00  0.00000000000E+00 -0.15881432289E+04  0.15881432289E+04  0.50400001928E-02 0. -1.
    10030    2    1    2    0    0  0.00000000000E+00  0.00000000000E+00  0.92966308110E+03  0.41059495390E+04  0.39993184635E+04 0.  0.
        3    1    3    3  502    0 -0.13866978092E+03 -0.19108197446E+04 -0.12330854764E+03  0.19198089521E+04  0.10100000352E+00 0.  1.
       -3    1    3    3    0  502  0.13866978092E+03  0.19108197446E+04  0.10529716287E+04  0.21861405869E+04  0.10100000352E+00 0. -1.
</event>
<event>
 5   0  0.6547327E-09  0.4000243E+04  0.7818609E-02  0.8004497E-01
       -2   -1    0    0    0  501  0.00000000000E+00  0.00000000000E+00  0.15329181486E+04  0.15329181486E+04  0.25500000920E-02 0. -1.
        2   -1    0    0  501    0  0.00000000000E+00  0.00000000000E+00 -0.26097197769E+04  0.26097197769E+04  0.25500000920E-02 0.  1.
    10030    2    1    2    0    0  0.00000000000E+00  0.00000000000E+00 -0.10768016284E+04  0.41426379255E+04  0.40002433970E+04 0.  0.
        5    1    3    3  502    0 -0.17166133571E+04 -0.82041924576E+02 -0.15980404169E+04  0.23467525561E+04  0.46999998093E+01 0.  1.
       -5    1    3    3    0  502  0.17166133571E+04  0.82041924576E+02  0.52123878858E+03  0.17958853694E+04  0.46999998093E+01 0. -1.
</event>
<event>
 5   0  0.6736335E-09  0.4001092E+04  0.7818609E-02  0.8004326E-01
       -2   -1    0    0    0  501  0.00000000000E+00  0.00000000000E+00  0.15970580712E+04  0.15970580712E+04  0.25500000920E-02 0. -1.
        2   -1    0    0  501    0  0.00000000000E+00  0.00000000000E+00 -0.25059730858E+04  0.25059730858E+04  0.25500000920E-02 0.  1.
    10030    2    1    2    0    0  0.00000000000E+00  0.00000000000E+00 -0.90891501455E+03  0.41030311570E+04  0.40010921224E+04 0.  0.
        1    1    3    3  502    0 -0.13809515180E+04 -0.13316332151E+04  0.12736938009E+03  0.19226276482E+04  0.50400001928E-02 0. -1.
       -1    1    3    3    0  502  0.13809515180E+04  0.13316332151E+04 -0.10362843946E+04  0.21804035088E+04  0.50400001928E-02 0.  1.
</event>
<event>
 5   0  0.2078125E-09  0.3999772E+04  0.7818609E-02  0.8004592E-01
        1   -1    0    0  501    0  0.00000000000E+00  0.00000000000E+00  0.23907561281E+04  0.23907561281E+04  0.50400001928E-02 0. -1.
       -1   -1    0    0    0  501  0.00000000000E+00  0.00000000000E+00 -0.16729204902E+04  0.16729204902E+04  0.50400001928E-02 0.  1.
    10030    2    1    2    0    0  0.00000000000E+00  0.00000000000E+00  0.71783563796E+03  0.40636766183E+04  0.39997724504E+04 0.  0.
        4    1    3    3  502    0  0.45898666567E+02  0.96484387659E+03  0.21380419648E+04  0.23461149695E+04  0.12699999809E+01 0. -1.
       -4    1    3    3    0  502 -0.45898666567E+02 -0.96484387659E+03 -0.14202063268E+04  0.17175616488E+04  0.12699999809E+01 0.  1.
</event>
<event>
 5   0  0.2078125E-09  0.3999659E+04  0.7818609E-02  0.8004615E-01
        1   -1    0    0  501    0  0.00000000000E+00  0.00000000000E+00  0.11281995963E+04  0.11281995963E+04  0.50400001928E-02 0.  1.
       -1   -1    0    0    0  501  0.00000000000E+00  0.00000000000E+00 -0.35448672396E+04  0.35448672396E+04  0.50400001928E-02 0. -1.
    10030    2    1    2    0    0  0.00000000000E+00  0.00000000000E+00 -0.24166676433E+04  0.46730668359E+04  0.39996588798E+04 0.  0.
        3    1    3    3  502    0  0.73897330997E+03  0.17481025011E+04 -0.19448438981E+04  0.27174182059E+04  0.10100000352E+00 0. -1.
       -3    1    3    3    0  502 -0.73897330997E+03 -0.17481025011E+04 -0.47182374516E+03  0.19556486300E+04  0.10100000352E+00 0.  1.
</event>
<event>
 5   0  0.6547327E-09  0.3999974E+04  0.7818609E-02  0.8004552E-01
        2   -1    0    0  501    0  0.00000000000E+00  0.00000000000E+00  0.24567387195E+04  0.24567387195E+04  0.25500000920E-02 0.  1.
       -2   -1    0    0    0  501  0.00000000000E+00  0.00000000000E+00 -0.16281533685E+04  0.16281533685E+04  0.25500000920E-02 0. -1.
    10030    2    1    2    0    0  0.00000000000E+00  0.00000000000E+00  0.82858535100E+03  0.40848920881E+04  0.39999737108E+04 0.  0.
        5    1    3    3  502    0 -0.48244724967E+03  0.11168637656E+04  0.20353755625E+04  0.23712688144E+04  0.46999998093E+01 0.  1.
       -5    1    3    3    0  502  0.48244724967E+03 -0.11168637656E+04 -0.12067902115E+04  0.17136232737E+04  0.46999998093E+01 0. -1.
</event>
<event>
 5   0  0.6547327E-09  0.4003269E+04  0.7818609E-02  0.8003887E-01
        2   -1    0    0  501    0  0.00000000000E+00  0.00000000000E+00  0.24509405217E+04  0.24509405217E+04  0.25500000920E-02 0. -1.
       -2   -1    0    0    0  501  0.00000000000E+00  0.00000000000E+00 -0.16346954294E+04  0.16346954294E+04  0.25500000920E-02 0.  1.
    10030    2    1    2    0    0  0.00000000000E+00  0.00000000000E+00  0.81624509225E+03  0.40856359511E+04  0.40032692983E+04 0.  0.
        5    1    3    3  502    0 -0.13645042323E+04  0.28495236395E+03 -0.10579038361E+04  0.17499292175E+04  0.46999998093E+01 0.  1.
       -5    1    3    3    0  502  0.13645042323E+04 -0.28495236395E+03  0.18741489284E+04  0.23357067336E+04  0.46999998093E+01 0. -1.
</event>
<event>
 5   0  0.6599276E-09  0.3998263E+04  0.7818609E-02  0.8004897E-01
       -2   -1    0    0    0  501  0.00000000000E+00  0.00000000000E+00  0.27424995989E+04  0.27424995989E+04  0.25500000920E-02 0. -1.
        2   -1    0    0  501    0  0.00000000000E+00  0.00000000000E+00 -0.14572571141E+04  0.14572571141E+04  0.25500000920E-02 0.  1.
    10030    2    1    2    0    0  0.00000000000E+00  0.00000000000E+00  0.12852424848E+04  0.41997567130E+04  0.39982631483E+04 0.  0.
        2    1    3    3  502    0  0.13851188267E+04  0.11350157591E+04  0.15760628571E+04  0.23855374797E+04  0.25500000920E-02 0. -1.
       -2    1    3    3    0  502 -0.13851188267E+04 -0.11350157591E+04 -0.29082037227E+03  0.18142192333E+04  0.25500000920E-02 0.  1.
</event>
<event>
 5   0  0.6538370E-09  0.3999381E+04  0.7818609E-02  0.8004672E-01
       -2   -1    0    0    0  501  0.00000000000E+00  0.00000000000E+00  0.15583884067E+04  0.15583884067E+04  0.25500000920E-02 0.  1.
        2   -1    0    0  501    0  0.00000000000E+00  0.00000000000E+00 -0.25659593924E+04  0.25659593924E+04  0.25500000920E-02 0. -1.
    10030    2    1    2    0    0  0.00000000000E+00  0.00000000000E+00 -0.10075709857E+04  0.41243477991E+04  0.39993806366E+04 0.  0.
        4    1    3    3  502    0  0.85269115608E+02  0.25839672482E+03  0.15392075363E+04  0.15630742599E+04  0.12699999809E+01 0.  1.
       -4    1    3    3    0  502 -0.85269115608E+02 -0.25839672482E+03 -0.25467785220E+04  0.25612735391E+04  0.12699999809E+01 0. -1.
</event>
<event>
 5   0  0.2078125E-09  0.4001344E+04  0.7818609E-02  0.8004275E-01
       -1   -1    0    0    0  501  0.00000000000E+00  0.00000000000E+00  0.18545131345E+04  0.18545131345E+04  0.50400001928E-02 0. -1.
        1   -1    0    0  501    0  0.00000000000E+00  0.00000000000E+00 -0.21583502485E+04  0.21583502485E+04  0.50400001928E-02 0.  1.
    10030    2    1    2    0    0  0.00000000000E+00  0.00000000000E+00 -0.30383711409E+03  0.40128633830E+04  0.40013442165E+04 0.  0.
        1    1    3    3  502    0 -0.10287056587E+04 -0.81547735149E+02 -0.18708550615E+04  0.21365823238E+04  0.50400001928E-02 0.  1.
       -1    1    3    3    0  502  0.10287056587E+04  0.81547735149E+02  0.15670179474E+04  0.18762810592E+04  0.50400001928E-02 0. -1.
</event>
<event>
 5   0  0.2078125E-09  0.3998607E+04  0.7818609E-02  0.8004828E-01
       -1   -1    0    0    0  501  0.00000000000E+00  0.00000000000E+00  0.20928675469E+04  0.20928675469E+04  0.50400001928E-02 0. -1.
        1   -1    0    0  501    0  0.00000000000E+00  0.00000000000E+00 -0.19099221448E+04  0.19099221448E+04  0.50400001928E-02 0.  1.
    10030    2    1    2    0    0  0.00000000000E+00  0.00000000000E+00  0.18294540211E+03  0.40027896916E+04  0.39986067943E+04 0.  0.
        1    1    3    3  502    0  0.75270102544E+03  0.79060208757E+03 -0.15852730965E+04  0.19247600591E+04  0.50400001928E-02 0.  1.
       -1    1    3    3    0  502 -0.75270102544E+03 -0.79060208757E+03  0.17682184987E+04  0.20780296325E+04  0.50400001928E-02 0. -1.
</event>
<event>
 5   0  0.2078125E-09  0.4009310E+04  0.7818609E-02  0.8002671E-01
        1   -1    0    0  501    0  0.00000000000E+00  0.00000000000E+00  0.21994402185E+04  0.21994402185E+04  0.50400001928E-02 0.  1.
       -1   -1    0    0    0  501  0.00000000000E+00  0.00000000000E+00 -0.18271205976E+04  0.18271205976E+04  0.50400001928E-02 0. -1.
    10030    2    1    2    0    0  0.00000000000E+00  0.00000000000E+00  0.37231962085E+03  0.40265608161E+04  0.40093104277E+04 0.  0.
        5    1    3    3  502    0  0.48855963020E+03  0.12426132220E+04  0.16878666681E+04  0.21521371032E+04  0.46999998093E+01 0.  1.
       -5    1    3    3    0  502 -0.48855963020E+03 -0.12426132220E+04 -0.13155470472E+04  0.18744237129E+04  0.46999998093E+01 0. -1.
</event>
<event>
 5   0  0.6736335E-09  0.4000491E+04  0.7818609E-02  0.8004448E-01
       -2   -1    0    0    0  501  0.00000000000E+00  0.00000000000E+00  0.12093572087E+04  0.12093572087E+04  0.25500000920E-02 0.  1.
        2   -1    0    0  501    0  0.00000000000E+00  0.00000000000E+00 -0.33083536264E+04  0.33083536264E+04  0.25500000920E-02 0. -1.
    10030    2    1    2    0    0  0.00000000000E+00  0.00000000000E+00 -0.20989964177E+04  0.45177108351E+04  0.40004906234E+04 0.  0.
        1    1    3    3  502    0  0.10623553135E+04  0.14837158111E+04 -0.19745300615E+04  0.26886391323E+04  0.50400001928E-02 0. -1.
       -1    1    3    3    0  502 -0.10623553135E+04 -0.14837158111E+04 -0.12446635623E+03  0.18290717028E+04  0.50400001928E-02 0.  1.
</event>
<event>
 5   0  0.6538370E-09  0.4001093E+04  0.7818609E-02  0.8004326E-01
        2   -1    0    0  501    0  0.00000000000E+00  0.00000000000E+00  0.14411481447E+04  0.14411481447E+04  0.25500000920E-02 0. -1.
       -2   -1    0    0    0  501  0.00000000000E+00  0.00000000000E+00 -0.27770812202E+04  0.27770812202E+04  0.25500000920E-02 0.  1.
    10030    2    1    2    0    0  0.00000000000E+00  0.00000000000E+00 -0.13359330756E+04  0.42182293649E+04  0.40010925748E+04 0.  0.
        4    1    3    3  502    0  0.14553805397E+04 -0.11596682763E+04 -0.14421339969E+04  0.23542971572E+04  0.12699999809E+01 0.  1.
       -4    1    3    3    0  502 -0.14553805397E+04  0.11596682763E+04  0.10620092136E+03  0.18639322077E+04  0.12699999809E+01 0. -1.
</event>
<event>
 5   0  0.2078125E-09  0.3992880E+04  0.7818609E-02  0.8005984E-01
       -1   -1    0    0    0  501  0.00000000000E+00  0.00000000000E+00  0.16994564309E+04  0.16994564309E+04  0.50400001928E-02 0. -1.
        1   -1    0    0  501    0  0.00000000000E+00  0.00000000000E+00 -0.23453218984E+04  0.23453218984E+04  0.50400001928E-02 0.  1.
    10030    2    1    2    0    0  0.00000000000E+00  0.00000000000E+00 -0.64586546748E+03  0.40447783294E+04  0.39928798544E+04 0.  0.
        4    1    3    3  502    0 -0.39926650829E+03  0.18018374042E+04  0.44836976672E+03  0.18992284845E+04  0.12699999809E+01 0. -1.
       -4    1    3    3    0  502  0.39926650829E+03 -0.18018374042E+04 -0.10942352342E+04  0.21455498448E+04  0.12699999809E+01 0.  1.
</event>
<event>
 5   0  0.2078125E-09  0.3999467E+04  0.7818609E-02  0.8004654E-01
       -3   -1    0    0    0  501  0.00000000000E+00  0.00000000000E+00  0.26585554059E+04  0.26585554078E+04  0.10100000352E+00 0.  1.
        3   -1    0    0  501    0  0.00000000000E+00  0.00000000000E+00 -0.15041756094E+04  0.15041756128E+04  0.10100000352E+00 0. -1.
    10030    2    1    2    0    0  0.00000000000E+00  0.00000000000E+00  0.11543797965E+04  0.41627310207E+04  0.39994670690E+04 0.  0.
        3    1    3    3  502    0  0.13891291426E+04  0.97892516809E+03  0.16742373766E+04  0.23855911349E+04  0.10100000352E+00 0.  1.
       -3    1    3    3    0  502 -0.13891291426E+04 -0.97892516809E+03 -0.51985758015E+03  0.17771398857E+04  0.10100000352E+00 0. -1.
</event>
<event>
 5   0  0.6736335E-09  0.3999750E+04  0.7818609E-02  0.8004597E-01
       -2   -1    0    0    0  501  0.00000000000E+00  0.00000000000E+00  0.15757913811E+04  0.15757913811E+04  0.25500000920E-02 0. -1.
        2   -1    0    0  501    0  0.00000000000E+00  0.00000000000E+00 -0.25380898282E+04  0.25380898282E+04  0.25500000920E-02 0.  1.
    10030    2    1    2    0    0  0.00000000000E+00  0.00000000000E+00 -0.96229844709E+03  0.41138812092E+04  0.39997500300E+04 0.  0.
        1    1    3    3  502    0  0.28790019618E+03 -0.14436944033E+04 -0.18734219018E+04  0.23826140424E+04  0.50400001928E-02 0.  1.
       -1    1    3    3    0  502 -0.28790019618E+03  0.14436944033E+04  0.91112345472E+03  0.17312671668E+04  0.50400001928E-02 0. -1.
</event>
<event>
 5   0  0.2078125E-09  0.3997320E+04  0.7818609E-02  0.8005087E-01
       -1   -1    0    0    0  501  0.00000000000E+00  0.00000000000E+00  0.13254153301E+04  0.13254153301E+04  0.50400001928E-02 0. -1.
        1   -1    0    0  501    0  0.00000000000E+00  0.00000000000E+00 -0.30138797288E+04  0.30138797288E+04  0.50400001928E-02 0.  1.
    10030    2    1    2    0    0  0.00000000000E+00  0.00000000000E+00 -0.16884643987E+04  0.43392950590E+04  0.39973203003E+04 0.  0.
        5    1    3    3  502    0 -0.13208682443E+03 -0.61521142694E+03 -0.29035451337E+04  0.29709474015E+04  0.46999998093E+01 0.  1.
       -5    1    3    3    0  502  0.13208682443E+03  0.61521142694E+03  0.12150807350E+04  0.13683476574E+04  0.46999998093E+01 0. -1.
</event>
<event>
 5   0  0.6599276E-09  0.3999651E+04  0.7818609E-02  0.8004617E-01
       -2   -1    0    0    0  501  0.00000000000E+00  0.00000000000E+00  0.19976055687E+04  0.19976055687E+04  0.25500000920E-02 0. -1.
        2   -1    0    0  501    0  0.00000000000E+00  0.00000000000E+00 -0.20020479017E+04  0.20020479017E+04  0.25500000920E-02 0.  1.
    10030    2    1    2    0    0  0.00000000000E+00  0.00000000000E+00 -0.44423329504E+01  0.39996534704E+04  0.39996510034E+04 0.  0.
        2    1    3    3  502    0  0.15869096851E+04  0.19553384494E+03  0.11989399317E+04  0.19984926303E+04  0.25500000920E-02 0. -1.
       -2    1    3    3    0  502 -0.15869096851E+04 -0.19553384494E+03 -0.12033822647E+04  0.20011608402E+04  0.25500000920E-02 0.  1.
</event>
<event>
 5   0  0.6599276E-09  0.3999798E+04  0.7818609E-02  0.8004587E-01
       -2   -1    0    0    0  501  0.00000000000E+00  0.00000000000E+00  0.22556260737E+04  0.22556260737E+04  0.25500000920E-02 0.  1.
        2   -1    0    0  501    0  0.00000000000E+00  0.00000000000E+00 -0.17731648901E+04  0.17731648901E+04  0.25500000920E-02 0. -1.
    10030    2    1    2    0    0  0.00000000000E+00  0.00000000000E+00  0.48246118352E+03  0.40287909638E+04  0.39997984745E+04 0.  0.
        2    1    3    3  502    0 -0.97780065292E+03 -0.19255658521E+03  0.19877032736E+04  0.22235414229E+04  0.25500000920E-02 0.  1.
       -2    1    3    3    0  502  0.97780065292E+03  0.19255658521E+03 -0.15052420901E+04  0.18052495409E+04  0.25500000920E-02 0. -1.
</event>
<event>
 5   0  0.6538370E-09  0.3999086E+04  0.7818609E-02  0.8004731E-01
       -2   -1    0    0    0  501  0.00000000000E+00  0.00000000000E+00  0.22028844625E+04  0.22028844625E+04  0.25500000920E-02 0.  1.
        2   -1    0    0  501    0  0.00000000000E+00  0.00000000000E+00 -0.18149715130E+04  0.18149715130E+04  0.25500000920E-02 0. -1.
    10030    2    1    2    0    0  0.00000000000E+00  0.00000000000E+00  0.38791294957E+03  0.40178559755E+04  0.39990861686E+04 0.  0.
        4    1    3    3  502    0 -0.18931688111E+04  0.63866341891E+03  0.11489901128E+03  0.20012952070E+04  0.12699999809E+01 0. -1.
       -4    1    3    3    0  502  0.18931688111E+04 -0.63866341891E+03  0.27301393829E+03  0.20165607685E+04  0.12699999809E+01 0.  1.
</event>
<event>
 5   0  0.6645526E-09  0.4001339E+04  0.7818609E-02  0.8004277E-01
        2   -1    0    0  501    0  0.00000000000E+00  0.00000000000E+00  0.13426890944E+04  0.13426890944E+04  0.25500000920E-02 0. -1.
       -2   -1    0    0    0  501  0.00000000000E+00  0.00000000000E+00 -0.29810903400E+04  0.29810903400E+04  0.25500000920E-02 0.  1.
    10030    2    1    2    0    0  0.00000000000E+00  0.00000000000E+00 -0.16384012456E+04  0.43237794344E+04  0.40013385205E+04 0.  0.
        3    1    3    3  502    0  0.10104525230E+04 -0.10270630121E+04  0.68075044068E+03  0.15935162078E+04  0.10100000352E+00 0. -1.
       -3    1    3    3    0  502 -0.10104525230E+04  0.10270630121E+04 -0.23191516863E+04  0.27302632265E+04  0.10100000352E+00 0.  1.
</event>
<event>
 5   0  0.6736335E-09  0.4001024E+04  0.7818609E-02  0.8004340E-01
       -2   -1    0    0    0  501  0.00000000000E+00  0.00000000000E+00  0.23839074847E+04  0.23839074847E+04  0.25500000920E-02 0.  1.
        2   -1    0    0  501    0  0.00000000000E+00  0.00000000000E+00 -0.16787764973E+04  0.16787764973E+04  0.25500000920E-02 0. -1.
    10030    2    1    2    0    0  0.00000000000E+00  0.00000000000E+00  0.70513098743E+03  0.40626839820E+04  0.40010237975E+04 0.  0.
        1    1    3    3  502    0 -0.21958926382E+03  0.18607669112E+04  0.10643497829E+04  0.21548812968E+04  0.50400001928E-02 0.  1.
       -1    1    3    3    0  502  0.21958926382E+03 -0.18607669112E+04 -0.35921879546E+03  0.19078026852E+04  0.50400001928E-02 0. -1.
</event>
<event>
 5   0  0.6547327E-09  0.4000504E+04  0.7818609E-02  0.8004445E-01
       -2   -1    0    0    0  501  0.00000000000E+00  0.00000000000E+00  0.33448633763E+04  0.33448633763E+04  0.25500000920E-02 0.  1.
        2   -1    0    0  501    0  0.00000000000E+00  0.00000000000E+00 -0.11961647204E+04  0.11961647204E+04  0.25500000920E-02 0. -1.
    10030    2    1    2    0    0  0.00000000000E+00  0.00000000000E+00  0.21486986559E+04  0.45410280967E+04  0.40005037509E+04 0.  0.
        5    1    3    3  502    0 -0.44164932294E+03 -0.15158108697E+04 -0.31969311112E+03  0.16108887275E+04  0.46999998093E+01 0. -1.
       -5    1    3    3    0  502  0.44164932294E+03  0.15158108697E+04  0.24683917670E+04  0.29301393692E+04  0.46999998093E+01 0.  1.
</event>
<event>
 5   0  0.2078125E-09  0.4000538E+04  0.7818609E-02  0.8004438E-01
       -1   -1    0    0    0  501  0.00000000000E+00  0.00000000000E+00  0.20373967413E+04  0.20373967413E+04  0.50400001928E-02 0. -1.
        1   -1    0    0  501    0  0.00000000000E+00  0.00000000000E+00 -0.19638176916E+04  0.19638176916E+04  0.50400001928E-02 0.  1.
    10030    2    1    2    0    0  0.00000000000E+00  0.00000000000E+00  0.73579049719E+02  0.40012144329E+04  0.40005378465E+04 0.  0.
        4    1    3    3  502    0 -0.64529050690E+03  0.81211917006E+03 -0.16738028498E+04  0.19691508265E+04  0.12699999809E+01 0.  1.
       -4    1    3    3    0  502  0.64529050690E+03 -0.81211917006E+03  0.17473818995E+04  0.20320636064E+04  0.12699999809E+01 0. -1.
</event>
<event>
 5   0  0.2078125E-09  0.4008026E+04  0.7818609E-02  0.8002929E-01
        1   -1    0    0  501    0  0.00000000000E+00  0.00000000000E+00  0.19994549895E+04  0.19994549895E+04  0.50400001928E-02 0.  1.
       -1   -1    0    0    0  501  0.00000000000E+00  0.00000000000E+00 -0.20085817154E+04  0.20085817155E+04  0.50400001928E-02 0. -1.
    10030    2    1    2    0    0  0.00000000000E+00  0.00000000000E+00 -0.91267259165E+01  0.40080367050E+04  0.40080263137E+04 0.  0.
        5    1    3    3  502    0 -0.17172598294E+04 -0.10245749420E+04 -0.13613691334E+03  0.20043179595E+04  0.46999998093E+01 0.  1.
       -5    1    3    3    0  502  0.17172598294E+04  0.10245749420E+04  0.12701018742E+03  0.20037187455E+04  0.46999998093E+01 0. -1.
</event>
<event>
 5   0  0.6538370E-09  0.4004357E+04  0.7818609E-02  0.8003668E-01
        2   -1    0    0  501    0  0.00000000000E+00  0.00000000000E+00  0.14423242340E+04  0.14423242340E+04  0.25500000920E-02 0. -1.
       -2   -1    0    0    0  501  0.00000000000E+00  0.00000000000E+00 -0.27793466967E+04  0.27793466967E+04  0.25500000920E-02 0.  1.
    10030    2    1    2    0    0  0.00000000000E+00  0.00000000000E+00 -0.13370224627E+04  0.42216709307E+04  0.40043571745E+04 0.  0.
        4    1    3    3  502    0 -0.14802201575E+04  0.12724047542E+04 -0.19861934973E+03  0.19620185606E+04  0.12699999809E+01 0.  1.
       -4    1    3    3    0  502  0.14802201575E+04 -0.12724047542E+04 -0.11384031129E+04  0.22596523701E+04  0.12699999809E+01 0. -1.
</event>
<event>
 5   0  0.6599276E-09  0.3999683E+04  0.7818609E-02  0.8004610E-01
       -2   -1    0    0    0  501  0.00000000000E+00  0.00000000000E+00  0.17994070089E+04  0.17994070089E+04  0.25500000920E-02 0.  1.
        2   -1    0    0  501    0  0.00000000000E+00  0.00000000000E+00 -0.22226026906E+04  0.22226026907E+04  0.25500000920E-02 0. -1.
    10030    2    1    2    0    0  0.00000000000E+00  0.00000000000E+00 -0.42319568173E+03  0.40220096996E+04  0.39996834173E+04 0.  0.
        2    1    3    3  502    0 -0.11383672947E+04 -0.33296666037E+03 -0.18307472539E+04  0.21813716790E+04  0.25500000920E-02 0. -1.
       -2    1    3    3    0  502  0.11383672947E+04  0.33296666037E+03  0.14075515721E+04  0.18406380206E+04  0.25500000920E-02 0.  1.
</event>
<event>
 5   0  0.2078125E-09  0.3987575E+04  0.7818609E-02  0.8007058E-01
       -1   -1    0    0    0  501  0.00000000000E+00  0.00000000000E+00  0.19448913698E+04  0.19448913698E+04  0.50400001928E-02 0.  1.
        1   -1    0    0  501    0  0.00000000000E+00  0.00000000000E+00 -0.20439126840E+04  0.20439126840E+04  0.50400001928E-02 0. -1.
    10030    2    1    2    0    0  0.00000000000E+00  0.00000000000E+00 -0.99021314142E+02  0.39888040538E+04  0.39875747716E+04 0.  0.
        5    1    3    3  502    0 -0.12381313122E+03  0.13134387483E+04  0.14458465086E+04  0.19572800651E+04  0.46999998093E+01 0.  1.
       -5    1    3    3    0  502  0.12381313122E+03 -0.13134387483E+04 -0.15448678227E+04  0.20315239887E+04  0.46999998093E+01 0. -1.
</event>
<event>
 5   0  0.2078125E-09  0.3994607E+04  0.7818609E-02  0.8005635E-01
       -1   -1    0    0    0  501  0.00000000000E+00  0.00000000000E+00  0.15420696895E+04  0.15420696895E+04  0.50400001928E-02 0. -1.
        1   -1    0    0  501    0  0.00000000000E+00  0.00000000000E+00 -0.25869272900E+04  0.25869272900E+04  0.50400001928E-02 0.  1.
    10030    2    1    2    0    0  0.00000000000E+00  0.00000000000E+00 -0.10448576005E+04  0.41289969795E+04  0.39946074465E+04 0.  0.
        4    1    3    3  502    0 -0.39138666705E+02 -0.10185061872E+04 -0.22978689623E+04  0.25137800360E+04  0.12699999809E+01 0.  1.
       -4    1    3    3    0  502  0.39138666705E+02  0.10185061872E+04  0.12530113618E+04  0.16152169435E+04  0.12699999809E+01 0. -1.
</event>
<event>
 5   0  0.6547327E-09  0.3996045E+04  0.7818609E-02  0.8005345E-01
       -2   -1    0    0    0  501  0.00000000000E+00  0.00000000000E+00  0.17166100407E+04  0.17166100407E+04  0.25500000920E-02 0.  1.
        2   -1    0    0  501    0  0.00000000000E+00  0.00000000000E+00 -0.23255682617E+04  0.23255682617E+04  0.25500000920E-02 0. -1.
    10030    2    1    2    0    0  0.00000000000E+00  0.00000000000E+00 -0.60895822100E+03  0.40421783024E+04  0.39960449589E+04 0.  0.
        5    1    3    3  502    0  0.70367418231E+03  0.33054020505E+03  0.15573287187E+04  0.17406059318E+04  0.46999998093E+01 0.  1.
       -5    1    3    3    0  502 -0.70367418231E+03 -0.33054020505E+03 -0.21662869397E+04  0.23015723706E+04  0.46999998093E+01 0. -1.
</event>
<event>
 5   0  0.2078125E-09  0.4001096E+04  0.7818609E-02  0.8004325E-01
       -1   -1    0    0    0  501  0.00000000000E+00  0.00000000000E+00  0.26596196429E+04  0.26596196429E+04  0.50400001928E-02 0.  1.
        1   -1    0    0  501    0  0.00000000000E+00  0.00000000000E+00 -0.15047990300E+04  0.15047990300E+04  0.50400001928E-02 0. -1.
    10030    2    1    2    0    0  0.00000000000E+00  0.00000000000E+00  0.11548206129E+04  0.41644186729E+04  0.40010963792E+04 0.  0.
        2    1    3    3  502    0  0.14834967948E+03  0.77433859360E+03  0.24910990993E+04  0.26128877908E+04  0.25500000920E-02 0.  1.
       -2    1    3    3    0  502 -0.14834967948E+03 -0.77433859360E+03 -0.13362784864E+04  0.15515308821E+04  0.25500000920E-02 0. -1.
</event>
<event>
 5   0  0.2078125E-09  0.3997923E+04  0.7818609E-02  0.8004966E-01
       -1   -1    0    0    0  501  0.00000000000E+00  0.00000000000E+00  0.32984623192E+04  0.32984623192E+04  0.50400001928E-02 0. -1.
        1   -1    0    0  501    0  0.00000000000E+00  0.00000000000E+00 -0.12114270909E+04  0.12114270910E+04  0.50400001928E-02 0.  1.
    10030    2    1    2    0    0  0.00000000000E+00  0.00000000000E+00  0.20870352282E+04  0.45098894101E+04  0.39979227666E+04 0.  0.
        3    1    3    3  502    0 -0.16576640797E+04 -0.77340697759E+03  0.13416135558E+03  0.18341231784E+04  0.10100000352E+00 0. -1.
       -3    1    3    3    0  502  0.16576640797E+04  0.77340697759E+03  0.19528738727E+04  0.26757662317E+04  0.10100000352E+00 0.  1.
</event>
<event>
 5   0  0.2078125E-09  0.4000385E+04  0.7818609E-02  0.8004469E-01
       -1   -1    0    0    0  501  0.00000000000E+00  0.00000000000E+00  0.16026343178E+04  0.16026343178E+04  0.50400001928E-02 0. -1.
        1   -1    0    0  501    0  0.00000000000E+00  0.00000000000E+00 -0.24963712636E+04  0.24963712636E+04  0.50400001928E-02 0.  1.
    10030    2    1    2    0    0  0.00000000000E+00  0.00000000000E+00 -0.89373694587E+03  0.40990055814E+04  0.40003851100E+04 0.  0.
        1    1    3    3  502    0 -0.16868320974E+04 -0.52983246041E+03 -0.14051490593E+04  0.22584438979E+04  0.50400001928E-02 0.  1.
       -1    1    3    3    0  502  0.16868320974E+04  0.52983246041E+03  0.51141211341E+03  0.18405616835E+04  0.50400001928E-02 0. -1.
</event>
<event>
 5   0  0.6736335E-09  0.4000174E+04  0.7818609E-02  0.8004511E-01
       -2   -1    0    0    0  501  0.00000000000E+00  0.00000000000E+00  0.16966731459E+04  0.16966731460E+04  0.25500000920E-02 0. -1.
        2   -1    0    0  501    0  0.00000000000E+00  0.00000000000E+00 -0.23577601166E+04  0.23577601166E+04  0.25500000920E-02 0.  1.
    10030    2    1    2    0    0  0.00000000000E+00  0.00000000000E+00 -0.66108697069E+03  0.40544332626E+04  0.40001741335E+04 0.  0.
        1    1    3    3  502    0 -0.37577042351E+03 -0.19328988145E+04 -0.68608215073E+03  0.20851882303E+04  0.50400001928E-02 0. -1.
       -1    1    3    3    0  502  0.37577042351E+03  0.19328988145E+04  0.24995180031E+02  0.19692450323E+04  0.50400001928E-02 0.  1.
</event>
<event>
 5   0  0.6645526E-09  0.4010160E+04  0.7818609E-02  0.8002500E-01
        2   -1    0    0  501    0  0.00000000000E+00  0.00000000000E+00  0.11926322943E+04  0.11926322943E+04  0.25500000920E-02 0.  1.
       -2   -1    0    0    0  501  0.00000000000E+00  0.00000000000E+00 -0.33709859144E+04  0.33709859144E+04  0.25500000920E-02 0. -1.
    10030    2    1    2    0    0  0.00000000000E+00  0.00000000000E+00 -0.21783536202E+04  0.45636182087E+04  0.40101604282E+04 0.  0.
        3    1    3    3  502    0  0.14507562024E+04 -0.13406756096E+04 -0.69785554263E+03  0.20950195745E+04  0.10100000352E+00 0. -1.
       -3    1    3    3    0  502 -0.14507562024E+04  0.13406756096E+04 -0.14804980775E+04  0.24685986342E+04  0.10100000352E+00 0.  1.
</event>
<event>
 5   0  0.6547327E-09  0.3999478E+04  0.7818609E-02  0.8004652E-01
        2   -1    0    0  501    0  0.00000000000E+00  0.00000000000E+00  0.23868129111E+04  0.23868129111E+04  0.25500000920E-02 0. -1.
       -2   -1    0    0    0  501  0.00000000000E+00  0.00000000000E+00 -0.16754377014E+04  0.16754377014E+04  0.25500000920E-02 0.  1.
    10030    2    1    2    0    0  0.00000000000E+00  0.00000000000E+00  0.71137520969E+03  0.40622506126E+04  0.39994781348E+04 0.  0.
        5    1    3    3  502    0  0.14462229393E+03 -0.15713657235E+04 -0.89193521988E+03  0.18126434761E+04  0.46999998093E+01 0.  1.
       -5    1    3    3    0  502 -0.14462229393E+03  0.15713657235E+04  0.16033104296E+04  0.22496071365E+04  0.46999998093E+01 0. -1.
</event>
<event>
 5   0  0.6538370E-09  0.4000585E+04  0.7818609E-02  0.8004429E-01
        2   -1    0    0  501    0  0.00000000000E+00  0.00000000000E+00  0.21732093123E+04  0.21732093123E+04  0.25500000920E-02 0.  1.
       -2   -1    0    0    0  501  0.00000000000E+00  0.00000000000E+00 -0.18411338170E+04  0.18411338170E+04  0.25500000920E-02 0. -1.
    10030    2    1    2    0    0  0.00000000000E+00  0.00000000000E+00  0.33207549525E+03  0.40143431293E+04  0.40005845354E+04 0.  0.
        4    1    3    3  502    0 -0.33126122654E+03  0.11181958577E+03 -0.18102355670E+04  0.18436897898E+04  0.12699999809E+01 0. -1.
       -4    1    3    3    0  502  0.33126122654E+03 -0.11181958577E+03  0.21423110622E+04  0.21706533395E+04  0.12699999809E+01 0.  1.
</event>
<event>
 5   0  0.6736335E-09  0.4000230E+04  0.7818609E-02  0.8004500E-01
       -2   -1    0    0    0  501  0.00000000000E+00  0.00000000000E+00  0.21911509577E+04  0.21911509577E+04  0.25500000920E-02 0. -1.
        2   -1    0    0  501    0  0.00000000000E+00  0.00000000000E+00 -0.18257341808E+04  0.18257341808E+04  0.25500000920E-02 0.  1.
    10030    2    1    2    0    0  0.00000000000E+00  0.00000000000E+00  0.36541677692E+03  0.40168851385E+04  0.40002295927E+04 0.  0.
        1    1    3    3  502    0  0.77231692477E+03  0.15514827207E+04 -0.81989112729E+03  0.19172359076E+04  0.50400001928E-02 0.  1.
       -1    1    3    3    0  502 -0.77231692477E+03 -0.15514827207E+04  0.11853079042E+04  0.20996492308E+04  0.50400001928E-02 0. -1.
</event>
<event>
 5   0  0.2078125E-09  0.4000637E+04  0.7818609E-02  0.8004418E-01
        1   -1    0    0  501    0  0.00000000000E+00  0.00000000000E+00  0.23426997374E+04  0.23426997374E+04  0.50400001928E-02 0.  1.
       -1   -1    0    0    0  501  0.00000000000E+00  0.00000000000E+00 -0.17079756835E+04  0.17079756835E+04  0.50400001928E-02 0. -1.
    10030    2    1    2    0    0  0.00000000000E+00  0.00000000000E+00  0.63472405395E+03  0.40506754209E+04  0.40006370418E+04 0.  0.
        2    1    3    3  502    0  0.28487261219E+03 -0.40813059608E+03  0.22790027324E+04  0.23327186807E+04  0.25500000920E-02 0.  1.
       -2    1    3    3    0  502 -0.28487261219E+03  0.40813059608E+03 -0.16442786785E+04  0.17179567402E+04  0.25500000920E-02 0. -1.
</event>
<event>
 5   0  0.2078125E-09  0.4002493E+04  0.7818609E-02  0.8004044E-01
        1   -1    0    0  501    0  0.00000000000E+00  0.00000000000E+00  0.24221142503E+04  0.24221142503E+04  0.50400001928E-02 0. -1.
       -1   -1    0    0    0  501  0.00000000000E+00  0.00000000000E+00 -0.16535090454E+04  0.16535090454E+04  0.50400001928E-02 0.  1.
    10030    2    1    2    0    0  0.00000000000E+00  0.00000000000E+00  0.76860520492E+03  0.40756232957E+04  0.40024931340E+04 0.  0.
        3    1    3    3  502    0  0.51648520013E+03 -0.10548014925E+04  0.20342867123E+04  0.23489754338E+04  0.10100000352E+00 0. -1.
       -3    1    3    3    0  502 -0.51648520013E+03  0.10548014925E+04 -0.12656815074E+04  0.17266478619E+04  0.10100000352E+00 0.  1.
</event>
<event>
 5   0  0.6645526E-09  0.4001017E+04  0.7818609E-02  0.8004341E-01
        2   -1    0    0  501    0  0.00000000000E+00  0.00000000000E+00  0.20591062962E+04  0.20591062962E+04  0.25500000920E-02 0. -1.
       -2   -1    0    0    0  501  0.00000000000E+00  0.00000000000E+00 -0.19435787049E+04  0.19435787049E+04  0.25500000920E-02 0.  1.
    10030    2    1    2    0    0  0.00000000000E+00  0.00000000000E+00  0.11552759129E+03  0.40026850011E+04  0.40010174448E+04 0.  0.
        3    1    3    3  502    0  0.73659467981E+03 -0.91073916767E+03  0.16801726020E+04  0.20481693134E+04  0.10100000352E+00 0. -1.
       -3    1    3    3    0  502 -0.73659467981E+03  0.91073916767E+03 -0.15646450107E+04  0.19545156877E+04  0.10100000352E+00 0.  1.
</event>
<event>
 5   0  0.6645526E-09  0.4000464E+04  0.7818609E-02  0.8004453E-01
       -2   -1    0    0    0  501  0.00000000000E+00  0.00000000000E+00  0.17940065995E+04  0.17940065995E+04  0.25500000920E-02 0. -1.
        2   -1    0    0  501    0  0.00000000000E+00  0.00000000000E+00 -0.22301633728E+04  0.22301633728E+04  0.25500000920E-02 0.  1.
    10030    2    1    2    0    0  0.00000000000E+00  0.00000000000E+00 -0.43615677332E+03  0.40241699723E+04  0.40004638774E+04 0.  0.
        3    1    3    3  502    0 -0.73029735941E+03  0.12274261774E+04 -0.16267404317E+04  0.21647618105E+04  0.10100000352E+00 0.  1.
       -3    1    3    3    0  502  0.73029735941E+03 -0.12274261774E+04  0.11905836584E+04  0.18594081617E+04  0.10100000352E+00 0. -1.
</event>
<event>
 5   0  0.2078125E-09  0.3996667E+04  0.7818609E-02  0.8005219E-01
       -1   -1    0    0    0  501  0.00000000000E+00  0.00000000000E+00  0.28963004695E+04  0.28963004695E+04  0.50400001928E-02 0. -1.
        1   -1    0    0  501    0  0.00000000000E+00  0.00000000000E+00 -0.13787712773E+04  0.13787712773E+04  0.50400001928E-02 0.  1.
    10030    2    1    2    0    0  0.00000000000E+00  0.00000000000E+00  0.15175291922E+04  0.42750717468E+04  0.39966665600E+04 0.  0.
        4    1    3    3  502    0 -0.10452587671E+04 -0.15755658829E+04  0.14506287822E+04  0.23831280323E+04  0.12699999809E+01 0. -1.
       -4    1    3    3    0  502  0.10452587671E+04  0.15755658829E+04  0.66900409945E+02  0.18919437146E+04  0.12699999809E+01 0.  1.
</event>
<event>
 5   0  0.2078125E-09  0.3987145E+04  0.7818609E-02  0.8007145E-01
       -1   -1    0    0    0  501  0.00000000000E+00  0.00000000000E+00  0.33261955774E+04  0.33261955774E+04  0.50400001928E-02 0.  1.
        1   -1    0    0  501    0  0.00000000000E+00  0.00000000000E+00 -0.11948582354E+04  0.11948582355E+04  0.50400001928E-02 0. -1.
    10030    2    1    2    0    0  0.00000000000E+00  0.00000000000E+00  0.21313373420E+04  0.45210538129E+04  0.39871454342E+04 0.  0.
        1    1    3    3  502    0  0.53949186543E+03 -0.15687580030E+04 -0.18794228862E+03  0.16695434851E+04  0.50400001928E-02 0. -1.
       -1    1    3    3    0  502 -0.53949186543E+03  0.15687580030E+04  0.23192796306E+04  0.28515103278E+04  0.50400001928E-02 0.  1.
</event>
<event>
 5   0  0.6547327E-09  0.4007344E+04  0.7818609E-02  0.8003067E-01
       -2   -1    0    0    0  501  0.00000000000E+00  0.00000000000E+00  0.13421614394E+04  0.13421614394E+04  0.25500000920E-02 0.  1.
        2   -1    0    0  501    0  0.00000000000E+00  0.00000000000E+00 -0.29912204521E+04  0.29912204521E+04  0.25500000920E-02 0. -1.
    10030    2    1    2    0    0  0.00000000000E+00  0.00000000000E+00 -0.16490590128E+04  0.43333818915E+04  0.40073436326E+04 0.  0.
        5    1    3    3  502    0 -0.93254193537E+03 -0.14633211973E+03 -0.27357035947E+04  0.28939840702E+04  0.46999998093E+01 0. -1.
       -5    1    3    3    0  502  0.93254193537E+03  0.14633211973E+03  0.10866445819E+04  0.14393978213E+04  0.46999998093E+01 0.  1.
</event>
<event>
 5   0  0.2078125E-09  0.3999721E+04  0.7818609E-02  0.8004603E-01
       -1   -1    0    0    0  501  0.00000000000E+00  0.00000000000E+00  0.26233338843E+04  0.26233338843E+04  0.50400001928E-02 0. -1.
        1   -1    0    0  501    0  0.00000000000E+00  0.00000000000E+00 -0.15245647182E+04  0.15245647182E+04  0.50400001928E-02 0.  1.
    10030    2    1    2    0    0  0.00000000000E+00  0.00000000000E+00  0.10987691661E+04  0.41478986025E+04  0.39997211323E+04 0.  0.
        1    1    3    3  502    0 -0.42383176165E+03 -0.18258478781E+04  0.12724141690E+04  0.22654782395E+04  0.50400001928E-02 0. -1.
       -1    1    3    3    0  502  0.42383176165E+03  0.18258478781E+04 -0.17364500289E+03  0.18824203630E+04  0.50400001928E-02 0.  1.
</event>
<event>
 5   0  0.2078125E-09  0.4000070E+04  0.7818609E-02  0.8004532E-01
        1   -1    0    0  501    0  0.00000000000E+00  0.00000000000E+00  0.23922635495E+04  0.23922635495E+04  0.50400001928E-02 0. -1.
       -1   -1    0    0    0  501  0.00000000000E+00  0.00000000000E+00 -0.16721151230E+04  0.16721151230E+04  0.50400001928E-02 0.  1.
    10030    2    1    2    0    0  0.00000000000E+00  0.00000000000E+00  0.72014842656E+03  0.40643786725E+04  0.40000700290E+04 0.  0.
        1    1    3    3  502    0 -0.18790639270E+04  0.27956176522E+03 -0.27536310784E+03  0.19195991413E+04  0.50400001928E-02 0.  1.
       -1    1    3    3    0  502  0.18790639270E+04 -0.27956176522E+03  0.99551153440E+03  0.21447795312E+04  0.50400001928E-02 0. -1.
</event>
<event>
 5   0  0.6538370E-09  0.4002055E+04  0.7818609E-02  0.8004132E-01
       -2   -1    0    0    0  501  0.00000000000E+00  0.00000000000E+00  0.19411454375E+04  0.19411454375E+04  0.25500000920E-02 0.  1.
        2   -1    0    0  501    0  0.00000000000E+00  0.00000000000E+00 -0.20627573514E+04  0.20627573514E+04  0.25500000920E-02 0. -1.
    10030    2    1    2    0    0  0.00000000000E+00  0.00000000000E+00 -0.12161191388E+03  0.40039027889E+04  0.40020554825E+04 0.  0.
        4    1    3    3  502    0  0.11962238909E+04 -0.30169467775E+03 -0.16370137857E+04  0.20498260959E+04  0.12699999809E+01 0. -1.
       -4    1    3    3    0  502 -0.11962238909E+04  0.30169467775E+03  0.15154018719E+04  0.19540766930E+04  0.12699999809E+01 0.  1.
</event>
<event>
 5   0  0.2078125E-09  0.3997483E+04  0.7818609E-02  0.8005054E-01
        1   -1    0    0  501    0  0.00000000000E+00  0.00000000000E+00  0.28460036687E+04  0.28460036687E+04  0.50400001928E-02 0. -1.
       -1   -1    0    0    0  501  0.00000000000E+00  0.00000000000E+00 -0.14037113482E+04  0.14037113482E+04  0.50400001928E-02 0.  1.
    10030    2    1    2    0    0  0.00000000000E+00  0.00000000000E+00  0.14422923204E+04  0.42497150169E+04  0.39974830315E+04 0.  0.
        3    1    3    3  502    0 -0.13995941533E+04  0.13585893251E+04  0.25733954035E+03  0.19674481943E+04  0.10100000352E+00 0.  1.
       -3    1    3    3    0  502  0.13995941533E+04 -0.13585893251E+04  0.11849527801E+04  0.22822668226E+04  0.10100000352E+00 0. -1.
</event>
<event>
 5   0  0.2078125E-09  0.3996798E+04  0.7818609E-02  0.8005193E-01
       -1   -1    0    0    0  501  0.00000000000E+00  0.00000000000E+00  0.20781987641E+04  0.20781987641E+04  0.50400001928E-02 0.  1.
        1   -1    0    0  501    0  0.00000000000E+00  0.00000000000E+00 -0.19216634546E+04  0.19216634546E+04  0.50400001928E-02 0. -1.
    10030    2    1    2    0    0  0.00000000000E+00  0.00000000000E+00  0.15653530950E+03  0.39998622186E+04  0.39967980265E+04 0.  0.
        3    1    3    3  502    0  0.73115915875E+03  0.12198128834E+04 -0.13267536452E+04  0.19449453543E+04  0.10100000352E+00 0. -1.
       -3    1    3    3    0  502 -0.73115915875E+03 -0.12198128834E+04  0.14832889547E+04  0.20549168643E+04  0.10100000352E+00 0.  1.
</event>
<event>
 5   0  0.2078125E-09  0.3999538E+04  0.7818609E-02  0.8004640E-01
       -1   -1    0    0    0  501  0.00000000000E+00  0.00000000000E+00  0.13733288759E+04  0.13733288759E+04  0.50400001928E-02 0. -1.
        1   -1    0    0  501    0  0.00000000000E+00  0.00000000000E+00 -0.29119577343E+04  0.29119577343E+04  0.50400001928E-02 0.  1.
    10030    2    1    2    0    0  0.00000000000E+00  0.00000000000E+00 -0.15386288584E+04  0.42852866102E+04  0.39995377943E+04 0.  0.
        3    1    3    3  502    0 -0.17138649114E+04  0.10148956710E+04 -0.57846032342E+03  0.20741172854E+04  0.10100000352E+00 0. -1.
       -3    1    3    3    0  502  0.17138649114E+04 -0.10148956710E+04 -0.96016853495E+03  0.22111693249E+04  0.10100000352E+00 0.  1.
</event>
<event>
 5   0  0.2078125E-09  0.4001346E+04  0.7818609E-02  0.8004275E-01
       -1   -1    0    0    0  501  0.00000000000E+00  0.00000000000E+00  0.29611220891E+04  0.29611220891E+04  0.50400001928E-02 0.  1.
        1   -1    0    0  501    0  0.00000000000E+00  0.00000000000E+00 -0.13517483562E+04  0.13517483562E+04  0.50400001928E-02 0. -1.
    10030    2    1    2    0    0  0.00000000000E+00  0.00000000000E+00  0.16093737328E+04  0.43128704453E+04  0.40013457319E+04 0.  0.
        5    1    3    3  502    0  0.15651801302E+04  0.34418213652E+03  0.20956042431E+04  0.26381488618E+04  0.46999998093E+01 0.  1.
       -5    1    3    3    0  502 -0.15651801302E+04 -0.34418213652E+03 -0.48623051026E+03  0.16747215835E+04  0.46999998093E+01 0. -1.
</event>
<event>
 5   0  0.2078125E-09  0.4003472E+04  0.7818609E-02  0.8003846E-01
       -1   -1    0    0    0  501  0.00000000000E+00  0.00000000000E+00  0.27476236586E+04  0.27476236586E+04  0.50400001928E-02 0.  1.
        1   -1    0    0  501    0  0.00000000000E+00  0.00000000000E+00 -0.14583321073E+04  0.14583321073E+04  0.50400001928E-02 0. -1.
    10030    2    1    2    0    0  0.00000000000E+00  0.00000000000E+00  0.12892915513E+04  0.42059557659E+04  0.40034723929E+04 0.  0.
        5    1    3    3  502    0 -0.13947010742E+04 -0.34132683023E+03  0.21099014480E+04  0.25521366150E+04  0.46999998093E+01 0.  1.
       -5    1    3    3    0  502  0.13947010742E+04  0.34132683023E+03 -0.82060989669E+03  0.16538191509E+04  0.46999998093E+01 0. -1.
</event>
<event>
 5   0  0.2078125E-09  0.4001359E+04  0.7818609E-02  0.8004272E-01
        1   -1    0    0  501    0  0.00000000000E+00  0.00000000000E+00  0.17974770604E+04  0.17974770604E+04  0.50400001928E-02 0. -1.
       -1   -1    0    0    0  501  0.00000000000E+00  0.00000000000E+00 -0.22268542240E+04  0.22268542240E+04  0.50400001928E-02 0.  1.
    10030    2    1    2    0    0  0.00000000000E+00  0.00000000000E+00 -0.42937716361E+03  0.40243312844E+04  0.40013594613E+04 0.  0.
        2    1    3    3  502    0 -0.15981826765E+03 -0.13417058869E+04  0.12692490643E+04  0.18538364957E+04  0.25500000920E-02 0. -1.
       -2    1    3    3    0  502  0.15981826765E+03  0.13417058869E+04 -0.16986262279E+04  0.21704947887E+04  0.25500000920E-02 0.  1.
</event>
<event>
 5   0  0.2078125E-09  0.4000231E+04  0.7818609E-02  0.8004500E-01
       -1   -1    0    0    0  501  0.00000000000E+00  0.00000000000E+00  0.16570601061E+04  0.16570601061E+04  0.50400001928E-02 0. -1.
        1   -1    0    0  501    0  0.00000000000E+00  0.00000000000E+00 -0.24141925823E+04  0.24141925823E+04  0.50400001928E-02 0.  1.
    10030    2    1    2    0    0  0.00000000000E+00  0.00000000000E+00 -0.75713247617E+03  0.40712526884E+04  0.40002311016E+04 0.  0.
        2    1    3    3  502    0  0.19562818840E+04 -0.36603173568E+03 -0.58069793255E+03  0.20732168555E+04  0.25500000920E-02 0. -1.
       -2    1    3    3    0  502 -0.19562818840E+04  0.36603173568E+03 -0.17643454362E+03  0.19980358329E+04  0.25500000920E-02 0.  1.
</event>
<event>
 5   0  0.2078125E-09  0.3999127E+04  0.7818609E-02  0.8004723E-01
       -1   -1    0    0    0  501  0.00000000000E+00  0.00000000000E+00  0.21990324354E+04  0.21990324354E+04  0.50400001928E-02 0. -1.
        1   -1    0    0  501    0  0.00000000000E+00  0.00000000000E+00 -0.18181874919E+04  0.18181874919E+04  0.50400001928E-02 0.  1.
    10030    2    1    2    0    0  0.00000000000E+00  0.00000000000E+00  0.38084494348E+03  0.40172199274E+04  0.39991265389E+04 0.  0.
        2    1    3    3  502    0 -0.23276924856E+03 -0.18335531732E+04  0.95686499871E+03  0.20812710990E+04  0.25500000920E-02 0. -1.
       -2    1    3    3    0  502  0.23276924856E+03  0.18335531732E+04 -0.57602005523E+03  0.19359488283E+04  0.25500000920E-02 0.  1.
</event>
<event>
 5   0  0.6547327E-09  0.3998245E+04  0.7818609E-02  0.8004901E-01
       -2   -1    0    0    0  501  0.00000000000E+00  0.00000000000E+00  0.15710456917E+04  0.15710456917E+04  0.25500000920E-02 0.  1.
        2   -1    0    0  501    0  0.00000000000E+00  0.00000000000E+00 -0.25438413737E+04  0.25438413737E+04  0.25500000920E-02 0. -1.
    10030    2    1    2    0    0  0.00000000000E+00  0.00000000000E+00 -0.97279568199E+03  0.41148870654E+04  0.39982451304E+04 0.  0.
        5    1    3    3  502    0  0.63073257731E+03  0.15393627202E+04  0.65455007131E+03  0.17877133591E+04  0.46999998093E+01 0. -1.
       -5    1    3    3    0  502 -0.63073257731E+03 -0.15393627202E+04 -0.16273457533E+04  0.23271737063E+04  0.46999998093E+01 0.  1.
</event>
<event>
 5   0  0.2078125E-09  0.4000612E+04  0.7818609E-02  0.8004423E-01
        1   -1    0    0  501    0  0.00000000000E+00  0.00000000000E+00  0.19979393239E+04  0.19979393239E+04  0.50400001928E-02 0. -1.
       -1   -1    0    0    0  501  0.00000000000E+00  0.00000000000E+00 -0.20026752288E+04  0.20026752289E+04  0.50400001928E-02 0.  1.
    10030    2    1    2    0    0  0.00000000000E+00  0.00000000000E+00 -0.47359049895E+01  0.40006145527E+04  0.40006117495E+04 0.  0.
        3    1    3    3  502    0 -0.72692970983E+03 -0.51018492783E+03 -0.17947163061E+04  0.20024290483E+04  0.10100000352E+00 0.  1.
       -3    1    3    3    0  502  0.72692970983E+03  0.51018492783E+03  0.17899804011E+04  0.19981855045E+04  0.10100000352E+00 0. -1.
</event>
<event>
 5   0  0.6645526E-09  0.3979521E+04  0.7818609E-02  0.8008691E-01
       -2   -1    0    0    0  501  0.00000000000E+00  0.00000000000E+00  0.24698491962E+04  0.24698491962E+04  0.25500000920E-02 0. -1.
        2   -1    0    0  501    0  0.00000000000E+00  0.00000000000E+00 -0.16029911539E+04  0.16029911539E+04  0.25500000920E-02 0.  1.
    10030    2    1    2    0    0  0.00000000000E+00  0.00000000000E+00  0.86685804231E+03  0.40728403501E+04  0.39795207817E+04 0.  0.
        3    1    3    3  502    0  0.51992088131E+03  0.37039605724E+03  0.23622006100E+04  0.24469374111E+04  0.10100000352E+00 0. -1.
       -3    1    3    3    0  502 -0.51992088131E+03 -0.37039605724E+03 -0.14953425677E+04  0.16259029390E+04  0.10100000352E+00 0.  1.
</event>
<event>
 5   0  0.2078125E-09  0.3998000E+04  0.7818609E-02  0.8004950E-01
       -1   -1    0    0    0  501  0.00000000000E+00  0.00000000000E+00  0.16162322340E+04  0.16162322340E+04  0.50400001928E-02 0. -1.
        1   -1    0    0  501    0  0.00000000000E+00  0.00000000000E+00 -0.24724179289E+04  0.24724179290E+04  0.50400001928E-02 0.  1.
    10030    2    1    2    0    0  0.00000000000E+00  0.00000000000E+00 -0.85618569495E+03  0.40886501630E+04  0.39980002765E+04 0.  0.
        4    1    3    3  502    0  0.17878935700E+04  0.81326691020E+03 -0.48140342580E+02  0.19647609499E+04  0.12699999809E+01 0.  1.
       -4    1    3    3    0  502 -0.17878935700E+04 -0.81326691020E+03 -0.80804535237E+03  0.21238892130E+04  0.12699999809E+01 0. -1.
</event>
<event>
 5   0  0.6538370E-09  0.3999985E+04  0.7818609E-02  0.8004549E-01
        2   -1    0    0  501    0  0.00000000000E+00  0.00000000000E+00  0.27978809053E+04  0.27978809053E+04  0.25500000920E-02 0.  1.
       -2   -1    0    0    0  501  0.00000000000E+00  0.00000000000E+00 -0.14296429921E+04  0.14296429921E+04  0.25500000920E-02 0. -1.
    10030    2    1    2    0    0  0.00000000000E+00  0.00000000000E+00  0.13682379132E+04  0.42275238975E+04  0.39999854145E+04 0.  0.
        4    1    3    3  502    0 -0.55285571843E+03  0.10393914731E+04 -0.10246337695E+04  0.15607242082E+04  0.12699999809E+01 0. -1.
       -4    1    3    3    0  502  0.55285571843E+03 -0.10393914731E+04  0.23928716827E+04  0.26667996892E+04  0.12699999809E+01 0.  1.
</event>
<event>
 5   0  0.6736335E-09  0.3999450E+04  0.7818609E-02  0.8004657E-01
        2   -1    0    0  501    0  0.00000000000E+00  0.00000000000E+00  0.22655567540E+04  0.22655567540E+04  0.25500000920E-02 0.  1.
       -2   -1    0    0    0  501  0.00000000000E+00  0.00000000000E+00 -0.17650850995E+04  0.17650850995E+04  0.25500000920E-02 0. -1.
    10030    2    1    2    0    0  0.00000000000E+00  0.00000000000E+00  0.50047165447E+03  0.40306418535E+04  0.39994501965E+04 0.  0.
        1    1    3    3  502    0 -0.18212962665E+04  0.35356644402E+03  0.10022261956E+04  0.21086931185E+04  0.50400001928E-02 0.  1.
       -1    1    3    3    0  502  0.18212962665E+04 -0.35356644402E+03 -0.50175454110E+03  0.19219487351E+04  0.50400001928E-02 0. -1.
</event>
<event>
 5   0  0.2078125E-09  0.4011382E+04  0.7818609E-02  0.8002254E-01
       -1   -1    0    0    0  501  0.00000000000E+00  0.00000000000E+00  0.21257474728E+04  0.21257474728E+04  0.50400001928E-02 0. -1.
        1   -1    0    0  501    0  0.00000000000E+00  0.00000000000E+00 -0.18924154060E+04  0.18924154060E+04  0.50400001928E-02 0.  1.
    10030    2    1    2    0    0  0.00000000000E+00  0.00000000000E+00  0.23333206687E+03  0.40181628788E+04  0.40113824384E+04 0.  0.
        3    1    3    3  502    0 -0.60964081679E+03 -0.11201704935E+04  0.16672985999E+04  0.20991256493E+04  0.10100000352E+00 0. -1.
       -3    1    3    3    0  502  0.60964081679E+03  0.11201704935E+04 -0.14339665331E+04  0.19190372295E+04  0.10100000352E+00 0.  1.
</event>
<event>
 5   0  0.6645526E-09  0.3999748E+04  0.7818609E-02  0.8004597E-01
       -2   -1    0    0    0  501  0.00000000000E+00  0.00000000000E+00  0.13691476845E+04  0.13691476845E+04  0.25500000920E-02 0.  1.
        2   -1    0    0  501    0  0.00000000000E+00  0.00000000000E+00 -0.29211580413E+04  0.29211580413E+04  0.25500000920E-02 0. -1.
    10030    2    1    2    0    0  0.00000000000E+00  0.00000000000E+00 -0.15520103567E+04  0.42903057258E+04  0.39997483762E+04 0.  0.
        3    1    3    3  502    0 -0.31011481330E+03 -0.17754329617E+04  0.15365187334E+03  0.18088511015E+04  0.10100000352E+00 0. -1.
       -3    1    3    3    0  502  0.31011481330E+03  0.17754329617E+04 -0.17056622301E+04  0.24814546243E+04  0.10100000352E+00 0.  1.
</event>
<event>
 5   0  0.2078125E-09  0.4001288E+04  0.7818609E-02  0.8004287E-01
        1   -1    0    0  501    0  0.00000000000E+00  0.00000000000E+00  0.20908986716E+04  0.20908986716E+04  0.50400001928E-02 0.  1.
       -1   -1    0    0    0  501  0.00000000000E+00  0.00000000000E+00 -0.19142851218E+04  0.19142851219E+04  0.50400001928E-02 0. -1.
    10030    2    1    2    0    0  0.00000000000E+00  0.00000000000E+00  0.17661354971E+03  0.40051837934E+04  0.40012879018E+04 0.  0.
        4    1    3    3  502    0 -0.43257150826E+03  0.19251470277E+04 -0.24256827047E+03  0.19880015510E+04  0.12699999809E+01 0. -1.
       -4    1    3    3    0  502  0.43257150826E+03 -0.19251470277E+04  0.41918182017E+03  0.20171822424E+04  0.12699999809E+01 0.  1.
</event>
<event>
 5   0  0.6599276E-09  0.3998934E+04  0.7818609E-02  0.8004762E-01
       -2   -1    0    0    0  501  0.00000000000E+00  0.00000000000E+00  0.14605541317E+04  0.14605541317E+04  0.25500000920E-02 0.  1.
        2   -1    0    0  501    0  0.00000000000E+00  0.00000000000E+00 -0.27372265215E+04  0.27372265215E+04  0.25500000920E-02 0. -1.
    10030    2    1    2    0    0  0.00000000000E+00  0.00000000000E+00 -0.12766723897E+04  0.41977806532E+04  0.39989336106E+04 0.  0.
        2    1    3    3  502    0  0.16640746875E+04 -0.16516725057E+03  0.51227099228E+03  0.17489557901E+04  0.25500000920E-02 0. -1.
       -2    1    3    3    0  502 -0.16640746875E+04  0.16516725057E+03 -0.17889433820E+04  0.24488248631E+04  0.25500000920E-02 0.  1.
</event>
<event>
 5   0  0.2078125E-09  0.3997538E+04  0.7818609E-02  0.8005043E-01
        1   -1    0    0  501    0  0.00000000000E+00  0.00000000000E+00  0.17366784183E+04  0.17366784183E+04  0.50400001928E-02 0. -1.
       -1   -1    0    0    0  501  0.00000000000E+00  0.00000000000E+00 -0.23004132773E+04  0.23004132773E+04  0.50400001928E-02 0.  1.
    10030    2    1    2    0    0  0.00000000000E+00  0.00000000000E+00 -0.56373485899E+03  0.40370916956E+04  0.39975382884E+04 0.  0.
        4    1    3    3  502    0  0.60864454764E+03  0.16944077591E+04 -0.11585643727E+04  0.21409668045E+04  0.12699999809E+01 0.  1.
       -4    1    3    3    0  502 -0.60864454764E+03 -0.16944077591E+04  0.59482951376E+03  0.18961248911E+04  0.12699999809E+01 0. -1.
</event>
<event>
 5   0  0.2078125E-09  0.3998547E+04  0.7818609E-02  0.8004840E-01
        1   -1    0    0  501    0  0.00000000000E+00  0.00000000000E+00  0.15190082571E+04  0.15190082571E+04  0.50400001928E-02 0.  1.
       -1   -1    0    0    0  501  0.00000000000E+00  0.00000000000E+00 -0.26313842228E+04  0.26313842228E+04  0.50400001928E-02 0. -1.
    10030    2    1    2    0    0  0.00000000000E+00  0.00000000000E+00 -0.11123759656E+04  0.41503924799E+04  0.39985469171E+04 0.  0.
        1    1    3    3  502    0 -0.12115892221E+02 -0.13185545121E+04 -0.21160411116E+04  0.24932634803E+04  0.50400001928E-02 0. -1.
       -1    1    3    3    0  502  0.12115892221E+02  0.13185545121E+04  0.10036651459E+04  0.16571289996E+04  0.50400001928E-02 0.  1.
</event>
<event>
 5   0  0.2078125E-09  0.4000020E+04  0.7818609E-02  0.8004543E-01
       -1   -1    0    0    0  501  0.00000000000E+00  0.00000000000E+00  0.18485574543E+04  0.18485574543E+04  0.50400001928E-02 0. -1.
        1   -1    0    0  501    0  0.00000000000E+00  0.00000000000E+00 -0.21638708599E+04  0.21638708599E+04  0.50400001928E-02 0.  1.
    10030    2    1    2    0    0  0.00000000000E+00  0.00000000000E+00 -0.31531340559E+03  0.40124283142E+04  0.40000198041E+04 0.  0.
        2    1    3    3  502    0 -0.81337607318E+03  0.17337249283E+04 -0.73621000509E+03  0.20516792964E+04  0.25500000920E-02 0.  1.
       -2    1    3    3    0  502  0.81337607318E+03 -0.17337249283E+04  0.42089659950E+03  0.19607490179E+04  0.25500000920E-02 0. -1.
</event>
<event>
 5   0  0.6599276E-09  0.3999316E+04  0.7818609E-02  0.8004685E-01
       -2   -1    0    0    0  501  0.00000000000E+00  0.00000000000E+00  0.12996975917E+04  0.12996975917E+04  0.25500000920E-02 0.  1.
        2   -1    0    0  501    0  0.00000000000E+00  0.00000000000E+00 -0.30765864083E+04  0.30765864083E+04  0.25500000920E-02 0. -1.
    10030    2    1    2    0    0  0.00000000000E+00  0.00000000000E+00 -0.17768888166E+04  0.43762840000E+04  0.39993159143E+04 0.  0.
        2    1    3    3  502    0 -0.15605311084E+04 -0.54012997143E+03 -0.21224038622E+04  0.26891626727E+04  0.25500000920E-02 0. -1.
       -2    1    3    3    0  502  0.15605311084E+04  0.54012997143E+03  0.34551504562E+03  0.16871213273E+04  0.25500000920E-02 0.  1.
</event>
<event>
 5   0  0.6736335E-09  0.4011700E+04  0.7818609E-02  0.8002190E-01
        2   -1    0    0  501    0  0.00000000000E+00  0.00000000000E+00  0.25233300438E+04  0.25233300438E+04  0.25500000920E-02 0.  1.
       -2   -1    0    0    0  501  0.00000000000E+00  0.00000000000E+00 -0.15944941957E+04  0.15944941957E+04  0.25500000920E-02 0. -1.
    10030    2    1    2    0    0  0.00000000000E+00  0.00000000000E+00  0.92883584815E+03  0.41178242395E+04  0.40117004418E+04 0.  0.
        1    1    3    3  502    0 -0.61712111937E+03  0.29378187667E+03 -0.14712810639E+04  0.16222867306E+04  0.50400001928E-02 0. -1.
       -1    1    3    3    0  502  0.61712111937E+03 -0.29378187667E+03  0.24001169121E+04  0.24955375090E+04  0.50400001928E-02 0.  1.
</event>
<event>
 5   0  0.6547327E-09  0.3998784E+04  0.7818609E-02  0.8004792E-01
        2   -1    0    0  501    0  0.00000000000E+00  0.00000000000E+00  0.16382042733E+04  0.16382042733E+04  0.25500000920E-02 0. -1.
       -2   -1    0    0    0  501  0.00000000000E+00  0.00000000000E+00 -0.24402135495E+04  0.24402135495E+04  0.25500000920E-02 0.  1.
    10030    2    1    2    0    0  0.00000000000E+00  0.00000000000E+00 -0.80200927620E+03  0.40784178227E+04  0.39987839473E+04 0.  0.
        5    1    3    3  502    0 -0.18344168034E+04 -0.45687472109E+03 -0.10649107523E+04  0.21697641623E+04  0.46999998093E+01 0.  1.
       -5    1    3    3    0  502  0.18344168034E+04  0.45687472109E+03  0.26290147611E+03  0.19086536605E+04  0.46999998093E+01 0. -1.
</event>
<event>
 5   0  0.6736335E-09  0.4000689E+04  0.7818609E-02  0.8004408E-01
       -2   -1    0    0    0  501  0.00000000000E+00  0.00000000000E+00  0.13925578623E+04  0.13925578623E+04  0.25500000920E-02 0.  1.
        2   -1    0    0  501    0  0.00000000000E+00  0.00000000000E+00 -0.28734011630E+04  0.28734011630E+04  0.25500000920E-02 0. -1.
    10030    2    1    2    0    0  0.00000000000E+00  0.00000000000E+00 -0.14808433008E+04  0.42659590253E+04  0.40006886312E+04 0.  0.
        1    1    3    3  502    0  0.85226052376E+03  0.45585770597E+02 -0.26695081445E+04  0.28026237344E+04  0.50400001928E-02 0. -1.
       -1    1    3    3    0  502 -0.85226052376E+03 -0.45585770597E+02  0.11886648437E+04  0.14633352909E+04  0.50400001928E-02 0.  1.
</event>
<event>
 5   0  0.2078125E-09  0.4004692E+04  0.7818609E-02  0.8003601E-01
       -1   -1    0    0    0  501  0.00000000000E+00  0.00000000000E+00  0.24604548134E+04  0.24604548134E+04  0.50400001928E-02 0.  1.
        1   -1    0    0  501    0  0.00000000000E+00  0.00000000000E+00 -0.16295321324E+04  0.16295321324E+04  0.50400001928E-02 0. -1.
    10030    2    1    2    0    0  0.00000000000E+00  0.00000000000E+00  0.83092268096E+03  0.40899869458E+04  0.40046923371E+04 0.  0.
        1    1    3    3  502    0  0.19114316184E+04  0.20316970336E+03 -0.15732372459E+03  0.19286263284E+04  0.50400001928E-02 0.  1.
       -1    1    3    3    0  502 -0.19114316184E+04 -0.20316970336E+03  0.98824640555E+03  0.21613606174E+04  0.50400001928E-02 0. -1.
</event>
<event>
 5   0  0.6547327E-09  0.4000658E+04  0.7818609E-02  0.8004414E-01
       -2   -1    0    0    0  501  0.00000000000E+00  0.00000000000E+00  0.19077833286E+04  0.19077833286E+04  0.25500000920E-02 0. -1.
        2   -1    0    0  501    0  0.00000000000E+00  0.00000000000E+00 -0.20973640306E+04  0.20973640306E+04  0.25500000920E-02 0.  1.
    10030    2    1    2    0    0  0.00000000000E+00  0.00000000000E+00 -0.18958070194E+03  0.40051473592E+04  0.40006580117E+04 0.  0.
        5    1    3    3  502    0  0.15645325696E+03  0.29308006133E+03  0.18799647751E+04  0.19091000994E+04  0.46999998093E+01 0. -1.
       -5    1    3    3    0  502 -0.15645325696E+03 -0.29308006133E+03 -0.20695454770E+04  0.20960472598E+04  0.46999998093E+01 0.  1.
</event>
<event>
 5   0  0.6538370E-09  0.3996819E+04  0.7818609E-02  0.8005189E-01
        2   -1    0    0  501    0  0.00000000000E+00  0.00000000000E+00  0.15413265110E+04  0.15413265110E+04  0.25500000920E-02 0. -1.
       -2   -1    0    0    0  501  0.00000000000E+00  0.00000000000E+00 -0.25910415089E+04  0.25910415089E+04  0.25500000920E-02 0.  1.
    10030    2    1    2    0    0  0.00000000000E+00  0.00000000000E+00 -0.10497149980E+04  0.41323680199E+04  0.39968192197E+04 0.  0.
        4    1    3    3  502    0  0.56982743212E+03  0.86955903732E+03 -0.22894322204E+04  0.25144259238E+04  0.12699999809E+01 0.  1.
       -4    1    3    3    0  502 -0.56982743212E+03 -0.86955903732E+03  0.12397172224E+04  0.16179420961E+04  0.12699999809E+01 0. -1.
</event>
<event>
 5   0  0.6538370E-09  0.4000270E+04  0.7818609E-02  0.8004492E-01
       -2   -1    0    0    0  501  0.00000000000E+00  0.00000000000E+00  0.18381778682E+04  0.18381778682E+04  0.25500000920E-02 0. -1.
        2   -1    0    0  501    0  0.00000000000E+00  0.00000000000E+00 -0.21763617821E+04  0.21763617821E+04  0.25500000920E-02 0.  1.
    10030    2    1    2    0    0  0.00000000000E+00  0.00000000000E+00 -0.33818391385E+03  0.40145396503E+04  0.40002700214E+04 0.  0.
        4    1    3    3  502    0  0.30560596366E+03  0.40679442147E+03 -0.21103296068E+04  0.21707992465E+04  0.12699999809E+01 0.  1.
       -4    1    3    3    0  502 -0.30560596366E+03 -0.40679442147E+03  0.17721456930E+04  0.18437404037E+04  0.12699999809E+01 0. -1.
</event>
<event>
 5   0  0.2078125E-09  0.4001005E+04  0.7818609E-02  0.8004344E-01
       -1   -1    0    0    0  501  0.00000000000E+00  0.00000000000E+00  0.12735811682E+04  0.12735811682E+04  0.50400001928E-02 0.  1.
        1   -1    0    0  501    0  0.00000000000E+00  0.00000000000E+00 -0.31423276926E+04  0.31423276926E+04  0.50400001928E-02 0. -1.
    10030    2    1    2    0    0  0.00000000000E+00  0.00000000000E+00 -0.18687465244E+04  0.44159088608E+04  0.40010045606E+04 0.  0.
        2    1    3    3  502    0 -0.82712455514E+03 -0.10799323719E+04 -0.25533249292E+04  0.28930705404E+04  0.25500000920E-02 0. -1.
       -2    1    3    3    0  502  0.82712455514E+03  0.10799323719E+04  0.68457840484E+03  0.15228383203E+04  0.25500000920E-02 0.  1.
</event>
<event>
 5   0  0.2078125E-09  0.3999123E+04  0.7818609E-02  0.8004723E-01
        1   -1    0    0  501    0  0.00000000000E+00  0.00000000000E+00  0.19882071880E+04  0.19882071880E+04  0.50400001928E-02 0.  1.
       -1   -1    0    0    0  501  0.00000000000E+00  0.00000000000E+00 -0.20109809433E+04  0.20109809434E+04  0.50400001928E-02 0. -1.
    10030    2    1    2    0    0  0.00000000000E+00  0.00000000000E+00 -0.22773755335E+02  0.39991881314E+04  0.39991232872E+04 0.  0.
        3    1    3    3  502    0 -0.11581115792E+04 -0.22124418973E+03  0.16035929716E+04  0.19903974101E+04  0.10100000352E+00 0.  1.
       -3    1    3    3    0  502  0.11581115792E+04  0.22124418973E+03 -0.16263667269E+04  0.20087907213E+04  0.10100000352E+00 0. -1.
</event>
<event>
 5   0  0.2078125E-09  0.4001956E+04  0.7818609E-02  0.8004152E-01
       -1   -1    0    0    0  501  0.00000000000E+00  0.00000000000E+00  0.14139424946E+04  0.14139424946E+04  0.50400001928E-02 0.  1.
        1   -1    0    0  501    0  0.00000000000E+00  0.00000000000E+00 -0.28317368213E+04  0.28317368213E+04  0.50400001928E-02 0. -1.
    10030    2    1    2    0    0  0.00000000000E+00  0.00000000000E+00 -0.14177943267E+04  0.42456793159E+04  0.40019560343E+04 0.  0.
        5    1    3    3  502    0  0.27111561363E+03  0.40247163048E+03  0.13505639404E+04  0.14351070122E+04  0.46999998093E+01 0.  1.
       -5    1    3    3    0  502 -0.27111561363E+03 -0.40247163048E+03 -0.27683582671E+04  0.28105723037E+04  0.46999998093E+01 0. -1.
</event>
<event>
 5   0  0.6538370E-09  0.4001154E+04  0.7818609E-02  0.8004314E-01
       -2   -1    0    0    0  501  0.00000000000E+00  0.00000000000E+00  0.20999675251E+04  0.20999675251E+04  0.25500000920E-02 0. -1.
        2   -1    0    0  501    0  0.00000000000E+00  0.00000000000E+00 -0.19058905151E+04  0.19058905151E+04  0.25500000920E-02 0.  1.
    10030    2    1    2    0    0  0.00000000000E+00  0.00000000000E+00  0.19407700997E+03  0.40058580402E+04  0.40011539277E+04 0.  0.
        4    1    3    3  502    0 -0.40692594049E+03  0.38158673928E+03  0.20205232879E+04  0.20961185869E+04  0.12699999809E+01 0. -1.
       -4    1    3    3    0  502  0.40692594049E+03 -0.38158673928E+03 -0.18264462779E+04  0.19097394533E+04  0.12699999809E+01 0.  1.
</event>
<event>
 5   0  0.6547327E-09  0.4002922E+04  0.7818609E-02  0.8003957E-01
        2   -1    0    0  501    0  0.00000000000E+00  0.00000000000E+00  0.24669433867E+04  0.24669433867E+04  0.25500000920E-02 0.  1.
       -2   -1    0    0    0  501  0.00000000000E+00  0.00000000000E+00 -0.16238096206E+04  0.16238096206E+04  0.25500000920E-02 0. -1.
    10030    2    1    2    0    0  0.00000000000E+00  0.00000000000E+00  0.84313376610E+03  0.40907530073E+04  0.40029221350E+04 0.  0.
        5    1    3    3  502    0  0.17585254424E+03  0.19505028413E+04  0.84346776288E+03  0.21323333248E+04  0.46999998093E+01 0. -1.
       -5    1    3    3    0  502 -0.17585254424E+03 -0.19505028413E+04 -0.33399677995E+00  0.19584196825E+04  0.46999998093E+01 0.  1.
</event>
<event>
 5   0  0.6736335E-09  0.3998780E+04  0.7818609E-02  0.8004793E-01
        2   -1    0    0  501    0  0.00000000000E+00  0.00000000000E+00  0.20612356627E+04  0.20612356627E+04  0.25500000920E-02 0. -1.
       -2   -1    0    0    0  501  0.00000000000E+00  0.00000000000E+00 -0.19394002166E+04  0.19394002166E+04  0.25500000920E-02 0.  1.
    10030    2    1    2    0    0  0.00000000000E+00  0.00000000000E+00  0.12183544619E+03  0.40006358793E+04  0.39987802594E+04 0.  0.
        1    1    3    3  502    0 -0.14167570068E+04  0.14008183795E+04  0.22853155994E+03  0.20054224548E+04  0.50400001928E-02 0. -1.
       -1    1    3    3    0  502  0.14167570068E+04 -0.14008183795E+04 -0.10669611376E+03  0.19952134245E+04  0.50400001928E-02 0.  1.
</event>
<event>
 5   0  0.6736335E-09  0.3999970E+04  0.7818609E-02  0.8004553E-01
        2   -1    0    0  501    0  0.00000000000E+00  0.00000000000E+00  0.23075769518E+04  0.23075769518E+04  0.25500000920E-02 0. -1.
       -2   -1    0    0    0  501  0.00000000000E+00  0.00000000000E+00 -0.17333936030E+04  0.17333936030E+04  0.25500000920E-02 0.  1.
    10030    2    1    2    0    0  0.00000000000E+00  0.00000000000E+00  0.57418334873E+03  0.40409705548E+04  0.39999695633E+04 0.  0.
        1    1    3    3  502    0  0.10311075848E+04  0.69083364677E+03 -0.12972646696E+04  0.17953633621E+04  0.50400001928E-02 0.  1.
       -1    1    3    3    0  502 -0.10311075848E+04 -0.69083364677E+03  0.18714480183E+04  0.22456071928E+04  0.50400001928E-02 0. -1.
</event>
<event>
 5   0  0.6538370E-09  0.3997664E+04  0.7818609E-02  0.8005018E-01
       -2   -1    0    0    0  501  0.00000000000E+00  0.00000000000E+00  0.15147237675E+04  0.15147237675E+04  0.25500000920E-02 0.  1.
        2   -1    0    0  501    0  0.00000000000E+00  0.00000000000E+00 -0.26376622017E+04  0.26376622017E+04  0.25500000920E-02 0. -1.
    10030    2    1    2    0    0  0.00000000000E+00  0.00000000000E+00 -0.11229384342E+04  0.41523859692E+04  0.39976641317E+04 0.  0.
        4    1    3    3  502    0 -0.11551346452E+03  0.17774238586E+04 -0.15036301982E+04  0.23309835519E+04  0.12699999809E+01 0. -1.
       -4    1    3    3    0  502  0.11551346452E+03 -0.17774238586E+04  0.38069176398E+03  0.18214024172E+04  0.12699999809E+01 0.  1.
</event>
<event>
 5   0  0.2078125E-09  0.4000528E+04  0.7818609E-02  0.8004440E-01
       -1   -1    0    0    0  501  0.00000000000E+00  0.00000000000E+00  0.23045729946E+04  0.23045729946E+04  0.50400001928E-02 0. -1.
        1   -1    0    0  501    0  0.00000000000E+00  0.00000000000E+00 -0.17361373620E+04  0.17361373620E+04  0.50400001928E-02 0.  1.
    10030    2    1    2    0    0  0.00000000000E+00  0.00000000000E+00  0.56843563259E+03  0.40407103565E+04  0.40005276048E+04 0.  0.
        4    1    3    3  502    0 -0.99433253138E+03  0.17119366194E+04  0.57279633691E+03  0.20609515832E+04  0.12699999809E+01 0.  1.
       -4    1    3    3    0  502  0.99433253138E+03 -0.17119366194E+04 -0.43607043200E+01  0.19797587733E+04  0.12699999809E+01 0. -1.
</event>
<event>
 5   0  0.6538370E-09  0.4003138E+04  0.7818609E-02  0.8003914E-01
       -2   -1    0    0    0  501  0.00000000000E+00  0.00000000000E+00  0.23744325505E+04  0.23744325505E+04  0.25500000920E-02 0.  1.
        2   -1    0    0  501    0  0.00000000000E+00  0.00000000000E+00 -0.16872575470E+04  0.16872575470E+04  0.25500000920E-02 0. -1.
    10030    2    1    2    0    0  0.00000000000E+00  0.00000000000E+00  0.68717500351E+03  0.40616900975E+04  0.40031383892E+04 0.  0.
        4    1    3    3  502    0 -0.34077899323E+03  0.19473032886E+04  0.66147048338E+03  0.20846259217E+04  0.12699999809E+01 0.  1.
       -4    1    3    3    0  502  0.34077899323E+03 -0.19473032886E+04  0.25704520127E+02  0.19770641758E+04  0.12699999809E+01 0. -1.
</event>
<event>
 5   0  0.2078125E-09  0.3999864E+04  0.7818609E-02  0.8004574E-01
        1   -1    0    0  501    0  0.00000000000E+00  0.00000000000E+00  0.19148490144E+04  0.19148490144E+04  0.50400001928E-02 0. -1.
       -1   -1    0    0    0  501  0.00000000000E+00  0.00000000000E+00 -0.20887959105E+04  0.20887959105E+04  0.50400001928E-02 0.  1.
    10030    2    1    2    0    0  0.00000000000E+00  0.00000000000E+00 -0.17394689611E+03  0.40036449249E+04  0.39998643929E+04 0.  0.
        3    1    3    3  502    0 -0.92439342909E+03  0.11412625546E+04 -0.14457340573E+04  0.20608567162E+04  0.10100000352E+00 0.  1.
       -3    1    3    3    0  502  0.92439342909E+03 -0.11412625546E+04  0.12717871612E+04  0.19427882086E+04  0.10100000352E+00 0. -1.
</event>
<event>
 5   0  0.2078125E-09  0.3999362E+04  0.7818609E-02  0.8004675E-01
       -1   -1    0    0    0  501  0.00000000000E+00  0.00000000000E+00  0.18456122653E+04  0.18456122653E+04  0.50400001928E-02 0. -1.
        1   -1    0    0  501    0  0.00000000000E+00  0.00000000000E+00 -0.21666108466E+04  0.21666108466E+04  0.50400001928E-02 0.  1.
    10030    2    1    2    0    0  0.00000000000E+00  0.00000000000E+00 -0.32099858135E+03  0.40122231119E+04  0.39993617253E+04 0.  0.
        4    1    3    3  502    0 -0.62154082695E+03  0.18629138846E+04  0.21748922633E+03  0.19758705214E+04  0.12699999809E+01 0.  1.
       -4    1    3    3    0  502  0.62154082695E+03 -0.18629138846E+04 -0.53848780768E+03  0.20363525905E+04  0.12699999809E+01 0. -1.
</event>
<event>
 5   0  0.2078125E-09  0.3999676E+04  0.7818609E-02  0.8004612E-01
       -1   -1    0    0    0  501  0.00000000000E+00  0.00000000000E+00  0.12379986216E+04  0.12379986216E+04  0.50400001928E-02 0. -1.
        1   -1    0    0  501    0  0.00000000000E+00  0.00000000000E+00 -0.32304976004E+04  0.32304976004E+04  0.50400001928E-02 0.  1.
    10030    2    1    2    0    0  0.00000000000E+00  0.00000000000E+00 -0.19924989788E+04  0.44684962219E+04  0.39996757750E+04 0.  0.
        2    1    3    3  502    0  0.23367884058E+03 -0.17747319569E+04 -0.19924342810E+04  0.26784461323E+04  0.25500000920E-02 0.  1.
       -2    1    3    3    0  502 -0.23367884058E+03  0.17747319569E+04 -0.64697803157E-01  0.17900500897E+04  0.25500000920E-02 0. -1.
</event>
<event>
 5   0  0.6736335E-09  0.4002137E+04  0.7818609E-02  0.8004116E-01
       -2   -1    0    0    0  501  0.00000000000E+00  0.00000000000E+00  0.27419940792E+04  0.27419940792E+04  0.25500000920E-02 0. -1.
        2   -1    0    0  501    0  0.00000000000E+00  0.00000000000E+00 -0.14603511271E+04  0.14603511271E+04  0.25500000920E-02 0.  1.
    10030    2    1    2    0    0  0.00000000000E+00  0.00000000000E+00  0.12816429521E+04  0.42023452063E+04  0.40021365015E+04 0.  0.
        1    1    3    3  502    0  0.22615391781E+03 -0.16230346281E+04 -0.56505728406E+03  0.17334003383E+04  0.50400001928E-02 0.  1.
       -1    1    3    3    0  502 -0.22615391781E+03  0.16230346281E+04  0.18467002362E+04  0.24689448680E+04  0.50400001928E-02 0. -1.
</event>
<event>
 5   0  0.2078125E-09  0.4002461E+04  0.7818609E-02  0.8004050E-01
        1   -1    0    0  501    0  0.00000000000E+00  0.00000000000E+00  0.23702084263E+04  0.23702084263E+04  0.50400001928E-02 0. -1.
       -1   -1    0    0    0  501  0.00000000000E+00  0.00000000000E+00 -0.16896921653E+04  0.16896921653E+04  0.50400001928E-02 0.  1.
    10030    2    1    2    0    0  0.00000000000E+00  0.00000000000E+00  0.68051626106E+03  0.40599005916E+04  0.40024605472E+04 0.  0.
        3    1    3    3  502    0  0.62583614000E+03 -0.85228943614E+03 -0.13832001836E+04  0.17410660284E+04  0.10100000352E+00 0.  1.
       -3    1    3    3    0  502 -0.62583614000E+03  0.85228943614E+03  0.20637164447E+04  0.23188345632E+04  0.10100000352E+00 0. -1.
</event>
<event>
 5   0  0.6736335E-09  0.4004201E+04  0.7818609E-02  0.8003700E-01
        2   -1    0    0  501    0  0.00000000000E+00  0.00000000000E+00  0.15773390860E+04  0.15773390860E+04  0.25500000920E-02 0.  1.
       -2   -1    0    0    0  501  0.00000000000E+00  0.00000000000E+00 -0.25412456252E+04  0.25412456252E+04  0.25500000920E-02 0. -1.
    10030    2    1    2    0    0  0.00000000000E+00  0.00000000000E+00 -0.96390653920E+03  0.41185847113E+04  0.40042008201E+04 0.  0.
        1    1    3    3  502    0  0.73000519107E+02 -0.57107152597E+03 -0.24542682264E+04  0.25208895832E+04  0.50400001928E-02 0. -1.
       -1    1    3    3    0  502 -0.73000519107E+02  0.57107152597E+03  0.14903616872E+04  0.15976951281E+04  0.50400001928E-02 0.  1.
</event>
<event>
 5   0  0.6599276E-09  0.4000435E+04  0.7818609E-02  0.8004459E-01
       -2   -1    0    0    0  501  0.00000000000E+00  0.00000000000E+00  0.22556900534E+04  0.22556900534E+04  0.25500000920E-02 0. -1.
        2   -1    0    0  501    0  0.00000000000E+00  0.00000000000E+00 -0.17736786411E+04  0.17736786411E+04  0.25500000920E-02 0.  1.
    10030    2    1    2    0    0  0.00000000000E+00  0.00000000000E+00  0.48201141237E+03  0.40293686945E+04  0.40004346107E+04 0.  0.
        2    1    3    3  502    0 -0.15126765008E+04  0.12875761348E+04  0.47685042772E+03  0.20428971657E+04  0.25500000920E-02 0. -1.
       -2    1    3    3    0  502  0.15126765008E+04 -0.12875761348E+04  0.51609846561E+01  0.19864715288E+04  0.25500000920E-02 0.  1.
</event>
<event>
 5   0  0.6538370E-09  0.3999565E+04  0.7818609E-02  0.8004634E-01
        2   -1    0    0  501    0  0.00000000000E+00  0.00000000000E+00  0.22662727871E+04  0.22662727871E+04  0.25500000920E-02 0.  1.
       -2   -1    0    0    0  501  0.00000000000E+00  0.00000000000E+00 -0.17646289996E+04  0.17646289996E+04  0.25500000920E-02 0. -1.
    10030    2    1    2    0    0  0.00000000000E+00  0.00000000000E+00  0.50164378752E+03  0.40309017868E+04  0.39995653170E+04 0.  0.
        4    1    3    3  502    0 -0.89856587255E+03 -0.96082247997E+03 -0.12671423886E+04  0.18265409690E+04  0.12699999809E+01 0. -1.
       -4    1    3    3    0  502  0.89856587255E+03  0.96082247997E+03  0.17687861761E+04  0.22043608178E+04  0.12699999809E+01 0.  1.
</event>
<event>
 5   0  0.2078125E-09  0.4000564E+04  0.7818609E-02  0.8004433E-01
        1   -1    0    0  501    0  0.00000000000E+00  0.00000000000E+00  0.12160397386E+04  0.12160397387E+04  0.50400001928E-02 0. -1.
       -1   -1    0    0    0  501  0.00000000000E+00  0.00000000000E+00 -0.32902937823E+04  0.32902937823E+04  0.50400001928E-02 0.  1.
    10030    2    1    2    0    0  0.00000000000E+00  0.00000000000E+00 -0.20742540437E+04  0.45063335210E+04  0.40005639558E+04 0.  0.
        4    1    3    3  502    0  0.15872830406E+03  0.19567415920E+04 -0.14691428515E+04  0.24520225659E+04  0.12699999809E+01 0.  1.
       -4    1    3    3    0  502 -0.15872830406E+03 -0.19567415920E+04 -0.60511119216E+03  0.20543109551E+04  0.12699999809E+01 0. -1.
</event>
<event>
 5   0  0.2078125E-09  0.3999090E+04  0.7818609E-02  0.8004730E-01
       -1   -1    0    0    0  501  0.00000000000E+00  0.00000000000E+00  0.16979561453E+04  0.16979561453E+04  0.50400001928E-02 0.  1.
        1   -1    0    0  501    0  0.00000000000E+00  0.00000000000E+00 -0.23547020059E+04  0.23547020059E+04  0.50400001928E-02 0. -1.
    10030    2    1    2    0    0  0.00000000000E+00  0.00000000000E+00 -0.65674586056E+03  0.40526581513E+04  0.39990902672E+04 0.  0.
        1    1    3    3  502    0  0.50429922511E+03 -0.18786044642E+04  0.14120013887E+03  0.19502332990E+04  0.50400001928E-02 0.  1.
       -1    1    3    3    0  502 -0.50429922511E+03  0.18786044642E+04 -0.79794599943E+03  0.21024248522E+04  0.50400001928E-02 0. -1.
</event>
<event>
 5   0  0.6538370E-09  0.3999785E+04  0.7818609E-02  0.8004590E-01
        2   -1    0    0  501    0  0.00000000000E+00  0.00000000000E+00  0.18887410815E+04  0.18887410815E+04  0.25500000920E-02 0. -1.
       -2   -1    0    0    0  501  0.00000000000E+00  0.00000000000E+00 -0.21175848748E+04  0.21175848748E+04  0.25500000920E-02 0.  1.
    10030    2    1    2    0    0  0.00000000000E+00  0.00000000000E+00 -0.22884379330E+03  0.40063259563E+04  0.39997847675E+04 0.  0.
        4    1    3    3  502    0 -0.19657744855E+04  0.16162035161E+03 -0.44538239942E+03  0.20220676448E+04  0.12699999809E+01 0.  1.
       -4    1    3    3    0  502  0.19657744855E+04 -0.16162035161E+03  0.21653860613E+03  0.19842583115E+04  0.12699999809E+01 0. -1.
</event>
<event>
 5   0  0.6645526E-09  0.3999691E+04  0.7818609E-02  0.8004609E-01
       -2   -1    0    0    0  501  0.00000000000E+00  0.00000000000E+00  0.21148337494E+04  0.21148337494E+04  0.25500000920E-02 0. -1.
        2   -1    0    0  501    0  0.00000000000E+00  0.00000000000E+00 -0.18911093586E+04  0.18911093586E+04  0.25500000920E-02 0.  1.
    10030    2    1    2    0    0  0.00000000000E+00  0.00000000000E+00  0.22372439077E+03  0.40059431081E+04  0.39996909358E+04 0.  0.
        3    1    3    3  502    0 -0.32125290077E+02 -0.10862494076E+03 -0.18878936591E+04  0.18912889494E+04  0.10100000352E+00 0.  1.
       -3    1    3    3    0  502  0.32125290077E+02  0.10862494076E+03  0.21116180498E+04  0.21146541586E+04  0.10100000352E+00 0. -1.
</event>
<event>
 5   0  0.2078125E-09  0.3998451E+04  0.7818609E-02  0.8004859E-01
       -1   -1    0    0    0  501  0.00000000000E+00  0.00000000000E+00  0.20122821072E+04  0.20122821072E+04  0.50400001928E-02 0. -1.
        1   -1    0    0  501    0  0.00000000000E+00  0.00000000000E+00 -0.19862533615E+04  0.19862533615E+04  0.50400001928E-02 0.  1.
    10030    2    1    2    0    0  0.00000000000E+00  0.00000000000E+00  0.26028745652E+02  0.39985354687E+04  0.39984507498E+04 0.  0.
        2    1    3    3  502    0 -0.16863851817E+04  0.97502893320E+03 -0.43680144712E+03  0.19963396269E+04  0.25500000920E-02 0.  1.
       -2    1    3    3    0  502  0.16863851817E+04 -0.97502893320E+03  0.46283019278E+03  0.20021958418E+04  0.25500000920E-02 0. -1.
</event>
<event>
 5   0  0.2078125E-09  0.4002589E+04  0.7818609E-02  0.8004025E-01
       -1   -1    0    0    0  501  0.00000000000E+00  0.00000000000E+00  0.17760617304E+04  0.17760617304E+04  0.50400001928E-02 0.  1.
        1   -1    0    0  501    0  0.00000000000E+00  0.00000000000E+00 -0.22550898381E+04  0.22550898381E+04  0.50400001928E-02 0. -1.
    10030    2    1    2    0    0  0.00000000000E+00  0.00000000000E+00 -0.47902810777E+03  0.40311515685E+04  0.40025885425E+04 0.  0.
        3    1    3    3  502    0 -0.12356624539E+04  0.91304503658E+03 -0.15311110076E+04  0.21690582902E+04  0.10100000352E+00 0. -1.
       -3    1    3    3    0  502  0.12356624539E+04 -0.91304503658E+03  0.10520828998E+04  0.18620932783E+04  0.10100000352E+00 0.  1.
</event>
<event>
 5   0  0.6599276E-09  0.3999242E+04  0.7818609E-02  0.8004700E-01
        2   -1    0    0  501    0  0.00000000000E+00  0.00000000000E+00  0.14673764347E+04  0.14673764347E+04  0.25500000920E-02 0.  1.
       -2   -1    0    0    0  501  0.00000000000E+00  0.00000000000E+00 -0.27249201629E+04  0.27249201629E+04  0.25500000920E-02 0. -1.
    10030    2    1    2    0    0  0.00000000000E+00  0.00000000000E+00 -0.12575437282E+04  0.41922965976E+04  0.39992417448E+04 0.  0.
        2    1    3    3  502    0  0.10452657966E+04  0.16243534353E+04 -0.86723594153E+02  0.19335525982E+04  0.25500000920E-02 0. -1.
       -2    1    3    3    0  502 -0.10452657966E+04 -0.16243534353E+04 -0.11708201340E+04  0.22587439993E+04  0.25500000920E-02 0.  1.
</event>
<event>
 5   0  0.6538370E-09  0.3999549E+04  0.7818609E-02  0.8004638E-01
       -2   -1    0    0    0  501  0.00000000000E+00  0.00000000000E+00  0.14864478552E+04  0.14864478552E+04  0.25500000920E-02 0. -1.
        2   -1    0    0  501    0  0.00000000000E+00  0.00000000000E+00 -0.26903717043E+04  0.26903717043E+04  0.25500000920E-02 0.  1.
    10030    2    1    2    0    0  0.00000000000E+00  0.00000000000E+00 -0.12039238491E+04  0.41768195594E+04  0.39995485992E+04 0.  0.
        4    1    3    3  502    0 -0.17889239642E+04 -0.71304852972E+03 -0.39180981089E+02  0.19261941537E+04  0.12699999809E+01 0. -1.
       -4    1    3    3    0  502  0.17889239642E+04  0.71304852972E+03 -0.11647428680E+04  0.22506254058E+04  0.12699999809E+01 0.  1.
</event>
<event>
 5   0  0.2078125E-09  0.3997618E+04  0.7818609E-02  0.8005027E-01
       -1   -1    0    0    0  501  0.00000000000E+00  0.00000000000E+00  0.17235602374E+04  0.17235602374E+04  0.50400001928E-02 0. -1.
        1   -1    0    0  501    0  0.00000000000E+00  0.00000000000E+00 -0.23180147252E+04  0.23180147252E+04  0.50400001928E-02 0.  1.
    10030    2    1    2    0    0  0.00000000000E+00  0.00000000000E+00 -0.59445448777E+03  0.40415749626E+04  0.39976182960E+04 0.  0.
        1    1    3    3  502    0  0.67296810189E+03  0.10598731888E+03  0.16025621929E+04  0.17413572179E+04  0.50400001928E-02 0. -1.
       -1    1    3    3    0  502 -0.67296810189E+03 -0.10598731888E+03 -0.21970166807E+04  0.23002177447E+04  0.50400001928E-02 0.  1.
</event>
<event>
 5   0  0.2078125E-09  0.4000058E+04  0.7818609E-02  0.8004535E-01
       -1   -1    0    0    0  501  0.00000000000E+00  0.00000000000E+00  0.25342182927E+04  0.25342182927E+04  0.50400001928E-02 0. -1.
        1   -1    0    0  501    0  0.00000000000E+00  0.00000000000E+00 -0.15784414309E+04  0.15784414309E+04  0.50400001928E-02 0.  1.
    10030    2    1    2    0    0  0.00000000000E+00  0.00000000000E+00  0.95577686185E+03  0.41126597236E+04  0.40000575736E+04 0.  0.
        1    1    3    3  502    0  0.19339160059E+04 -0.39841728361E+03  0.15057526052E+03  0.19802626994E+04  0.50400001928E-02 0.  1.
       -1    1    3    3    0  502 -0.19339160059E+04  0.39841728361E+03  0.80520160132E+03  0.21323970241E+04  0.50400001928E-02 0. -1.
</event>
<event>
 5   0  0.6645526E-09  0.3998164E+04  0.7818609E-02  0.8004917E-01
       -2   -1    0    0    0  501  0.00000000000E+00  0.00000000000E+00  0.20086111085E+04  0.20086111085E+04  0.25500000920E-02 0.  1.
        2   -1    0    0  501    0  0.00000000000E+00  0.00000000000E+00 -0.19895984261E+04  0.19895984261E+04  0.25500000920E-02 0. -1.
    10030    2    1    2    0    0  0.00000000000E+00  0.00000000000E+00  0.19012682431E+02  0.39982095345E+04  0.39981643288E+04 0.  0.
        3    1    3    3  502    0  0.13151691676E+04  0.14822888625E+04 -0.25408586204E+03  0.19978513075E+04  0.10100000352E+00 0. -1.
       -3    1    3    3    0  502 -0.13151691676E+04 -0.14822888625E+04  0.27309854447E+03  0.20003582271E+04  0.10100000352E+00 0.  1.
</event>
<event>
 5   0  0.2078125E-09  0.4000162E+04  0.7818609E-02  0.8004514E-01
        1   -1    0    0  501    0  0.00000000000E+00  0.00000000000E+00  0.29005755322E+04  0.29005755322E+04  0.50400001928E-02 0. -1.
       -1   -1    0    0    0  501  0.00000000000E+00  0.00000000000E+00 -0.13791485562E+04  0.13791485562E+04  0.50400001928E-02 0.  1.
    10030    2    1    2    0    0  0.00000000000E+00  0.00000000000E+00  0.15214269760E+04  0.42797240884E+04  0.40001622754E+04 0.  0.
        4    1    3    3  502    0  0.12909070112E+03 -0.10904158573E+04  0.25492673080E+04  0.27756866847E+04  0.12699999809E+01 0. -1.
       -4    1    3    3    0  502 -0.12909070112E+03  0.10904158573E+04 -0.10278403319E+04  0.15040374038E+04  0.12699999809E+01 0.  1.
</event>
<event>
 5   0  0.2078125E-09  0.4002549E+04  0.7818609E-02  0.8004033E-01
        1   -1    0    0  501    0  0.00000000000E+00  0.00000000000E+00  0.14246875850E+04  0.14246875850E+04  0.50400001928E-02 0.  1.
       -1   -1    0    0    0  501  0.00000000000E+00  0.00000000000E+00 -0.28112121252E+04  0.28112121252E+04  0.50400001928E-02 0. -1.
    10030    2    1    2    0    0  0.00000000000E+00  0.00000000000E+00 -0.13865245402E+04  0.42358997103E+04  0.40025486949E+04 0.  0.
        3    1    3    3  502    0  0.18175323969E+04  0.97093419543E+02  0.18725900767E+03  0.18297314262E+04  0.10100000352E+00 0.  1.
       -3    1    3    3    0  502 -0.18175323969E+04 -0.97093419543E+02 -0.15737835479E+04  0.24061682841E+04  0.10100000352E+00 0. -1.
</event>
<event>
 5   0  0.2078125E-09  0.3999364E+04  0.7818609E-02  0.8004675E-01
        1   -1    0    0  501    0  0.00000000000E+00  0.00000000000E+00  0.15149524221E+04  0.15149524221E+04  0.50400001928E-02 0. -1.
       -1   -1    0    0    0  501  0.00000000000E+00  0.00000000000E+00 -0.26395070011E+04  0.26395070012E+04  0.50400001928E-02 0.  1.
    10030    2    1    2    0    0  0.00000000000E+00  0.00000000000E+00 -0.11245545790E+04  0.41544594233E+04  0.39993637117E+04 0.  0.
        1    1    3    3  502    0 -0.15549091866E+04  0.12225225691E+04 -0.86765657896E+03  0.21598916523E+04  0.50400001928E-02 0.  1.
       -1    1    3    3    0  502  0.15549091866E+04 -0.12225225691E+04 -0.25689800008E+03  0.19945677710E+04  0.50400001928E-02 0. -1.
</event>
<event>
 5   0  0.2078125E-09  0.3997920E+04  0.7818609E-02  0.8004966E-01
        1   -1    0    0  501    0  0.00000000000E+00  0.00000000000E+00  0.14438274954E+04  0.14438274954E+04  0.50400001928E-02 0. -1.
       -1   -1    0    0    0  501  0.00000000000E+00  0.00000000000E+00 -0.27675329040E+04  0.27675329040E+04  0.50400001928E-02 0.  1.
    10030    2    1    2    0    0  0.00000000000E+00  0.00000000000E+00 -0.13237054086E+04  0.42113603994E+04  0.39979195096E+04 0.  0.
        3    1    3    3  502    0  0.19182444303E+04  0.43310050355E+03 -0.10396099614E+04  0.22244160183E+04  0.10100000352E+00 0.  1.
       -3    1    3    3    0  502 -0.19182444303E+04 -0.43310050355E+03 -0.28409544715E+03  0.19869443811E+04  0.10100000352E+00 0. -1.
</event>
<event>
 5   0  0.6547327E-09  0.4000818E+04  0.7818609E-02  0.8004382E-01
        2   -1    0    0  501    0  0.00000000000E+00  0.00000000000E+00  0.15686373007E+04  0.15686373007E+04  0.25500000920E-02 0. -1.
       -2   -1    0    0    0  501  0.00000000000E+00  0.00000000000E+00 -0.25510264324E+04  0.25510264324E+04  0.25500000920E-02 0.  1.
    10030    2    1    2    0    0  0.00000000000E+00  0.00000000000E+00 -0.98238913171E+03  0.41196637330E+04  0.40008175249E+04 0.  0.
        5    1    3    3  502    0 -0.19200884176E+04  0.19132377887E+03  0.51987331090E+02  0.19303028499E+04  0.46999998093E+01 0. -1.
       -5    1    3    3    0  502  0.19200884176E+04 -0.19132377887E+03 -0.10343764628E+04  0.21893608831E+04  0.46999998093E+01 0.  1.
</event>
<event>
 5   0  0.2078125E-09  0.3997854E+04  0.7818609E-02  0.8004980E-01
        1   -1    0    0  501    0  0.00000000000E+00  0.00000000000E+00  0.14146491847E+04  0.14146491847E+04  0.50400001928E-02 0.  1.
       -1   -1    0    0    0  501  0.00000000000E+00  0.00000000000E+00 -0.28245235794E+04  0.28245235794E+04  0.50400001928E-02 0. -1.
    10030    2    1    2    0    0  0.00000000000E+00  0.00000000000E+00 -0.14098743947E+04  0.42391727642E+04  0.39978544140E+04 0.  0.
        4    1    3    3  502    0  0.11687089152E+04 -0.15233550599E+04 -0.12945758733E+04  0.23156898479E+04  0.12699999809E+01 0.  1.
       -4    1    3    3    0  502 -0.11687089152E+04  0.15233550599E+04 -0.11529852141E+03  0.19234829162E+04  0.12699999809E+01 0. -1.
</event>
<event>
 5   0  0.2078125E-09  0.3999516E+04  0.7818609E-02  0.8004644E-01
       -1   -1    0    0    0  501  0.00000000000E+00  0.00000000000E+00  0.15342387045E+04  0.15342387045E+04  0.50400001928E-02 0. -1.
        1   -1    0    0  501    0  0.00000000000E+00  0.00000000000E+00 -0.26065254753E+04  0.26065254753E+04  0.50400001928E-02 0.  1.
    10030    2    1    2    0    0  0.00000000000E+00  0.00000000000E+00 -0.10722867707E+04  0.41407641798E+04  0.39995161050E+04 0.  0.
        1    1    3    3  502    0  0.38993292080E+03 -0.16447200335E+04 -0.16424700874E+04  0.23568749775E+04  0.50400001928E-02 0.  1.
       -1    1    3    3    0  502 -0.38993292080E+03  0.16447200335E+04  0.57018331672E+03  0.17838892023E+04  0.50400001928E-02 0. -1.
</event>
<event>
 5   0  0.2078125E-09  0.3991691E+04  0.7818609E-02  0.8006225E-01
       -1   -1    0    0    0  501  0.00000000000E+00  0.00000000000E+00  0.30645895168E+04  0.30645895168E+04  0.50400001928E-02 0. -1.
        1   -1    0    0  501    0  0.00000000000E+00  0.00000000000E+00 -0.12998146403E+04  0.12998146403E+04  0.50400001928E-02 0.  1.
    10030    2    1    2    0    0  0.00000000000E+00  0.00000000000E+00  0.17647748765E+04  0.43644041571E+04  0.39916905293E+04 0.  0.
        3    1    3    3  502    0  0.18727329017E+04  0.39973704544E+03  0.14974811534E+04  0.24309191762E+04  0.10100000352E+00 0.  1.
       -3    1    3    3    0  502 -0.18727329017E+04 -0.39973704544E+03  0.26729372317E+03  0.19334849808E+04  0.10100000352E+00 0. -1.
</event>
<event>
 5   0  0.6547327E-09  0.4001610E+04  0.7818609E-02  0.8004222E-01
       -2   -1    0    0    0  501  0.00000000000E+00  0.00000000000E+00  0.13817770931E+04  0.13817770931E+04  0.25500000920E-02 0.  1.
        2   -1    0    0  501    0  0.00000000000E+00  0.00000000000E+00 -0.28971538187E+04  0.28971538187E+04  0.25500000920E-02 0. -1.
    10030    2    1    2    0    0  0.00000000000E+00  0.00000000000E+00 -0.15153767256E+04  0.42789309118E+04  0.40016100670E+04 0.  0.
        5    1    3    3  502    0 -0.12318061300E+04  0.12264956337E+04  0.30170954948E+03  0.17642813334E+04  0.46999998093E+01 0. -1.
       -5    1    3    3    0  502  0.12318061300E+04 -0.12264956337E+04 -0.18170862750E+04  0.25146495784E+04  0.46999998093E+01 0.  1.
</event>
<event>
 5   0  0.6538370E-09  0.3997600E+04  0.7818609E-02  0.8005031E-01
        2   -1    0    0  501    0  0.00000000000E+00  0.00000000000E+00  0.21780239514E+04  0.21780239514E+04  0.25500000920E-02 0.  1.
       -2   -1    0    0    0  501  0.00000000000E+00  0.00000000000E+00 -0.18343236215E+04  0.18343236215E+04  0.25500000920E-02 0. -1.
    10030    2    1    2    0    0  0.00000000000E+00  0.00000000000E+00  0.34370032984E+03  0.40123475729E+04  0.39975996709E+04 0.  0.
        4    1    3    3  502    0 -0.16137071530E+04 -0.79478543660E+03 -0.70283746872E+03  0.19312474689E+04  0.12699999809E+01 0. -1.
       -4    1    3    3    0  502  0.16137071530E+04  0.79478543660E+03  0.10465377986E+04  0.20811001039E+04  0.12699999809E+01 0.  1.
</event>
<event>
 5   0  0.2078125E-09  0.3993055E+04  0.7818609E-02  0.8005949E-01
       -3   -1    0    0    0  501  0.00000000000E+00  0.00000000000E+00  0.13274513949E+04  0.13274513987E+04  0.10100000352E+00 0.  1.
        3   -1    0    0  501    0  0.00000000000E+00  0.00000000000E+00 -0.30028383507E+04  0.30028383524E+04  0.10100000352E+00 0. -1.
    10030    2    1    2    0    0  0.00000000000E+00  0.00000000000E+00 -0.16753869559E+04  0.43302897511E+04  0.39930549554E+04 0.  0.
        3    1    3    3  502    0 -0.16340539427E+04 -0.11215300041E+04 -0.57616178727E+03  0.20639583942E+04  0.10100000352E+00 0.  1.
       -3    1    3    3    0  502  0.16340539427E+04  0.11215300041E+04 -0.10992251686E+04  0.22663313569E+04  0.10100000352E+00 0. -1.
</event>
<event>
 5   0  0.6538370E-09  0.4000749E+04  0.7818609E-02  0.8004396E-01
       -2   -1    0    0    0  501  0.00000000000E+00  0.00000000000E+00  0.21834111728E+04  0.21834111728E+04  0.25500000920E-02 0.  1.
        2   -1    0    0  501    0  0.00000000000E+00  0.00000000000E+00 -0.18326815932E+04  0.18326815932E+04  0.25500000920E-02 0. -1.
    10030    2    1    2    0    0  0.00000000000E+00  0.00000000000E+00  0.35072957962E+03  0.40160927660E+04  0.40007486633E+04 0.  0.
        4    1    3    3  502    0  0.13352799859E+04  0.11821672665E+04  0.10849325158E+04  0.20874798834E+04  0.12699999809E+01 0. -1.
       -4    1    3    3    0  502 -0.13352799859E+04 -0.11821672665E+04 -0.73420293622E+03  0.19286128826E+04  0.12699999809E+01 0.  1.
</event>
<event>
 5   0  0.2078125E-09  0.3999654E+04  0.7818609E-02  0.8004616E-01
        1   -1    0    0  501    0  0.00000000000E+00  0.00000000000E+00  0.30776698217E+04  0.30776698217E+04  0.50400001928E-02 0.  1.
       -1   -1    0    0    0  501  0.00000000000E+00  0.00000000000E+00 -0.12994595923E+04  0.12994595923E+04  0.50400001928E-02 0. -1.
    10030    2    1    2    0    0  0.00000000000E+00  0.00000000000E+00  0.17782102294E+04  0.43771294140E+04  0.39996537708E+04 0.  0.
        5    1    3    3  502    0 -0.18010302803E+04 -0.83121261497E+03  0.61082114106E+03  0.20755117534E+04  0.46999998093E+01 0. -1.
       -5    1    3    3    0  502  0.18010302803E+04  0.83121261497E+03  0.11673890884E+04  0.23016176606E+04  0.46999998093E+01 0.  1.
</event>
<event>
 5   0  0.6599276E-09  0.4010705E+04  0.7818609E-02  0.8002390E-01
        2   -1    0    0  501    0  0.00000000000E+00  0.00000000000E+00  0.23671172354E+04  0.23671172354E+04  0.25500000920E-02 0.  1.
       -2   -1    0    0    0  501  0.00000000000E+00  0.00000000000E+00 -0.16988760296E+04  0.16988760296E+04  0.25500000920E-02 0. -1.
    10030    2    1    2    0    0  0.00000000000E+00  0.00000000000E+00  0.66824120583E+03  0.40659932651E+04  0.40107050406E+04 0.  0.
        2    1    3    3  502    0  0.81169462085E+03  0.17365912705E+04  0.93117149841E+03  0.21311212442E+04  0.25500000920E-02 0.  1.
       -2    1    3    3    0  502 -0.81169462085E+03 -0.17365912705E+04 -0.26293029258E+03  0.19348720208E+04  0.25500000920E-02 0. -1.
</event>
<event>
 5   0  0.6736335E-09  0.3999240E+04  0.7818609E-02  0.8004700E-01
        2   -1    0    0  501    0  0.00000000000E+00  0.00000000000E+00  0.24837455744E+04  0.24837455744E+04  0.25500000920E-02 0. -1.
       -2   -1    0    0    0  501  0.00000000000E+00  0.00000000000E+00 -0.16098588731E+04  0.16098588731E+04  0.25500000920E-02 0.  1.
    10030    2    1    2    0    0  0.00000000000E+00  0.00000000000E+00  0.87388670130E+03  0.40936044475E+04  0.39992398535E+04 0.  0.
        1    1    3    3  502    0  0.17227451736E+03  0.29975973156E+03 -0.15790321963E+04  0.16164396317E+04  0.50400001928E-02 0.  1.
       -1    1    3    3    0  502 -0.17227451736E+03 -0.29975973156E+03  0.24529188976E+04  0.24771648157E+04  0.50400001928E-02 0. -1.
</event>
<event>
 5   0  0.2078125E-09  0.4000381E+04  0.7818609E-02  0.8004470E-01
        1   -1    0    0  501    0  0.00000000000E+00  0.00000000000E+00  0.20159283082E+04  0.20159283082E+04  0.50400001928E-02 0. -1.
       -1   -1    0    0    0  501  0.00000000000E+00  0.00000000000E+00 -0.19845758629E+04  0.19845758629E+04  0.50400001928E-02 0.  1.
    10030    2    1    2    0    0  0.00000000000E+00  0.00000000000E+00  0.31352445320E+02  0.40005041711E+04  0.40003813128E+04 0.  0.
        4    1    3    3  502    0 -0.13022421617E+04  0.14952910904E+04  0.27842171980E+03  0.20023112545E+04  0.12699999809E+01 0. -1.
       -4    1    3    3    0  502  0.13022421617E+04 -0.14952910904E+04 -0.24706927448E+03  0.19981929167E+04  0.12699999809E+01 0.  1.
</event>
<event>
 5   0  0.6736335E-09  0.4000755E+04  0.7818609E-02  0.8004394E-01
       -2   -1    0    0    0  501  0.00000000000E+00  0.00000000000E+00  0.28114097396E+04  0.28114097396E+04  0.25500000920E-02 0. -1.
        2   -1    0    0  501    0  0.00000000000E+00  0.00000000000E+00 -0.14233106908E+04  0.14233106908E+04  0.25500000920E-02 0.  1.
    10030    2    1    2    0    0  0.00000000000E+00  0.00000000000E+00  0.13880990488E+04  0.42347204305E+04  0.40007546982E+04 0.  0.
        1    1    3    3  502    0  0.11534726124E+04  0.11332348936E+04  0.19405373393E+04  0.25259464675E+04  0.50400001928E-02 0. -1.
       -1    1    3    3    0  502 -0.11534726124E+04 -0.11332348936E+04 -0.55243829054E+03  0.17087739629E+04  0.50400001928E-02 0.  1.
</event>
<event>
 5   0  0.2078125E-09  0.4000380E+04  0.7818609E-02  0.8004470E-01
        1   -1    0    0  501    0  0.00000000000E+00  0.00000000000E+00  0.26998264804E+04  0.26998264804E+04  0.50400001928E-02 0.  1.
       -1   -1    0    0    0  501  0.00000000000E+00  0.00000000000E+00 -0.14818580130E+04  0.14818580130E+04  0.50400001928E-02 0. -1.
    10030    2    1    2    0    0  0.00000000000E+00  0.00000000000E+00  0.12179684674E+04  0.41816844934E+04  0.40003797339E+04 0.  0.
        2    1    3    3  502    0  0.10304243512E+04  0.37755629198E+02  0.24005938824E+04  0.26126712038E+04  0.25500000920E-02 0.  1.
       -2    1    3    3    0  502 -0.10304243512E+04 -0.37755629198E+02 -0.11826254149E+04  0.15690132897E+04  0.25500000920E-02 0. -1.
</event>
<event>
 5   0  0.6538370E-09  0.3997950E+04  0.7818609E-02  0.8004960E-01
       -2   -1    0    0    0  501  0.00000000000E+00  0.00000000000E+00  0.26272358755E+04  0.26272358755E+04  0.25500000920E-02 0. -1.
        2   -1    0    0  501    0  0.00000000000E+00  0.00000000000E+00 -0.15209525575E+04  0.15209525575E+04  0.25500000920E-02 0.  1.
    10030    2    1    2    0    0  0.00000000000E+00  0.00000000000E+00  0.11062833180E+04  0.41481884329E+04  0.39979500366E+04 0.  0.
        4    1    3    3  502    0  0.15599371150E+03  0.13430206294E+04  0.20808372888E+04  0.24815164485E+04  0.12699999809E+01 0. -1.
       -4    1    3    3    0  502 -0.15599371150E+03 -0.13430206294E+04 -0.97455397075E+03  0.16666719844E+04  0.12699999809E+01 0.  1.
</event>
<event>
 5   0  0.6645526E-09  0.3999424E+04  0.7818609E-02  0.8004663E-01
       -2   -1    0    0    0  501  0.00000000000E+00  0.00000000000E+00  0.16206967873E+04  0.16206967873E+04  0.25500000920E-02 0. -1.
        2   -1    0    0  501    0  0.00000000000E+00  0.00000000000E+00 -0.24673631208E+04  0.24673631208E+04  0.25500000920E-02 0.  1.
    10030    2    1    2    0    0  0.00000000000E+00  0.00000000000E+00 -0.84666633349E+03  0.40880599081E+04  0.39994237000E+04 0.  0.
        3    1    3    3  502    0  0.21305230372E+03  0.19487815787E+04 -0.82667500450E+03  0.21275649224E+04  0.10100000352E+00 0.  1.
       -3    1    3    3    0  502 -0.21305230372E+03 -0.19487815787E+04 -0.19991328988E+02  0.19604949857E+04  0.10100000352E+00 0. -1.
</event>
<event>
 5   0  0.2078125E-09  0.4000991E+04  0.7818609E-02  0.8004347E-01
        1   -1    0    0  501    0  0.00000000000E+00  0.00000000000E+00  0.23641829820E+04  0.23641829820E+04  0.50400001928E-02 0.  1.
       -1   -1    0    0    0  501  0.00000000000E+00  0.00000000000E+00 -0.16927548474E+04  0.16927548475E+04  0.50400001928E-02 0. -1.
    10030    2    1    2    0    0  0.00000000000E+00  0.00000000000E+00  0.67142813457E+03  0.40569378295E+04  0.40009909788E+04 0.  0.
        2    1    3    3  502    0 -0.13671205761E+04 -0.57594354884E+03 -0.10251604630E+04  0.18032425283E+04  0.25500000920E-02 0. -1.
       -2    1    3    3    0  502  0.13671205761E+04  0.57594354884E+03  0.16965885976E+04  0.22536953012E+04  0.25500000920E-02 0.  1.
</event>
<event>
 5   0  0.2078125E-09  0.3998334E+04  0.7818609E-02  0.8004883E-01
        1   -1    0    0  501    0  0.00000000000E+00  0.00000000000E+00  0.18905934848E+04  0.18905934848E+04  0.50400001928E-02 0. -1.
       -1   -1    0    0    0  501  0.00000000000E+00  0.00000000000E+00 -0.21139754789E+04  0.21139754789E+04  0.50400001928E-02 0.  1.
    10030    2    1    2    0    0  0.00000000000E+00  0.00000000000E+00 -0.22338199418E+03  0.40045689637E+04  0.39983337867E+04 0.  0.
        4    1    3    3  502    0 -0.81267376912E+03  0.15798696700E+04  0.80638442600E+03  0.19510725985E+04  0.12699999809E+01 0. -1.
       -4    1    3    3    0  502  0.81267376912E+03 -0.15798696700E+04 -0.10297664202E+04  0.20534963652E+04  0.12699999809E+01 0.  1.
</event>
<event>
 5   0  0.2078125E-09  0.4002740E+04  0.7818609E-02  0.8003994E-01
        1   -1    0    0  501    0  0.00000000000E+00  0.00000000000E+00  0.11509088160E+04  0.11509088160E+04  0.50400001928E-02 0.  1.
       -1   -1    0    0    0  501  0.00000000000E+00  0.00000000000E+00 -0.34802773085E+04  0.34802773085E+04  0.50400001928E-02 0. -1.
    10030    2    1    2    0    0  0.00000000000E+00  0.00000000000E+00 -0.23293684926E+04  0.46311861245E+04  0.40027399797E+04 0.  0.
        5    1    3    3  502    0 -0.17920223178E+04  0.56908874103E+03 -0.37126816906E+03  0.19165250131E+04  0.46999998093E+01 0. -1.
       -5    1    3    3    0  502  0.17920223178E+04 -0.56908874103E+03 -0.19581003235E+04  0.27146611113E+04  0.46999998093E+01 0.  1.
</event>
<event>
 5   0  0.2078125E-09  0.3999465E+04  0.7818609E-02  0.8004655E-01
        1   -1    0    0  501    0  0.00000000000E+00  0.00000000000E+00  0.15980408415E+04  0.15980408415E+04  0.50400001928E-02 0. -1.
       -1   -1    0    0    0  501  0.00000000000E+00  0.00000000000E+00 -0.25023951996E+04  0.25023951996E+04  0.50400001928E-02 0.  1.
    10030    2    1    2    0    0  0.00000000000E+00  0.00000000000E+00 -0.90435435812E+03  0.41004360412E+04  0.39994648295E+04 0.  0.
        3    1    3    3  502    0  0.34987219944E+03  0.81955093239E+03 -0.22875841720E+04  0.24550184604E+04  0.10100000352E+00 0.  1.
       -3    1    3    3    0  502 -0.34987219944E+03 -0.81955093239E+03  0.13832298139E+04  0.16454175807E+04  0.10100000352E+00 0. -1.
</event>
<event>
 5   0  0.6736335E-09  0.3997577E+04  0.7818609E-02  0.8005036E-01
       -2   -1    0    0    0  501  0.00000000000E+00  0.00000000000E+00  0.22584704298E+04  0.22584704298E+04  0.25500000920E-02 0. -1.
        2   -1    0    0  501    0  0.00000000000E+00  0.00000000000E+00 -0.17689650624E+04  0.17689650624E+04  0.25500000920E-02 0.  1.
    10030    2    1    2    0    0  0.00000000000E+00  0.00000000000E+00  0.48950536743E+03  0.40274354922E+04  0.39975769085E+04 0.  0.
        1    1    3    3  502    0  0.15574832759E+04  0.12356442150E+04  0.36851213033E+02  0.19884488409E+04  0.50400001928E-02 0.  1.
       -1    1    3    3    0  502 -0.15574832759E+04 -0.12356442150E+04  0.45265415440E+03  0.20389866514E+04  0.50400001928E-02 0. -1.
</event>
<event>
 5   0  0.6547327E-09  0.4000056E+04  0.7818609E-02  0.8004535E-01
        2   -1    0    0  501    0  0.00000000000E+00  0.00000000000E+00  0.20568605315E+04  0.20568605315E+04  0.25500000920E-02 0.  1.
       -2   -1    0    0    0  501  0.00000000000E+00  0.00000000000E+00 -0.19447658999E+04  0.19447658999E+04  0.25500000920E-02 0. -1.
    10030    2    1    2    0    0  0.00000000000E+00  0.00000000000E+00  0.11209463163E+03  0.40016264314E+04  0.40000561108E+04 0.  0.
        5    1    3    3  502    0  0.44973175467E+03 -0.69318058790E+03  0.18781168167E+04  0.20518535147E+04  0.46999998093E+01 0.  1.
       -5    1    3    3    0  502 -0.44973175467E+03  0.69318058790E+03 -0.17660221850E+04  0.19497729167E+04  0.46999998093E+01 0. -1.
</event>
<event>
 5   0  0.6599276E-09  0.4000265E+04  0.7818609E-02  0.8004493E-01
       -2   -1    0    0    0  501  0.00000000000E+00  0.00000000000E+00  0.19588732468E+04  0.19588732468E+04  0.25500000920E-02 0.  1.
        2   -1    0    0  501    0  0.00000000000E+00  0.00000000000E+00 -0.20422608395E+04  0.20422608395E+04  0.25500000920E-02 0. -1.
    10030    2    1    2    0    0  0.00000000000E+00  0.00000000000E+00 -0.83387592679E+02  0.40011340863E+04  0.40002650520E+04 0.  0.
        2    1    3    3  502    0 -0.14372239640E+04  0.33548059039E+03  0.13085513877E+04  0.19724265977E+04  0.25500000920E-02 0.  1.
       -2    1    3    3    0  502  0.14372239640E+04 -0.33548059039E+03 -0.13919389804E+04  0.20287074886E+04  0.25500000920E-02 0. -1.
</event>
<event>
 5   0  0.2078125E-09  0.4002017E+04  0.7818609E-02  0.8004140E-01
       -1   -1    0    0    0  501  0.00000000000E+00  0.00000000000E+00  0.30109828947E+04  0.30109828947E+04  0.50400001928E-02 0. -1.
        1   -1    0    0  501    0  0.00000000000E+00  0.00000000000E+00 -0.13298100770E+04  0.13298100770E+04  0.50400001928E-02 0.  1.
    10030    2    1    2    0    0  0.00000000000E+00  0.00000000000E+00  0.16811728178E+04  0.43407929717E+04  0.40020171889E+04 0.  0.
        3    1    3    3  502    0  0.41351440659E+03  0.17091731521E+04  0.18762826056E+04  0.25715177337E+04  0.10100000352E+00 0. -1.
       -3    1    3    3    0  502 -0.41351440659E+03 -0.17091731521E+04 -0.19510978781E+03  0.17692752380E+04  0.10100000352E+00 0.  1.
</event>
<event>
 5   0  0.6599276E-09  0.4000010E+04  0.7818609E-02  0.8004544E-01
       -2   -1    0    0    0  501  0.00000000000E+00  0.00000000000E+00  0.17003095666E+04  0.17003095666E+04  0.25500000920E-02 0.  1.
        2   -1    0    0  501    0  0.00000000000E+00  0.00000000000E+00 -0.23525247925E+04  0.23525247925E+04  0.25500000920E-02 0. -1.
    10030    2    1    2    0    0  0.00000000000E+00  0.00000000000E+00 -0.65221522594E+03  0.40528343591E+04  0.40000102052E+04 0.  0.
        2    1    3    3  502    0  0.18865889766E+04 -0.49573749834E+03 -0.77358093039E+03  0.20984282427E+04  0.25500000920E-02 0. -1.
       -2    1    3    3    0  502 -0.18865889766E+04  0.49573749834E+03  0.12136570445E+03  0.19544061164E+04  0.25500000920E-02 0.  1.
</event>
<event>
 5   0  0.2078125E-09  0.4007944E+04  0.7818609E-02  0.8002946E-01
        1   -1    0    0  501    0  0.00000000000E+00  0.00000000000E+00  0.14075556143E+04  0.14075556144E+04  0.50400001928E-02 0.  1.
       -1   -1    0    0    0  501  0.00000000000E+00  0.00000000000E+00 -0.28531053513E+04  0.28531053513E+04  0.50400001928E-02 0. -1.
    10030    2    1    2    0    0  0.00000000000E+00  0.00000000000E+00 -0.14455497370E+04  0.42606609657E+04  0.40079443387E+04 0.  0.
        1    1    3    3  502    0 -0.20804485880E+03  0.16555529031E+04 -0.19026049595E+04  0.25306212104E+04  0.50400001928E-02 0. -1.
       -1    1    3    3    0  502  0.20804485880E+03 -0.16555529031E+04  0.45705522255E+03  0.17300397553E+04  0.50400001928E-02 0.  1.
</event>
<event>
 5   0  0.2078125E-09  0.3999837E+04  0.7818609E-02  0.8004579E-01
       -3   -1    0    0    0  501  0.00000000000E+00  0.00000000000E+00  0.21354867015E+04  0.21354867039E+04  0.10100000352E+00 0.  1.
        3   -1    0    0  501    0  0.00000000000E+00  0.00000000000E+00 -0.18729568994E+04  0.18729569022E+04  0.10100000352E+00 0. -1.
    10030    2    1    2    0    0  0.00000000000E+00  0.00000000000E+00  0.26252980204E+03  0.40084436060E+04  0.39998372774E+04 0.  0.
        3    1    3    3  502    0 -0.57326206334E+03  0.16410249712E+04 -0.85984344310E+03  0.19393099562E+04  0.10100000352E+00 0. -1.
       -3    1    3    3    0  502  0.57326206334E+03 -0.16410249712E+04  0.11223732451E+04  0.20691336498E+04  0.10100000352E+00 0.  1.
</event>
<event>
 5   0  0.6538370E-09  0.3999236E+04  0.7818609E-02  0.8004701E-01
       -2   -1    0    0    0  501  0.00000000000E+00  0.00000000000E+00  0.12529829818E+04  0.12529829818E+04  0.25500000920E-02 0.  1.
        2   -1    0    0  501    0  0.00000000000E+00  0.00000000000E+00 -0.31911619433E+04  0.31911619433E+04  0.25500000920E-02 0. -1.
    10030    2    1    2    0    0  0.00000000000E+00  0.00000000000E+00 -0.19381789615E+04  0.44441449252E+04  0.39992357306E+04 0.  0.
        4    1    3    3  502    0 -0.10595910014E+04  0.10668344170E+04  0.49573728481E+03  0.15832327157E+04  0.12699999809E+01 0.  1.
       -4    1    3    3    0  502  0.10595910014E+04 -0.10668344170E+04 -0.24339162463E+04  0.28609122095E+04  0.12699999809E+01 0. -1.
</event>
<event>
 5   0  0.2078125E-09  0.3998407E+04  0.7818609E-02  0.8004868E-01
        1   -1    0    0  501    0  0.00000000000E+00  0.00000000000E+00  0.15440395526E+04  0.15440395526E+04  0.50400001928E-02 0. -1.
       -1   -1    0    0    0  501  0.00000000000E+00  0.00000000000E+00 -0.25885446458E+04  0.25885446458E+04  0.50400001928E-02 0.  1.
    10030    2    1    2    0    0  0.00000000000E+00  0.00000000000E+00 -0.10445050932E+04  0.41325841984E+04  0.39984073413E+04 0.  0.
        3    1    3    3  502    0  0.81061839592E+03  0.44809901670E+02  0.13659938386E+04  0.15890403671E+04  0.10100000352E+00 0. -1.
       -3    1    3    3    0  502 -0.81061839592E+03 -0.44809901670E+02 -0.24104989318E+04  0.25435438313E+04  0.10100000352E+00 0.  1.
</event>
<event>
 5   0  0.2078125E-09  0.3997969E+04  0.7818609E-02  0.8004956E-01
        1   -1    0    0  501    0  0.00000000000E+00  0.00000000000E+00  0.13322321836E+04  0.13322321836E+04  0.50400001928E-02 0.  1.
       -1   -1    0    0    0  501  0.00000000000E+00  0.00000000000E+00 -0.29994318845E+04  0.29994318845E+04  0.50400001928E-02 0. -1.
    10030    2    1    2    0    0  0.00000000000E+00  0.00000000000E+00 -0.16671997009E+04  0.43316640681E+04  0.39979693291E+04 0.  0.
        1    1    3    3  502    0 -0.15878912237E+04 -0.98968390592E+03 -0.15959373148E+04  0.24592455520E+04  0.50400001928E-02 0.  1.
       -1    1    3    3    0  502  0.15878912237E+04  0.98968390592E+03 -0.71262386052E+02  0.18724185162E+04  0.50400001928E-02 0. -1.
</event>
<event>
 5   0  0.2078125E-09  0.4001326E+04  0.7818609E-02  0.8004279E-01
        1   -1    0    0  501    0  0.00000000000E+00  0.00000000000E+00  0.22180398258E+04  0.22180398258E+04  0.50400001928E-02 0.  1.
       -1   -1    0    0    0  501  0.00000000000E+00  0.00000000000E+00 -0.18045902481E+04  0.18045902481E+04  0.50400001928E-02 0. -1.
    10030    2    1    2    0    0  0.00000000000E+00  0.00000000000E+00  0.41344957770E+03  0.40226300738E+04  0.40013262998E+04 0.  0.
        2    1    3    3  502    0 -0.52908999824E+02 -0.53576671918E+03 -0.17303989154E+04  0.18122157007E+04  0.25500000920E-02 0. -1.
       -2    1    3    3    0  502  0.52908999824E+02  0.53576671918E+03  0.21438484931E+04  0.22104143731E+04  0.25500000920E-02 0.  1.
</event>
<event>
 5   0  0.2078125E-09  0.4000166E+04  0.7818609E-02  0.8004513E-01
       -1   -1    0    0    0  501  0.00000000000E+00  0.00000000000E+00  0.15073358260E+04  0.15073358260E+04  0.50400001928E-02 0.  1.
        1   -1    0    0  501    0  0.00000000000E+00  0.00000000000E+00 -0.26539086529E+04  0.26539086530E+04  0.50400001928E-02 0. -1.
    10030    2    1    2    0    0  0.00000000000E+00  0.00000000000E+00 -0.11465728269E+04  0.41612444790E+04  0.40001657924E+04 0.  0.
        4    1    3    3  502    0  0.56118463849E+03  0.18059322976E+04  0.10409527486E+03  0.18939791713E+04  0.12699999809E+01 0. -1.
       -4    1    3    3    0  502 -0.56118463849E+03 -0.18059322976E+04 -0.12506681018E+04  0.22672653077E+04  0.12699999809E+01 0.  1.
</event>
<event>
 5   0  0.6736335E-09  0.3997617E+04  0.7818609E-02  0.8005027E-01
       -2   -1    0    0    0  501  0.00000000000E+00  0.00000000000E+00  0.17484932895E+04  0.17484932895E+04  0.25500000920E-02 0. -1.
        2   -1    0    0  501    0  0.00000000000E+00  0.00000000000E+00 -0.22849589788E+04  0.22849589788E+04  0.25500000920E-02 0.  1.
    10030    2    1    2    0    0  0.00000000000E+00  0.00000000000E+00 -0.53646568925E+03  0.40334522684E+04  0.39976170108E+04 0.  0.
        1    1    3    3  502    0  0.11259673321E+04  0.15923401087E+04 -0.71020750141E+03  0.20755105757E+04  0.50400001928E-02 0.  1.
       -1    1    3    3    0  502 -0.11259673321E+04 -0.15923401087E+04  0.17374181215E+03  0.19579416927E+04  0.50400001928E-02 0. -1.
</event>
<event>
 5   0  0.2078125E-09  0.4006283E+04  0.7818609E-02  0.8003280E-01
        1   -1    0    0  501    0  0.00000000000E+00  0.00000000000E+00  0.23374388580E+04  0.23374388580E+04  0.50400001928E-02 0. -1.
       -1   -1    0    0    0  501  0.00000000000E+00  0.00000000000E+00 -0.17166552434E+04  0.17166552434E+04  0.50400001928E-02 0.  1.
    10030    2    1    2    0    0  0.00000000000E+00  0.00000000000E+00  0.62078361456E+03  0.40540941014E+04  0.40062834007E+04 0.  0.
        2    1    3    3  502    0 -0.15695217921E+04  0.69324754642E+03  0.13564524636E+04  0.21872252062E+04  0.25500000920E-02 0. -1.
       -2    1    3    3    0  502  0.15695217921E+04 -0.69324754642E+03 -0.73566884908E+03  0.18668688952E+04  0.25500000920E-02 0.  1.
</event>
<event>
 5   0  0.6645526E-09  0.4001517E+04  0.7818609E-02  0.8004241E-01
       -2   -1    0    0    0  501  0.00000000000E+00  0.00000000000E+00  0.19786682848E+04  0.19786682848E+04  0.25500000920E-02 0.  1.
        2   -1    0    0  501    0  0.00000000000E+00  0.00000000000E+00 -0.20230950703E+04  0.20230950703E+04  0.25500000920E-02 0. -1.
    10030    2    1    2    0    0  0.00000000000E+00  0.00000000000E+00 -0.44426785580E+02  0.40017633551E+04  0.40015167388E+04 0.  0.
        3    1    3    3  502    0 -0.90514438427E+03  0.47150431366E+03 -0.17432004380E+04  0.20199877355E+04  0.10100000352E+00 0. -1.
       -3    1    3    3    0  502  0.90514438427E+03 -0.47150431366E+03  0.16987736524E+04  0.19817756196E+04  0.10100000352E+00 0.  1.
</event>
<event>
 5   0  0.2078125E-09  0.4002753E+04  0.7818609E-02  0.8003991E-01
        1   -1    0    0  501    0  0.00000000000E+00  0.00000000000E+00  0.16245004388E+04  0.16245004388E+04  0.50400001928E-02 0. -1.
       -1   -1    0    0    0  501  0.00000000000E+00  0.00000000000E+00 -0.24656857671E+04  0.24656857671E+04  0.50400001928E-02 0.  1.
    10030    2    1    2    0    0  0.00000000000E+00  0.00000000000E+00 -0.84118532826E+03  0.40901862059E+04  0.40027528581E+04 0.  0.
        4    1    3    3  502    0 -0.11148739829E+04 -0.13394846657E+04 -0.14261315593E+04  0.22518916503E+04  0.12699999809E+01 0.  1.
       -4    1    3    3    0  502  0.11148739829E+04  0.13394846657E+04  0.58494623099E+03  0.18382945557E+04  0.12699999809E+01 0. -1.
</event>
<event>
 5   0  0.6736335E-09  0.3998888E+04  0.7818609E-02  0.8004771E-01
        2   -1    0    0  501    0  0.00000000000E+00  0.00000000000E+00  0.21452925438E+04  0.21452925438E+04  0.25500000920E-02 0.  1.
       -2   -1    0    0    0  501  0.00000000000E+00  0.00000000000E+00 -0.18635108146E+04  0.18635108146E+04  0.25500000920E-02 0. -1.
    10030    2    1    2    0    0  0.00000000000E+00  0.00000000000E+00  0.28178172917E+03  0.40088033584E+04  0.39988877733E+04 0.  0.
        1    1    3    3  502    0 -0.79170445323E+03 -0.61870700561E+03 -0.15920311859E+04  0.18825933169E+04  0.50400001928E-02 0. -1.
       -1    1    3    3    0  502  0.79170445323E+03  0.61870700561E+03  0.18738129150E+04  0.21262100415E+04  0.50400001928E-02 0.  1.
</event>
<event>
 5   0  0.2078125E-09  0.4014457E+04  0.7818609E-02  0.8001636E-01
        1   -1    0    0  501    0  0.00000000000E+00  0.00000000000E+00  0.25252273732E+04  0.25252273732E+04  0.50400001928E-02 0. -1.
       -1   -1    0    0    0  501  0.00000000000E+00  0.00000000000E+00 -0.15954867463E+04  0.15954867463E+04  0.50400001928E-02 0.  1.
    10030    2    1    2    0    0  0.00000000000E+00  0.00000000000E+00  0.92974062682E+03  0.41207141195E+04  0.40144572761E+04 0.  0.
        3    1    3    3  502    0 -0.11935371651E+04  0.13759548673E+04 -0.40076834754E+03  0.18650463908E+04  0.10100000352E+00 0.  1.
       -3    1    3    3    0  502  0.11935371651E+04 -0.13759548673E+04  0.13305089744E+04  0.22556677287E+04  0.10100000352E+00 0. -1.
</event>
<event>
 5   0  0.6538370E-09  0.4000432E+04  0.7818609E-02  0.8004459E-01
        2   -1    0    0  501    0  0.00000000000E+00  0.00000000000E+00  0.15186375321E+04  0.15186375321E+04  0.25500000920E-02 0.  1.
       -2   -1    0    0    0  501  0.00000000000E+00  0.00000000000E+00 -0.26345089671E+04  0.26345089671E+04  0.25500000920E-02 0. -1.
    10030    2    1    2    0    0  0.00000000000E+00  0.00000000000E+00 -0.11158714350E+04  0.41531464992E+04  0.40004320747E+04 0.  0.
        4    1    3    3  502    0  0.11599006321E+04  0.20313110651E+02 -0.22495805848E+04  0.25310860355E+04  0.12699999809E+01 0. -1.
       -4    1    3    3    0  502 -0.11599006321E+04 -0.20313110651E+02  0.11337091498E+04  0.16220604637E+04  0.12699999809E+01 0.  1.
</event>
<event>
 5   0  0.6599276E-09  0.3998234E+04  0.7818609E-02  0.8004903E-01
        2   -1    0    0  501    0  0.00000000000E+00  0.00000000000E+00  0.25000629961E+04  0.25000629961E+04  0.25500000920E-02 0.  1.
       -2   -1    0    0    0  501  0.00000000000E+00  0.00000000000E+00 -0.15985470421E+04  0.15985470421E+04  0.25500000920E-02 0. -1.
    10030    2    1    2    0    0  0.00000000000E+00  0.00000000000E+00  0.90151595399E+03  0.40986100383E+04  0.39982337638E+04 0.  0.
        2    1    3    3  502    0  0.21341005504E+03 -0.18478954628E+04 -0.29988699779E+03  0.18841957713E+04  0.25500000920E-02 0.  1.
       -2    1    3    3    0  502 -0.21341005504E+03  0.18478954628E+04  0.12014029518E+04  0.22144142670E+04  0.25500000920E-02 0. -1.
</event>
<event>
 5   0  0.6547327E-09  0.3999390E+04  0.7818609E-02  0.8004670E-01
       -2   -1    0    0    0  501  0.00000000000E+00  0.00000000000E+00  0.17341426149E+04  0.17341426149E+04  0.25500000920E-02 0.  1.
        2   -1    0    0  501    0  0.00000000000E+00  0.00000000000E+00 -0.23059118856E+04  0.23059118856E+04  0.25500000920E-02 0. -1.
    10030    2    1    2    0    0  0.00000000000E+00  0.00000000000E+00 -0.57176927068E+03  0.40400545005E+04  0.39993899870E+04 0.  0.
        5    1    3    3  502    0  0.77341471121E+03 -0.11899761835E+04 -0.17089468017E+04  0.22214263197E+04  0.46999998093E+01 0. -1.
       -5    1    3    3    0  502 -0.77341471121E+03  0.11899761835E+04  0.11371775311E+04  0.18186281808E+04  0.46999998093E+01 0.  1.
</event>
<event>
 5   0  0.6599276E-09  0.4000758E+04  0.7818609E-02  0.8004394E-01
       -2   -1    0    0    0  501  0.00000000000E+00  0.00000000000E+00  0.24466826724E+04  0.24466826724E+04  0.25500000920E-02 0.  1.
        2   -1    0    0  501    0  0.00000000000E+00  0.00000000000E+00 -0.16354864579E+04  0.16354864579E+04  0.25500000920E-02 0. -1.
    10030    2    1    2    0    0  0.00000000000E+00  0.00000000000E+00  0.81119621449E+03  0.40821691303E+04  0.40007581169E+04 0.  0.
        2    1    3    3  502    0 -0.50913368822E+03 -0.17204201992E+04 -0.49696587081E+03  0.18617298008E+04  0.25500000920E-02 0. -1.
       -2    1    3    3    0  502  0.50913368822E+03  0.17204201992E+04  0.13081620853E+04  0.22204393295E+04  0.25500000920E-02 0.  1.
</event>
<event>
 5   0  0.6645526E-09  0.3999049E+04  0.7818609E-02  0.8004738E-01
        2   -1    0    0  501    0  0.00000000000E+00  0.00000000000E+00  0.23697373206E+04  0.23697373206E+04  0.25500000920E-02 0.  1.
       -2   -1    0    0    0  501  0.00000000000E+00  0.00000000000E+00 -0.16871483898E+04  0.16871483898E+04  0.25500000920E-02 0. -1.
    10030    2    1    2    0    0  0.00000000000E+00  0.00000000000E+00  0.68258893076E+03  0.40568857105E+04  0.39990491394E+04 0.  0.
        3    1    3    3  502    0 -0.10859916337E+03  0.14800195636E+04 -0.10181788139E+04  0.17997054743E+04  0.10100000352E+00 0. -1.
       -3    1    3    3    0  502  0.10859916337E+03 -0.14800195636E+04  0.17007677447E+04  0.22571802361E+04  0.10100000352E+00 0.  1.
</event>
<event>
 5   0  0.6645526E-09  0.4000151E+04  0.7818609E-02  0.8004516E-01
       -2   -1    0    0    0  501  0.00000000000E+00  0.00000000000E+00  0.12553067817E+04  0.12553067817E+04  0.25500000920E-02 0. -1.
        2   -1    0    0  501    0  0.00000000000E+00  0.00000000000E+00 -0.31867123153E+04  0.31867123153E+04  0.25500000920E-02 0.  1.
    10030    2    1    2    0    0  0.00000000000E+00  0.00000000000E+00 -0.19314055335E+04  0.44420190970E+04  0.40001507876E+04 0.  0.
        3    1    3    3  502    0 -0.10062779288E+03 -0.61644940658E+03  0.11442252036E+04  0.13036054428E+04  0.10100000352E+00 0. -1.
       -3    1    3    3    0  502  0.10062779288E+03  0.61644940658E+03 -0.30756307372E+04  0.31384136543E+04  0.10100000352E+00 0.  1.
</event>
<event>
 5   0  0.6599276E-09  0.4000502E+04  0.7818609E-02  0.8004445E-01
        2   -1    0    0  501    0  0.00000000000E+00  0.00000000000E+00  0.21967979245E+04  0.21967979245E+04  0.25500000920E-02 0. -1.
       -2   -1    0    0    0  501  0.00000000000E+00  0.00000000000E+00 -0.18212888102E+04  0.18212888102E+04  0.25500000920E-02 0.  1.
    10030    2    1    2    0    0  0.00000000000E+00  0.00000000000E+00  0.37550911429E+03  0.40180867347E+04  0.40005017076E+04 0.  0.
        2    1    3    3  502    0 -0.17437667237E+04 -0.73744358533E+03 -0.46041775834E+03  0.19484686142E+04  0.25500000920E-02 0. -1.
       -2    1    3    3    0  502  0.17437667237E+04  0.73744358533E+03  0.83592687263E+03  0.20696181205E+04  0.25500000920E-02 0.  1.
</event>
<event>
 5   0  0.6547327E-09  0.4000877E+04  0.7818609E-02  0.8004370E-01
       -2   -1    0    0    0  501  0.00000000000E+00  0.00000000000E+00  0.20665899551E+04  0.20665899551E+04  0.25500000920E-02 0. -1.
        2   -1    0    0  501    0  0.00000000000E+00  0.00000000000E+00 -0.19364046240E+04  0.19364046240E+04  0.25500000920E-02 0.  1.
    10030    2    1    2    0    0  0.00000000000E+00  0.00000000000E+00  0.13018533107E+03  0.40029945791E+04  0.40008770763E+04 0.  0.
        5    1    3    3  502    0 -0.16654993878E+04  0.60662889446E+02 -0.10419123942E+04  0.19654952872E+04  0.46999998093E+01 0.  1.
       -5    1    3    3    0  502  0.16654993878E+04 -0.60662889446E+02  0.11720977252E+04  0.20374992919E+04  0.46999998093E+01 0. -1.
</event>
<event>
 5   0  0.6645526E-09  0.4002190E+04  0.7818609E-02  0.8004105E-01
       -2   -1    0    0    0  501  0.00000000000E+00  0.00000000000E+00  0.16006726342E+04  0.16006726342E+04  0.25500000920E-02 0. -1.
        2   -1    0    0  501    0  0.00000000000E+00  0.00000000000E+00 -0.25016865067E+04  0.25016865067E+04  0.25500000920E-02 0.  1.
    10030    2    1    2    0    0  0.00000000000E+00  0.00000000000E+00 -0.90101387247E+03  0.41023591408E+04  0.40021899658E+04 0.  0.
        3    1    3    3  502    0 -0.17793731765E+04 -0.91362233645E+03 -0.38980961497E+03  0.20378484293E+04  0.10100000352E+00 0.  1.
       -3    1    3    3    0  502  0.17793731765E+04  0.91362233645E+03 -0.51120425750E+03  0.20645107115E+04  0.10100000352E+00 0. -1.
</event>
<event>
 5   0  0.2078125E-09  0.4011480E+04  0.7818609E-02  0.8002235E-01
        1   -1    0    0  501    0  0.00000000000E+00  0.00000000000E+00  0.16289747040E+04  0.16289747040E+04  0.50400001928E-02 0.  1.
       -1   -1    0    0    0  501  0.00000000000E+00  0.00000000000E+00 -0.24696475515E+04  0.24696475515E+04  0.50400001928E-02 0. -1.
    10030    2    1    2    0    0  0.00000000000E+00  0.00000000000E+00 -0.84067284746E+03  0.40986222555E+04  0.40114802202E+04 0.  0.
        1    1    3    3  502    0  0.18338831650E+03 -0.12001157049E+04 -0.20516045376E+04  0.23839022964E+04  0.50400001928E-02 0. -1.
       -1    1    3    3    0  502 -0.18338831650E+03  0.12001157049E+04  0.12109316902E+04  0.17147199591E+04  0.50400001928E-02 0.  1.
</event>
<event>
 5   0  0.6736335E-09  0.4000162E+04  0.7818609E-02  0.8004514E-01
       -2   -1    0    0    0  501  0.00000000000E+00  0.00000000000E+00  0.31139889820E+04  0.31139889821E+04  0.25500000920E-02 0.  1.
        2   -1    0    0  501    0  0.00000000000E+00  0.00000000000E+00 -0.12846298048E+04  0.12846298048E+04  0.25500000920E-02 0. -1.
    10030    2    1    2    0    0  0.00000000000E+00  0.00000000000E+00  0.18293591773E+04  0.43986187868E+04  0.40001615258E+04 0.  0.
        1    1    3    3  502    0 -0.82288856316E+03 -0.14538631482E+03  0.29128382984E+04  0.30303316189E+04  0.50400001928E-02 0.  1.
       -1    1    3    3    0  502  0.82288856316E+03  0.14538631482E+03 -0.10834791211E+04  0.13682871679E+04  0.50400001928E-02 0. -1.
</event>
<event>
 5   0  0.6599276E-09  0.4000913E+04  0.7818609E-02  0.8004362E-01
        2   -1    0    0  501    0  0.00000000000E+00  0.00000000000E+00  0.12216980509E+04  0.12216980509E+04  0.25500000920E-02 0.  1.
       -2   -1    0    0    0  501  0.00000000000E+00  0.00000000000E+00 -0.32756259840E+04  0.32756259840E+04  0.25500000920E-02 0. -1.
    10030    2    1    2    0    0  0.00000000000E+00  0.00000000000E+00 -0.20539279330E+04  0.44973240349E+04  0.40009128360E+04 0.  0.
        2    1    3    3  502    0 -0.11744500545E+04 -0.56637970526E+03  0.67841187810E+03  0.14698168517E+04  0.25500000920E-02 0.  1.
       -2    1    3    3    0  502  0.11744500545E+04  0.56637970526E+03 -0.27323398111E+04  0.30275071832E+04  0.25500000920E-02 0. -1.
</event>
<event>
 5   0  0.2078125E-09  0.4002443E+04  0.7818609E-02  0.8004054E-01
       -1   -1    0    0    0  501  0.00000000000E+00  0.00000000000E+00  0.12423285162E+04  0.12423285162E+04  0.50400001928E-02 0. -1.
        1   -1    0    0  501    0  0.00000000000E+00  0.00000000000E+00 -0.32236949941E+04  0.32236949941E+04  0.50400001928E-02 0.  1.
    10030    2    1    2    0    0  0.00000000000E+00  0.00000000000E+00 -0.19813664779E+04  0.44660235103E+04  0.40024433631E+04 0.  0.
        2    1    3    3  502    0  0.81207116432E+03  0.18072023682E+04 -0.13051957736E+04  0.23725463079E+04  0.25500000920E-02 0.  1.
       -2    1    3    3    0  502 -0.81207116432E+03 -0.18072023682E+04 -0.67617070434E+03  0.20934772024E+04  0.25500000920E-02 0. -1.
</event>
<event>
 5   0  0.6547327E-09  0.3995829E+04  0.7818609E-02  0.8005389E-01
       -2   -1    0    0    0  501  0.00000000000E+00  0.00000000000E+00  0.16501676375E+04  0.16501676375E+04  0.25500000920E-02 0. -1.
        2   -1    0    0  501    0  0.00000000000E+00  0.00000000000E+00 -0.24189434581E+04  0.24189434581E+04  0.25500000920E-02 0.  1.
    10030    2    1    2    0    0  0.00000000000E+00  0.00000000000E+00 -0.76877582062E+03  0.40691110956E+04  0.39958289310E+04 0.  0.
        5    1    3    3  502    0  0.13760573991E+04 -0.11320572556E+04  0.53581737529E+03  0.18607014659E+04  0.46999998093E+01 0. -1.
       -5    1    3    3    0  502 -0.13760573991E+04  0.11320572556E+04 -0.13045931959E+04  0.22084096297E+04  0.46999998093E+01 0.  1.
</event>
<event>
 5   0  0.2078125E-09  0.3999250E+04  0.7818609E-02  0.8004698E-01
        1   -1    0    0  501    0  0.00000000000E+00  0.00000000000E+00  0.19066525026E+04  0.19066525027E+04  0.50400001928E-02 0.  1.
       -1   -1    0    0    0  501  0.00000000000E+00  0.00000000000E+00 -0.20971307605E+04  0.20971307605E+04  0.50400001928E-02 0. -1.
    10030    2    1    2    0    0  0.00000000000E+00  0.00000000000E+00 -0.19047825784E+03  0.40037832632E+04  0.39992497361E+04 0.  0.
        5    1    3    3  502    0  0.12433892154E+04 -0.14905349273E+04 -0.57616521472E+03  0.20247714822E+04  0.46999998093E+01 0.  1.
       -5    1    3    3    0  502 -0.12433892154E+04  0.14905349273E+04  0.38568695688E+03  0.19790117810E+04  0.46999998093E+01 0. -1.
</event>
<event>
 5   0  0.2078125E-09  0.3999687E+04  0.7818609E-02  0.8004610E-01
        1   -1    0    0  501    0  0.00000000000E+00  0.00000000000E+00  0.13870265332E+04  0.13870265332E+04  0.50400001928E-02 0.  1.
       -1   -1    0    0    0  501  0.00000000000E+00  0.00000000000E+00 -0.28834157987E+04  0.28834157987E+04  0.50400001928E-02 0. -1.
    10030    2    1    2    0    0  0.00000000000E+00  0.00000000000E+00 -0.14963892654E+04  0.42704423319E+04  0.39996870973E+04 0.  0.
        5    1    3    3  502    0  0.11905756420E+03  0.16776046473E+04 -0.19034870537E+04  0.25400427378E+04  0.46999998093E+01 0. -1.
       -5    1    3    3    0  502 -0.11905756420E+03 -0.16776046473E+04  0.40709778824E+03  0.17303995941E+04  0.46999998093E+01 0.  1.
</event>
<event>
 5   0  0.2078125E-09  0.3998810E+04  0.7818609E-02  0.8004787E-01
       -1   -1    0    0    0  501  0.00000000000E+00  0.00000000000E+00  0.28061224052E+04  0.28061224052E+04  0.50400001928E-02 0.  1.
        1   -1    0    0  501    0  0.00000000000E+00  0.00000000000E+00 -0.14246062893E+04  0.14246062893E+04  0.50400001928E-02 0. -1.
    10030    2    1    2    0    0  0.00000000000E+00  0.00000000000E+00  0.13815161159E+04  0.42307286945E+04  0.39988096364E+04 0.  0.
        4    1    3    3  502    0 -0.13862205001E+04 -0.11065318340E+04  0.16670996094E+04  0.24341821409E+04  0.12699999809E+01 0.  1.
       -4    1    3    3    0  502  0.13862205001E+04  0.11065318340E+04 -0.28558349350E+03  0.17965465536E+04  0.12699999809E+01 0. -1.
</event>
<event>
 5   0  0.6538370E-09  0.4000451E+04  0.7818609E-02  0.8004456E-01
        2   -1    0    0  501    0  0.00000000000E+00  0.00000000000E+00  0.23203929569E+04  0.23203929569E+04  0.25500000920E-02 0. -1.
       -2   -1    0    0    0  501  0.00000000000E+00  0.00000000000E+00 -0.17242343642E+04  0.17242343642E+04  0.25500000920E-02 0.  1.
    10030    2    1    2    0    0  0.00000000000E+00  0.00000000000E+00  0.59615859269E+03  0.40446273211E+04  0.40004506120E+04 0.  0.
        4    1    3    3  502    0 -0.69729637744E+03  0.59796663178E+03  0.20945274346E+04  0.22871014664E+04  0.12699999809E+01 0. -1.
       -4    1    3    3    0  502  0.69729637744E+03 -0.59796663178E+03 -0.14983688419E+04  0.17575258547E+04  0.12699999809E+01 0.  1.
</event>
<event>
 5   0  0.6599276E-09  0.4000249E+04  0.7818609E-02  0.8004496E-01
       -2   -1    0    0    0  501  0.00000000000E+00  0.00000000000E+00  0.18081564205E+04  0.18081564205E+04  0.25500000920E-02 0.  1.
        2   -1    0    0  501    0  0.00000000000E+00  0.00000000000E+00 -0.22124737865E+04  0.22124737865E+04  0.25500000920E-02 0. -1.
    10030    2    1    2    0    0  0.00000000000E+00  0.00000000000E+00 -0.40431736600E+03  0.40206302071E+04  0.40002493334E+04 0.  0.
        2    1    3    3  502    0  0.68242523846E+03  0.18268856298E+04  0.24427022661E+03  0.19654219023E+04  0.25500000920E-02 0. -1.
       -2    1    3    3    0  502 -0.68242523846E+03 -0.18268856298E+04 -0.64858759261E+03  0.20552083047E+04  0.25500000920E-02 0.  1.
</event>
<event>
 5   0  0.6538370E-09  0.4000227E+04  0.7818609E-02  0.8004501E-01
        2   -1    0    0  501    0  0.00000000000E+00  0.00000000000E+00  0.26947401035E+04  0.26947401035E+04  0.25500000920E-02 0. -1.
       -2   -1    0    0    0  501  0.00000000000E+00  0.00000000000E+00 -0.14845420262E+04  0.14845420262E+04  0.25500000920E-02 0.  1.
    10030    2    1    2    0    0  0.00000000000E+00  0.00000000000E+00  0.12101980774E+04  0.41792821297E+04  0.40002274602E+04 0.  0.
        4    1    3    3  502    0  0.13252280708E+04 -0.13209917375E+04  0.13432689527E+04  0.23033935187E+04  0.12699999809E+01 0. -1.
       -4    1    3    3    0  502 -0.13252280708E+04  0.13209917375E+04 -0.13307087529E+03  0.18758886110E+04  0.12699999809E+01 0.  1.
</event>
<event>
 5   0  0.6736335E-09  0.4004947E+04  0.7818609E-02  0.8003549E-01
       -2   -1    0    0    0  501  0.00000000000E+00  0.00000000000E+00  0.14074689318E+04  0.14074689318E+04  0.25500000920E-02 0. -1.
        2   -1    0    0  501    0  0.00000000000E+00  0.00000000000E+00 -0.28490152044E+04  0.28490152044E+04  0.25500000920E-02 0.  1.
    10030    2    1    2    0    0  0.00000000000E+00  0.00000000000E+00 -0.14415462726E+04  0.42564841361E+04  0.40049471339E+04 0.  0.
        1    1    3    3  502    0  0.99899476466E+03 -0.17170115923E+04 -0.98918395970E+03  0.22191449376E+04  0.50400001928E-02 0.  1.
       -1    1    3    3    0  502 -0.99899476466E+03  0.17170115923E+04 -0.45236231289E+03  0.20373391986E+04  0.50400001928E-02 0. -1.
</event>
<event>
 5   0  0.6645526E-09  0.4001389E+04  0.7818609E-02  0.8004266E-01
       -2   -1    0    0    0  501  0.00000000000E+00  0.00000000000E+00  0.30730249789E+04  0.30730249789E+04  0.25500000920E-02 0.  1.
        2   -1    0    0  501    0  0.00000000000E+00  0.00000000000E+00 -0.13025532649E+04  0.13025532649E+04  0.25500000920E-02 0. -1.
    10030    2    1    2    0    0  0.00000000000E+00  0.00000000000E+00  0.17704717140E+04  0.43755782438E+04  0.40013891185E+04 0.  0.
        3    1    3    3  502    0  0.20967465875E+03 -0.10155185561E+04  0.27562449009E+04  0.29448475961E+04  0.10100000352E+00 0.  1.
       -3    1    3    3    0  502 -0.20967465875E+03  0.10155185561E+04 -0.98577318687E+03  0.14307306477E+04  0.10100000352E+00 0. -1.
</event>
<event>
 5   0  0.2078125E-09  0.3999355E+04  0.7818609E-02  0.8004677E-01
        1   -1    0    0  501    0  0.00000000000E+00  0.00000000000E+00  0.13981415444E+04  0.13981415444E+04  0.50400001928E-02 0.  1.
       -1   -1    0    0    0  501  0.00000000000E+00  0.00000000000E+00 -0.28600175813E+04  0.28600175813E+04  0.50400001928E-02 0. -1.
    10030    2    1    2    0    0  0.00000000000E+00  0.00000000000E+00 -0.14618760369E+04  0.42581591257E+04  0.39993546470E+04 0.  0.
        1    1    3    3  502    0  0.17930110907E+04 -0.87222993617E+03 -0.56934172124E+03  0.20736016562E+04  0.50400001928E-02 0. -1.
       -1    1    3    3    0  502 -0.17930110907E+04  0.87222993617E+03 -0.89253431564E+03  0.21845574695E+04  0.50400001928E-02 0.  1.
</event>
<event>
 5   0  0.6599276E-09  0.4011576E+04  0.7818609E-02  0.8002215E-01
       -2   -1    0    0    0  501  0.00000000000E+00  0.00000000000E+00  0.15216715507E+04  0.15216715507E+04  0.25500000920E-02 0. -1.
        2   -1    0    0  501    0  0.00000000000E+00  0.00000000000E+00 -0.26439253821E+04  0.26439253821E+04  0.25500000920E-02 0.  1.
    10030    2    1    2    0    0  0.00000000000E+00  0.00000000000E+00 -0.11222538313E+04  0.41655969328E+04  0.40115762669E+04 0.  0.
        2    1    3    3  502    0  0.15430209570E+04 -0.71083584248E+03  0.54610734319E+03  0.17844983886E+04  0.25500000920E-02 0. -1.
       -2    1    3    3    0  502 -0.15430209570E+04  0.71083584248E+03 -0.16683611745E+04  0.23810985442E+04  0.25500000920E-02 0.  1.
</event>
<event>
 5   0  0.2078125E-09  0.4001705E+04  0.7818609E-02  0.8004203E-01
       -1   -1    0    0    0  501  0.00000000000E+00  0.00000000000E+00  0.15724934389E+04  0.15724934389E+04  0.50400001928E-02 0. -1.
        1   -1    0    0  501    0  0.00000000000E+00  0.00000000000E+00 -0.25459001242E+04  0.25459001242E+04  0.50400001928E-02 0.  1.
    10030    2    1    2    0    0  0.00000000000E+00  0.00000000000E+00 -0.97340668534E+03  0.41183935631E+04  0.40017052572E+04 0.  0.
        4    1    3    3  502    0 -0.58686240505E+02 -0.85420667499E+03  0.13744249620E+04  0.16193080953E+04  0.12699999809E+01 0. -1.
       -4    1    3    3    0  502  0.58686240505E+02  0.85420667499E+03 -0.23478316473E+04  0.24990854678E+04  0.12699999809E+01 0.  1.
</event>
<event>
 5   0  0.6599276E-09  0.4000671E+04  0.7818609E-02  0.8004411E-01
        2   -1    0    0  501    0  0.00000000000E+00  0.00000000000E+00  0.12752794161E+04  0.12752794161E+04  0.25500000920E-02 0.  1.
       -2   -1    0    0    0  501  0.00000000000E+00  0.00000000000E+00 -0.31376206332E+04  0.31376206332E+04  0.25500000920E-02 0. -1.
    10030    2    1    2    0    0  0.00000000000E+00  0.00000000000E+00 -0.18623412171E+04  0.44129000492E+04  0.40006714481E+04 0.  0.
        2    1    3    3  502    0 -0.78463961754E+03 -0.27511841358E+03  0.10756325557E+04  0.13595347975E+04  0.25500000920E-02 0.  1.
       -2    1    3    3    0  502  0.78463961754E+03  0.27511841358E+03 -0.29379737728E+04  0.30533652517E+04  0.25500000920E-02 0. -1.
</event>
<event>
 5   0  0.6538370E-09  0.4011187E+04  0.7818609E-02  0.8002294E-01
        2   -1    0    0  501    0  0.00000000000E+00  0.00000000000E+00  0.23766256759E+04  0.23766256759E+04  0.25500000920E-02 0.  1.
       -2   -1    0    0    0  501  0.00000000000E+00  0.00000000000E+00 -0.16924856830E+04  0.16924856830E+04  0.25500000920E-02 0. -1.
    10030    2    1    2    0    0  0.00000000000E+00  0.00000000000E+00  0.68413999293E+03  0.40691113589E+04  0.40111868220E+04 0.  0.
        4    1    3    3  502    0  0.12893560137E+04 -0.56592908680E+01  0.19004611105E+04  0.22965680924E+04  0.12699999809E+01 0.  1.
       -4    1    3    3    0  502 -0.12893560137E+04  0.56592908680E+01 -0.12163211176E+04  0.17725432665E+04  0.12699999809E+01 0. -1.
</event>
<event>
 5   0  0.2078125E-09  0.4001001E+04  0.7818609E-02  0.8004345E-01
        1   -1    0    0  501    0  0.00000000000E+00  0.00000000000E+00  0.18560858325E+04  0.18560858325E+04  0.50400001928E-02 0.  1.
       -1   -1    0    0    0  501  0.00000000000E+00  0.00000000000E+00 -0.21561518690E+04  0.21561518690E+04  0.50400001928E-02 0. -1.
    10030    2    1    2    0    0  0.00000000000E+00  0.00000000000E+00 -0.30006603649E+03  0.40122377015E+04  0.40010013431E+04 0.  0.
        1    1    3    3  502    0 -0.17084501672E+04  0.29113493986E+03  0.85199357996E+03  0.19311795844E+04  0.50400001928E-02 0. -1.
       -1    1    3    3    0  502  0.17084501672E+04 -0.29113493986E+03 -0.11520596164E+04  0.20810581171E+04  0.50400001928E-02 0.  1.
</event>
<event>
 5   0  0.2078125E-09  0.4001441E+04  0.7818609E-02  0.8004256E-01
       -1   -1    0    0    0  501  0.00000000000E+00  0.00000000000E+00  0.27916399750E+04  0.27916399750E+04  0.50400001928E-02 0. -1.
        1   -1    0    0  501    0  0.00000000000E+00  0.00000000000E+00 -0.14338823617E+04  0.14338823617E+04  0.50400001928E-02 0.  1.
    10030    2    1    2    0    0  0.00000000000E+00  0.00000000000E+00  0.13577576133E+04  0.42255223367E+04  0.40014414004E+04 0.  0.
        5    1    3    3  502    0  0.93022321478E+03  0.16496624457E+04 -0.23515806702E+01  0.18938661605E+04  0.46999998093E+01 0. -1.
       -5    1    3    3    0  502 -0.93022321478E+03 -0.16496624457E+04  0.13601091940E+04  0.23316561761E+04  0.46999998093E+01 0.  1.
</event>
<event>
 5   0  0.6645526E-09  0.3995516E+04  0.7818609E-02  0.8005452E-01
       -2   -1    0    0    0  501  0.00000000000E+00  0.00000000000E+00  0.18687459839E+04  0.18687459839E+04  0.25500000920E-02 0. -1.
        2   -1    0    0  501    0  0.00000000000E+00  0.00000000000E+00 -0.21356766833E+04  0.21356766833E+04  0.25500000920E-02 0.  1.
    10030    2    1    2    0    0  0.00000000000E+00  0.00000000000E+00 -0.26693069936E+03  0.40044226672E+04  0.39955160993E+04 0.  0.
        3    1    3    3  502    0 -0.14849561843E+04 -0.65919180728E+03 -0.12985576986E+04  0.20798751921E+04  0.10100000352E+00 0.  1.
       -3    1    3    3    0  502  0.14849561843E+04  0.65919180728E+03  0.10316269993E+04  0.19245474751E+04  0.10100000352E+00 0. -1.
</event>
<event>
 5   0  0.2078125E-09  0.3999732E+04  0.7818609E-02  0.8004601E-01
        3   -1    0    0  501    0  0.00000000000E+00  0.00000000000E+00  0.22774040432E+04  0.22774040454E+04  0.10100000352E+00 0.  1.
       -3   -1    0    0    0  501  0.00000000000E+00  0.00000000000E+00 -0.17561501679E+04  0.17561501708E+04  0.10100000352E+00 0. -1.
    10030    2    1    2    0    0  0.00000000000E+00  0.00000000000E+00  0.52125387531E+03  0.40335542162E+04  0.39997317426E+04 0.  0.
        1    1    3    3  502    0  0.17249517651E+04 -0.35199611668E+03 -0.69613368837E+03  0.18931354865E+04  0.50400001928E-02 0. -1.
       -1    1    3    3    0  502 -0.17249517651E+04  0.35199611668E+03  0.12173875637E+04  0.21404187297E+04  0.50400001928E-02 0.  1.
</event>
<event>
 5   0  0.2078125E-09  0.3997005E+04  0.7818609E-02  0.8005151E-01
       -1   -1    0    0    0  501  0.00000000000E+00  0.00000000000E+00  0.19618704958E+04  0.19618704958E+04  0.50400001928E-02 0. -1.
        1   -1    0    0  501    0  0.00000000000E+00  0.00000000000E+00 -0.20358180311E+04  0.20358180311E+04  0.50400001928E-02 0.  1.
    10030    2    1    2    0    0  0.00000000000E+00  0.00000000000E+00 -0.73947535247E+02  0.39976885269E+04  0.39970045434E+04 0.  0.
        4    1    3    3  502    0 -0.19078946124E+04 -0.40764231259E+03  0.39643121790E+03  0.19908273231E+04  0.12699999809E+01 0. -1.
       -4    1    3    3    0  502  0.19078946124E+04  0.40764231259E+03 -0.47037875315E+03  0.20068612038E+04  0.12699999809E+01 0.  1.
</event>
<event>
 5   0  0.6538370E-09  0.4000594E+04  0.7818609E-02  0.8004427E-01
       -2   -1    0    0    0  501  0.00000000000E+00  0.00000000000E+00  0.22443660021E+04  0.22443660021E+04  0.25500000920E-02 0.  1.
        2   -1    0    0  501    0  0.00000000000E+00  0.00000000000E+00 -0.17827695741E+04  0.17827695741E+04  0.25500000920E-02 0. -1.
    10030    2    1    2    0    0  0.00000000000E+00  0.00000000000E+00  0.46159642800E+03  0.40271355761E+04  0.40005936667E+04 0.  0.
        4    1    3    3  502    0  0.13613570574E+03 -0.18676780431E+04 -0.47702519225E+03  0.19324359886E+04  0.12699999809E+01 0. -1.
       -4    1    3    3    0  502 -0.13613570574E+03  0.18676780431E+04  0.93862162025E+03  0.20946995875E+04  0.12699999809E+01 0.  1.
</event>
<event>
 5   0  0.6736335E-09  0.4000094E+04  0.7818609E-02  0.8004528E-01
        2   -1    0    0  501    0  0.00000000000E+00  0.00000000000E+00  0.25482198417E+04  0.25482198417E+04  0.25500000920E-02 0. -1.
       -2   -1    0    0    0  501  0.00000000000E+00  0.00000000000E+00 -0.15697967243E+04  0.15697967243E+04  0.25500000920E-02 0.  1.
    10030    2    1    2    0    0  0.00000000000E+00  0.00000000000E+00  0.97842311733E+03  0.41180165660E+04  0.40000935790E+04 0.  0.
        1    1    3    3  502    0 -0.13026350619E+04  0.11470207325E+04 -0.53390336077E+03  0.18159205555E+04  0.50400001928E-02 0.  1.
       -1    1    3    3    0  502  0.13026350619E+04 -0.11470207325E+04  0.15123264781E+04  0.23020960105E+04  0.50400001928E-02 0. -1.
</event>
<event>
 5   0  0.2078125E-09  0.4005062E+04  0.7818609E-02  0.8003526E-01
        1   -1    0    0  501    0  0.00000000000E+00  0.00000000000E+00  0.23199037166E+04  0.23199037166E+04  0.50400001928E-02 0.  1.
       -1   -1    0    0    0  501  0.00000000000E+00  0.00000000000E+00 -0.17285762028E+04  0.17285762028E+04  0.50400001928E-02 0. -1.
    10030    2    1    2    0    0  0.00000000000E+00  0.00000000000E+00  0.59132751373E+03  0.40484799194E+04  0.40050619757E+04 0.  0.
        2    1    3    3  502    0 -0.40996971573E+03 -0.19142775761E+04  0.72165435328E+03  0.20864608340E+04  0.25500000920E-02 0. -1.
       -2    1    3    3    0  502  0.40996971573E+03  0.19142775761E+04 -0.13032683955E+03  0.19620190854E+04  0.25500000920E-02 0.  1.
</event>
<event>
 5   0  0.6599276E-09  0.3998167E+04  0.7818609E-02  0.8004916E-01
        2   -1    0    0  501    0  0.00000000000E+00  0.00000000000E+00  0.18121884856E+04  0.18121884856E+04  0.25500000920E-02 0.  1.
       -2   -1    0    0    0  501  0.00000000000E+00  0.00000000000E+00 -0.22052534154E+04  0.22052534154E+04  0.25500000920E-02 0. -1.
    10030    2    1    2    0    0  0.00000000000E+00  0.00000000000E+00 -0.39306492983E+03  0.40174419011E+04  0.39981670037E+04 0.  0.
        2    1    3    3  502    0 -0.18532030296E+04 -0.74122378433E+03 -0.83917722216E+02  0.19977027686E+04  0.25500000920E-02 0. -1.
       -2    1    3    3    0  502  0.18532030296E+04  0.74122378433E+03 -0.30914720761E+03  0.20197391325E+04  0.25500000920E-02 0.  1.
</event>
<event>
 5   0  0.6736335E-09  0.3999588E+04  0.7818609E-02  0.8004630E-01
        2   -1    0    0  501    0  0.00000000000E+00  0.00000000000E+00  0.22108184945E+04  0.22108184945E+04  0.25500000920E-02 0. -1.
       -2   -1    0    0    0  501  0.00000000000E+00  0.00000000000E+00 -0.18089120431E+04  0.18089120431E+04  0.25500000920E-02 0.  1.
    10030    2    1    2    0    0  0.00000000000E+00  0.00000000000E+00  0.40190645140E+03  0.40197305375E+04  0.39995880786E+04 0.  0.
        1    1    3    3  502    0  0.61603583795E+03 -0.83403760939E+03  0.19195524690E+04  0.21816967179E+04  0.50400001928E-02 0. -1.
       -1    1    3    3    0  502 -0.61603583795E+03  0.83403760939E+03 -0.15176460176E+04  0.18380338197E+04  0.50400001928E-02 0.  1.
</event>
<event>
 5   0  0.6645526E-09  0.4000191E+04  0.7818609E-02  0.8004508E-01
        2   -1    0    0  501    0  0.00000000000E+00  0.00000000000E+00  0.24553427660E+04  0.24553427660E+04  0.25500000920E-02 0.  1.
       -2   -1    0    0    0  501  0.00000000000E+00  0.00000000000E+00 -0.16292560916E+04  0.16292560916E+04  0.25500000920E-02 0. -1.
    10030    2    1    2    0    0  0.00000000000E+00  0.00000000000E+00  0.82608667435E+03  0.40845988576E+04  0.40001910747E+04 0.  0.
        3    1    3    3  502    0 -0.27362508141E+03 -0.56390873962E+03  0.23524681707E+04  0.24345369696E+04  0.10100000352E+00 0.  1.
       -3    1    3    3    0  502  0.27362508141E+03  0.56390873962E+03 -0.15263814964E+04  0.16500618881E+04  0.10100000352E+00 0. -1.
</event>
<event>
 5   0  0.6599276E-09  0.3998673E+04  0.7818609E-02  0.8004814E-01
        2   -1    0    0  501    0  0.00000000000E+00  0.00000000000E+00  0.14777535868E+04  0.14777535868E+04  0.25500000920E-02 0.  1.
       -2   -1    0    0    0  501  0.00000000000E+00  0.00000000000E+00 -0.27050155117E+04  0.27050155117E+04  0.25500000920E-02 0. -1.
    10030    2    1    2    0    0  0.00000000000E+00  0.00000000000E+00 -0.12272619249E+04  0.41827690985E+04  0.39986729672E+04 0.  0.
        2    1    3    3  502    0  0.17955663468E+04 -0.30322414644E+03  0.24980652234E+03  0.18380442561E+04  0.25500000920E-02 0.  1.
       -2    1    3    3    0  502 -0.17955663468E+04  0.30322414644E+03 -0.14770684473E+04  0.23447248424E+04  0.25500000920E-02 0. -1.
</event>
<event>
 5   0  0.2078125E-09  0.4000682E+04  0.7818609E-02  0.8004409E-01
        1   -1    0    0  501    0  0.00000000000E+00  0.00000000000E+00  0.21678365057E+04  0.21678365057E+04  0.50400001928E-02 0.  1.
       -1   -1    0    0    0  501  0.00000000000E+00  0.00000000000E+00 -0.18457871989E+04  0.18457871989E+04  0.50400001928E-02 0. -1.
    10030    2    1    2    0    0  0.00000000000E+00  0.00000000000E+00  0.32204930682E+03  0.40136237046E+04  0.40006823776E+04 0.  0.
        5    1    3    3  502    0 -0.18701449413E+04 -0.27915520588E+03 -0.49375268776E+03  0.19542731480E+04  0.46999998093E+01 0. -1.
       -5    1    3    3    0  502  0.18701449413E+04  0.27915520588E+03  0.81580199458E+03  0.20593505566E+04  0.46999998093E+01 0.  1.
</event>
<event>
 5   0  0.6538370E-09  0.3999471E+04  0.7818609E-02  0.8004653E-01
       -2   -1    0    0    0  501  0.00000000000E+00  0.00000000000E+00  0.12428898411E+04  0.12428898411E+04  0.25500000920E-02 0. -1.
        2   -1    0    0  501    0  0.00000000000E+00  0.00000000000E+00 -0.32174551820E+04  0.32174551820E+04  0.25500000920E-02 0.  1.
    10030    2    1    2    0    0  0.00000000000E+00  0.00000000000E+00 -0.19745653410E+04  0.44603450231E+04  0.39994711449E+04 0.  0.
        4    1    3    3  502    0  0.37269993722E+03 -0.18227897094E+04 -0.18048890751E+04  0.25921214775E+04  0.12699999809E+01 0.  1.
       -4    1    3    3    0  502 -0.37269993722E+03  0.18227897094E+04 -0.16967626590E+03  0.18682235456E+04  0.12699999809E+01 0. -1.
</event>
<event>
 5   0  0.2078125E-09  0.4001761E+04  0.7818609E-02  0.8004191E-01
        1   -1    0    0  501    0  0.00000000000E+00  0.00000000000E+00  0.24216557766E+04  0.24216557766E+04  0.50400001928E-02 0. -1.
       -1   -1    0    0    0  501  0.00000000000E+00  0.00000000000E+00 -0.16532167569E+04  0.16532167569E+04  0.50400001928E-02 0.  1.
    10030    2    1    2    0    0  0.00000000000E+00  0.00000000000E+00  0.76843901972E+03  0.40748725335E+04  0.40017605672E+04 0.  0.
        3    1    3    3  502    0 -0.12742950289E+04  0.32964506330E+03  0.19187453012E+04  0.23268169738E+04  0.10100000352E+00 0. -1.
       -3    1    3    3    0  502  0.12742950289E+04 -0.32964506330E+03 -0.11503062815E+04  0.17480555597E+04  0.10100000352E+00 0.  1.
</event>
<event>
 5   0  0.2078125E-09  0.3999042E+04  0.7818609E-02  0.8004740E-01
       -1   -1    0    0    0  501  0.00000000000E+00  0.00000000000E+00  0.27674266085E+04  0.27674266085E+04  0.50400001928E-02 0.  1.
        1   -1    0    0  501    0  0.00000000000E+00  0.00000000000E+00 -0.14446936373E+04  0.14446936373E+04  0.50400001928E-02 0. -1.
    10030    2    1    2    0    0  0.00000000000E+00  0.00000000000E+00  0.13227329712E+04  0.42121202458E+04  0.39990416917E+04 0.  0.
        3    1    3    3  502    0  0.90740623431E+03  0.21949949945E+02 -0.12151960796E+04  0.15167628017E+04  0.10100000352E+00 0. -1.
       -3    1    3    3    0  502 -0.90740623431E+03 -0.21949949945E+02  0.25379290509E+04  0.26953574441E+04  0.10100000352E+00 0.  1.
</event>
<event>
 5   0  0.6645526E-09  0.3999928E+04  0.7818609E-02  0.8004561E-01
       -2   -1    0    0    0  501  0.00000000000E+00  0.00000000000E+00  0.20185837189E+04  0.20185837189E+04  0.25500000920E-02 0. -1.
        2   -1    0    0  501    0  0.00000000000E+00  0.00000000000E+00 -0.19815161378E+04  0.19815161378E+04  0.25500000920E-02 0.  1.
    10030    2    1    2    0    0  0.00000000000E+00  0.00000000000E+00  0.37067581108E+02  0.40000998567E+04  0.39999281066E+04 0.  0.
        3    1    3    3  502    0  0.36013308761E+03  0.90652068261E+03 -0.17275024077E+04  0.19838699977E+04  0.10100000352E+00 0.  1.
       -3    1    3    3    0  502 -0.36013308761E+03 -0.90652068261E+03  0.17645699888E+04  0.20162298590E+04  0.10100000352E+00 0. -1.
</event>
<event>
 5   0  0.2078125E-09  0.3994641E+04  0.7818609E-02  0.8005629E-01
        1   -1    0    0  501    0  0.00000000000E+00  0.00000000000E+00  0.13546123624E+04  0.13546123625E+04  0.50400001928E-02 0. -1.
       -1   -1    0    0    0  501  0.00000000000E+00  0.00000000000E+00 -0.29449667910E+04  0.29449667910E+04  0.50400001928E-02 0.  1.
    10030    2    1    2    0    0  0.00000000000E+00  0.00000000000E+00 -0.15903544285E+04  0.42995791534E+04  0.39946406207E+04 0.  0.
        3    1    3    3  502    0 -0.17938575632E+03  0.15149421341E+04 -0.21828003019E+04  0.26630520249E+04  0.10100000352E+00 0.  1.
       -3    1    3    3    0  502  0.17938575632E+03 -0.15149421341E+04  0.59244587341E+03  0.16365271285E+04  0.10100000352E+00 0. -1.
</event>
<event>
 5   0  0.2078125E-09  0.4000595E+04  0.7818609E-02  0.8004426E-01
       -1   -1    0    0    0  501  0.00000000000E+00  0.00000000000E+00  0.24902184772E+04  0.24902184772E+04  0.50400001928E-02 0.  1.
        1   -1    0    0  501    0  0.00000000000E+00  0.00000000000E+00 -0.16067630177E+04  0.16067630177E+04  0.50400001928E-02 0. -1.
    10030    2    1    2    0    0  0.00000000000E+00  0.00000000000E+00  0.88345545953E+03  0.40969814950E+04  0.40005954333E+04 0.  0.
        4    1    3    3  502    0 -0.11240399534E+04 -0.18719823872E+02 -0.12526349013E+04  0.16831256809E+04  0.12699999809E+01 0. -1.
       -4    1    3    3    0  502  0.11240399534E+04  0.18719823872E+02  0.21360903609E+04  0.24138558141E+04  0.12699999809E+01 0.  1.
</event>
<event>
 5   0  0.2078125E-09  0.4000207E+04  0.7818609E-02  0.8004505E-01
       -3   -1    0    0    0  501  0.00000000000E+00  0.00000000000E+00  0.22504067120E+04  0.22504067142E+04  0.10100000352E+00 0. -1.
        3   -1    0    0  501    0  0.00000000000E+00  0.00000000000E+00 -0.17776408672E+04  0.17776408701E+04  0.10100000352E+00 0.  1.
    10030    2    1    2    0    0  0.00000000000E+00  0.00000000000E+00  0.47276584472E+03  0.40280475844E+04  0.40002074694E+04 0.  0.
        1    1    3    3  502    0  0.11089299353E+04 -0.42496929404E+03  0.18569594375E+04  0.22042284035E+04  0.50400001928E-02 0. -1.
       -1    1    3    3    0  502 -0.11089299353E+04  0.42496929404E+03 -0.13841935928E+04  0.18238191809E+04  0.50400001928E-02 0.  1.
</event>
<event>
 5   0  0.2078125E-09  0.4001803E+04  0.7818609E-02  0.8004183E-01
        1   -1    0    0  501    0  0.00000000000E+00  0.00000000000E+00  0.27428450678E+04  0.27428450678E+04  0.50400001928E-02 0. -1.
       -1   -1    0    0    0  501  0.00000000000E+00  0.00000000000E+00 -0.14596550758E+04  0.14596550758E+04  0.50400001928E-02 0.  1.
    10030    2    1    2    0    0  0.00000000000E+00  0.00000000000E+00  0.12831899920E+04  0.42025001437E+04  0.40018034562E+04 0.  0.
        4    1    3    3  502    0 -0.44283620653E+03  0.10077694072E+04  0.23962920499E+04  0.26370286850E+04  0.12699999809E+01 0. -1.
       -4    1    3    3    0  502  0.44283620653E+03 -0.10077694072E+04 -0.11131020579E+04  0.15654714587E+04  0.12699999809E+01 0.  1.
</event>
<event>
 5   0  0.6645526E-09  0.3999410E+04  0.7818609E-02  0.8004666E-01
        2   -1    0    0  501    0  0.00000000000E+00  0.00000000000E+00  0.16424651947E+04  0.16424651947E+04  0.25500000920E-02 0.  1.
       -2   -1    0    0    0  501  0.00000000000E+00  0.00000000000E+00 -0.24346453928E+04  0.24346453928E+04  0.25500000920E-02 0. -1.
    10030    2    1    2    0    0  0.00000000000E+00  0.00000000000E+00 -0.79218019814E+03  0.40771105875E+04  0.39994101160E+04 0.  0.
        3    1    3    3  502    0  0.24501728652E+03 -0.19125390770E+04  0.14428473858E+03  0.19335607794E+04  0.10100000352E+00 0.  1.
       -3    1    3    3    0  502 -0.24501728652E+03  0.19125390770E+04 -0.93646493672E+03  0.21435498081E+04  0.10100000352E+00 0. -1.
</event>
<event>
 5   0  0.2078125E-09  0.3998234E+04  0.7818609E-02  0.8004903E-01
       -1   -1    0    0    0  501  0.00000000000E+00  0.00000000000E+00  0.13582268676E+04  0.13582268676E+04  0.50400001928E-02 0. -1.
        1   -1    0    0  501    0  0.00000000000E+00  0.00000000000E+00 -0.29424165232E+04  0.29424165232E+04  0.50400001928E-02 0.  1.
    10030    2    1    2    0    0  0.00000000000E+00  0.00000000000E+00 -0.15841896556E+04  0.43006433908E+04  0.39982341990E+04 0.  0.
        1    1    3    3  502    0 -0.67541339622E+03  0.12439019010E+04 -0.23106067166E+04  0.27096823788E+04  0.50400001928E-02 0.  1.
       -1    1    3    3    0  502  0.67541339622E+03 -0.12439019010E+04  0.72641706100E+03  0.15909610120E+04  0.50400001928E-02 0. -1.
</event>
<event>
 5   0  0.6645526E-09  0.3999822E+04  0.7818609E-02  0.8004582E-01
        2   -1    0    0  501    0  0.00000000000E+00  0.00000000000E+00  0.14609049446E+04  0.14609049446E+04  0.25500000920E-02 0.  1.
       -2   -1    0    0    0  501  0.00000000000E+00  0.00000000000E+00 -0.27377853697E+04  0.27377853697E+04  0.25500000920E-02 0. -1.
    10030    2    1    2    0    0  0.00000000000E+00  0.00000000000E+00 -0.12768804250E+04  0.41986903143E+04  0.39998220880E+04 0.  0.
        3    1    3    3  502    0 -0.81459949507E+02 -0.16684224972E+03 -0.27287188905E+04  0.27350281266E+04  0.10100000352E+00 0. -1.
       -3    1    3    3    0  502  0.81459949507E+02  0.16684224972E+03  0.14518384655E+04  0.14636621877E+04  0.10100000352E+00 0.  1.
</event>
<event>
 5   0  0.6538370E-09  0.4008557E+04  0.7818609E-02  0.8002823E-01
       -2   -1    0    0    0  501  0.00000000000E+00  0.00000000000E+00  0.18489778629E+04  0.18489778629E+04  0.25500000920E-02 0.  1.
        2   -1    0    0  501    0  0.00000000000E+00  0.00000000000E+00 -0.21726233303E+04  0.21726233303E+04  0.25500000920E-02 0. -1.
    10030    2    1    2    0    0  0.00000000000E+00  0.00000000000E+00 -0.32364546741E+03  0.40216011933E+04  0.40085570682E+04 0.  0.
        4    1    3    3  502    0  0.16838899013E+04  0.14622826868E+03  0.91883741756E+03  0.19238325600E+04  0.12699999809E+01 0.  1.
       -4    1    3    3    0  502 -0.16838899013E+04 -0.14622826868E+03 -0.12424828850E+04  0.20977686332E+04  0.12699999809E+01 0. -1.
</event>
<event>
 5   0  0.2078125E-09  0.4001122E+04  0.7818609E-02  0.8004320E-01
        1   -1    0    0  501    0  0.00000000000E+00  0.00000000000E+00  0.18665091743E+04  0.18665091743E+04  0.50400001928E-02 0. -1.
       -1   -1    0    0    0  501  0.00000000000E+00  0.00000000000E+00 -0.21442407965E+04  0.21442407965E+04  0.50400001928E-02 0.  1.
    10030    2    1    2    0    0  0.00000000000E+00  0.00000000000E+00 -0.27773162217E+03  0.40107499709E+04  0.40011224019E+04 0.  0.
        1    1    3    3  502    0 -0.11334821290E+04  0.16101980796E+04 -0.49288061580E+03  0.20298893797E+04  0.50400001928E-02 0. -1.
       -1    1    3    3    0  502  0.11334821290E+04 -0.16101980796E+04  0.21514899363E+03  0.19808605912E+04  0.50400001928E-02 0.  1.
</event>
<event>
 5   0  0.2078125E-09  0.3999358E+04  0.7818609E-02  0.8004676E-01
       -1   -1    0    0    0  501  0.00000000000E+00  0.00000000000E+00  0.24842417086E+04  0.24842417086E+04  0.50400001928E-02 0.  1.
        1   -1    0    0  501    0  0.00000000000E+00  0.00000000000E+00 -0.16096325185E+04  0.16096325185E+04  0.50400001928E-02 0. -1.
    10030    2    1    2    0    0  0.00000000000E+00  0.00000000000E+00  0.87460919009E+03  0.40938742271E+04  0.39993580675E+04 0.  0.
        3    1    3    3  502    0 -0.65269741776E+03  0.75265959044E+03  0.22121215341E+04  0.24261063600E+04  0.10100000352E+00 0.  1.
       -3    1    3    3    0  502  0.65269741776E+03 -0.75265959044E+03 -0.13375123440E+04  0.16677678671E+04  0.10100000352E+00 0. -1.
</event>
<event>
 5   0  0.6599276E-09  0.3999656E+04  0.7818609E-02  0.8004616E-01
       -2   -1    0    0    0  501  0.00000000000E+00  0.00000000000E+00  0.13870355103E+04  0.13870355103E+04  0.25500000920E-02 0. -1.
        2   -1    0    0  501    0  0.00000000000E+00  0.00000000000E+00 -0.28833518758E+04  0.28833518758E+04  0.25500000920E-02 0.  1.
    10030    2    1    2    0    0  0.00000000000E+00  0.00000000000E+00 -0.14963163656E+04  0.42703873861E+04  0.39996557053E+04 0.  0.
        2    1    3    3  502    0 -0.18062885424E+04  0.44755554410E+03  0.33756858176E+02  0.18612156750E+04  0.25500000920E-02 0. -1.
       -2    1    3    3    0  502  0.18062885424E+04 -0.44755554410E+03 -0.15300732237E+04  0.24091717111E+04  0.25500000920E-02 0.  1.
</event>
<event>
 5   0  0.6645526E-09  0.4000134E+04  0.7818609E-02  0.8004520E-01
       -2   -1    0    0    0  501  0.00000000000E+00  0.00000000000E+00  0.16339243046E+04  0.16339243046E+04  0.25500000920E-02 0. -1.
        2   -1    0    0  501    0  0.00000000000E+00  0.00000000000E+00 -0.24482572623E+04  0.24482572623E+04  0.25500000920E-02 0.  1.
    10030    2    1    2    0    0  0.00000000000E+00  0.00000000000E+00 -0.81433295764E+03  0.40821815669E+04  0.40001335202E+04 0.  0.
        3    1    3    3  502    0 -0.34813565292E+03 -0.44508205490E+03  0.15507718210E+04  0.16505119568E+04  0.10100000352E+00 0. -1.
       -3    1    3    3    0  502  0.34813565292E+03  0.44508205490E+03 -0.23651047787E+04  0.24316696101E+04  0.10100000352E+00 0.  1.
</event>
<event>
 5   0  0.2078125E-09  0.4000216E+04  0.7818609E-02  0.8004503E-01
       -1   -1    0    0    0  501  0.00000000000E+00  0.00000000000E+00  0.20710124090E+04  0.20710124090E+04  0.50400001928E-02 0.  1.
        1   -1    0    0  501    0  0.00000000000E+00  0.00000000000E+00 -0.19316310073E+04  0.19316310073E+04  0.50400001928E-02 0. -1.
    10030    2    1    2    0    0  0.00000000000E+00  0.00000000000E+00  0.13938140171E+03  0.40026434163E+04  0.40002158870E+04 0.  0.
        4    1    3    3  502    0 -0.17308184306E+04  0.93161179108E+03  0.43977621079E+03  0.20142089508E+04  0.12699999809E+01 0.  1.
       -4    1    3    3    0  502  0.17308184306E+04 -0.93161179108E+03 -0.30039480908E+03  0.19884344654E+04  0.12699999809E+01 0. -1.
</event>
<event>
 5   0  0.2078125E-09  0.4001669E+04  0.7818609E-02  0.8004210E-01
       -1   -1    0    0    0  501  0.00000000000E+00  0.00000000000E+00  0.13512406800E+04  0.13512406800E+04  0.50400001928E-02 0.  1.
        1   -1    0    0  501    0  0.00000000000E+00  0.00000000000E+00 -0.29627133676E+04  0.29627133676E+04  0.50400001928E-02 0. -1.
    10030    2    1    2    0    0  0.00000000000E+00  0.00000000000E+00 -0.16114726876E+04  0.43139540477E+04  0.40016690646E+04 0.  0.
        2    1    3    3  502    0 -0.12102636228E+04 -0.68099305162E+03  0.74710690808E+03  0.15769141717E+04  0.25500000920E-02 0.  1.
       -2    1    3    3    0  502  0.12102636228E+04  0.68099305162E+03 -0.23585795957E+04  0.27370398759E+04  0.25500000920E-02 0. -1.
</event>
<event>
 5   0  0.2078125E-09  0.4007116E+04  0.7818609E-02  0.8003113E-01
       -1   -1    0    0    0  501  0.00000000000E+00  0.00000000000E+00  0.23277050623E+04  0.23277050623E+04  0.50400001928E-02 0. -1.
        1   -1    0    0  501    0  0.00000000000E+00  0.00000000000E+00 -0.17245500674E+04  0.17245500674E+04  0.50400001928E-02 0.  1.
    10030    2    1    2    0    0  0.00000000000E+00  0.00000000000E+00  0.60315499487E+03  0.40522551297E+04  0.40071156320E+04 0.  0.
        1    1    3    3  502    0  0.73535720580E+03 -0.14325349860E+04 -0.90405090216E+03  0.18466766745E+04  0.50400001928E-02 0.  1.
       -1    1    3    3    0  502 -0.73535720580E+03  0.14325349860E+04  0.15072058970E+04  0.22055784553E+04  0.50400001928E-02 0. -1.
</event>
<event>
 5   0  0.6599276E-09  0.3996620E+04  0.7818609E-02  0.8005229E-01
        2   -1    0    0  501    0  0.00000000000E+00  0.00000000000E+00  0.17950516193E+04  0.17950516193E+04  0.25500000920E-02 0.  1.
       -2   -1    0    0    0  501  0.00000000000E+00  0.00000000000E+00 -0.22245842452E+04  0.22245842452E+04  0.25500000920E-02 0. -1.
    10030    2    1    2    0    0  0.00000000000E+00  0.00000000000E+00 -0.42953262584E+03  0.40196358645E+04  0.39966203480E+04 0.  0.
        2    1    3    3  502    0  0.43878681717E+03 -0.14609050693E+04 -0.15131171244E+04  0.21485578709E+04  0.25500000920E-02 0. -1.
       -2    1    3    3    0  502 -0.43878681717E+03  0.14609050693E+04  0.10835844986E+04  0.18710779936E+04  0.25500000920E-02 0.  1.
</event>
<event>
 5   0  0.2078125E-09  0.3998453E+04  0.7818609E-02  0.8004859E-01
        1   -1    0    0  501    0  0.00000000000E+00  0.00000000000E+00  0.26932445375E+04  0.26932445375E+04  0.50400001928E-02 0.  1.
       -1   -1    0    0    0  501  0.00000000000E+00  0.00000000000E+00 -0.14840486441E+04  0.14840486441E+04  0.50400001928E-02 0. -1.
    10030    2    1    2    0    0  0.00000000000E+00  0.00000000000E+00  0.12091958934E+04  0.41772931816E+04  0.39984526528E+04 0.  0.
        5    1    3    3  502    0 -0.13519442925E+04 -0.95194506902E+03  0.17786647709E+04  0.24285022631E+04  0.46999998093E+01 0.  1.
       -5    1    3    3    0  502  0.13519442925E+04  0.95194506902E+03 -0.56946887750E+03  0.17487909186E+04  0.46999998093E+01 0. -1.
</event>
<event>
 5   0  0.2078125E-09  0.4006176E+04  0.7818609E-02  0.8003302E-01
        1   -1    0    0  501    0  0.00000000000E+00  0.00000000000E+00  0.21850815777E+04  0.21850815777E+04  0.50400001928E-02 0. -1.
       -1   -1    0    0    0  501  0.00000000000E+00  0.00000000000E+00 -0.18362523014E+04  0.18362523014E+04  0.50400001928E-02 0.  1.
    10030    2    1    2    0    0  0.00000000000E+00  0.00000000000E+00  0.34882927637E+03  0.40213338791E+04  0.40061757704E+04 0.  0.
        3    1    3    3  502    0 -0.14737276234E+04 -0.20894396942E+03 -0.11711162537E+04  0.18939493077E+04  0.10100000352E+00 0.  1.
       -3    1    3    3    0  502  0.14737276234E+04  0.20894396942E+03  0.15199455300E+04  0.21273845714E+04  0.10100000352E+00 0. -1.
</event>
<event>
 5   0  0.6645526E-09  0.4009594E+04  0.7818609E-02  0.8002614E-01
       -2   -1    0    0    0  501  0.00000000000E+00  0.00000000000E+00  0.23527826949E+04  0.23527826949E+04  0.25500000920E-02 0.  1.
        2   -1    0    0  501    0  0.00000000000E+00  0.00000000000E+00 -0.17082798442E+04  0.17082798443E+04  0.25500000920E-02 0. -1.
    10030    2    1    2    0    0  0.00000000000E+00  0.00000000000E+00  0.64450285065E+03  0.40610625391E+04  0.40095941219E+04 0.  0.
        3    1    3    3  502    0  0.36045434338E+03  0.15667525831E+04  0.15353614059E+04  0.22230554755E+04  0.10100000352E+00 0.  1.
       -3    1    3    3    0  502 -0.36045434338E+03 -0.15667525831E+04 -0.89085855528E+03  0.18380070636E+04  0.10100000352E+00 0. -1.
</event>
<event>
 5   0  0.6645526E-09  0.4003158E+04  0.7818609E-02  0.8003910E-01
        2   -1    0    0  501    0  0.00000000000E+00  0.00000000000E+00  0.20006112304E+04  0.20006112304E+04  0.25500000920E-02 0. -1.
       -2   -1    0    0    0  501  0.00000000000E+00  0.00000000000E+00 -0.20025475104E+04  0.20025475104E+04  0.25500000920E-02 0.  1.
    10030    2    1    2    0    0  0.00000000000E+00  0.00000000000E+00 -0.19362800576E+01  0.40031587408E+04  0.40031582725E+04 0.  0.
        3    1    3    3  502    0  0.49229873198E+03  0.26139587338E+03  0.19214350562E+04  0.20006495269E+04  0.10100000352E+00 0. -1.
       -3    1    3    3    0  502 -0.49229873198E+03 -0.26139587338E+03 -0.19233713363E+04  0.20025092139E+04  0.10100000352E+00 0.  1.
</event>
<event>
 5   0  0.2078125E-09  0.3984618E+04  0.7818609E-02  0.8007657E-01
        1   -1    0    0  501    0  0.00000000000E+00  0.00000000000E+00  0.17650749625E+04  0.17650749625E+04  0.50400001928E-02 0.  1.
       -1   -1    0    0    0  501  0.00000000000E+00  0.00000000000E+00 -0.22487969142E+04  0.22487969142E+04  0.50400001928E-02 0. -1.
    10030    2    1    2    0    0  0.00000000000E+00  0.00000000000E+00 -0.48372195170E+03  0.40138718767E+04  0.39846179887E+04 0.  0.
        1    1    3    3  502    0  0.17451690451E+04 -0.21348128448E+02  0.72603893322E+03  0.18902918482E+04  0.50400001928E-02 0.  1.
       -1    1    3    3    0  502 -0.17451690451E+04  0.21348128448E+02 -0.12097608849E+04  0.21235800285E+04  0.50400001928E-02 0. -1.
</event>
<event>
 5   0  0.6736335E-09  0.3998386E+04  0.7818609E-02  0.8004872E-01
       -2   -1    0    0    0  501  0.00000000000E+00  0.00000000000E+00  0.27996305528E+04  0.27996305528E+04  0.25500000920E-02 0. -1.
        2   -1    0    0  501    0  0.00000000000E+00  0.00000000000E+00 -0.14276074764E+04  0.14276074764E+04  0.25500000920E-02 0.  1.
    10030    2    1    2    0    0  0.00000000000E+00  0.00000000000E+00  0.13720230764E+04  0.42272380292E+04  0.39983864287E+04 0.  0.
        1    1    3    3  502    0  0.15222192372E+04  0.12914658050E+04  0.57146756094E+03  0.20764417894E+04  0.50400001928E-02 0. -1.
       -1    1    3    3    0  502 -0.15222192372E+04 -0.12914658050E+04  0.80055551550E+03  0.21507962398E+04  0.50400001928E-02 0.  1.
</event>
<event>
 5   0  0.2078125E-09  0.3984559E+04  0.7818609E-02  0.8007669E-01
        1   -1    0    0  501    0  0.00000000000E+00  0.00000000000E+00  0.16346948758E+04  0.16346948758E+04  0.50400001928E-02 0. -1.
       -1   -1    0    0    0  501  0.00000000000E+00  0.00000000000E+00 -0.24280847640E+04  0.24280847640E+04  0.50400001928E-02 0.  1.
    10030    2    1    2    0    0  0.00000000000E+00  0.00000000000E+00 -0.79338988816E+03  0.40627796398E+04  0.39845590580E+04 0.  0.
        2    1    3    3  502    0  0.87372651920E+03 -0.11209489156E+04  0.10268694904E+04  0.17533925550E+04  0.25500000920E-02 0. -1.
       -2    1    3    3    0  502 -0.87372651920E+03  0.11209489156E+04 -0.18202593786E+04  0.23093870847E+04  0.25500000920E-02 0.  1.
</event>
<event>
 5   0  0.2078125E-09  0.4005159E+04  0.7818609E-02  0.8003507E-01
        1   -1    0    0  501    0  0.00000000000E+00  0.00000000000E+00  0.21741038697E+04  0.21741038697E+04  0.50400001928E-02 0.  1.
       -1   -1    0    0    0  501  0.00000000000E+00  0.00000000000E+00 -0.18445874557E+04  0.18445874557E+04  0.50400001928E-02 0. -1.
    10030    2    1    2    0    0  0.00000000000E+00  0.00000000000E+00  0.32951641394E+03  0.40186913254E+04  0.40051590358E+04 0.  0.
        1    1    3    3  502    0  0.10286486250E+04  0.17175021760E+04  0.21384185887E+03  0.20133703234E+04  0.50400001928E-02 0.  1.
       -1    1    3    3    0  502 -0.10286486250E+04 -0.17175021760E+04  0.11567455507E+03  0.20053210020E+04  0.50400001928E-02 0. -1.
</event>
<event>
 5   0  0.6547327E-09  0.3999828E+04  0.7818609E-02  0.8004581E-01
        2   -1    0    0  501    0  0.00000000000E+00  0.00000000000E+00  0.19217985759E+04  0.19217985759E+04  0.25500000920E-02 0.  1.
       -2   -1    0    0    0  501  0.00000000000E+00  0.00000000000E+00 -0.20812042104E+04  0.20812042104E+04  0.25500000920E-02 0. -1.
    10030    2    1    2    0    0  0.00000000000E+00  0.00000000000E+00 -0.15940563450E+03  0.40030027863E+04  0.39998276401E+04 0.  0.
        5    1    3    3  502    0 -0.11533186250E+04  0.28770572080E+03 -0.16893062376E+04  0.20655982395E+04  0.46999998093E+01 0. -1.
       -5    1    3    3    0  502  0.11533186250E+04 -0.28770572080E+03  0.15299006031E+04  0.19374045468E+04  0.46999998093E+01 0.  1.
</event>
<event>
 5   0  0.6736335E-09  0.4001304E+04  0.7818609E-02  0.8004284E-01
        2   -1    0    0  501    0  0.00000000000E+00  0.00000000000E+00  0.21095189869E+04  0.21095189869E+04  0.25500000920E-02 0.  1.
       -2   -1    0    0    0  501  0.00000000000E+00  0.00000000000E+00 -0.18974035441E+04  0.18974035441E+04  0.25500000920E-02 0. -1.
    10030    2    1    2    0    0  0.00000000000E+00  0.00000000000E+00  0.21211544277E+03  0.40069225310E+04  0.40013041885E+04 0.  0.
        1    1    3    3  502    0 -0.14002057532E+02 -0.30044276497E+03  0.20867497498E+04  0.21083136462E+04  0.50400001928E-02 0.  1.
       -1    1    3    3    0  502  0.14002057532E+02  0.30044276497E+03 -0.18746343070E+04  0.18986088848E+04  0.50400001928E-02 0. -1.
</event>
<event>
 5   0  0.2078125E-09  0.3997244E+04  0.7818609E-02  0.8005103E-01
       -1   -1    0    0    0  501  0.00000000000E+00  0.00000000000E+00  0.13293448515E+04  0.13293448515E+04  0.50400001928E-02 0.  1.
        1   -1    0    0  501    0  0.00000000000E+00  0.00000000000E+00 -0.30048567170E+04  0.30048567170E+04  0.50400001928E-02 0. -1.
    10030    2    1    2    0    0  0.00000000000E+00  0.00000000000E+00 -0.16755118655E+04  0.43342015685E+04  0.39972444540E+04 0.  0.
        4    1    3    3  502    0 -0.73911222066E+03  0.48512302247E+03 -0.27812989615E+04  0.29184339547E+04  0.12699999809E+01 0. -1.
       -4    1    3    3    0  502  0.73911222066E+03 -0.48512302247E+03  0.11057870960E+04  0.14157676138E+04  0.12699999809E+01 0.  1.
</event>
<event>
 5   0  0.2078125E-09  0.4001446E+04  0.7818609E-02  0.8004255E-01
        1   -1    0    0  501    0  0.00000000000E+00  0.00000000000E+00  0.13986923977E+04  0.13986923977E+04  0.50400001928E-02 0. -1.
       -1   -1    0    0    0  501  0.00000000000E+00  0.00000000000E+00 -0.28618821679E+04  0.28618821679E+04  0.50400001928E-02 0.  1.
    10030    2    1    2    0    0  0.00000000000E+00  0.00000000000E+00 -0.14631897702E+04  0.42605745656E+04  0.40014461543E+04 0.  0.
        2    1    3    3  502    0  0.11207104612E+04 -0.12474574130E+04  0.43028612010E+03  0.17312677668E+04  0.25500000920E-02 0. -1.
       -2    1    3    3    0  502 -0.11207104612E+04  0.12474574130E+04 -0.18934758903E+04  0.25293067988E+04  0.25500000920E-02 0.  1.
</event>
<event>
 5   0  0.6599276E-09  0.3998387E+04  0.7818609E-02  0.8004872E-01
       -2   -1    0    0    0  501  0.00000000000E+00  0.00000000000E+00  0.23312705587E+04  0.23312705587E+04  0.25500000920E-02 0. -1.
        2   -1    0    0  501    0  0.00000000000E+00  0.00000000000E+00 -0.17144189170E+04  0.17144189170E+04  0.25500000920E-02 0.  1.
    10030    2    1    2    0    0  0.00000000000E+00  0.00000000000E+00  0.61685164172E+03  0.40456894756E+04  0.39983868479E+04 0.  0.
        2    1    3    3  502    0 -0.82012711198E+03 -0.17706051573E+04 -0.13160205415E+03  0.19557531039E+04  0.25500000920E-02 0. -1.
       -2    1    3    3    0  502  0.82012711198E+03  0.17706051573E+04  0.74845369587E+03  0.20899363717E+04  0.25500000920E-02 0.  1.
</event>
<event>
 5   0  0.2078125E-09  0.3997923E+04  0.7818609E-02  0.8004966E-01
        1   -1    0    0  501    0  0.00000000000E+00  0.00000000000E+00  0.12875076008E+04  0.12875076008E+04  0.50400001928E-02 0. -1.
       -1   -1    0    0    0  501  0.00000000000E+00  0.00000000000E+00 -0.31035529653E+04  0.31035529653E+04  0.50400001928E-02 0.  1.
    10030    2    1    2    0    0  0.00000000000E+00  0.00000000000E+00 -0.18160453645E+04  0.43910605661E+04  0.39979234771E+04 0.  0.
        3    1    3    3  502    0 -0.11923994049E+04 -0.15974994837E+04 -0.10710323727E+04  0.22629474795E+04  0.10100000352E+00 0. -1.
       -3    1    3    3    0  502  0.11923994049E+04  0.15974994837E+04 -0.74501299184E+03  0.21281130866E+04  0.10100000352E+00 0.  1.
</event>
<event>
 5   0  0.6547327E-09  0.3998756E+04  0.7818609E-02  0.8004798E-01
       -2   -1    0    0    0  501  0.00000000000E+00  0.00000000000E+00  0.14094046672E+04  0.14094046672E+04  0.25500000920E-02 0. -1.
        2   -1    0    0  501    0  0.00000000000E+00  0.00000000000E+00 -0.28363124661E+04  0.28363124661E+04  0.25500000920E-02 0.  1.
    10030    2    1    2    0    0  0.00000000000E+00  0.00000000000E+00 -0.14269077989E+04  0.42457171334E+04  0.39987558203E+04 0.  0.
        5    1    3    3  502    0  0.15534185434E+04 -0.64972246267E+03  0.43120043782E+03  0.17381612000E+04  0.46999998093E+01 0. -1.
       -5    1    3    3    0  502 -0.15534185434E+04  0.64972246267E+03 -0.18581082367E+04  0.25075559334E+04  0.46999998093E+01 0.  1.
</event>
<event>
 5   0  0.2078125E-09  0.3997395E+04  0.7818609E-02  0.8005072E-01
       -1   -1    0    0    0  501  0.00000000000E+00  0.00000000000E+00  0.32105874189E+04  0.32105874190E+04  0.50400001928E-02 0.  1.
        1   -1    0    0  501    0  0.00000000000E+00  0.00000000000E+00 -0.12442559520E+04  0.12442559520E+04  0.50400001928E-02 0. -1.
    10030    2    1    2    0    0  0.00000000000E+00  0.00000000000E+00  0.19663314669E+04  0.44548433710E+04  0.39973954048E+04 0.  0.
        3    1    3    3  502    0  0.15109294628E+04 -0.11301932436E+04  0.17178050225E+04  0.25516854655E+04  0.10100000352E+00 0. -1.
       -3    1    3    3    0  502 -0.15109294628E+04  0.11301932436E+04  0.24852644443E+03  0.19031579055E+04  0.10100000352E+00 0.  1.
</event>
<event>
 5   0  0.6599276E-09  0.4000019E+04  0.7818609E-02  0.8004543E-01
       -2   -1    0    0    0  501  0.00000000000E+00  0.00000000000E+00  0.18972834172E+04  0.18972834172E+04  0.25500000920E-02 0.  1.
        2   -1    0    0  501    0  0.00000000000E+00  0.00000000000E+00 -0.21082978351E+04  0.21082978351E+04  0.25500000920E-02 0. -1.
    10030    2    1    2    0    0  0.00000000000E+00  0.00000000000E+00 -0.21101441792E+03  0.40055812523E+04  0.40000192605E+04 0.  0.
        2    1    3    3  502    0  0.31130640838E+02 -0.34486605434E+02 -0.21077574038E+04  0.21082693651E+04  0.25500000920E-02 0. -1.
       -2    1    3    3    0  502 -0.31130640838E+02  0.34486605434E+02  0.18967429859E+04  0.18973118872E+04  0.25500000920E-02 0.  1.
</event>
<event>
 5   0  0.6599276E-09  0.3999456E+04  0.7818609E-02  0.8004656E-01
        2   -1    0    0  501    0  0.00000000000E+00  0.00000000000E+00  0.13915908279E+04  0.13915908279E+04  0.25500000920E-02 0.  1.
       -2   -1    0    0    0  501  0.00000000000E+00  0.00000000000E+00 -0.28736263395E+04  0.28736263395E+04  0.25500000920E-02 0. -1.
    10030    2    1    2    0    0  0.00000000000E+00  0.00000000000E+00 -0.14820355117E+04  0.42652171674E+04  0.39994559914E+04 0.  0.
        2    1    3    3  502    0 -0.10138488407E+04  0.63324188684E+03  0.96863965975E+03  0.15385537201E+04  0.25500000920E-02 0.  1.
       -2    1    3    3    0  502  0.10138488407E+04 -0.63324188684E+03 -0.24506751714E+04  0.27266634473E+04  0.25500000920E-02 0. -1.
</event>
<event>
 5   0  0.2078125E-09  0.3999286E+04  0.7818609E-02  0.8004691E-01
        1   -1    0    0  501    0  0.00000000000E+00  0.00000000000E+00  0.23331006745E+04  0.23331006745E+04  0.50400001928E-02 0.  1.
       -1   -1    0    0    0  501  0.00000000000E+00  0.00000000000E+00 -0.17138443762E+04  0.17138443762E+04  0.50400001928E-02 0. -1.
    10030    2    1    2    0    0  0.00000000000E+00  0.00000000000E+00  0.61925629821E+03  0.40469450507E+04  0.39992856713E+04 0.  0.
        1    1    3    3  502    0  0.75438212460E+03  0.82061928311E+03  0.19895514602E+04  0.22805313877E+04  0.50400001928E-02 0.  1.
       -1    1    3    3    0  502 -0.75438212460E+03 -0.82061928311E+03 -0.13702951620E+04  0.17664136630E+04  0.50400001928E-02 0. -1.
</event>
<event>
 5   0  0.6645526E-09  0.3997205E+04  0.7818609E-02  0.8005111E-01
       -2   -1    0    0    0  501  0.00000000000E+00  0.00000000000E+00  0.27326347577E+04  0.27326347577E+04  0.25500000920E-02 0.  1.
        2   -1    0    0  501    0  0.00000000000E+00  0.00000000000E+00 -0.14617435188E+04  0.14617435188E+04  0.25500000920E-02 0. -1.
    10030    2    1    2    0    0  0.00000000000E+00  0.00000000000E+00  0.12708912389E+04  0.41943782765E+04  0.39972045964E+04 0.  0.
        3    1    3    3  502    0 -0.83987818095E+03  0.16511814020E+04 -0.15163127260E+03  0.18587058493E+04  0.10100000352E+00 0. -1.
       -3    1    3    3    0  502  0.83987818095E+03 -0.16511814020E+04  0.14225225115E+04  0.23356724272E+04  0.10100000352E+00 0.  1.
</event>
<event>
 5   0  0.6599276E-09  0.4000539E+04  0.7818609E-02  0.8004438E-01
        2   -1    0    0  501    0  0.00000000000E+00  0.00000000000E+00  0.24469677792E+04  0.24469677792E+04  0.25500000920E-02 0. -1.
       -2   -1    0    0    0  501  0.00000000000E+00  0.00000000000E+00 -0.16351169406E+04  0.16351169406E+04  0.25500000920E-02 0.  1.
    10030    2    1    2    0    0  0.00000000000E+00  0.00000000000E+00  0.81185083856E+03  0.40820847197E+04  0.40005391980E+04 0.  0.
        2    1    3    3  502    0 -0.15358341393E+04  0.79967072808E+03 -0.61589527510E+03  0.18378212009E+04  0.25500000920E-02 0.  1.
       -2    1    3    3    0  502  0.15358341393E+04 -0.79967072808E+03  0.14277461137E+04  0.22442635188E+04  0.25500000920E-02 0. -1.
</event>
<event>
 5   0  0.2078125E-09  0.4005078E+04  0.7818609E-02  0.8003523E-01
        1   -1    0    0  501    0  0.00000000000E+00  0.00000000000E+00  0.13751325158E+04  0.13751325158E+04  0.50400001928E-02 0. -1.
       -1   -1    0    0    0  501  0.00000000000E+00  0.00000000000E+00 -0.29162001092E+04  0.29162001093E+04  0.50400001928E-02 0.  1.
    10030    2    1    2    0    0  0.00000000000E+00  0.00000000000E+00 -0.15410675934E+04  0.42913326251E+04  0.40050775737E+04 0.  0.
        3    1    3    3  502    0 -0.96659596655E+03 -0.13663893794E+04  0.40751846818E+03  0.17226140052E+04  0.10100000352E+00 0. -1.
       -3    1    3    3    0  502  0.96659596655E+03  0.13663893794E+04 -0.19485860616E+04  0.25687186199E+04  0.10100000352E+00 0.  1.
</event>
<event>
 5   0  0.2078125E-09  0.4000904E+04  0.7818609E-02  0.8004364E-01
       -1   -1    0    0    0  501  0.00000000000E+00  0.00000000000E+00  0.22353420501E+04  0.22353420501E+04  0.50400001928E-02 0. -1.
        1   -1    0    0  501    0  0.00000000000E+00  0.00000000000E+00 -0.17902443550E+04  0.17902443550E+04  0.50400001928E-02 0.  1.
    10030    2    1    2    0    0  0.00000000000E+00  0.00000000000E+00  0.44509769513E+03  0.40255864051E+04  0.40009041412E+04 0.  0.
        5    1    3    3  502    0  0.76800520763E+03 -0.61355576764E+03 -0.15304692160E+04  0.18189669569E+04  0.46999998093E+01 0.  1.
       -5    1    3    3    0  502 -0.76800520763E+03  0.61355576764E+03  0.19755669112E+04  0.22066194483E+04  0.46999998093E+01 0. -1.
</event>
<event>
 5   0  0.2078125E-09  0.3999687E+04  0.7818609E-02  0.8004610E-01
        1   -1    0    0  501    0  0.00000000000E+00  0.00000000000E+00  0.22173053697E+04  0.22173053697E+04  0.50400001928E-02 0. -1.
       -1   -1    0    0    0  501  0.00000000000E+00  0.00000000000E+00 -0.18037087713E+04  0.18037087713E+04  0.50400001928E-02 0.  1.
    10030    2    1    2    0    0  0.00000000000E+00  0.00000000000E+00  0.41359659840E+03  0.40210141410E+04  0.39996865597E+04 0.  0.
        4    1    3    3  502    0 -0.17018348693E+03 -0.14432651309E+04  0.15879488703E+04  0.21525705296E+04  0.12699999809E+01 0. -1.
       -4    1    3    3    0  502  0.17018348693E+03  0.14432651309E+04 -0.11743522719E+04  0.18684436114E+04  0.12699999809E+01 0.  1.
</event>
<event>
 5   0  0.6645526E-09  0.3997993E+04  0.7818609E-02  0.8004952E-01
        2   -1    0    0  501    0  0.00000000000E+00  0.00000000000E+00  0.28084980267E+04  0.28084980267E+04  0.25500000920E-02 0. -1.
       -2   -1    0    0    0  501  0.00000000000E+00  0.00000000000E+00 -0.14228196908E+04  0.14228196908E+04  0.25500000920E-02 0.  1.
    10030    2    1    2    0    0  0.00000000000E+00  0.00000000000E+00  0.13856783359E+04  0.42313177175E+04  0.39979926433E+04 0.  0.
        3    1    3    3  502    0 -0.19940592637E+04 -0.69344492570E+02  0.82205141743E+03  0.21579734819E+04  0.10100000352E+00 0.  1.
       -3    1    3    3    0  502  0.19940592637E+04  0.69344492570E+02  0.56362691852E+03  0.20733442356E+04  0.10100000352E+00 0. -1.
</event>
<event>
 5   0  0.6599276E-09  0.4001637E+04  0.7818609E-02  0.8004216E-01
        2   -1    0    0  501    0  0.00000000000E+00  0.00000000000E+00  0.16419627051E+04  0.16419627051E+04  0.25500000920E-02 0.  1.
       -2   -1    0    0    0  501  0.00000000000E+00  0.00000000000E+00 -0.24381029010E+04  0.24381029010E+04  0.25500000920E-02 0. -1.
    10030    2    1    2    0    0  0.00000000000E+00  0.00000000000E+00 -0.79614019587E+03  0.40800656061E+04  0.40016366825E+04 0.  0.
        2    1    3    3  502    0  0.72514522738E+03  0.68926157258E+03  0.13686211223E+04  0.16952996468E+04  0.25500000920E-02 0.  1.
       -2    1    3    3    0  502 -0.72514522738E+03 -0.68926157258E+03 -0.21647613181E+04  0.23847659593E+04  0.25500000920E-02 0. -1.
</event>
<event>
 5   0  0.6538370E-09  0.4001095E+04  0.7818609E-02  0.8004326E-01
       -2   -1    0    0    0  501  0.00000000000E+00  0.00000000000E+00  0.18064447034E+04  0.18064447034E+04  0.25500000920E-02 0. -1.
        2   -1    0    0  501    0  0.00000000000E+00  0.00000000000E+00 -0.22155069933E+04  0.22155069933E+04  0.25500000920E-02 0.  1.
    10030    2    1    2    0    0  0.00000000000E+00  0.00000000000E+00 -0.40906228991E+03  0.40219516967E+04  0.40010952867E+04 0.  0.
        4    1    3    3  502    0  0.12402671281E+04 -0.15696307099E+04 -0.19081649481E+03  0.20095809668E+04  0.12699999809E+01 0.  1.
       -4    1    3    3    0  502 -0.12402671281E+04  0.15696307099E+04 -0.21824579509E+03  0.20123707299E+04  0.12699999809E+01 0. -1.
</event>
<event>
 5   0  0.2078125E-09  0.3990420E+04  0.7818609E-02  0.8006482E-01
       -1   -1    0    0    0  501  0.00000000000E+00  0.00000000000E+00  0.19758673256E+04  0.19758673256E+04  0.50400001928E-02 0. -1.
        1   -1    0    0  501    0  0.00000000000E+00  0.00000000000E+00 -0.20147425202E+04  0.20147425202E+04  0.50400001928E-02 0.  1.
    10030    2    1    2    0    0  0.00000000000E+00  0.00000000000E+00 -0.38875194538E+02  0.39906098458E+04  0.39904204867E+04 0.  0.
        2    1    3    3  502    0  0.46705837011E+03 -0.40696503565E+03  0.18772545895E+04  0.19768279781E+04  0.25500000920E-02 0. -1.
       -2    1    3    3    0  502 -0.46705837011E+03  0.40696503565E+03 -0.19161297840E+04  0.20137818677E+04  0.25500000920E-02 0.  1.
</event>
<event>
 5   0  0.6736335E-09  0.4000796E+04  0.7818609E-02  0.8004386E-01
       -2   -1    0    0    0  501  0.00000000000E+00  0.00000000000E+00  0.22751101710E+04  0.22751101710E+04  0.25500000920E-02 0.  1.
        2   -1    0    0  501    0  0.00000000000E+00  0.00000000000E+00 -0.17588565492E+04  0.17588565492E+04  0.25500000920E-02 0. -1.
    10030    2    1    2    0    0  0.00000000000E+00  0.00000000000E+00  0.51625362185E+03  0.40339667202E+04  0.40007961330E+04 0.  0.
        1    1    3    3  502    0  0.12680470652E+04  0.15114079091E+04  0.59146604114E+03  0.20596430043E+04  0.50400001928E-02 0.  1.
       -1    1    3    3    0  502 -0.12680470652E+04 -0.15114079091E+04 -0.75212419287E+02  0.19743237159E+04  0.50400001928E-02 0. -1.
</event>
<event>
 5   0  0.6599276E-09  0.3999919E+04  0.7818609E-02  0.8004563E-01
       -2   -1    0    0    0  501  0.00000000000E+00  0.00000000000E+00  0.17198656536E+04  0.17198656536E+04  0.25500000920E-02 0. -1.
        2   -1    0    0  501    0  0.00000000000E+00  0.00000000000E+00 -0.23256689483E+04  0.23256689483E+04  0.25500000920E-02 0.  1.
    10030    2    1    2    0    0  0.00000000000E+00  0.00000000000E+00 -0.60580329470E+03  0.40455346019E+04  0.39999190721E+04 0.  0.
        2    1    3    3  502    0  0.13187264621E+04 -0.12114493614E+04 -0.12036699320E+04  0.21576538977E+04  0.25500000920E-02 0.  1.
       -2    1    3    3    0  502 -0.13187264621E+04  0.12114493614E+04  0.59786663733E+03  0.18878807042E+04  0.25500000920E-02 0. -1.
</event>
<event>
 5   0  0.2078125E-09  0.3999451E+04  0.7818609E-02  0.8004657E-01
       -1   -1    0    0    0  501  0.00000000000E+00  0.00000000000E+00  0.20668256280E+04  0.20668256280E+04  0.50400001928E-02 0. -1.
        1   -1    0    0  501    0  0.00000000000E+00  0.00000000000E+00 -0.19348033487E+04  0.19348033487E+04  0.50400001928E-02 0.  1.
    10030    2    1    2    0    0  0.00000000000E+00  0.00000000000E+00  0.13202227932E+03  0.40016289767E+04  0.39994505354E+04 0.  0.
        1    1    3    3  502    0  0.22884929347E+03  0.19777473198E+04 -0.12129308678E+03  0.19946349222E+04  0.50400001928E-02 0.  1.
       -1    1    3    3    0  502 -0.22884929347E+03 -0.19777473198E+04  0.25331536610E+03  0.20069940545E+04  0.50400001928E-02 0. -1.
</event>
<event>
 5   0  0.2078125E-09  0.3999562E+04  0.7818609E-02  0.8004635E-01
        1   -1    0    0  501    0  0.00000000000E+00  0.00000000000E+00  0.16126715143E+04  0.16126715143E+04  0.50400001928E-02 0. -1.
       -1   -1    0    0    0  501  0.00000000000E+00  0.00000000000E+00 -0.24798129010E+04  0.24798129010E+04  0.50400001928E-02 0.  1.
    10030    2    1    2    0    0  0.00000000000E+00  0.00000000000E+00 -0.86714138674E+03  0.40924844153E+04  0.39995617891E+04 0.  0.
        5    1    3    3  502    0  0.11053897160E+02 -0.16905415127E+04 -0.15265872028E+04  0.22778374333E+04  0.46999998093E+01 0.  1.
       -5    1    3    3    0  502 -0.11053897160E+02  0.16905415127E+04  0.65944581610E+03  0.18146469820E+04  0.46999998093E+01 0. -1.
</event>
<event>
 5   0  0.2078125E-09  0.3999722E+04  0.7818609E-02  0.8004603E-01
       -1   -1    0    0    0  501  0.00000000000E+00  0.00000000000E+00  0.13778853226E+04  0.13778853227E+04  0.50400001928E-02 0. -1.
        1   -1    0    0  501    0  0.00000000000E+00  0.00000000000E+00 -0.29025960413E+04  0.29025960413E+04  0.50400001928E-02 0.  1.
    10030    2    1    2    0    0  0.00000000000E+00  0.00000000000E+00 -0.15247107187E+04  0.42804813640E+04  0.39997222318E+04 0.  0.
        4    1    3    3  502    0 -0.28798003104E+03  0.19562923149E+04 -0.44231391915E+03  0.20262416775E+04  0.12699999809E+01 0. -1.
       -4    1    3    3    0  502  0.28798003104E+03 -0.19562923149E+04 -0.10823967995E+04  0.22542396865E+04  0.12699999809E+01 0.  1.
</event>
<event>
 5   0  0.2078125E-09  0.4000031E+04  0.7818609E-02  0.8004540E-01
       -1   -1    0    0    0  501  0.00000000000E+00  0.00000000000E+00  0.21507504839E+04  0.21507504839E+04  0.50400001928E-02 0. -1.
        1   -1    0    0  501    0  0.00000000000E+00  0.00000000000E+00 -0.18598447880E+04  0.18598447880E+04  0.50400001928E-02 0.  1.
    10030    2    1    2    0    0  0.00000000000E+00  0.00000000000E+00  0.29090569586E+03  0.40105952719E+04  0.40000310388E+04 0.  0.
        3    1    3    3  502    0 -0.12311347718E+04 -0.15660664651E+04 -0.33357908660E+02  0.19923277240E+04  0.10100000352E+00 0.  1.
       -3    1    3    3    0  502  0.12311347718E+04  0.15660664651E+04  0.32426360452E+03  0.20182675479E+04  0.10100000352E+00 0. -1.
</event>
<event>
 5   0  0.6645526E-09  0.4000001E+04  0.7818609E-02  0.8004546E-01
       -2   -1    0    0    0  501  0.00000000000E+00  0.00000000000E+00  0.16246137524E+04  0.16246137524E+04  0.25500000920E-02 0. -1.
        2   -1    0    0  501    0  0.00000000000E+00  0.00000000000E+00 -0.24621248655E+04  0.24621248655E+04  0.25500000920E-02 0.  1.
    10030    2    1    2    0    0  0.00000000000E+00  0.00000000000E+00 -0.83751111311E+03  0.40867386180E+04  0.40000009584E+04 0.  0.
        3    1    3    3  502    0  0.10114990579E+04 -0.81093206708E+03  0.11371798192E+04  0.17245054691E+04  0.10100000352E+00 0. -1.
       -3    1    3    3    0  502 -0.10114990579E+04  0.81093206708E+03 -0.19746909323E+04  0.23622331489E+04  0.10100000352E+00 0.  1.
</event>
<event>
 5   0  0.2078125E-09  0.3993993E+04  0.7818609E-02  0.8005759E-01
        1   -1    0    0  501    0  0.00000000000E+00  0.00000000000E+00  0.19762383834E+04  0.19762383834E+04  0.50400001928E-02 0.  1.
       -1   -1    0    0    0  501  0.00000000000E+00  0.00000000000E+00 -0.20179725936E+04  0.20179725936E+04  0.50400001928E-02 0. -1.
    10030    2    1    2    0    0  0.00000000000E+00  0.00000000000E+00 -0.41734210241E+02  0.39942109770E+04  0.39939929375E+04 0.  0.
        4    1    3    3  502    0  0.91365128199E+02 -0.18598943477E+04 -0.74232087145E+03  0.20046437240E+04  0.12699999809E+01 0. -1.
       -4    1    3    3    0  502 -0.91365128199E+02  0.18598943477E+04  0.70058666120E+03  0.19895672530E+04  0.12699999809E+01 0.  1.
</event>
<event>
 5   0  0.6736335E-09  0.4000407E+04  0.7818609E-02  0.8004464E-01
       -2   -1    0    0    0  501  0.00000000000E+00  0.00000000000E+00  0.21589851723E+04  0.21589851723E+04  0.25500000920E-02 0. -1.
        2   -1    0    0  501    0  0.00000000000E+00  0.00000000000E+00 -0.18530991967E+04  0.18530991967E+04  0.25500000920E-02 0.  1.
    10030    2    1    2    0    0  0.00000000000E+00  0.00000000000E+00  0.30588597566E+03  0.40120843690E+04  0.40004068236E+04 0.  0.
        1    1    3    3  502    0 -0.23153507612E+03 -0.19693882350E+04 -0.10995800813E+03  0.19859983070E+04  0.50400001928E-02 0.  1.
       -1    1    3    3    0  502  0.23153507612E+03  0.19693882350E+04  0.41584398379E+03  0.20260860620E+04  0.50400001928E-02 0. -1.
</event>
<event>
 5   0  0.2078125E-09  0.4000022E+04  0.7818609E-02  0.8004542E-01
       -1   -1    0    0    0  501  0.00000000000E+00  0.00000000000E+00  0.20764190493E+04  0.20764190493E+04  0.50400001928E-02 0. -1.
        1   -1    0    0  501    0  0.00000000000E+00  0.00000000000E+00 -0.19264150301E+04  0.19264150301E+04  0.50400001928E-02 0.  1.
    10030    2    1    2    0    0  0.00000000000E+00  0.00000000000E+00  0.15000401920E+03  0.40028340794E+04  0.40000224326E+04 0.  0.
        2    1    3    3  502    0 -0.64692039691E+03  0.14548927200E+04 -0.11361486985E+04  0.19560298289E+04  0.25500000920E-02 0. -1.
       -2    1    3    3    0  502  0.64692039691E+03 -0.14548927200E+04  0.12861527177E+04  0.20468042505E+04  0.25500000920E-02 0.  1.
</event>
<event>
 5   0  0.2078125E-09  0.4000091E+04  0.7818609E-02  0.8004528E-01
       -1   -1    0    0    0  501  0.00000000000E+00  0.00000000000E+00  0.12408698607E+04  0.12408698607E+04  0.50400001928E-02 0.  1.
        1   -1    0    0  501    0  0.00000000000E+00  0.00000000000E+00 -0.32236913185E+04  0.32236913186E+04  0.50400001928E-02 0. -1.
    10030    2    1    2    0    0  0.00000000000E+00  0.00000000000E+00 -0.19828214578E+04  0.44645611793E+04  0.40000906977E+04 0.  0.
        5    1    3    3  502    0 -0.10803214209E+04  0.37238578562E+03 -0.28234697985E+04  0.30459430952E+04  0.46999998093E+01 0. -1.
       -5    1    3    3    0  502  0.10803214209E+04 -0.37238578562E+03  0.84064834068E+03  0.14186180841E+04  0.46999998093E+01 0.  1.
</event>
<event>
 5   0  0.6538370E-09  0.4000877E+04  0.7818609E-02  0.8004370E-01
       -2   -1    0    0    0  501  0.00000000000E+00  0.00000000000E+00  0.17430029910E+04  0.17430029910E+04  0.25500000920E-02 0.  1.
        2   -1    0    0  501    0  0.00000000000E+00  0.00000000000E+00 -0.22958961720E+04  0.22958961720E+04  0.25500000920E-02 0. -1.
    10030    2    1    2    0    0  0.00000000000E+00  0.00000000000E+00 -0.55289318108E+03  0.40388991630E+04  0.40008768513E+04 0.  0.
        4    1    3    3  502    0 -0.96192902088E+03  0.12027119851E+04 -0.15652661934E+04  0.21958787374E+04  0.12699999809E+01 0. -1.
       -4    1    3    3    0  502  0.96192902088E+03 -0.12027119851E+04  0.10123730123E+04  0.18430204256E+04  0.12699999809E+01 0.  1.
</event>
<event>
 5   0  0.2078125E-09  0.3990651E+04  0.7818609E-02  0.8006435E-01
        1   -1    0    0  501    0  0.00000000000E+00  0.00000000000E+00  0.21781632047E+04  0.21781632047E+04  0.50400001928E-02 0. -1.
       -1   -1    0    0    0  501  0.00000000000E+00  0.00000000000E+00 -0.18278356918E+04  0.18278356918E+04  0.50400001928E-02 0.  1.
    10030    2    1    2    0    0  0.00000000000E+00  0.00000000000E+00  0.35032751290E+03  0.40059988964E+04  0.39906512992E+04 0.  0.
        4    1    3    3  502    0  0.97715003920E+03  0.20514728311E+03  0.19093537180E+04  0.21546556198E+04  0.12699999809E+01 0. -1.
       -4    1    3    3    0  502 -0.97715003920E+03 -0.20514728311E+03 -0.15590262051E+04  0.18513432766E+04  0.12699999809E+01 0.  1.
</event>
<event>
 5   0  0.6599276E-09  0.4002647E+04  0.7818609E-02  0.8004013E-01
       -2   -1    0    0    0  501  0.00000000000E+00  0.00000000000E+00  0.22089045461E+04  0.22089045461E+04  0.25500000920E-02 0.  1.
        2   -1    0    0  501    0  0.00000000000E+00  0.00000000000E+00 -0.18132501303E+04  0.18132501303E+04  0.25500000920E-02 0. -1.
    10030    2    1    2    0    0  0.00000000000E+00  0.00000000000E+00  0.39565441585E+03  0.40221546764E+04  0.40026473520E+04 0.  0.
        2    1    3    3  502    0 -0.17644488828E+04 -0.65500878047E+03  0.88156974344E+03  0.20783362517E+04  0.25500000920E-02 0. -1.
       -2    1    3    3    0  502  0.17644488828E+04  0.65500878047E+03 -0.48591532760E+03  0.19438184247E+04  0.25500000920E-02 0.  1.
</event>
<event>
 5   0  0.2078125E-09  0.4000473E+04  0.7818609E-02  0.8004451E-01
       -1   -1    0    0    0  501  0.00000000000E+00  0.00000000000E+00  0.16538295373E+04  0.16538295373E+04  0.50400001928E-02 0. -1.
        1   -1    0    0  501    0  0.00000000000E+00  0.00000000000E+00 -0.24192006331E+04  0.24192006331E+04  0.50400001928E-02 0.  1.
    10030    2    1    2    0    0  0.00000000000E+00  0.00000000000E+00 -0.76537109579E+03  0.40730301704E+04  0.40004727039E+04 0.  0.
        5    1    3    3  502    0 -0.17360651271E+03 -0.74336325686E+03  0.14996833867E+04  0.16827954431E+04  0.46999998093E+01 0. -1.
       -5    1    3    3    0  502  0.17360651271E+03  0.74336325686E+03 -0.22650544825E+04  0.23902347273E+04  0.46999998093E+01 0.  1.
</event>
<event>
 5   0  0.6645526E-09  0.3986648E+04  0.7818609E-02  0.8007245E-01
        2   -1    0    0  501    0  0.00000000000E+00  0.00000000000E+00  0.24295560675E+04  0.24295560675E+04  0.25500000920E-02 0. -1.
       -2   -1    0    0    0  501  0.00000000000E+00  0.00000000000E+00 -0.16354186412E+04  0.16354186412E+04  0.25500000920E-02 0.  1.
    10030    2    1    2    0    0  0.00000000000E+00  0.00000000000E+00  0.79413742623E+03  0.40649747087E+04  0.39866483580E+04 0.  0.
        3    1    3    3  502    0 -0.95850435639E+03 -0.17455069964E+04  0.48721380787E+03  0.20500981880E+04  0.10100000352E+00 0. -1.
       -3    1    3    3    0  502  0.95850435639E+03  0.17455069964E+04  0.30692361836E+03  0.20148765207E+04  0.10100000352E+00 0.  1.
</event>
<event>
 5   0  0.2078125E-09  0.4012482E+04  0.7818609E-02  0.8002033E-01
       -1   -1    0    0    0  501  0.00000000000E+00  0.00000000000E+00  0.14813568646E+04  0.14813568646E+04  0.50400001928E-02 0.  1.
        1   -1    0    0  501    0  0.00000000000E+00  0.00000000000E+00 -0.27171052788E+04  0.27171052788E+04  0.50400001928E-02 0. -1.
    10030    2    1    2    0    0  0.00000000000E+00  0.00000000000E+00 -0.12357484142E+04  0.41984621435E+04  0.40124818039E+04 0.  0.
        2    1    3    3  502    0 -0.13953042024E+04 -0.12802427466E+04  0.75491676960E+02  0.18951502053E+04  0.25500000920E-02 0.  1.
       -2    1    3    3    0  502  0.13953042024E+04  0.12802427466E+04 -0.13112400912E+04  0.23033119381E+04  0.25500000920E-02 0. -1.
</event>
<event>
 5   0  0.6599276E-09  0.4000669E+04  0.7818609E-02  0.8004412E-01
       -2   -1    0    0    0  501  0.00000000000E+00  0.00000000000E+00  0.15386294596E+04  0.15386294596E+04  0.25500000920E-02 0.  1.
        2   -1    0    0  501    0  0.00000000000E+00  0.00000000000E+00 -0.26005853399E+04  0.26005853399E+04  0.25500000920E-02 0. -1.
    10030    2    1    2    0    0  0.00000000000E+00  0.00000000000E+00 -0.10619558803E+04  0.41392147995E+04  0.40006685522E+04 0.  0.
        2    1    3    3  502    0  0.94606893300E+03 -0.69373281399E+03 -0.22072795461E+04  0.24996789070E+04  0.25500000920E-02 0. -1.
       -2    1    3    3    0  502 -0.94606893300E+03  0.69373281399E+03  0.11453236659E+04  0.16395358925E+04  0.25500000920E-02 0.  1.
</event>
<event>
 5   0  0.6736335E-09  0.3999294E+04  0.7818609E-02  0.8004689E-01
        2   -1    0    0  501    0  0.00000000000E+00  0.00000000000E+00  0.13584621758E+04  0.13584621758E+04  0.25500000920E-02 0. -1.
       -2   -1    0    0    0  501  0.00000000000E+00  0.00000000000E+00 -0.29434661484E+04  0.29434661484E+04  0.25500000920E-02 0.  1.
    10030    2    1    2    0    0  0.00000000000E+00  0.00000000000E+00 -0.15850039727E+04  0.43019283242E+04  0.39992936518E+04 0.  0.
        1    1    3    3  502    0  0.14985930179E+04  0.13002064473E+04 -0.10609238435E+04  0.22498616048E+04  0.50400001928E-02 0.  1.
       -1    1    3    3    0  502 -0.14985930179E+04 -0.13002064473E+04 -0.52408012913E+03  0.20520667194E+04  0.50400001928E-02 0. -1.
</event>
<event>
 5   0  0.2078125E-09  0.3996609E+04  0.7818609E-02  0.8005231E-01
       -1   -1    0    0    0  501  0.00000000000E+00  0.00000000000E+00  0.33506298852E+04  0.33506298852E+04  0.50400001928E-02 0.  1.
        1   -1    0    0  501    0  0.00000000000E+00  0.00000000000E+00 -0.11917819039E+04  0.11917819039E+04  0.50400001928E-02 0. -1.
    10030    2    1    2    0    0  0.00000000000E+00  0.00000000000E+00  0.21588479813E+04  0.45424117891E+04  0.39966085942E+04 0.  0.
        3    1    3    3  502    0 -0.13183396247E+04 -0.62669226999E+03 -0.47166983255E+03  0.15340257522E+04  0.10100000352E+00 0. -1.
       -3    1    3    3    0  502  0.13183396247E+04  0.62669226999E+03  0.26305178138E+04  0.30083860368E+04  0.10100000352E+00 0.  1.
</event>
<event>
 5   0  0.2078125E-09  0.3999628E+04  0.7818609E-02  0.8004622E-01
       -1   -1    0    0    0  501  0.00000000000E+00  0.00000000000E+00  0.16592965757E+04  0.16592965757E+04  0.50400001928E-02 0. -1.
        1   -1    0    0  501    0  0.00000000000E+00  0.00000000000E+00 -0.24102114278E+04  0.24102114278E+04  0.50400001928E-02 0.  1.
    10030    2    1    2    0    0  0.00000000000E+00  0.00000000000E+00 -0.75091485215E+03  0.40695080035E+04  0.39996277671E+04 0.  0.
        4    1    3    3  502    0 -0.15112661658E+04  0.91733257253E+03  0.57566337351E+03  0.18592510333E+04  0.12699999809E+01 0. -1.
       -4    1    3    3    0  502  0.15112661658E+04 -0.91733257253E+03 -0.13265782257E+04  0.22102569702E+04  0.12699999809E+01 0.  1.
</event>
<event>
 5   0  0.6599276E-09  0.3999186E+04  0.7818609E-02  0.8004711E-01
        2   -1    0    0  501    0  0.00000000000E+00  0.00000000000E+00  0.25677437972E+04  0.25677437972E+04  0.25500000920E-02 0.  1.
       -2   -1    0    0    0  501  0.00000000000E+00  0.00000000000E+00 -0.15571539874E+04  0.15571539874E+04  0.25500000920E-02 0. -1.
    10030    2    1    2    0    0  0.00000000000E+00  0.00000000000E+00  0.10105898098E+04  0.41248977846E+04  0.39991861634E+04 0.  0.
        2    1    3    3  502    0 -0.27020652677E+03  0.11853416164E+04 -0.11321622497E+04  0.16612759176E+04  0.25500000920E-02 0. -1.
       -2    1    3    3    0  502  0.27020652677E+03 -0.11853416164E+04  0.21427520595E+04  0.24636218670E+04  0.25500000920E-02 0.  1.
</event>
<event>
 5   0  0.6538370E-09  0.3997481E+04  0.7818609E-02  0.8005055E-01
        2   -1    0    0  501    0  0.00000000000E+00  0.00000000000E+00  0.17753266781E+04  0.17753266781E+04  0.25500000920E-02 0.  1.
       -2   -1    0    0    0  501  0.00000000000E+00  0.00000000000E+00 -0.22502690061E+04  0.22502690061E+04  0.25500000920E-02 0. -1.
    10030    2    1    2    0    0  0.00000000000E+00  0.00000000000E+00 -0.47494232806E+03  0.40255956842E+04  0.39974805062E+04 0.  0.
        4    1    3    3  502    0  0.86316106150E+02 -0.55448408371E+03  0.16943687111E+04  0.17848781503E+04  0.12699999809E+01 0.  1.
       -4    1    3    3    0  502 -0.86316106150E+02  0.55448408371E+03 -0.21693110392E+04  0.22407175339E+04  0.12699999809E+01 0. -1.
</event>
<event>
 5   0  0.6645526E-09  0.3999523E+04  0.7818609E-02  0.8004643E-01
        2   -1    0    0  501    0  0.00000000000E+00  0.00000000000E+00  0.15257449571E+04  0.15257449571E+04  0.25500000920E-02 0. -1.
       -2   -1    0    0    0  501  0.00000000000E+00  0.00000000000E+00 -0.26210444147E+04  0.26210444147E+04  0.25500000920E-02 0.  1.
    10030    2    1    2    0    0  0.00000000000E+00  0.00000000000E+00 -0.10952994576E+04  0.41467893719E+04  0.39995226206E+04 0.  0.
        3    1    3    3  502    0 -0.15785657248E+04 -0.53344348127E+03  0.59878261280E+03  0.17705853052E+04  0.10100000352E+00 0. -1.
       -3    1    3    3    0  502  0.15785657248E+04  0.53344348127E+03 -0.16940820704E+04  0.23762040667E+04  0.10100000352E+00 0.  1.
</event>
<event>
 5   0  0.6547327E-09  0.4007978E+04  0.7818609E-02  0.8002939E-01
       -2   -1    0    0    0  501  0.00000000000E+00  0.00000000000E+00  0.17743346092E+04  0.17743346092E+04  0.25500000920E-02 0.  1.
        2   -1    0    0  501    0  0.00000000000E+00  0.00000000000E+00 -0.22633682147E+04  0.22633682147E+04  0.25500000920E-02 0. -1.
    10030    2    1    2    0    0  0.00000000000E+00  0.00000000000E+00 -0.48903360559E+03  0.40377028239E+04  0.40079783216E+04 0.  0.
        5    1    3    3  502    0 -0.72972058455E+01 -0.51669991714E+02 -0.22626781015E+04  0.22632846304E+04  0.46999998093E+01 0. -1.
       -5    1    3    3    0  502  0.72972058455E+01  0.51669991714E+02  0.17736444959E+04  0.17744181935E+04  0.46999998093E+01 0.  1.
</event>
<event>
 5   0  0.2078125E-09  0.4000406E+04  0.7818609E-02  0.8004465E-01
       -1   -1    0    0    0  501  0.00000000000E+00  0.00000000000E+00  0.18166152537E+04  0.18166152537E+04  0.50400001928E-02 0. -1.
        1   -1    0    0  501    0  0.00000000000E+00  0.00000000000E+00 -0.22023437326E+04  0.22023437326E+04  0.50400001928E-02 0.  1.
    10030    2    1    2    0    0  0.00000000000E+00  0.00000000000E+00 -0.38572847888E+03  0.40189589863E+04  0.40004055887E+04 0.  0.
        4    1    3    3  502    0  0.12978828811E+04 -0.14899026054E+04 -0.50494923443E+03  0.20394325409E+04  0.12699999809E+01 0.  1.
       -4    1    3    3    0  502 -0.12978828811E+04  0.14899026054E+04  0.11922075554E+03  0.19795264454E+04  0.12699999809E+01 0. -1.
</event>
<event>
 5   0  0.2078125E-09  0.4015907E+04  0.7818609E-02  0.8001345E-01
        1   -1    0    0  501    0  0.00000000000E+00  0.00000000000E+00  0.14358630840E+04  0.14358630840E+04  0.50400001928E-02 0. -1.
       -1   -1    0    0    0  501  0.00000000000E+00  0.00000000000E+00 -0.28079815221E+04  0.28079815221E+04  0.50400001928E-02 0.  1.
    10030    2    1    2    0    0  0.00000000000E+00  0.00000000000E+00 -0.13721184380E+04  0.42438446061E+04  0.40159068755E+04 0.  0.
        5    1    3    3  502    0 -0.11335478628E+04 -0.80498678124E+03  0.84493597913E+03  0.16269214406E+04  0.46999998093E+01 0. -1.
       -5    1    3    3    0  502  0.11335478628E+04  0.80498678124E+03 -0.22170544172E+04  0.26169231655E+04  0.46999998093E+01 0.  1.
</event>
<event>
 5   0  0.2078125E-09  0.4007140E+04  0.7818609E-02  0.8003108E-01
       -1   -1    0    0    0  501  0.00000000000E+00  0.00000000000E+00  0.20547975907E+04  0.20547975907E+04  0.50400001928E-02 0.  1.
        1   -1    0    0  501    0  0.00000000000E+00  0.00000000000E+00 -0.19536195791E+04  0.19536195791E+04  0.50400001928E-02 0. -1.
    10030    2    1    2    0    0  0.00000000000E+00  0.00000000000E+00  0.10117801159E+03  0.40084171699E+04  0.40071400297E+04 0.  0.
        1    1    3    3  502    0  0.45547642313E+01 -0.16744675430E+04  0.11511353230E+04  0.20319879011E+04  0.50400001928E-02 0.  1.
       -1    1    3    3    0  502 -0.45547642313E+01  0.16744675430E+04 -0.10499573114E+04  0.19764292687E+04  0.50400001928E-02 0. -1.
</event>
<event>
 5   0  0.6538370E-09  0.3999832E+04  0.7818609E-02  0.8004580E-01
        2   -1    0    0  501    0  0.00000000000E+00  0.00000000000E+00  0.20669501118E+04  0.20669501118E+04  0.25500000920E-02 0. -1.
       -2   -1    0    0    0  501  0.00000000000E+00  0.00000000000E+00 -0.19350562858E+04  0.19350562858E+04  0.25500000920E-02 0.  1.
    10030    2    1    2    0    0  0.00000000000E+00  0.00000000000E+00  0.13189382595E+03  0.40020063976E+04  0.39998323996E+04 0.  0.
        4    1    3    3  502    0 -0.98961682263E+03  0.12206259531E+04  0.13037102501E+04  0.20417960726E+04  0.12699999809E+01 0. -1.
       -4    1    3    3    0  502  0.98961682263E+03 -0.12206259531E+04 -0.11718164242E+04  0.19602103249E+04  0.12699999809E+01 0.  1.
</event>
<event>
 5   0  0.6538370E-09  0.4002095E+04  0.7818609E-02  0.8004124E-01
       -2   -1    0    0    0  501  0.00000000000E+00  0.00000000000E+00  0.16620259662E+04  0.16620259662E+04  0.25500000920E-02 0. -1.
        2   -1    0    0  501    0  0.00000000000E+00  0.00000000000E+00 -0.24092226619E+04  0.24092226619E+04  0.25500000920E-02 0.  1.
    10030    2    1    2    0    0  0.00000000000E+00  0.00000000000E+00 -0.74719669577E+03  0.40712486281E+04  0.40020947627E+04 0.  0.
        4    1    3    3  502    0  0.29356542198E+03 -0.18412731791E+04  0.36539856430E+03  0.18999961318E+04  0.12699999809E+01 0.  1.
       -4    1    3    3    0  502 -0.29356542198E+03  0.18412731791E+04 -0.11125952601E+04  0.21712524963E+04  0.12699999809E+01 0. -1.
</event>
<event>
 5   0  0.6599276E-09  0.4014740E+04  0.7818609E-02  0.8001580E-01
       -2   -1    0    0    0  501  0.00000000000E+00  0.00000000000E+00  0.19817813406E+04  0.19817813406E+04  0.25500000920E-02 0. -1.
        2   -1    0    0  501    0  0.00000000000E+00  0.00000000000E+00 -0.20332888581E+04  0.20332888581E+04  0.25500000920E-02 0.  1.
    10030    2    1    2    0    0  0.00000000000E+00  0.00000000000E+00 -0.51507517509E+02  0.40150701987E+04  0.40147398018E+04 0.  0.
        2    1    3    3  502    0  0.15447960125E+04 -0.10957804925E+03 -0.13030165869E+04  0.20239205258E+04  0.25500000920E-02 0.  1.
       -2    1    3    3    0  502 -0.15447960125E+04  0.10957804925E+03  0.12515090694E+04  0.19911496729E+04  0.25500000920E-02 0. -1.
</event>
<event>
 5   0  0.2078125E-09  0.3996973E+04  0.7818609E-02  0.8005158E-01
       -1   -1    0    0    0  501  0.00000000000E+00  0.00000000000E+00  0.26531867432E+04  0.26531867432E+04  0.50400001928E-02 0.  1.
        1   -1    0    0  501    0  0.00000000000E+00  0.00000000000E+00 -0.15053397268E+04  0.15053397268E+04  0.50400001928E-02 0. -1.
    10030    2    1    2    0    0  0.00000000000E+00  0.00000000000E+00  0.11478470164E+04  0.41585264701E+04  0.39969725580E+04 0.  0.
        2    1    3    3  502    0 -0.65464393699E+03  0.15287779192E+04 -0.57912502555E+03  0.17609958563E+04  0.25500000920E-02 0. -1.
       -2    1    3    3    0  502  0.65464393699E+03 -0.15287779192E+04  0.17269720420E+04  0.23975306138E+04  0.25500000920E-02 0.  1.
</event>
<event>
 5   0  0.2078125E-09  0.4000081E+04  0.7818609E-02  0.8004530E-01
       -1   -1    0    0    0  501  0.00000000000E+00  0.00000000000E+00  0.16598604163E+04  0.16598604163E+04  0.50400001928E-02 0. -1.
        1   -1    0    0  501    0  0.00000000000E+00  0.00000000000E+00 -0.24099387279E+04  0.24099387279E+04  0.50400001928E-02 0.  1.
    10030    2    1    2    0    0  0.00000000000E+00  0.00000000000E+00 -0.75007831164E+03  0.40697991442E+04  0.40000809492E+04 0.  0.
        3    1    3    3  502    0  0.25879173507E+02 -0.15666004213E+04 -0.16397880658E+04  0.22679972493E+04  0.10100000352E+00 0. -1.
       -3    1    3    3    0  502 -0.25879173507E+02  0.15666004213E+04  0.88970975420E+03  0.18018018949E+04  0.10100000352E+00 0.  1.
</event>
<event>
 5   0  0.6547327E-09  0.4000837E+04  0.7818609E-02  0.8004378E-01
        2   -1    0    0  501    0  0.00000000000E+00  0.00000000000E+00  0.15385600964E+04  0.15385600964E+04  0.25500000920E-02 0.  1.
       -2   -1    0    0    0  501  0.00000000000E+00  0.00000000000E+00 -0.26009217494E+04  0.26009217494E+04  0.25500000920E-02 0. -1.
    10030    2    1    2    0    0  0.00000000000E+00  0.00000000000E+00 -0.10623616530E+04  0.41394818458E+04  0.40008371212E+04 0.  0.
        5    1    3    3  502    0 -0.41595691716E+03  0.11945253736E+04 -0.21346411737E+04  0.24812549356E+04  0.46999998093E+01 0. -1.
       -5    1    3    3    0  502  0.41595691716E+03 -0.11945253736E+04  0.10722795207E+04  0.16582269102E+04  0.46999998093E+01 0.  1.
</event>
<event>
 5   0  0.6736335E-09  0.3998816E+04  0.7818609E-02  0.8004785E-01
       -2   -1    0    0    0  501  0.00000000000E+00  0.00000000000E+00  0.20805749535E+04  0.20805749535E+04  0.25500000920E-02 0. -1.
        2   -1    0    0  501    0  0.00000000000E+00  0.00000000000E+00 -0.19214077537E+04  0.19214077537E+04  0.25500000920E-02 0.  1.
    10030    2    1    2    0    0  0.00000000000E+00  0.00000000000E+00  0.15916719988E+03  0.40019827072E+04  0.39988162487E+04 0.  0.
        1    1    3    3  502    0 -0.21929663174E+03  0.18737813683E+03  0.20596424374E+04  0.20797424237E+04  0.50400001928E-02 0. -1.
       -1    1    3    3    0  502  0.21929663174E+03 -0.18737813683E+03 -0.19004752376E+04  0.19222402835E+04  0.50400001928E-02 0.  1.
</event>
<event>
 5   0  0.2078125E-09  0.4000277E+04  0.7818609E-02  0.8004491E-01
        1   -1    0    0  501    0  0.00000000000E+00  0.00000000000E+00  0.27598124185E+04  0.27598124185E+04  0.50400001928E-02 0. -1.
       -1   -1    0    0    0  501  0.00000000000E+00  0.00000000000E+00 -0.14495744702E+04  0.14495744703E+04  0.50400001928E-02 0.  1.
    10030    2    1    2    0    0  0.00000000000E+00  0.00000000000E+00  0.13102379483E+04  0.42093868888E+04  0.40002768027E+04 0.  0.
        4    1    3    3  502    0 -0.82056123481E+03  0.84736095389E+03 -0.10446244687E+04  0.15756215344E+04  0.12699999809E+01 0.  1.
       -4    1    3    3    0  502  0.82056123481E+03 -0.84736095389E+03  0.23548624169E+04  0.26337653544E+04  0.12699999809E+01 0. -1.
</event>
<event>
 5   0  0.2078125E-09  0.4002934E+04  0.7818609E-02  0.8003955E-01
       -1   -1    0    0    0  501  0.00000000000E+00  0.00000000000E+00  0.23555693254E+04  0.23555693254E+04  0.50400001928E-02 0.  1.
        1   -1    0    0  501    0  0.00000000000E+00  0.00000000000E+00 -0.17005954441E+04  0.17005954441E+04  0.50400001928E-02 0. -1.
    10030    2    1    2    0    0  0.00000000000E+00  0.00000000000E+00  0.65497388136E+03  0.40561647695E+04  0.40029341554E+04 0.  0.
        4    1    3    3  502    0  0.14731387121E+04 -0.12978162168E+04 -0.66794358432E+02  0.19644153575E+04  0.12699999809E+01 0. -1.
       -4    1    3    3    0  502 -0.14731387121E+04  0.12978162168E+04  0.72176823979E+03  0.20917494120E+04  0.12699999809E+01 0.  1.
</event>
<event>
 5   0  0.2078125E-09  0.4000163E+04  0.7818609E-02  0.8004514E-01
        1   -1    0    0  501    0  0.00000000000E+00  0.00000000000E+00  0.28787694851E+04  0.28787694851E+04  0.50400001928E-02 0. -1.
       -1   -1    0    0    0  501  0.00000000000E+00  0.00000000000E+00 -0.13895959462E+04  0.13895959462E+04  0.50400001928E-02 0.  1.
    10030    2    1    2    0    0  0.00000000000E+00  0.00000000000E+00  0.14891735390E+04  0.42683654313E+04  0.40001631999E+04 0.  0.
        5    1    3    3  502    0  0.10028337865E+04  0.14112643662E+04 -0.32403997011E+03  0.17613536575E+04  0.46999998093E+01 0.  1.
       -5    1    3    3    0  502 -0.10028337865E+04 -0.14112643662E+04  0.18132135091E+04  0.25070117738E+04  0.46999998093E+01 0. -1.
</event>
<event>
 5   0  0.6538370E-09  0.3999664E+04  0.7818609E-02  0.8004614E-01
       -2   -1    0    0    0  501  0.00000000000E+00  0.00000000000E+00  0.21734123769E+04  0.21734123770E+04  0.25500000920E-02 0.  1.
        2   -1    0    0  501    0  0.00000000000E+00  0.00000000000E+00 -0.18401145336E+04  0.18401145336E+04  0.25500000920E-02 0. -1.
    10030    2    1    2    0    0  0.00000000000E+00  0.00000000000E+00  0.33329784338E+03  0.40135269105E+04  0.39996638370E+04 0.  0.
        4    1    3    3  502    0 -0.29527401399E+03  0.13235090978E+04  0.16415948720E+04  0.21292483209E+04  0.12699999809E+01 0.  1.
       -4    1    3    3    0  502  0.29527401399E+03 -0.13235090978E+04 -0.13082970286E+04  0.18842785896E+04  0.12699999809E+01 0. -1.
</event>
<event>
 5   0  0.2078125E-09  0.4003112E+04  0.7818609E-02  0.8003919E-01
       -3   -1    0    0    0  501  0.00000000000E+00  0.00000000000E+00  0.13473412780E+04  0.13473412818E+04  0.10100000352E+00 0.  1.
        3   -1    0    0  501    0  0.00000000000E+00  0.00000000000E+00 -0.29734305438E+04  0.29734305455E+04  0.10100000352E+00 0. -1.
    10030    2    1    2    0    0  0.00000000000E+00  0.00000000000E+00 -0.16260892657E+04  0.43207718273E+04  0.40031116501E+04 0.  0.
        5    1    3    3  502    0 -0.14548222175E+04 -0.11250875187E+04 -0.16655793634E+04  0.24812308065E+04  0.46999998093E+01 0. -1.
       -5    1    3    3    0  502  0.14548222175E+04  0.11250875187E+04  0.39490097625E+02  0.18395410208E+04  0.46999998093E+01 0.  1.
</event>
<event>
 5   0  0.6645526E-09  0.3998177E+04  0.7818609E-02  0.8004914E-01
       -2   -1    0    0    0  501  0.00000000000E+00  0.00000000000E+00  0.23254879489E+04  0.23254879489E+04  0.25500000920E-02 0. -1.
        2   -1    0    0  501    0  0.00000000000E+00  0.00000000000E+00 -0.17185018454E+04  0.17185018454E+04  0.25500000920E-02 0.  1.
    10030    2    1    2    0    0  0.00000000000E+00  0.00000000000E+00  0.60698610347E+03  0.40439897944E+04  0.39981772506E+04 0.  0.
        3    1    3    3  502    0  0.16632929549E+04  0.32121878696E+03 -0.77009762681E+03  0.18608533870E+04  0.10100000352E+00 0.  1.
       -3    1    3    3    0  502 -0.16632929549E+04 -0.32121878696E+03  0.13770837303E+04  0.21831364074E+04  0.10100000352E+00 0. -1.
</event>
<event>
 5   0  0.6645526E-09  0.3995980E+04  0.7818609E-02  0.8005358E-01
       -2   -1    0    0    0  501  0.00000000000E+00  0.00000000000E+00  0.14658347656E+04  0.14658347656E+04  0.25500000920E-02 0.  1.
        2   -1    0    0  501    0  0.00000000000E+00  0.00000000000E+00 -0.27233387238E+04  0.27233387238E+04  0.25500000920E-02 0. -1.
    10030    2    1    2    0    0  0.00000000000E+00  0.00000000000E+00 -0.12575039582E+04  0.41891734894E+04  0.39959802701E+04 0.  0.
        3    1    3    3  502    0  0.38414816054E+03 -0.87429359737E+03 -0.24685949370E+04  0.26468698640E+04  0.10100000352E+00 0.  1.
       -3    1    3    3    0  502 -0.38414816054E+03  0.87429359737E+03  0.12110909788E+04  0.15423036254E+04  0.10100000352E+00 0. -1.
</event>
<event>
 5   0  0.2078125E-09  0.4000791E+04  0.7818609E-02  0.8004387E-01
       -3   -1    0    0    0  501  0.00000000000E+00  0.00000000000E+00  0.17023549996E+04  0.17023550026E+04  0.10100000352E+00 0.  1.
        3   -1    0    0  501    0  0.00000000000E+00  0.00000000000E+00 -0.23506157488E+04  0.23506157510E+04  0.10100000352E+00 0. -1.
    10030    2    1    2    0    0  0.00000000000E+00  0.00000000000E+00 -0.64826074921E+03  0.40529707536E+04  0.40007911631E+04 0.  0.
        4    1    3    3  502    0  0.26259480843E+03  0.15674600810E+04 -0.15547552903E+04  0.22233202119E+04  0.12699999809E+01 0. -1.
       -4    1    3    3    0  502 -0.26259480843E+03 -0.15674600810E+04  0.90649454111E+03  0.18296505417E+04  0.12699999809E+01 0.  1.
</event>
<event>
 5   0  0.6645526E-09  0.4002796E+04  0.7818609E-02  0.8003983E-01
       -2   -1    0    0    0  501  0.00000000000E+00  0.00000000000E+00  0.19229622029E+04  0.19229622029E+04  0.25500000920E-02 0.  1.
        2   -1    0    0  501    0  0.00000000000E+00  0.00000000000E+00 -0.20830328363E+04  0.20830328363E+04  0.25500000920E-02 0. -1.
    10030    2    1    2    0    0  0.00000000000E+00  0.00000000000E+00 -0.16007063339E+03  0.40059950391E+04  0.40027957287E+04 0.  0.
        3    1    3    3  502    0  0.19427023378E+04  0.41544441294E+03 -0.32293688227E+03  0.20127033248E+04  0.10100000352E+00 0.  1.
       -3    1    3    3    0  502 -0.19427023378E+04 -0.41544441294E+03  0.16286624888E+03  0.19932917144E+04  0.10100000352E+00 0. -1.
</event>
<event>
 5   0  0.6599276E-09  0.3999430E+04  0.7818609E-02  0.8004661E-01
       -2   -1    0    0    0  501  0.00000000000E+00  0.00000000000E+00  0.21220177407E+04  0.21220177407E+04  0.25500000920E-02 0.  1.
        2   -1    0    0  501    0  0.00000000000E+00  0.00000000000E+00 -0.18844615240E+04  0.18844615240E+04  0.25500000920E-02 0. -1.
    10030    2    1    2    0    0  0.00000000000E+00  0.00000000000E+00  0.23755621670E+03  0.40064792647E+04  0.39994303522E+04 0.  0.
        2    1    3    3  502    0  0.28228966230E+03 -0.17325194342E+04 -0.84079831743E+03  0.19463434574E+04  0.25500000920E-02 0. -1.
       -2    1    3    3    0  502 -0.28228966230E+03  0.17325194342E+04  0.10783545341E+04  0.20601358073E+04  0.25500000920E-02 0.  1.
</event>
<event>
 5   0  0.6736335E-09  0.4000332E+04  0.7818609E-02  0.8004480E-01
       -2   -1    0    0    0  501  0.00000000000E+00  0.00000000000E+00  0.23327951884E+04  0.23327951884E+04  0.25500000920E-02 0.  1.
        2   -1    0    0  501    0  0.00000000000E+00  0.00000000000E+00 -0.17149659249E+04  0.17149659249E+04  0.25500000920E-02 0. -1.
    10030    2    1    2    0    0  0.00000000000E+00  0.00000000000E+00  0.61782926358E+03  0.40477611133E+04  0.40003321151E+04 0.  0.
        1    1    3    3  502    0  0.40754190137E+03  0.18063307431E+04  0.10740165526E+04  0.21406617458E+04  0.50400001928E-02 0.  1.
       -1    1    3    3    0  502 -0.40754190137E+03 -0.18063307431E+04 -0.45618728906E+03  0.19070993675E+04  0.50400001928E-02 0. -1.
</event>
<event>
 5   0  0.2078125E-09  0.3999553E+04  0.7818609E-02  0.8004637E-01
       -1   -1    0    0    0  501  0.00000000000E+00  0.00000000000E+00  0.14744278813E+04  0.14744278814E+04  0.50400001928E-02 0.  1.
        1   -1    0    0  501    0  0.00000000000E+00  0.00000000000E+00 -0.27123106480E+04  0.27123106480E+04  0.50400001928E-02 0. -1.
    10030    2    1    2    0    0  0.00000000000E+00  0.00000000000E+00 -0.12378827666E+04  0.41867385293E+04  0.39995531962E+04 0.  0.
        3    1    3    3  502    0 -0.12013410554E+04 -0.15061276778E+04 -0.57690236714E+02  0.19274255074E+04  0.10100000352E+00 0.  1.
       -3    1    3    3    0  502  0.12013410554E+04  0.15061276778E+04 -0.11801925299E+04  0.22593130219E+04  0.10100000352E+00 0. -1.
</event>
<event>
 5   0  0.6538370E-09  0.4004899E+04  0.7818609E-02  0.8003559E-01
        2   -1    0    0  501    0  0.00000000000E+00  0.00000000000E+00  0.30878177426E+04  0.30878177426E+04  0.25500000920E-02 0.  1.
       -2   -1    0    0    0  501  0.00000000000E+00  0.00000000000E+00 -0.12985880617E+04  0.12985880617E+04  0.25500000920E-02 0. -1.
    10030    2    1    2    0    0  0.00000000000E+00  0.00000000000E+00  0.17892296809E+04  0.43864058044E+04  0.40048986291E+04 0.  0.
        4    1    3    3  502    0 -0.79452305023E+03  0.12980357392E+04  0.23199847054E+04  0.27746160642E+04  0.12699999809E+01 0.  1.
       -4    1    3    3    0  502  0.79452305023E+03 -0.12980357392E+04 -0.53075502451E+03  0.16117897402E+04  0.12699999809E+01 0. -1.
</event>
<event>
 5   0  0.6538370E-09  0.3996384E+04  0.7818609E-02  0.8005276E-01
        2   -1    0    0  501    0  0.00000000000E+00  0.00000000000E+00  0.25869572104E+04  0.25869572104E+04  0.25500000920E-02 0. -1.
       -2   -1    0    0    0  501  0.00000000000E+00  0.00000000000E+00 -0.15434237796E+04  0.15434237796E+04  0.25500000920E-02 0.  1.
    10030    2    1    2    0    0  0.00000000000E+00  0.00000000000E+00  0.10435334308E+04  0.41303809901E+04  0.39963840033E+04 0.  0.
        4    1    3    3  502    0  0.11595136778E+04  0.16223968656E+04  0.39052024507E+03  0.20320313071E+04  0.12699999809E+01 0.  1.
       -4    1    3    3    0  502 -0.11595136778E+04 -0.16223968656E+04  0.65301318574E+03  0.20983496830E+04  0.12699999809E+01 0. -1.
</event>
<event>
 5   0  0.6645526E-09  0.3993786E+04  0.7818609E-02  0.8005801E-01
       -2   -1    0    0    0  501  0.00000000000E+00  0.00000000000E+00  0.14793684334E+04  0.14793684334E+04  0.25500000920E-02 0. -1.
        2   -1    0    0  501    0  0.00000000000E+00  0.00000000000E+00 -0.26954628346E+04  0.26954628346E+04  0.25500000920E-02 0.  1.
    10030    2    1    2    0    0  0.00000000000E+00  0.00000000000E+00 -0.12160944011E+04  0.41748312680E+04  0.39937864895E+04 0.  0.
        3    1    3    3  502    0  0.85148381947E+03  0.15201376398E+04 -0.16278427845E+04  0.23844737952E+04  0.10100000352E+00 0.  1.
       -3    1    3    3    0  502 -0.85148381947E+03 -0.15201376398E+04  0.41174838338E+03  0.17903574728E+04  0.10100000352E+00 0. -1.
</event>
<event>
 5   0  0.2078125E-09  0.3999121E+04  0.7818609E-02  0.8004724E-01
       -1   -1    0    0    0  501  0.00000000000E+00  0.00000000000E+00  0.15539463796E+04  0.15539463796E+04  0.50400001928E-02 0.  1.
        1   -1    0    0  501    0  0.00000000000E+00  0.00000000000E+00 -0.25729596570E+04  0.25729596570E+04  0.50400001928E-02 0. -1.
    10030    2    1    2    0    0  0.00000000000E+00  0.00000000000E+00 -0.10190132774E+04  0.41269060367E+04  0.39991205753E+04 0.  0.
        4    1    3    3  502    0  0.15744532472E+04  0.93364084151E+03  0.32097639454E+03  0.18583906229E+04  0.12699999809E+01 0.  1.
       -4    1    3    3    0  502 -0.15744532472E+04 -0.93364084151E+03 -0.13399896719E+04  0.22685154137E+04  0.12699999809E+01 0. -1.
</event>
<event>
 5   0  0.2078125E-09  0.3999882E+04  0.7818609E-02  0.8004570E-01
        1   -1    0    0  501    0  0.00000000000E+00  0.00000000000E+00  0.24290364670E+04  0.24290364670E+04  0.50400001928E-02 0. -1.
       -1   -1    0    0    0  501  0.00000000000E+00  0.00000000000E+00 -0.16466466193E+04  0.16466466193E+04  0.50400001928E-02 0.  1.
    10030    2    1    2    0    0  0.00000000000E+00  0.00000000000E+00  0.78238984762E+03  0.40756830863E+04  0.39998823416E+04 0.  0.
        2    1    3    3  502    0  0.17061781106E+04  0.47169336797E+03  0.13395454191E+04  0.22198919587E+04  0.25500000920E-02 0. -1.
       -2    1    3    3    0  502 -0.17061781106E+04 -0.47169336797E+03 -0.55715557147E+03  0.18557911276E+04  0.25500000920E-02 0.  1.
</event>
<event>
 5   0  0.6645526E-09  0.4003728E+04  0.7818609E-02  0.8003795E-01
       -2   -1    0    0    0  501  0.00000000000E+00  0.00000000000E+00  0.17214627313E+04  0.17214627313E+04  0.25500000920E-02 0.  1.
        2   -1    0    0  501    0  0.00000000000E+00  0.00000000000E+00 -0.23279386381E+04  0.23279386381E+04  0.25500000920E-02 0. -1.
    10030    2    1    2    0    0  0.00000000000E+00  0.00000000000E+00 -0.60647590680E+03  0.40494013694E+04  0.40037280658E+04 0.  0.
        3    1    3    3  502    0  0.18954146988E+03  0.39452618977E+03 -0.22789505178E+04  0.23206017229E+04  0.10100000352E+00 0. -1.
       -3    1    3    3    0  502 -0.18954146988E+03 -0.39452618977E+03  0.16724746110E+04  0.17287996466E+04  0.10100000352E+00 0.  1.
</event>
<event>
 5   0  0.6538370E-09  0.4001896E+04  0.7818609E-02  0.8004164E-01
        2   -1    0    0  501    0  0.00000000000E+00  0.00000000000E+00  0.12270410824E+04  0.12270410824E+04  0.25500000920E-02 0. -1.
       -2   -1    0    0    0  501  0.00000000000E+00  0.00000000000E+00 -0.32629654509E+04  0.32629654509E+04  0.25500000920E-02 0.  1.
    10030    2    1    2    0    0  0.00000000000E+00  0.00000000000E+00 -0.20359243685E+04  0.44900065333E+04  0.40018958801E+04 0.  0.
        4    1    3    3  502    0  0.61387591082E+03  0.58010468323E+03  0.10172385461E+04  0.13221728140E+04  0.12699999809E+01 0. -1.
       -4    1    3    3    0  502 -0.61387591082E+03 -0.58010468323E+03 -0.30531629146E+04  0.31678337193E+04  0.12699999809E+01 0.  1.
</event>
<event>
 5   0  0.6538370E-09  0.4001183E+04  0.7818609E-02  0.8004308E-01
        2   -1    0    0  501    0  0.00000000000E+00  0.00000000000E+00  0.17068119546E+04  0.17068119546E+04  0.25500000920E-02 0.  1.
       -2   -1    0    0    0  501  0.00000000000E+00  0.00000000000E+00 -0.23449365850E+04  0.23449365850E+04  0.25500000920E-02 0. -1.
    10030    2    1    2    0    0  0.00000000000E+00  0.00000000000E+00 -0.63812463038E+03  0.40517485396E+04  0.40011827232E+04 0.  0.
        4    1    3    3  502    0 -0.13002884331E+04 -0.10024656219E+04  0.83848352327E+03  0.18435681609E+04  0.12699999809E+01 0.  1.
       -4    1    3    3    0  502  0.13002884331E+04  0.10024656219E+04 -0.14766081536E+04  0.22081803787E+04  0.12699999809E+01 0. -1.
</event>
<event>
 5   0  0.2078125E-09  0.4004022E+04  0.7818609E-02  0.8003736E-01
       -1   -1    0    0    0  501  0.00000000000E+00  0.00000000000E+00  0.13507003499E+04  0.13507003499E+04  0.50400001928E-02 0.  1.
        1   -1    0    0  501    0  0.00000000000E+00  0.00000000000E+00 -0.29673848969E+04  0.29673848969E+04  0.50400001928E-02 0. -1.
    10030    2    1    2    0    0  0.00000000000E+00  0.00000000000E+00 -0.16166845470E+04  0.43180852468E+04  0.40040218874E+04 0.  0.
        3    1    3    3  502    0  0.12524042749E+04 -0.55273366435E+03  0.76706806013E+03  0.15692113913E+04  0.10100000352E+00 0.  1.
       -3    1    3    3    0  502 -0.12524042749E+04  0.55273366435E+03 -0.23837526071E+04  0.27488738556E+04  0.10100000352E+00 0. -1.
</event>
<event>
 5   0  0.2078125E-09  0.4000164E+04  0.7818609E-02  0.8004513E-01
        1   -1    0    0  501    0  0.00000000000E+00  0.00000000000E+00  0.12664712542E+04  0.12664712542E+04  0.50400001928E-02 0. -1.
       -1   -1    0    0    0  501  0.00000000000E+00  0.00000000000E+00 -0.31586411015E+04  0.31586411015E+04  0.50400001928E-02 0.  1.
    10030    2    1    2    0    0  0.00000000000E+00  0.00000000000E+00 -0.18921698473E+04  0.44251123557E+04  0.40001640753E+04 0.  0.
        1    1    3    3  502    0  0.94608719497E+03  0.15109480115E+04 -0.19492149440E+04  0.26414927166E+04  0.50400001928E-02 0.  1.
       -1    1    3    3    0  502 -0.94608719497E+03 -0.15109480115E+04  0.57045096694E+02  0.17836196391E+04  0.50400001928E-02 0. -1.
</event>
<event>
 5   0  0.2078125E-09  0.3999174E+04  0.7818609E-02  0.8004713E-01
        1   -1    0    0  501    0  0.00000000000E+00  0.00000000000E+00  0.19970535968E+04  0.19970535968E+04  0.50400001928E-02 0.  1.
       -1   -1    0    0    0  501  0.00000000000E+00  0.00000000000E+00 -0.20021239398E+04  0.20021239398E+04  0.50400001928E-02 0. -1.
    10030    2    1    2    0    0  0.00000000000E+00  0.00000000000E+00 -0.50703429702E+01  0.39991775367E+04  0.39991743224E+04 0.  0.
        4    1    3    3  502    0  0.22071878945E+03  0.19128627561E+04  0.53652601401E+03  0.19989053215E+04  0.12699999809E+01 0.  1.
       -4    1    3    3    0  502 -0.22071878945E+03 -0.19128627561E+04 -0.54159635698E+03  0.20002722151E+04  0.12699999809E+01 0. -1.
</event>
<event>
 5   0  0.6736335E-09  0.3998543E+04  0.7818609E-02  0.8004841E-01
       -2   -1    0    0    0  501  0.00000000000E+00  0.00000000000E+00  0.33675945624E+04  0.33675945624E+04  0.25500000920E-02 0.  1.
        2   -1    0    0  501    0  0.00000000000E+00  0.00000000000E+00 -0.11869262738E+04  0.11869262738E+04  0.25500000920E-02 0. -1.
    10030    2    1    2    0    0  0.00000000000E+00  0.00000000000E+00  0.21806682886E+04  0.45545208363E+04  0.39985429675E+04 0.  0.
        1    1    3    3  502    0  0.82609641211E+03 -0.15470473098E+04 -0.29686871919E+01  0.17537957332E+04  0.50400001928E-02 0. -1.
       -1    1    3    3    0  502 -0.82609641211E+03  0.15470473098E+04  0.21836369758E+04  0.28007251030E+04  0.50400001928E-02 0.  1.
</event>
<event>
 5   0  0.6538370E-09  0.3999859E+04  0.7818609E-02  0.8004575E-01
       -2   -1    0    0    0  501  0.00000000000E+00  0.00000000000E+00  0.14078116627E+04  0.14078116627E+04  0.25500000920E-02 0.  1.
        2   -1    0    0  501    0  0.00000000000E+00  0.00000000000E+00 -0.28410891688E+04  0.28410891688E+04  0.25500000920E-02 0. -1.
    10030    2    1    2    0    0  0.00000000000E+00  0.00000000000E+00 -0.14332775061E+04  0.42489008315E+04  0.39998592309E+04 0.  0.
        4    1    3    3  502    0 -0.19310043358E+04  0.48440093731E+03 -0.51426492968E+03  0.20561838545E+04  0.12699999809E+01 0. -1.
       -4    1    3    3    0  502  0.19310043358E+04 -0.48440093731E+03 -0.91901257638E+03  0.21927169770E+04  0.12699999809E+01 0.  1.
</event>
<event>
 5   0  0.2078125E-09  0.4010593E+04  0.7818609E-02  0.8002413E-01
       -1   -1    0    0    0  501  0.00000000000E+00  0.00000000000E+00  0.26153413676E+04  0.26153413676E+04  0.50400001928E-02 0.  1.
        1   -1    0    0  501    0  0.00000000000E+00  0.00000000000E+00 -0.15375488153E+04  0.15375488154E+04  0.50400001928E-02 0. -1.
    10030    2    1    2    0    0  0.00000000000E+00  0.00000000000E+00  0.10777925523E+04  0.41528901830E+04  0.40105934830E+04 0.  0.
        5    1    3    3  502    0  0.16325373098E+04  0.58063884058E+01  0.17446778122E+04  0.23893795304E+04  0.46999998093E+01 0.  1.
       -5    1    3    3    0  502 -0.16325373098E+04 -0.58063884058E+01 -0.66688525992E+03  0.17635106526E+04  0.46999998093E+01 0. -1.
</event>
<event>
 5   0  0.6736335E-09  0.4003951E+04  0.7818609E-02  0.8003750E-01
        2   -1    0    0  501    0  0.00000000000E+00  0.00000000000E+00  0.17032671269E+04  0.17032671269E+04  0.25500000920E-02 0.  1.
       -2   -1    0    0    0  501  0.00000000000E+00  0.00000000000E+00 -0.23530690351E+04  0.23530690351E+04  0.25500000920E-02 0. -1.
    10030    2    1    2    0    0  0.00000000000E+00  0.00000000000E+00 -0.64980190821E+03  0.40563361619E+04  0.40039506164E+04 0.  0.
        1    1    3    3  502    0 -0.11469548812E+04  0.16141391575E+04 -0.62363935100E+03  0.20760242676E+04  0.50400001928E-02 0. -1.
       -1    1    3    3    0  502  0.11469548812E+04 -0.16141391575E+04 -0.26162557216E+02  0.19803118943E+04  0.50400001928E-02 0.  1.
</event>
<event>
 5   0  0.2078125E-09  0.3998204E+04  0.7818609E-02  0.8004909E-01
        1   -1    0    0  501    0  0.00000000000E+00  0.00000000000E+00  0.16826499732E+04  0.16826499732E+04  0.50400001928E-02 0. -1.
       -1   -1    0    0    0  501  0.00000000000E+00  0.00000000000E+00 -0.23750683354E+04  0.23750683354E+04  0.50400001928E-02 0.  1.
    10030    2    1    2    0    0  0.00000000000E+00  0.00000000000E+00 -0.69241836216E+03  0.40577183086E+04  0.39982039322E+04 0.  0.
        3    1    3    3  502    0 -0.34077797239E+03 -0.14750985365E+04  0.97873641179E+03  0.18027673984E+04  0.10100000352E+00 0. -1.
       -3    1    3    3    0  502  0.34077797239E+03  0.14750985365E+04 -0.16711547739E+04  0.22549509102E+04  0.10100000352E+00 0.  1.
</event>
<event>
 5   0  0.2078125E-09  0.4000567E+04  0.7818609E-02  0.8004432E-01
        1   -1    0    0  501    0  0.00000000000E+00  0.00000000000E+00  0.25351607994E+04  0.25351607994E+04  0.50400001928E-02 0.  1.
       -1   -1    0    0    0  501  0.00000000000E+00  0.00000000000E+00 -0.15782568134E+04  0.15782568134E+04  0.50400001928E-02 0. -1.
    10030    2    1    2    0    0  0.00000000000E+00  0.00000000000E+00  0.95690398606E+03  0.41134176128E+04  0.40005673621E+04 0.  0.
        5    1    3    3  502    0  0.15659865358E+04  0.34780430478E+03 -0.75017379543E+03  0.17708936947E+04  0.46999998093E+01 0. -1.
       -5    1    3    3    0  502 -0.15659865358E+04 -0.34780430478E+03  0.17070777815E+04  0.23425239181E+04  0.46999998093E+01 0.  1.
</event>
<event>
 5   0  0.6547327E-09  0.4003803E+04  0.7818609E-02  0.8003780E-01
        2   -1    0    0  501    0  0.00000000000E+00  0.00000000000E+00  0.22088071734E+04  0.22088071734E+04  0.25500000920E-02 0.  1.
       -2   -1    0    0    0  501  0.00000000000E+00  0.00000000000E+00 -0.18143769304E+04  0.18143769304E+04  0.25500000920E-02 0. -1.
    10030    2    1    2    0    0  0.00000000000E+00  0.00000000000E+00  0.39443024300E+03  0.40231841039E+04  0.40038025822E+04 0.  0.
        5    1    3    3  502    0  0.43679209474E+03  0.19489870888E+04  0.61473505573E+02  0.19982840359E+04  0.46999998093E+01 0. -1.
       -5    1    3    3    0  502 -0.43679209474E+03 -0.19489870888E+04  0.33295673743E+03  0.20249000680E+04  0.46999998093E+01 0.  1.
</event>
<event>
 5   0  0.6547327E-09  0.3999156E+04  0.7818609E-02  0.8004717E-01
       -2   -1    0    0    0  501  0.00000000000E+00  0.00000000000E+00  0.30583302371E+04  0.30583302371E+04  0.25500000920E-02 0.  1.
        2   -1    0    0  501    0  0.00000000000E+00  0.00000000000E+00 -0.13073510521E+04  0.13073510521E+04  0.25500000920E-02 0. -1.
    10030    2    1    2    0    0  0.00000000000E+00  0.00000000000E+00  0.17509791850E+04  0.43656812892E+04  0.39991555374E+04 0.  0.
        5    1    3    3  502    0 -0.97074048456E+03  0.16125819133E+04  0.13870080287E+03  0.18873307919E+04  0.46999998093E+01 0. -1.
       -5    1    3    3    0  502  0.97074048456E+03 -0.16125819133E+04  0.16122783822E+04  0.24783504972E+04  0.46999998093E+01 0.  1.
</event>
<event>
 5   0  0.6599276E-09  0.3999514E+04  0.7818609E-02  0.8004645E-01
       -2   -1    0    0    0  501  0.00000000000E+00  0.00000000000E+00  0.16020940411E+04  0.16020940411E+04  0.25500000920E-02 0.  1.
        2   -1    0    0  501    0  0.00000000000E+00  0.00000000000E+00 -0.24961261774E+04  0.24961261774E+04  0.25500000920E-02 0. -1.
    10030    2    1    2    0    0  0.00000000000E+00  0.00000000000E+00 -0.89403213628E+03  0.40982202185E+04  0.39995144079E+04 0.  0.
        2    1    3    3  502    0  0.54055751168E+02 -0.10956293356E+03  0.15982663950E+04  0.16029290471E+04  0.25500000920E-02 0.  1.
       -2    1    3    3    0  502 -0.54055751168E+02  0.10956293356E+03 -0.24922985313E+04  0.24952911714E+04  0.25500000920E-02 0. -1.
</event>
<event>
 5   0  0.2078125E-09  0.3999989E+04  0.7818609E-02  0.8004549E-01
        1   -1    0    0  501    0  0.00000000000E+00  0.00000000000E+00  0.20686629120E+04  0.20686629120E+04  0.50400001928E-02 0. -1.
       -1   -1    0    0    0  501  0.00000000000E+00  0.00000000000E+00 -0.19336054363E+04  0.19336054363E+04  0.50400001928E-02 0.  1.
    10030    2    1    2    0    0  0.00000000000E+00  0.00000000000E+00  0.13505747571E+03  0.40022683483E+04  0.39999889262E+04 0.  0.
        1    1    3    3  502    0 -0.12035434026E+04  0.12147272171E+04 -0.97031782368E+03  0.19661118007E+04  0.50400001928E-02 0.  1.
       -1    1    3    3    0  502  0.12035434026E+04 -0.12147272171E+04  0.11053752994E+04  0.20361565476E+04  0.50400001928E-02 0. -1.
</event>
<event>
 5   0  0.6547327E-09  0.3999428E+04  0.7818609E-02  0.8004662E-01
       -2   -1    0    0    0  501  0.00000000000E+00  0.00000000000E+00  0.19952848024E+04  0.19952848024E+04  0.25500000920E-02 0. -1.
        2   -1    0    0  501    0  0.00000000000E+00  0.00000000000E+00 -0.20041530022E+04  0.20041530022E+04  0.25500000920E-02 0.  1.
    10030    2    1    2    0    0  0.00000000000E+00  0.00000000000E+00 -0.88681998846E+01  0.39994378046E+04  0.39994279726E+04 0.  0.
        5    1    3    3  502    0  0.23820989078E+03 -0.16554559490E+04 -0.11005917042E+04  0.20021494801E+04  0.46999998093E+01 0.  1.
       -5    1    3    3    0  502 -0.23820989078E+03  0.16554559490E+04  0.10917235043E+04  0.19972883245E+04  0.46999998093E+01 0. -1.
</event>
<event>
 5   0  0.2078125E-09  0.3998401E+04  0.7818609E-02  0.8004869E-01
        1   -1    0    0  501    0  0.00000000000E+00  0.00000000000E+00  0.23167693555E+04  0.23167693555E+04  0.50400001928E-02 0. -1.
       -1   -1    0    0    0  501  0.00000000000E+00  0.00000000000E+00 -0.17251622317E+04  0.17251622317E+04  0.50400001928E-02 0.  1.
    10030    2    1    2    0    0  0.00000000000E+00  0.00000000000E+00  0.59160712374E+03  0.40419315872E+04  0.39984011763E+04 0.  0.
        5    1    3    3  502    0 -0.72626643962E+03 -0.11878477333E+04 -0.11545059577E+04  0.18086877219E+04  0.46999998093E+01 0.  1.
       -5    1    3    3    0  502  0.72626643962E+03  0.11878477333E+04  0.17461130814E+04  0.22332438653E+04  0.46999998093E+01 0. -1.
</event>
<event>
 5   0  0.6645526E-09  0.3998401E+04  0.7818609E-02  0.8004869E-01
       -2   -1    0    0    0  501  0.00000000000E+00  0.00000000000E+00  0.14339519495E+04  0.14339519495E+04  0.25500000920E-02 0. -1.
        2   -1    0    0  501    0  0.00000000000E+00  0.00000000000E+00 -0.27872643517E+04  0.27872643517E+04  0.25500000920E-02 0.  1.
    10030    2    1    2    0    0  0.00000000000E+00  0.00000000000E+00 -0.13533124022E+04  0.42212163012E+04  0.39984012560E+04 0.  0.
        3    1    3    3  502    0 -0.10651759695E+04 -0.30830800847E+03 -0.24328301899E+04  0.26736335608E+04  0.10100000352E+00 0.  1.
       -3    1    3    3    0  502  0.10651759695E+04  0.30830800847E+03  0.10795177877E+04  0.15475827404E+04  0.10100000352E+00 0. -1.
</event>
<event>
 5   0  0.6547327E-09  0.3999848E+04  0.7818609E-02  0.8004577E-01
       -2   -1    0    0    0  501  0.00000000000E+00  0.00000000000E+00  0.17299888335E+04  0.17299888335E+04  0.25500000920E-02 0. -1.
        2   -1    0    0  501    0  0.00000000000E+00  0.00000000000E+00 -0.23119776354E+04  0.23119776354E+04  0.25500000920E-02 0.  1.
    10030    2    1    2    0    0  0.00000000000E+00  0.00000000000E+00 -0.58198880192E+03  0.40419664689E+04  0.39998477434E+04 0.  0.
        5    1    3    3  502    0  0.19818271906E+04  0.17800336151E+03 -0.88008127666E+02  0.19917559415E+04  0.46999998093E+01 0.  1.
       -5    1    3    3    0  502 -0.19818271906E+04 -0.17800336151E+03 -0.49398067426E+03  0.20502105274E+04  0.46999998093E+01 0. -1.
</event>
<event>
 5   0  0.2078125E-09  0.3998905E+04  0.7818609E-02  0.8004768E-01
       -1   -1    0    0    0  501  0.00000000000E+00  0.00000000000E+00  0.18653279767E+04  0.18653279767E+04  0.50400001928E-02 0. -1.
        1   -1    0    0  501    0  0.00000000000E+00  0.00000000000E+00 -0.21432209243E+04  0.21432209243E+04  0.50400001928E-02 0.  1.
    10030    2    1    2    0    0  0.00000000000E+00  0.00000000000E+00 -0.27789294753E+03  0.40085489010E+04  0.39989048252E+04 0.  0.
        4    1    3    3  502    0 -0.12878490006E+03  0.18618204588E+04  0.58031262708E+03  0.19544117604E+04  0.12699999809E+01 0. -1.
       -4    1    3    3    0  502  0.12878490006E+03 -0.18618204588E+04 -0.85820557461E+03  0.20541371406E+04  0.12699999809E+01 0.  1.
</event>
<event>
 5   0  0.6645526E-09  0.4001957E+04  0.7818609E-02  0.8004152E-01
       -2   -1    0    0    0  501  0.00000000000E+00  0.00000000000E+00  0.16675772121E+04  0.16675772121E+04  0.25500000920E-02 0.  1.
        2   -1    0    0  501    0  0.00000000000E+00  0.00000000000E+00 -0.24010375967E+04  0.24010375967E+04  0.25500000920E-02 0. -1.
    10030    2    1    2    0    0  0.00000000000E+00  0.00000000000E+00 -0.73346038456E+03  0.40686148088E+04  0.40019573119E+04 0.  0.
        3    1    3    3  502    0 -0.67958126828E+03 -0.18222019714E+04 -0.84538512216E+03  0.21205958454E+04  0.10100000352E+00 0.  1.
       -3    1    3    3    0  502  0.67958126828E+03  0.18222019714E+04  0.11192473760E+03  0.19480189634E+04  0.10100000352E+00 0. -1.
</event>
<event>
 5   0  0.6599276E-09  0.3992352E+04  0.7818609E-02  0.8006091E-01
       -2   -1    0    0    0  501  0.00000000000E+00  0.00000000000E+00  0.17052168813E+04  0.17052168813E+04  0.25500000920E-02 0. -1.
        2   -1    0    0  501    0  0.00000000000E+00  0.00000000000E+00 -0.23367805654E+04  0.23367805654E+04  0.25500000920E-02 0.  1.
    10030    2    1    2    0    0  0.00000000000E+00  0.00000000000E+00 -0.63156368414E+03  0.40419974467E+04  0.39923515216E+04 0.  0.
        2    1    3    3  502    0  0.10770770515E+04  0.15528355147E+04  0.33511605152E+03  0.19192956726E+04  0.25500000920E-02 0. -1.
       -2    1    3    3    0  502 -0.10770770515E+04 -0.15528355147E+04 -0.96667973566E+03  0.21227017742E+04  0.25500000920E-02 0.  1.
</event>
<event>
 5   0  0.6538370E-09  0.3999507E+04  0.7818609E-02  0.8004646E-01
       -2   -1    0    0    0  501  0.00000000000E+00  0.00000000000E+00  0.28427287661E+04  0.28427287661E+04  0.25500000920E-02 0.  1.
        2   -1    0    0  501    0  0.00000000000E+00  0.00000000000E+00 -0.14067515756E+04  0.14067515756E+04  0.25500000920E-02 0. -1.
    10030    2    1    2    0    0  0.00000000000E+00  0.00000000000E+00  0.14359771905E+04  0.42494803417E+04  0.39995065549E+04 0.  0.
        4    1    3    3  502    0  0.60287060028E+03 -0.16500835958E+04  0.17330986219E+04  0.24677644295E+04  0.12699999809E+01 0.  1.
       -4    1    3    3    0  502 -0.60287060028E+03  0.16500835958E+04 -0.29712143137E+03  0.17817159121E+04  0.12699999809E+01 0. -1.
</event>
<event>
 5   0  0.6645526E-09  0.3999799E+04  0.7818609E-02  0.8004587E-01
        2   -1    0    0  501    0  0.00000000000E+00  0.00000000000E+00  0.20985785526E+04  0.20985785526E+04  0.25500000920E-02 0.  1.
       -2   -1    0    0    0  501  0.00000000000E+00  0.00000000000E+00 -0.19058603580E+04  0.19058603580E+04  0.25500000920E-02 0. -1.
    10030    2    1    2    0    0  0.00000000000E+00  0.00000000000E+00  0.19271819455E+03  0.40044389106E+04  0.39997988307E+04 0.  0.
        3    1    3    3  502    0 -0.44872069191E+03 -0.14737369116E+04 -0.11804034044E+04  0.19407738022E+04  0.10100000352E+00 0. -1.
       -3    1    3    3    0  502  0.44872069191E+03  0.14737369116E+04  0.13731215989E+04  0.20636651084E+04  0.10100000352E+00 0.  1.
</event>
<event>
 5   0  0.6736335E-09  0.3997777E+04  0.7818609E-02  0.8004995E-01
       -2   -1    0    0    0  501  0.00000000000E+00  0.00000000000E+00  0.22443922218E+04  0.22443922218E+04  0.25500000920E-02 0.  1.
        2   -1    0    0  501    0  0.00000000000E+00  0.00000000000E+00 -0.17802392541E+04  0.17802392541E+04  0.25500000920E-02 0. -1.
    10030    2    1    2    0    0  0.00000000000E+00  0.00000000000E+00  0.46415296775E+03  0.40246314759E+04  0.39977769497E+04 0.  0.
        1    1    3    3  502    0  0.18414065867E+04 -0.77735953575E+03  0.20981301653E+03  0.20097481353E+04  0.50400001928E-02 0. -1.
       -1    1    3    3    0  502 -0.18414065867E+04  0.77735953575E+03  0.25433995123E+03  0.20148833406E+04  0.50400001928E-02 0.  1.
</event>
<event>
 5   0  0.6736335E-09  0.3976469E+04  0.7818609E-02  0.8009310E-01
       -2   -1    0    0    0  501  0.00000000000E+00  0.00000000000E+00  0.18501898455E+04  0.18501898455E+04  0.25500000920E-02 0. -1.
        2   -1    0    0  501    0  0.00000000000E+00  0.00000000000E+00 -0.21365788549E+04  0.21365788549E+04  0.25500000920E-02 0.  1.
    10030    2    1    2    0    0  0.00000000000E+00  0.00000000000E+00 -0.28638900938E+03  0.39867687004E+04  0.39764690375E+04 0.  0.
        1    1    3    3  502    0 -0.18839904826E+03 -0.77521055823E+03 -0.19690735543E+04  0.21245461335E+04  0.50400001928E-02 0.  1.
       -1    1    3    3    0  502  0.18839904826E+03  0.77521055823E+03  0.16826845449E+04  0.18622225669E+04  0.50400001928E-02 0. -1.
</event>
<event>
 5   0  0.2078125E-09  0.4000725E+04  0.7818609E-02  0.8004400E-01
        1   -1    0    0  501    0  0.00000000000E+00  0.00000000000E+00  0.23089143342E+04  0.23089143342E+04  0.50400001928E-02 0.  1.
       -1   -1    0    0    0  501  0.00000000000E+00  0.00000000000E+00 -0.17330444293E+04  0.17330444293E+04  0.50400001928E-02 0. -1.
    10030    2    1    2    0    0  0.00000000000E+00  0.00000000000E+00  0.57586990490E+03  0.40419587635E+04  0.40007254965E+04 0.  0.
        1    1    3    3  502    0 -0.92493136558E+02 -0.48623245545E+03 -0.16702031871E+04  0.17419976082E+04  0.50400001928E-02 0. -1.
       -1    1    3    3    0  502  0.92493136558E+02  0.48623245545E+03  0.22460730920E+04  0.22999611552E+04  0.50400001928E-02 0.  1.
</event>
<event>
 5   0  0.2078125E-09  0.3999262E+04  0.7818609E-02  0.8004696E-01
       -1   -1    0    0    0  501  0.00000000000E+00  0.00000000000E+00  0.22589571282E+04  0.22589571282E+04  0.50400001928E-02 0. -1.
        1   -1    0    0  501    0  0.00000000000E+00  0.00000000000E+00 -0.17700749743E+04  0.17700749743E+04  0.50400001928E-02 0.  1.
    10030    2    1    2    0    0  0.00000000000E+00  0.00000000000E+00  0.48888215394E+03  0.40290321026E+04  0.39992616722E+04 0.  0.
        2    1    3    3  502    0 -0.16258973972E+04 -0.90125153183E+03 -0.49774285026E+03  0.19244595643E+04  0.25500000920E-02 0. -1.
       -2    1    3    3    0  502  0.16258973972E+04  0.90125153183E+03  0.98662500421E+03  0.21045725382E+04  0.25500000920E-02 0.  1.
</event>
<event>
 5   0  0.6736335E-09  0.4000551E+04  0.7818609E-02  0.8004435E-01
        2   -1    0    0  501    0  0.00000000000E+00  0.00000000000E+00  0.20376179360E+04  0.20376179360E+04  0.25500000920E-02 0. -1.
       -2   -1    0    0    0  501  0.00000000000E+00  0.00000000000E+00 -0.19636172479E+04  0.19636172480E+04  0.25500000920E-02 0.  1.
    10030    2    1    2    0    0  0.00000000000E+00  0.00000000000E+00  0.74000688075E+02  0.40012351840E+04  0.40005508240E+04 0.  0.
        1    1    3    3  502    0  0.86678627808E+03  0.83169358131E+01  0.18400050666E+04  0.20339631925E+04  0.50400001928E-02 0. -1.
       -1    1    3    3    0  502 -0.86678627808E+03 -0.83169358131E+01 -0.17660043785E+04  0.19672719915E+04  0.50400001928E-02 0.  1.
</event>
<event>
 5   0  0.2078125E-09  0.4003372E+04  0.7818609E-02  0.8003867E-01
       -1   -1    0    0    0  501  0.00000000000E+00  0.00000000000E+00  0.30441203044E+04  0.30441203044E+04  0.50400001928E-02 0.  1.
        1   -1    0    0  501    0  0.00000000000E+00  0.00000000000E+00 -0.13162247264E+04  0.13162247264E+04  0.50400001928E-02 0. -1.
    10030    2    1    2    0    0  0.00000000000E+00  0.00000000000E+00  0.17278955781E+04  0.43603450308E+04  0.40033717863E+04 0.  0.
        5    1    3    3  502    0 -0.68368488608E+03  0.17406894888E+04  0.16412349895E+04  0.24881919742E+04  0.46999998093E+01 0. -1.
       -5    1    3    3    0  502  0.68368488608E+03 -0.17406894888E+04  0.86660588532E+02  0.18721530566E+04  0.46999998093E+01 0.  1.
</event>
<event>
 5   0  0.6547327E-09  0.4000300E+04  0.7818609E-02  0.8004486E-01
        2   -1    0    0  501    0  0.00000000000E+00  0.00000000000E+00  0.24687275533E+04  0.24687275533E+04  0.25500000920E-02 0.  1.
       -2   -1    0    0    0  501  0.00000000000E+00  0.00000000000E+00 -0.16205107650E+04  0.16205107650E+04  0.25500000920E-02 0. -1.
    10030    2    1    2    0    0  0.00000000000E+00  0.00000000000E+00  0.84821678832E+03  0.40892383183E+04  0.40002997768E+04 0.  0.
        5    1    3    3  502    0 -0.70837101558E+02 -0.14530217184E+04  0.18273209583E+04  0.23356827661E+04  0.46999998093E+01 0.  1.
       -5    1    3    3    0  502  0.70837101558E+02  0.14530217184E+04 -0.97910416995E+03  0.17535555523E+04  0.46999998093E+01 0. -1.
</event>
<event>
 5   0  0.2078125E-09  0.3998496E+04  0.7818609E-02  0.8004850E-01
        1   -1    0    0  501    0  0.00000000000E+00  0.00000000000E+00  0.17274011718E+04  0.17274011718E+04  0.50400001928E-02 0. -1.
       -1   -1    0    0    0  501  0.00000000000E+00  0.00000000000E+00 -0.23138762629E+04  0.23138762629E+04  0.50400001928E-02 0.  1.
    10030    2    1    2    0    0  0.00000000000E+00  0.00000000000E+00 -0.58647509114E+03  0.40412774347E+04  0.39984960012E+04 0.  0.
        3    1    3    3  502    0 -0.17840196194E+04  0.32861765700E+03  0.55615711930E+03  0.18973735316E+04  0.10100000352E+00 0. -1.
       -3    1    3    3    0  502  0.17840196194E+04 -0.32861765700E+03 -0.11426322104E+04  0.21439039030E+04  0.10100000352E+00 0.  1.
</event>
<event>
 5   0  0.6599276E-09  0.4000249E+04  0.7818609E-02  0.8004496E-01
        2   -1    0    0  501    0  0.00000000000E+00  0.00000000000E+00  0.19397892211E+04  0.19397892211E+04  0.25500000920E-02 0.  1.
       -2   -1    0    0    0  501  0.00000000000E+00  0.00000000000E+00 -0.20623361205E+04  0.20623361205E+04  0.25500000920E-02 0. -1.
    10030    2    1    2    0    0  0.00000000000E+00  0.00000000000E+00 -0.12254689941E+03  0.40021253416E+04  0.40002486806E+04 0.  0.
        2    1    3    3  502    0  0.10565661657E+04 -0.94559829381E+03 -0.14726121011E+04  0.20442785026E+04  0.25500000920E-02 0. -1.
       -2    1    3    3    0  502 -0.10565661657E+04  0.94559829381E+03  0.13500652017E+04  0.19578468389E+04  0.25500000920E-02 0.  1.
</event>
<event>
 5   0  0.2078125E-09  0.4000211E+04  0.7818609E-02  0.8004504E-01
        1   -1    0    0  501    0  0.00000000000E+00  0.00000000000E+00  0.24065293593E+04  0.24065293593E+04  0.50400001928E-02 0. -1.
       -1   -1    0    0    0  501  0.00000000000E+00  0.00000000000E+00 -0.16623200604E+04  0.16623200605E+04  0.50400001928E-02 0.  1.
    10030    2    1    2    0    0  0.00000000000E+00  0.00000000000E+00  0.74420929890E+03  0.40688494198E+04  0.40002110095E+04 0.  0.
        4    1    3    3  502    0 -0.39335836287E+02  0.13078489653E+04 -0.11665993563E+04  0.17529894167E+04  0.12699999809E+01 0.  1.
       -4    1    3    3    0  502  0.39335836287E+02 -0.13078489653E+04  0.19108086552E+04  0.23158600031E+04  0.12699999809E+01 0. -1.
</event>
<event>
 5   0  0.2078125E-09  0.4000963E+04  0.7818609E-02  0.8004352E-01
        1   -1    0    0  501    0  0.00000000000E+00  0.00000000000E+00  0.23103985391E+04  0.23103985391E+04  0.50400001928E-02 0.  1.
       -1   -1    0    0    0  501  0.00000000000E+00  0.00000000000E+00 -0.17321366489E+04  0.17321366489E+04  0.50400001928E-02 0. -1.
    10030    2    1    2    0    0  0.00000000000E+00  0.00000000000E+00  0.57826189022E+03  0.40425351880E+04  0.40009628757E+04 0.  0.
        5    1    3    3  502    0 -0.68655302096E+03  0.18165639624E+04 -0.19611349565E+03  0.19518561098E+04  0.46999998093E+01 0.  1.
       -5    1    3    3    0  502  0.68655302096E+03 -0.18165639624E+04  0.77437538587E+03  0.20906790783E+04  0.46999998093E+01 0. -1.
</event>
<event>
 5   0  0.2078125E-09  0.4000207E+04  0.7818609E-02  0.8004505E-01
       -1   -1    0    0    0  501  0.00000000000E+00  0.00000000000E+00  0.14184307262E+04  0.14184307262E+04  0.50400001928E-02 0. -1.
        1   -1    0    0  501    0  0.00000000000E+00  0.00000000000E+00 -0.28203096727E+04  0.28203096727E+04  0.50400001928E-02 0.  1.
    10030    2    1    2    0    0  0.00000000000E+00  0.00000000000E+00 -0.14018789464E+04  0.42387403989E+04  0.40002069432E+04 0.  0.
        3    1    3    3  502    0 -0.12606134807E+04  0.10219521562E+04  0.53791349445E+03  0.17096442597E+04  0.10100000352E+00 0. -1.
       -3    1    3    3    0  502  0.12606134807E+04 -0.10219521562E+04 -0.19397924409E+04  0.25290961392E+04  0.10100000352E+00 0.  1.
</event>
<event>
 5   0  0.2078125E-09  0.3988973E+04  0.7818609E-02  0.8006775E-01
        1   -1    0    0  501    0  0.00000000000E+00  0.00000000000E+00  0.21636634268E+04  0.21636634268E+04  0.50400001928E-02 0. -1.
       -1   -1    0    0    0  501  0.00000000000E+00  0.00000000000E+00 -0.18385371692E+04  0.18385371692E+04  0.50400001928E-02 0.  1.
    10030    2    1    2    0    0  0.00000000000E+00  0.00000000000E+00  0.32512625761E+03  0.40022005959E+04  0.39889726154E+04 0.  0.
        2    1    3    3  502    0 -0.20765054581E+03 -0.10287277547E+04 -0.15391083919E+04  0.18628618264E+04  0.25500000920E-02 0.  1.
       -2    1    3    3    0  502  0.20765054581E+03  0.10287277547E+04  0.18642346495E+04  0.21393387695E+04  0.25500000920E-02 0. -1.
</event>
<event>
 5   0  0.6645526E-09  0.3982243E+04  0.7818609E-02  0.8008138E-01
        2   -1    0    0  501    0  0.00000000000E+00  0.00000000000E+00  0.20223216000E+04  0.20223216000E+04  0.25500000920E-02 0. -1.
       -2   -1    0    0    0  501  0.00000000000E+00  0.00000000000E+00 -0.19604023193E+04  0.19604023193E+04  0.25500000920E-02 0.  1.
    10030    2    1    2    0    0  0.00000000000E+00  0.00000000000E+00  0.61919280689E+02  0.39827239194E+04  0.39822425617E+04 0.  0.
        3    1    3    3  502    0 -0.13120498990E+04 -0.20243315727E+03 -0.14531704823E+04  0.19682882364E+04  0.10100000352E+00 0.  1.
       -3    1    3    3    0  502  0.13120498990E+04  0.20243315727E+03  0.15150897630E+04  0.20144356830E+04  0.10100000352E+00 0. -1.
</event>
<event>
 5   0  0.6736335E-09  0.3998765E+04  0.7818609E-02  0.8004796E-01
       -2   -1    0    0    0  501  0.00000000000E+00  0.00000000000E+00  0.14042911225E+04  0.14042911226E+04  0.25500000920E-02 0. -1.
        2   -1    0    0  501    0  0.00000000000E+00  0.00000000000E+00 -0.28466529564E+04  0.28466529564E+04  0.25500000920E-02 0.  1.
    10030    2    1    2    0    0  0.00000000000E+00  0.00000000000E+00 -0.14423618339E+04  0.42509440790E+04  0.39987645471E+04 0.  0.
        1    1    3    3  502    0 -0.13881798239E+04 -0.20202504444E+03  0.79333033220E+03  0.16115924913E+04  0.50400001928E-02 0. -1.
       -1    1    3    3    0  502  0.13881798239E+04  0.20202504444E+03 -0.22356921661E+04  0.26393515877E+04  0.50400001928E-02 0.  1.
</event>
<event>
 5   0  0.2078125E-09  0.4001202E+04  0.7818609E-02  0.8004304E-01
        1   -1    0    0  501    0  0.00000000000E+00  0.00000000000E+00  0.24209140315E+04  0.24209140315E+04  0.50400001928E-02 0. -1.
       -1   -1    0    0    0  501  0.00000000000E+00  0.00000000000E+00 -0.16532620230E+04  0.16532620230E+04  0.50400001928E-02 0.  1.
    10030    2    1    2    0    0  0.00000000000E+00  0.00000000000E+00  0.76765200850E+03  0.40741760545E+04  0.40012024339E+04 0.  0.
        2    1    3    3  502    0 -0.10656956797E+03 -0.54101246420E+03  0.23420099588E+04  0.24060470083E+04  0.25500000920E-02 0. -1.
       -2    1    3    3    0  502  0.10656956797E+03  0.54101246420E+03 -0.15743579503E+04  0.16681290462E+04  0.25500000920E-02 0.  1.
</event>
<event>
 5   0  0.2078125E-09  0.4005949E+04  0.7818609E-02  0.8003348E-01
       -1   -1    0    0    0  501  0.00000000000E+00  0.00000000000E+00  0.20908502409E+04  0.20908502409E+04  0.50400001928E-02 0.  1.
        1   -1    0    0  501    0  0.00000000000E+00  0.00000000000E+00 -0.19187920176E+04  0.19187920176E+04  0.50400001928E-02 0. -1.
    10030    2    1    2    0    0  0.00000000000E+00  0.00000000000E+00  0.17205822323E+03  0.40096422585E+04  0.40059489524E+04 0.  0.
        4    1    3    3  502    0  0.74242463955E+03  0.17374658089E+04 -0.57935694140E+03  0.19762686713E+04  0.12699999809E+01 0. -1.
       -4    1    3    3    0  502 -0.74242463955E+03 -0.17374658089E+04  0.75141516463E+03  0.20333735872E+04  0.12699999809E+01 0.  1.
</event>
<event>
 5   0  0.2078125E-09  0.3999997E+04  0.7818609E-02  0.8004547E-01
        1   -1    0    0  501    0  0.00000000000E+00  0.00000000000E+00  0.16957466929E+04  0.16957466929E+04  0.50400001928E-02 0. -1.
       -1   -1    0    0    0  501  0.00000000000E+00  0.00000000000E+00 -0.23588390267E+04  0.23588390267E+04  0.50400001928E-02 0.  1.
    10030    2    1    2    0    0  0.00000000000E+00  0.00000000000E+00 -0.66309233385E+03  0.40545857196E+04  0.39999967393E+04 0.  0.
        3    1    3    3  502    0  0.10399675117E+04  0.64124635269E+02 -0.20619905034E+04  0.23102920249E+04  0.10100000352E+00 0.  1.
       -3    1    3    3    0  502 -0.10399675117E+04 -0.64124635269E+02  0.13988981695E+04  0.17442936946E+04  0.10100000352E+00 0. -1.
</event>
<event>
 5   0  0.2078125E-09  0.3999571E+04  0.7818609E-02  0.8004633E-01
        1   -1    0    0  501    0  0.00000000000E+00  0.00000000000E+00  0.24577781933E+04  0.24577781933E+04  0.50400001928E-02 0.  1.
       -1   -1    0    0    0  501  0.00000000000E+00  0.00000000000E+00 -0.16271369747E+04  0.16271369747E+04  0.50400001928E-02 0. -1.
    10030    2    1    2    0    0  0.00000000000E+00  0.00000000000E+00  0.83064121866E+03  0.40849151680E+04  0.39995708639E+04 0.  0.
        4    1    3    3  502    0  0.12040150749E+04 -0.11951809397E+04  0.14967006199E+04  0.22623492520E+04  0.12699999809E+01 0.  1.
       -4    1    3    3    0  502 -0.12040150749E+04  0.11951809397E+04 -0.66605940127E+03  0.18225659160E+04  0.12699999809E+01 0. -1.
</event>
<event>
 5   0  0.6599276E-09  0.4001957E+04  0.7818609E-02  0.8004152E-01
        2   -1    0    0  501    0  0.00000000000E+00  0.00000000000E+00  0.13973408391E+04  0.13973408391E+04  0.25500000920E-02 0.  1.
       -2   -1    0    0    0  501  0.00000000000E+00  0.00000000000E+00 -0.28653818271E+04  0.28653818271E+04  0.25500000920E-02 0. -1.
    10030    2    1    2    0    0  0.00000000000E+00  0.00000000000E+00 -0.14680409880E+04  0.42627226662E+04  0.40019570445E+04 0.  0.
        2    1    3    3  502    0  0.23201278932E+03 -0.19423968096E+04 -0.11823751595E+04  0.22857703992E+04  0.25500000920E-02 0. -1.
       -2    1    3    3    0  502 -0.23201278932E+03  0.19423968096E+04 -0.28566582858E+03  0.19769522670E+04  0.25500000920E-02 0.  1.
</event>
<event>
 5   0  0.6736335E-09  0.3998272E+04  0.7818609E-02  0.8004895E-01
       -2   -1    0    0    0  501  0.00000000000E+00  0.00000000000E+00  0.20726822004E+04  0.20726822004E+04  0.25500000920E-02 0.  1.
        2   -1    0    0  501    0  0.00000000000E+00  0.00000000000E+00 -0.19281999553E+04  0.19281999553E+04  0.25500000920E-02 0. -1.
    10030    2    1    2    0    0  0.00000000000E+00  0.00000000000E+00  0.14448224511E+03  0.40008821556E+04  0.39982724900E+04 0.  0.
        1    1    3    3  502    0  0.11582463645E+04  0.11038445536E+04 -0.11270979249E+04  0.19571298301E+04  0.50400001928E-02 0. -1.
       -1    1    3    3    0  502 -0.11582463645E+04 -0.11038445536E+04  0.12715801700E+04  0.20437523256E+04  0.50400001928E-02 0.  1.
</event>
<event>
 5   0  0.2078125E-09  0.3997432E+04  0.7818609E-02  0.8005065E-01
        1   -1    0    0  501    0  0.00000000000E+00  0.00000000000E+00  0.17189396371E+04  0.17189396371E+04  0.50400001928E-02 0.  1.
       -1   -1    0    0    0  501  0.00000000000E+00  0.00000000000E+00 -0.23240290526E+04  0.23240290526E+04  0.50400001928E-02 0. -1.
    10030    2    1    2    0    0  0.00000000000E+00  0.00000000000E+00 -0.60508941556E+03  0.40429686897E+04  0.39974320038E+04 0.  0.
        1    1    3    3  502    0  0.11013547290E+04 -0.17373830696E+03  0.13751761736E+04  0.17703888689E+04  0.50400001928E-02 0.  1.
       -1    1    3    3    0  502 -0.11013547290E+04  0.17373830696E+03 -0.19802655892E+04  0.22725798209E+04  0.50400001928E-02 0. -1.
</event>
<event>
 5   0  0.6599276E-09  0.4000744E+04  0.7818609E-02  0.8004396E-01
       -2   -1    0    0    0  501  0.00000000000E+00  0.00000000000E+00  0.17360161514E+04  0.17360161514E+04  0.25500000920E-02 0. -1.
        2   -1    0    0  501    0  0.00000000000E+00  0.00000000000E+00 -0.23049832306E+04  0.23049832306E+04  0.25500000920E-02 0.  1.
    10030    2    1    2    0    0  0.00000000000E+00  0.00000000000E+00 -0.56896707917E+03  0.40409993821E+04  0.40007439894E+04 0.  0.
        2    1    3    3  502    0  0.23134436642E+03 -0.19866549553E+04 -0.24993425545E+03  0.20156352000E+04  0.25500000920E-02 0.  1.
       -2    1    3    3    0  502 -0.23134436642E+03  0.19866549553E+04 -0.31903282372E+03  0.20253641821E+04  0.25500000920E-02 0. -1.
</event>
<event>
 5   0  0.2078125E-09  0.4000104E+04  0.7818609E-02  0.8004526E-01
       -1   -1    0    0    0  501  0.00000000000E+00  0.00000000000E+00  0.16085684606E+04  0.16085684606E+04  0.50400001928E-02 0.  1.
        1   -1    0    0  501    0  0.00000000000E+00  0.00000000000E+00 -0.24868119453E+04  0.24868119453E+04  0.50400001928E-02 0. -1.
    10030    2    1    2    0    0  0.00000000000E+00  0.00000000000E+00 -0.87824348466E+03  0.40953804059E+04  0.40001036300E+04 0.  0.
        3    1    3    3  502    0  0.87810265150E+03 -0.17326313179E+04  0.48813158170E+02  0.19430538554E+04  0.10100000352E+00 0.  1.
       -3    1    3    3    0  502 -0.87810265150E+03  0.17326313179E+04 -0.92705664283E+03  0.21523265504E+04  0.10100000352E+00 0. -1.
</event>
<event>
 5   0  0.6736335E-09  0.3999971E+04  0.7818609E-02  0.8004552E-01
       -2   -1    0    0    0  501  0.00000000000E+00  0.00000000000E+00  0.18083780687E+04  0.18083780687E+04  0.25500000920E-02 0.  1.
        2   -1    0    0  501    0  0.00000000000E+00  0.00000000000E+00 -0.22118945022E+04  0.22118945022E+04  0.25500000920E-02 0. -1.
    10030    2    1    2    0    0  0.00000000000E+00  0.00000000000E+00 -0.40351643345E+03  0.40202725709E+04  0.39999707539E+04 0.  0.
        1    1    3    3  502    0 -0.65628735368E+03  0.59555393230E+03  0.16002566333E+04  0.18292673039E+04  0.50400001928E-02 0.  1.
       -1    1    3    3    0  502  0.65628735368E+03 -0.59555393230E+03 -0.20037730667E+04  0.21910052669E+04  0.50400001928E-02 0. -1.
</event>
<event>
 5   0  0.2078125E-09  0.3998497E+04  0.7818609E-02  0.8004850E-01
        1   -1    0    0  501    0  0.00000000000E+00  0.00000000000E+00  0.24366519539E+04  0.24366519539E+04  0.50400001928E-02 0. -1.
       -1   -1    0    0    0  501  0.00000000000E+00  0.00000000000E+00 -0.16403635716E+04  0.16403635716E+04  0.50400001928E-02 0.  1.
    10030    2    1    2    0    0  0.00000000000E+00  0.00000000000E+00  0.79628838229E+03  0.40770155255E+04  0.39984972686E+04 0.  0.
        3    1    3    3  502    0  0.91353834944E+03 -0.32820838499E+03  0.21802414828E+04  0.23865720172E+04  0.10100000352E+00 0. -1.
       -3    1    3    3    0  502 -0.91353834944E+03  0.32820838499E+03 -0.13839531005E+04  0.16904435082E+04  0.10100000352E+00 0.  1.
</event>
<event>
 5   0  0.6547327E-09  0.3999008E+04  0.7818609E-02  0.8004747E-01
       -2   -1    0    0    0  501  0.00000000000E+00  0.00000000000E+00  0.19196884101E+04  0.19196884101E+04  0.25500000920E-02 0. -1.
        2   -1    0    0  501    0  0.00000000000E+00  0.00000000000E+00 -0.20826380883E+04  0.20826380883E+04  0.25500000920E-02 0.  1.
    10030    2    1    2    0    0  0.00000000000E+00  0.00000000000E+00 -0.16294967813E+03  0.40023264984E+04  0.39990079772E+04 0.  0.
        5    1    3    3  502    0  0.10553770795E+04  0.11600403480E+04 -0.13228588059E+04  0.20517046325E+04  0.46999998093E+01 0.  1.
       -5    1    3    3    0  502 -0.10553770795E+04 -0.11600403480E+04  0.11599091278E+04  0.19506218658E+04  0.46999998093E+01 0. -1.
</event>
<event>
 5   0  0.6736335E-09  0.3998204E+04  0.7818609E-02  0.8004909E-01
       -2   -1    0    0    0  501  0.00000000000E+00  0.00000000000E+00  0.18061346525E+04  0.18061346525E+04  0.25500000920E-02 0. -1.
        2   -1    0    0  501    0  0.00000000000E+00  0.00000000000E+00 -0.22126864050E+04  0.22126864050E+04  0.25500000920E-02 0.  1.
    10030    2    1    2    0    0  0.00000000000E+00  0.00000000000E+00 -0.40655175256E+03  0.40188210575E+04  0.39982043926E+04 0.  0.
        1    1    3    3  502    0 -0.87012005303E+03 -0.17989875553E+04 -0.25781856215E+03  0.20149281729E+04  0.50400001928E-02 0.  1.
       -1    1    3    3    0  502  0.87012005303E+03  0.17989875553E+04 -0.14873319041E+03  0.20038928846E+04  0.50400001928E-02 0. -1.
</event>
<event>
 5   0  0.2078125E-09  0.3999896E+04  0.7818609E-02  0.8004567E-01
       -1   -1    0    0    0  501  0.00000000000E+00  0.00000000000E+00  0.25368019604E+04  0.25368019604E+04  0.50400001928E-02 0. -1.
        1   -1    0    0  501    0  0.00000000000E+00  0.00000000000E+00 -0.15767067402E+04  0.15767067402E+04  0.50400001928E-02 0.  1.
    10030    2    1    2    0    0  0.00000000000E+00  0.00000000000E+00  0.96009522015E+03  0.41135087006E+04  0.39998963735E+04 0.  0.
        2    1    3    3  502    0  0.15078965371E+04  0.57468668527E+03 -0.73493914303E+03  0.17731757659E+04  0.25500000920E-02 0.  1.
       -2    1    3    3    0  502 -0.15078965371E+04 -0.57468668527E+03  0.16950343632E+04  0.23403329347E+04  0.25500000920E-02 0. -1.
</event>
<event>
 5   0  0.6599276E-09  0.3995193E+04  0.7818609E-02  0.8005517E-01
        2   -1    0    0  501    0  0.00000000000E+00  0.00000000000E+00  0.25113720378E+04  0.25113720378E+04  0.25500000920E-02 0. -1.
       -2   -1    0    0    0  501  0.00000000000E+00  0.00000000000E+00 -0.15889289413E+04  0.15889289413E+04  0.25500000920E-02 0.  1.
    10030    2    1    2    0    0  0.00000000000E+00  0.00000000000E+00  0.92244309647E+03  0.41003009791E+04  0.39951929681E+04 0.  0.
        2    1    3    3  502    0 -0.12597192412E+04 -0.12692115849E+04 -0.45248200002E+03  0.18445949621E+04  0.25500000920E-02 0.  1.
       -2    1    3    3    0  502  0.12597192412E+04  0.12692115849E+04  0.13749250965E+04  0.22557060169E+04  0.25500000920E-02 0. -1.
</event>
<event>
 5   0  0.6736335E-09  0.4003268E+04  0.7818609E-02  0.8003888E-01
        2   -1    0    0  501    0  0.00000000000E+00  0.00000000000E+00  0.14640703136E+04  0.14640703136E+04  0.25500000920E-02 0.  1.
       -2   -1    0    0    0  501  0.00000000000E+00  0.00000000000E+00 -0.27365751814E+04  0.27365751814E+04  0.25500000920E-02 0. -1.
    10030    2    1    2    0    0  0.00000000000E+00  0.00000000000E+00 -0.12725048678E+04  0.42006454949E+04  0.40032679071E+04 0.  0.
        1    1    3    3  502    0 -0.18579669564E+04  0.46691896449E+03 -0.27580108894E+02  0.19159371578E+04  0.50400001928E-02 0. -1.
       -1    1    3    3    0  502  0.18579669564E+04 -0.46691896449E+03 -0.12449247589E+04  0.22847083371E+04  0.50400001928E-02 0.  1.
</event>
<event>
 5   0  0.2078125E-09  0.3976062E+04  0.7818609E-02  0.8009393E-01
        1   -1    0    0  501    0  0.00000000000E+00  0.00000000000E+00  0.24638165900E+04  0.24638165900E+04  0.50400001928E-02 0. -1.
       -1   -1    0    0    0  501  0.00000000000E+00  0.00000000000E+00 -0.16041243640E+04  0.16041243640E+04  0.50400001928E-02 0.  1.
    10030    2    1    2    0    0  0.00000000000E+00  0.00000000000E+00  0.85969222600E+03  0.40679409540E+04  0.39760624847E+04 0.  0.
        2    1    3    3  502    0 -0.78909676294E+03 -0.35996322220E+03 -0.14003509486E+04  0.16471885144E+04  0.25500000920E-02 0.  1.
       -2    1    3    3    0  502  0.78909676294E+03  0.35996322220E+03  0.22600431746E+04  0.24207524396E+04  0.25500000920E-02 0. -1.
</event>
<event>
 5   0  0.2078125E-09  0.4001948E+04  0.7818609E-02  0.8004154E-01
        1   -1    0    0  501    0  0.00000000000E+00  0.00000000000E+00  0.23634932617E+04  0.23634932617E+04  0.50400001928E-02 0. -1.
       -1   -1    0    0    0  501  0.00000000000E+00  0.00000000000E+00 -0.16940586264E+04  0.16940586264E+04  0.50400001928E-02 0.  1.
    10030    2    1    2    0    0  0.00000000000E+00  0.00000000000E+00  0.66943463533E+03  0.40575518882E+04  0.40019476001E+04 0.  0.
        4    1    3    3  502    0 -0.10029315718E+04 -0.59302214199E+03  0.19840798456E+04  0.23008957919E+04  0.12699999809E+01 0. -1.
       -4    1    3    3    0  502  0.10029315718E+04  0.59302214199E+03 -0.13146452103E+04  0.17566560962E+04  0.12699999809E+01 0.  1.
</event>
<event>
 5   0  0.6547327E-09  0.4000304E+04  0.7818609E-02  0.8004485E-01
        2   -1    0    0  501    0  0.00000000000E+00  0.00000000000E+00  0.28062785114E+04  0.28062785114E+04  0.25500000920E-02 0.  1.
       -2   -1    0    0    0  501  0.00000000000E+00  0.00000000000E+00 -0.14255918005E+04  0.14255918005E+04  0.25500000920E-02 0. -1.
    10030    2    1    2    0    0  0.00000000000E+00  0.00000000000E+00  0.13806867108E+04  0.42318703119E+04  0.40003038064E+04 0.  0.
        5    1    3    3  502    0 -0.67718975227E+03 -0.16987677231E+04  0.15472893499E+04  0.23955216885E+04  0.46999998093E+01 0. -1.
       -5    1    3    3    0  502  0.67718975227E+03  0.16987677231E+04 -0.16660263909E+03  0.18363486235E+04  0.46999998093E+01 0.  1.
</event>
<event>
 5   0  0.2078125E-09  0.3996383E+04  0.7818609E-02  0.8005277E-01
       -1   -1    0    0    0  501  0.00000000000E+00  0.00000000000E+00  0.17693292680E+04  0.17693292680E+04  0.50400001928E-02 0. -1.
        1   -1    0    0  501    0  0.00000000000E+00  0.00000000000E+00 -0.22566568664E+04  0.22566568664E+04  0.50400001928E-02 0.  1.
    10030    2    1    2    0    0  0.00000000000E+00  0.00000000000E+00 -0.48732759843E+03  0.40259861344E+04  0.39963828853E+04 0.  0.
        5    1    3    3  502    0  0.96368174736E+03 -0.13582354599E+03  0.15144330112E+04  0.18001833188E+04  0.46999998093E+01 0. -1.
       -5    1    3    3    0  502 -0.96368174736E+03  0.13582354599E+03 -0.20017606096E+04  0.22258028156E+04  0.46999998093E+01 0.  1.
</event>
<event>
 5   0  0.2078125E-09  0.3999247E+04  0.7818609E-02  0.8004698E-01
       -1   -1    0    0    0  501  0.00000000000E+00  0.00000000000E+00  0.15968618156E+04  0.15968618156E+04  0.50400001928E-02 0. -1.
        1   -1    0    0  501    0  0.00000000000E+00  0.00000000000E+00 -0.25039698756E+04  0.25039698756E+04  0.50400001928E-02 0.  1.
    10030    2    1    2    0    0  0.00000000000E+00  0.00000000000E+00 -0.90710806003E+03  0.41008316912E+04  0.39992468700E+04 0.  0.
        3    1    3    3  502    0  0.50801639216E+03 -0.18167244524E+04  0.22656243717E+03  0.18999734048E+04  0.10100000352E+00 0. -1.
       -3    1    3    3    0  502 -0.50801639216E+03  0.18167244524E+04 -0.11336704972E+04  0.22008582865E+04  0.10100000352E+00 0.  1.
</event>
<event>
 5   0  0.6645526E-09  0.4000787E+04  0.7818609E-02  0.8004388E-01
       -2   -1    0    0    0  501  0.00000000000E+00  0.00000000000E+00  0.26993219186E+04  0.26993219186E+04  0.25500000920E-02 0. -1.
        2   -1    0    0  501    0  0.00000000000E+00  0.00000000000E+00 -0.14824371446E+04  0.14824371446E+04  0.25500000920E-02 0.  1.
    10030    2    1    2    0    0  0.00000000000E+00  0.00000000000E+00  0.12168847739E+04  0.41817590632E+04  0.40007874612E+04 0.  0.
        3    1    3    3  502    0 -0.13762770249E+04  0.37536044261E+03  0.20742097463E+04  0.25174153398E+04  0.10100000352E+00 0. -1.
       -3    1    3    3    0  502  0.13762770249E+04 -0.37536044261E+03 -0.85732497236E+03  0.16643437234E+04  0.10100000352E+00 0.  1.
</event>
<event>
 5   0  0.6547327E-09  0.3999229E+04  0.7818609E-02  0.8004702E-01
       -2   -1    0    0    0  501  0.00000000000E+00  0.00000000000E+00  0.23306032249E+04  0.23306032249E+04  0.25500000920E-02 0. -1.
        2   -1    0    0  501    0  0.00000000000E+00  0.00000000000E+00 -0.17156320317E+04  0.17156320317E+04  0.25500000920E-02 0.  1.
    10030    2    1    2    0    0  0.00000000000E+00  0.00000000000E+00  0.61497119320E+03  0.40462352566E+04  0.39992286985E+04 0.  0.
        5    1    3    3  502    0  0.74479687428E+03  0.16394498266E+04 -0.57216872969E+03  0.18894224681E+04  0.46999998093E+01 0.  1.
       -5    1    3    3    0  502 -0.74479687428E+03 -0.16394498266E+04  0.11871399229E+04  0.21568127884E+04  0.46999998093E+01 0. -1.
</event>
<event>
 5   0  0.2078125E-09  0.4000217E+04  0.7818609E-02  0.8004503E-01
        1   -1    0    0  501    0  0.00000000000E+00  0.00000000000E+00  0.23719073243E+04  0.23719073243E+04  0.50400001928E-02 0. -1.
       -1   -1    0    0    0  501  0.00000000000E+00  0.00000000000E+00 -0.16865898602E+04  0.16865898602E+04  0.50400001928E-02 0.  1.
    10030    2    1    2    0    0  0.00000000000E+00  0.00000000000E+00  0.68531746408E+03  0.40584971844E+04  0.40002174153E+04 0.  0.
        5    1    3    3  502    0  0.74766692090E+03 -0.17873388695E+04  0.84671348621E+03  0.21143632320E+04  0.46999998093E+01 0. -1.
       -5    1    3    3    0  502 -0.74766692090E+03  0.17873388695E+04 -0.16139602213E+03  0.19441339524E+04  0.46999998093E+01 0.  1.
</event>
<event>
 5   0  0.2078125E-09  0.4001112E+04  0.7818609E-02  0.8004322E-01
       -1   -1    0    0    0  501  0.00000000000E+00  0.00000000000E+00  0.27867685460E+04  0.27867685460E+04  0.50400001928E-02 0. -1.
        1   -1    0    0  501    0  0.00000000000E+00  0.00000000000E+00 -0.14361521579E+04  0.14361521579E+04  0.50400001928E-02 0.  1.
    10030    2    1    2    0    0  0.00000000000E+00  0.00000000000E+00  0.13506163881E+04  0.42229207040E+04  0.40011116760E+04 0.  0.
        2    1    3    3  502    0 -0.18088084107E+04  0.60695592394E+03  0.40254112244E+02  0.19083510562E+04  0.25500000920E-02 0.  1.
       -2    1    3    3    0  502  0.18088084107E+04 -0.60695592394E+03  0.13103622758E+04  0.23145696477E+04  0.25500000920E-02 0. -1.
</event>
<event>
 5   0  0.6538370E-09  0.3999571E+04  0.7818609E-02  0.8004633E-01
        2   -1    0    0  501    0  0.00000000000E+00  0.00000000000E+00  0.21964658831E+04  0.21964658831E+04  0.25500000920E-02 0.  1.
       -2   -1    0    0    0  501  0.00000000000E+00  0.00000000000E+00 -0.18207165710E+04  0.18207165710E+04  0.25500000920E-02 0. -1.
    10030    2    1    2    0    0  0.00000000000E+00  0.00000000000E+00  0.37574931204E+03  0.40171824541E+04  0.39995708925E+04 0.  0.
        4    1    3    3  502    0 -0.10690779501E+04  0.15412201400E+04  0.88436377946E+03  0.20737377102E+04  0.12699999809E+01 0.  1.
       -4    1    3    3    0  502  0.10690779501E+04 -0.15412201400E+04 -0.50861446741E+03  0.19434447439E+04  0.12699999809E+01 0. -1.
</event>
<event>
 5   0  0.6547327E-09  0.3999635E+04  0.7818609E-02  0.8004620E-01
        2   -1    0    0  501    0  0.00000000000E+00  0.00000000000E+00  0.19341023700E+04  0.19341023700E+04  0.25500000920E-02 0.  1.
       -2   -1    0    0    0  501  0.00000000000E+00  0.00000000000E+00 -0.20677655292E+04  0.20677655292E+04  0.25500000920E-02 0. -1.
    10030    2    1    2    0    0  0.00000000000E+00  0.00000000000E+00 -0.13366315921E+03  0.40018678992E+04  0.39996350886E+04 0.  0.
        5    1    3    3  502    0 -0.34125412423E+03 -0.14507532252E+04  0.12673702973E+04  0.19563713497E+04  0.46999998093E+01 0. -1.
       -5    1    3    3    0  502  0.34125412423E+03  0.14507532252E+04 -0.14010334565E+04  0.20454965494E+04  0.46999998093E+01 0.  1.
</event>
<event>
 5   0  0.2078125E-09  0.4002206E+04  0.7818609E-02  0.8004102E-01
       -1   -1    0    0    0  501  0.00000000000E+00  0.00000000000E+00  0.35802727689E+04  0.35802727689E+04  0.50400001928E-02 0.  1.
        1   -1    0    0  501    0  0.00000000000E+00  0.00000000000E+00 -0.11184659043E+04  0.11184659043E+04  0.50400001928E-02 0. -1.
    10030    2    1    2    0    0  0.00000000000E+00  0.00000000000E+00  0.24618068646E+04  0.46987386732E+04  0.40022059018E+04 0.  0.
        1    1    3    3  502    0  0.17617701987E+04  0.10634113379E+03  0.23380338170E+04  0.29294273842E+04  0.50400001928E-02 0. -1.
       -1    1    3    3    0  502 -0.17617701987E+04 -0.10634113379E+03  0.12377304762E+03  0.17693112890E+04  0.50400001928E-02 0.  1.
</event>
<event>
 5   0  0.6599276E-09  0.4002317E+04  0.7818609E-02  0.8004079E-01
        2   -1    0    0  501    0  0.00000000000E+00  0.00000000000E+00  0.21910938624E+04  0.21910938624E+04  0.25500000920E-02 0.  1.
       -2   -1    0    0    0  501  0.00000000000E+00  0.00000000000E+00 -0.18276875795E+04  0.18276875795E+04  0.25500000920E-02 0. -1.
    10030    2    1    2    0    0  0.00000000000E+00  0.00000000000E+00  0.36340628292E+03  0.40187814419E+04  0.40023168479E+04 0.  0.
        2    1    3    3  502    0 -0.11457612074E+04 -0.10988068834E+04 -0.10417054307E+04  0.18987615742E+04  0.25500000920E-02 0. -1.
       -2    1    3    3    0  502  0.11457612074E+04  0.10988068834E+04  0.14051117137E+04  0.21200198676E+04  0.25500000920E-02 0.  1.
</event>
<event>
 5   0  0.2078125E-09  0.4001012E+04  0.7818609E-02  0.8004342E-01
       -1   -1    0    0    0  501  0.00000000000E+00  0.00000000000E+00  0.18547636771E+04  0.18547636771E+04  0.50400001928E-02 0.  1.
        1   -1    0    0  501    0  0.00000000000E+00  0.00000000000E+00 -0.21577007721E+04  0.21577007721E+04  0.50400001928E-02 0. -1.
    10030    2    1    2    0    0  0.00000000000E+00  0.00000000000E+00 -0.30293709505E+03  0.40124644492E+04  0.40010123810E+04 0.  0.
        2    1    3    3  502    0 -0.13066473422E+03  0.39061524950E+03 -0.21147162668E+04  0.21544554845E+04  0.25500000920E-02 0. -1.
       -2    1    3    3    0  502  0.13066473422E+03 -0.39061524950E+03  0.18117791717E+04  0.18580089647E+04  0.25500000920E-02 0.  1.
</event>
<event>
 5   0  0.6736335E-09  0.4000698E+04  0.7818609E-02  0.8004406E-01
       -2   -1    0    0    0  501  0.00000000000E+00  0.00000000000E+00  0.23685174984E+04  0.23685174984E+04  0.25500000920E-02 0.  1.
        2   -1    0    0  501    0  0.00000000000E+00  0.00000000000E+00 -0.16894096292E+04  0.16894096292E+04  0.25500000920E-02 0. -1.
    10030    2    1    2    0    0  0.00000000000E+00  0.00000000000E+00  0.67910786917E+03  0.40579271276E+04  0.40006980734E+04 0.  0.
        1    1    3    3  502    0 -0.14617509376E+04  0.28468838109E+03  0.16941855738E+04  0.22556657635E+04  0.50400001928E-02 0.  1.
       -1    1    3    3    0  502  0.14617509376E+04 -0.28468838109E+03 -0.10150777047E+04  0.18022613641E+04  0.50400001928E-02 0. -1.
</event>
<event>
 5   0  0.2078125E-09  0.4002299E+04  0.7818609E-02  0.8004083E-01
        1   -1    0    0  501    0  0.00000000000E+00  0.00000000000E+00  0.33376285710E+04  0.33376285710E+04  0.50400001928E-02 0. -1.
       -1   -1    0    0    0  501  0.00000000000E+00  0.00000000000E+00 -0.11998338099E+04  0.11998338099E+04  0.50400001928E-02 0.  1.
    10030    2    1    2    0    0  0.00000000000E+00  0.00000000000E+00  0.21377947611E+04  0.45374623809E+04  0.40022991414E+04 0.  0.
        3    1    3    3  502    0 -0.10678607281E+04 -0.31113344805E+03  0.29549112276E+04  0.31573138790E+04  0.10100000352E+00 0. -1.
       -3    1    3    3    0  502  0.10678607281E+04  0.31113344805E+03 -0.81711646655E+03  0.13801485019E+04  0.10100000352E+00 0.  1.
</event>
<event>
 5   0  0.2078125E-09  0.3993509E+04  0.7818609E-02  0.8005857E-01
        1   -1    0    0  501    0  0.00000000000E+00  0.00000000000E+00  0.19123417452E+04  0.19123417452E+04  0.50400001928E-02 0. -1.
       -1   -1    0    0    0  501  0.00000000000E+00  0.00000000000E+00 -0.20848930191E+04  0.20848930191E+04  0.50400001928E-02 0.  1.
    10030    2    1    2    0    0  0.00000000000E+00  0.00000000000E+00 -0.17255127387E+03  0.39972347643E+04  0.39935087103E+04 0.  0.
        3    1    3    3  502    0 -0.98514524090E+03  0.32001947100E+03 -0.17949431744E+04  0.20723765626E+04  0.10100000352E+00 0.  1.
       -3    1    3    3    0  502  0.98514524090E+03 -0.32001947100E+03  0.16223919006E+04  0.19248582017E+04  0.10100000352E+00 0. -1.
</event>
<event>
 5   0  0.6538370E-09  0.4003658E+04  0.7818609E-02  0.8003809E-01
       -2   -1    0    0    0  501  0.00000000000E+00  0.00000000000E+00  0.20416258230E+04  0.20416258230E+04  0.25500000920E-02 0.  1.
        2   -1    0    0  501    0  0.00000000000E+00  0.00000000000E+00 -0.19628075055E+04  0.19628075055E+04  0.25500000920E-02 0. -1.
    10030    2    1    2    0    0  0.00000000000E+00  0.00000000000E+00  0.78818317482E+02  0.40044333285E+04  0.40036575722E+04 0.  0.
        4    1    3    3  502    0 -0.11664707751E+04  0.16060759206E+04 -0.21983779222E+03  0.19971139676E+04  0.12699999809E+01 0. -1.
       -4    1    3    3    0  502  0.11664707751E+04 -0.16060759206E+04  0.29865610970E+03  0.20073193609E+04  0.12699999809E+01 0.  1.
</event>
<event>
 5   0  0.6736335E-09  0.3998450E+04  0.7818609E-02  0.8004859E-01
        2   -1    0    0  501    0  0.00000000000E+00  0.00000000000E+00  0.13657989509E+04  0.13657989509E+04  0.25500000920E-02 0.  1.
       -2   -1    0    0    0  501  0.00000000000E+00  0.00000000000E+00 -0.29264196374E+04  0.29264196374E+04  0.25500000920E-02 0. -1.
    10030    2    1    2    0    0  0.00000000000E+00  0.00000000000E+00 -0.15606206865E+04  0.42922185883E+04  0.39984501351E+04 0.  0.
        1    1    3    3  502    0 -0.93211525400E+03 -0.60050586972E+03  0.10054797486E+04  0.14968084951E+04  0.50400001928E-02 0.  1.
       -1    1    3    3    0  502  0.93211525400E+03  0.60050586972E+03 -0.25661004350E+04  0.27954100932E+04  0.50400001928E-02 0. -1.
</event>
<event>
 5   0  0.2078125E-09  0.3998417E+04  0.7818609E-02  0.8004866E-01
       -4   -1    0    0    0  501  0.00000000000E+00  0.00000000000E+00  0.15339348928E+04  0.15339354186E+04  0.12699999809E+01 0.  1.
        4   -1    0    0  501    0  0.00000000000E+00  0.00000000000E+00 -0.26056077371E+04  0.26056080467E+04  0.12699999809E+01 0. -1.
    10030    2    1    2    0    0  0.00000000000E+00  0.00000000000E+00 -0.10716728443E+04  0.41395434652E+04  0.39984168636E+04 0.  0.
        2    1    3    3  502    0 -0.68879052747E+03  0.11522403688E+03  0.14035476287E+04  0.15676909502E+04  0.25500000920E-02 0.  1.
       -2    1    3    3    0  502  0.68879052747E+03 -0.11522403688E+03 -0.24752204730E+04  0.25718525150E+04  0.25500000920E-02 0. -1.
</event>
<event>
 5   0  0.2078125E-09  0.3997484E+04  0.7818609E-02  0.8005054E-01
        1   -1    0    0  501    0  0.00000000000E+00  0.00000000000E+00  0.13489983209E+04  0.13489983209E+04  0.50400001928E-02 0. -1.
       -1   -1    0    0    0  501  0.00000000000E+00  0.00000000000E+00 -0.29614336024E+04  0.29614336024E+04  0.50400001928E-02 0.  1.
    10030    2    1    2    0    0  0.00000000000E+00  0.00000000000E+00 -0.16124352815E+04  0.43104319233E+04  0.39974836870E+04 0.  0.
        4    1    3    3  502    0  0.19299881741E+04  0.33991755236E+03 -0.38228646219E+03  0.19966328773E+04  0.12699999809E+01 0. -1.
       -4    1    3    3    0  502 -0.19299881741E+04 -0.33991755236E+03 -0.12301488193E+04  0.23137990460E+04  0.12699999809E+01 0.  1.
</event>
<event>
 5   0  0.2078125E-09  0.3999794E+04  0.7818609E-02  0.8004588E-01
        1   -1    0    0  501    0  0.00000000000E+00  0.00000000000E+00  0.24046363751E+04  0.24046363751E+04  0.50400001928E-02 0.  1.
       -1   -1    0    0    0  501  0.00000000000E+00  0.00000000000E+00 -0.16632821745E+04  0.16632821745E+04  0.50400001928E-02 0. -1.
    10030    2    1    2    0    0  0.00000000000E+00  0.00000000000E+00  0.74135420056E+03  0.40679185495E+04  0.39997944041E+04 0.  0.
        5    1    3    3  502    0  0.48141490312E+03 -0.19311519538E+04  0.17122847799E+03  0.19976109379E+04  0.46999998093E+01 0. -1.
       -5    1    3    3    0  502 -0.48141490312E+03  0.19311519538E+04  0.57012572257E+03  0.20703076117E+04  0.46999998093E+01 0.  1.
</event>
<event>
 5   0  0.6599276E-09  0.3997334E+04  0.7818609E-02  0.8005085E-01
        2   -1    0    0  501    0  0.00000000000E+00  0.00000000000E+00  0.26369730612E+04  0.26369730612E+04  0.25500000920E-02 0.  1.
       -2   -1    0    0    0  501  0.00000000000E+00  0.00000000000E+00 -0.15148690393E+04  0.15148690393E+04  0.25500000920E-02 0. -1.
    10030    2    1    2    0    0  0.00000000000E+00  0.00000000000E+00  0.11221040220E+04  0.41518421005E+04  0.39973335352E+04 0.  0.
        2    1    3    3  502    0 -0.70758599313E+03 -0.41777841524E+03  0.24534115112E+04  0.25873625152E+04  0.25500000920E-02 0.  1.
       -2    1    3    3    0  502  0.70758599313E+03  0.41777841524E+03 -0.13313074892E+04  0.15644795853E+04  0.25500000920E-02 0. -1.
</event>
<event>
 5   0  0.2078125E-09  0.4000300E+04  0.7818609E-02  0.8004486E-01
        1   -1    0    0  501    0  0.00000000000E+00  0.00000000000E+00  0.15122171343E+04  0.15122171344E+04  0.50400001928E-02 0.  1.
       -1   -1    0    0    0  501  0.00000000000E+00  0.00000000000E+00 -0.26455196223E+04  0.26455196223E+04  0.50400001928E-02 0. -1.
    10030    2    1    2    0    0  0.00000000000E+00  0.00000000000E+00 -0.11333024879E+04  0.41577367566E+04  0.40003000398E+04 0.  0.
        4    1    3    3  502    0  0.38878498484E+03 -0.15658316347E+04 -0.17953866054E+04  0.24137931038E+04  0.12699999809E+01 0. -1.
       -4    1    3    3    0  502 -0.38878498484E+03  0.15658316347E+04  0.66208411745E+03  0.17439436528E+04  0.12699999809E+01 0.  1.
</event>
<event>
 5   0  0.6547327E-09  0.4000060E+04  0.7818609E-02  0.8004535E-01
        2   -1    0    0  501    0  0.00000000000E+00  0.00000000000E+00  0.16093402842E+04  0.16093402842E+04  0.25500000920E-02 0. -1.
       -2   -1    0    0    0  501  0.00000000000E+00  0.00000000000E+00 -0.24855646445E+04  0.24855646445E+04  0.25500000920E-02 0.  1.
    10030    2    1    2    0    0  0.00000000000E+00  0.00000000000E+00 -0.87622436029E+03  0.40949049288E+04  0.40000596553E+04 0.  0.
        5    1    3    3  502    0  0.43166018410E+03 -0.15172082744E+04 -0.16968378757E+04  0.23167935447E+04  0.46999998093E+01 0.  1.
       -5    1    3    3    0  502 -0.43166018410E+03  0.15172082744E+04  0.82061351545E+03  0.17781113840E+04  0.46999998093E+01 0. -1.
</event>
<event>
 5   0  0.2078125E-09  0.4002382E+04  0.7818609E-02  0.8004066E-01
       -1   -1    0    0    0  501  0.00000000000E+00  0.00000000000E+00  0.15560557006E+04  0.15560557006E+04  0.50400001928E-02 0.  1.
        1   -1    0    0  501    0  0.00000000000E+00  0.00000000000E+00 -0.25736642613E+04  0.25736642613E+04  0.50400001928E-02 0. -1.
    10030    2    1    2    0    0  0.00000000000E+00  0.00000000000E+00 -0.10176085607E+04  0.41297199619E+04  0.40023817635E+04 0.  0.
        5    1    3    3  502    0  0.12887849981E+04  0.70861863967E+03 -0.19090490378E+04  0.24098957377E+04  0.46999998093E+01 0. -1.
       -5    1    3    3    0  502 -0.12887849981E+04 -0.70861863967E+03  0.89144047708E+03  0.17198242242E+04  0.46999998093E+01 0.  1.
</event>
<event>
 5   0  0.2078125E-09  0.4002518E+04  0.7818609E-02  0.8004039E-01
       -1   -1    0    0    0  501  0.00000000000E+00  0.00000000000E+00  0.15252632504E+04  0.15252632504E+04  0.50400001928E-02 0. -1.
        1   -1    0    0  501    0  0.00000000000E+00  0.00000000000E+00 -0.26258007004E+04  0.26258007004E+04  0.50400001928E-02 0.  1.
    10030    2    1    2    0    0  0.00000000000E+00  0.00000000000E+00 -0.11005374500E+04  0.41510639508E+04  0.40025178632E+04 0.  0.
        1    1    3    3  502    0  0.27479960767E+03  0.15261627468E+04 -0.18622680132E+04  0.24233715578E+04  0.50400001928E-02 0.  1.
       -1    1    3    3    0  502 -0.27479960767E+03 -0.15261627468E+04  0.76173056320E+03  0.17276923930E+04  0.50400001928E-02 0. -1.
</event>
<event>
 5   0  0.6599276E-09  0.3999488E+04  0.7818609E-02  0.8004650E-01
       -2   -1    0    0    0  501  0.00000000000E+00  0.00000000000E+00  0.22345127676E+04  0.22345127676E+04  0.25500000920E-02 0.  1.
        2   -1    0    0  501    0  0.00000000000E+00  0.00000000000E+00 -0.17896413994E+04  0.17896413994E+04  0.25500000920E-02 0. -1.
    10030    2    1    2    0    0  0.00000000000E+00  0.00000000000E+00  0.44487136820E+03  0.40241541671E+04  0.39994882455E+04 0.  0.
        2    1    3    3  502    0  0.24384398743E+03  0.85108806472E+03 -0.15817111084E+04  0.18126281512E+04  0.25500000920E-02 0. -1.
       -2    1    3    3    0  502 -0.24384398743E+03 -0.85108806472E+03  0.20265824766E+04  0.22115260158E+04  0.25500000920E-02 0.  1.
</event>
<event>
 5   0  0.2078125E-09  0.3999737E+04  0.7818609E-02  0.8004600E-01
        1   -1    0    0  501    0  0.00000000000E+00  0.00000000000E+00  0.20891199039E+04  0.20891199039E+04  0.50400001928E-02 0.  1.
       -1   -1    0    0    0  501  0.00000000000E+00  0.00000000000E+00 -0.19144296602E+04  0.19144296602E+04  0.50400001928E-02 0. -1.
    10030    2    1    2    0    0  0.00000000000E+00  0.00000000000E+00  0.17469024369E+03  0.40035495641E+04  0.39997365452E+04 0.  0.
        5    1    3    3  502    0  0.15894857661E+04 -0.64815390925E+03  0.11144239634E+04  0.20465901766E+04  0.46999998093E+01 0.  1.
       -5    1    3    3    0  502 -0.15894857661E+04  0.64815390925E+03 -0.93973371975E+03  0.19569593876E+04  0.46999998093E+01 0. -1.
</event>
<event>
 5   0  0.6736335E-09  0.4001013E+04  0.7818609E-02  0.8004342E-01
        2   -1    0    0  501    0  0.00000000000E+00  0.00000000000E+00  0.14133481203E+04  0.14133481203E+04  0.25500000920E-02 0.  1.
       -2   -1    0    0    0  501  0.00000000000E+00  0.00000000000E+00 -0.28315925223E+04  0.28315925223E+04  0.25500000920E-02 0. -1.
    10030    2    1    2    0    0  0.00000000000E+00  0.00000000000E+00 -0.14182444020E+04  0.42449406426E+04  0.40010128562E+04 0.  0.
        1    1    3    3  502    0  0.75655461832E+03 -0.93534302298E+03 -0.24049385267E+04  0.26890464441E+04  0.50400001928E-02 0. -1.
       -1    1    3    3    0  502 -0.75655461832E+03  0.93534302298E+03  0.98669412473E+03  0.15558941985E+04  0.50400001928E-02 0.  1.
</event>
<event>
 5   0  0.2078125E-09  0.3996355E+04  0.7818609E-02  0.8005282E-01
        1   -1    0    0  501    0  0.00000000000E+00  0.00000000000E+00  0.23526391234E+04  0.23526391234E+04  0.50400001928E-02 0.  1.
       -1   -1    0    0    0  501  0.00000000000E+00  0.00000000000E+00 -0.16971213953E+04  0.16971213954E+04  0.50400001928E-02 0. -1.
    10030    2    1    2    0    0  0.00000000000E+00  0.00000000000E+00  0.65551772807E+03  0.40497605188E+04  0.39963554356E+04 0.  0.
        1    1    3    3  502    0 -0.34788751559E+03  0.15682418170E+04 -0.87652716427E+03  0.18299475374E+04  0.50400001928E-02 0. -1.
       -1    1    3    3    0  502  0.34788751559E+03 -0.15682418170E+04  0.15320448923E+04  0.22198129813E+04  0.50400001928E-02 0.  1.
</event>
<event>
 5   0  0.2078125E-09  0.4002502E+04  0.7818609E-02  0.8004042E-01
        1   -1    0    0  501    0  0.00000000000E+00  0.00000000000E+00  0.24599097780E+04  0.24599097781E+04  0.50400001928E-02 0.  1.
       -1   -1    0    0    0  501  0.00000000000E+00  0.00000000000E+00 -0.16281107273E+04  0.16281107273E+04  0.50400001928E-02 0. -1.
    10030    2    1    2    0    0  0.00000000000E+00  0.00000000000E+00  0.83179905075E+03  0.40880205054E+04  0.40025019664E+04 0.  0.
        2    1    3    3  502    0 -0.15741512906E+04 -0.33502734820E+03 -0.79897256447E+03  0.17968173999E+04  0.25500000920E-02 0. -1.
       -2    1    3    3    0  502  0.15741512906E+04  0.33502734820E+03  0.16307716152E+04  0.22912031055E+04  0.25500000920E-02 0.  1.
</event>
<event>
 5   0  0.6538370E-09  0.3999799E+04  0.7818609E-02  0.8004587E-01
        2   -1    0    0  501    0  0.00000000000E+00  0.00000000000E+00  0.30348315917E+04  0.30348315917E+04  0.25500000920E-02 0.  1.
       -2   -1    0    0    0  501  0.00000000000E+00  0.00000000000E+00 -0.13178978604E+04  0.13178978604E+04  0.25500000920E-02 0. -1.
    10030    2    1    2    0    0  0.00000000000E+00  0.00000000000E+00  0.17169337313E+04  0.43527294522E+04  0.39997990257E+04 0.  0.
        4    1    3    3  502    0 -0.60357257029E+03 -0.56803744244E+03 -0.11221933275E+04  0.13950934954E+04  0.12699999809E+01 0. -1.
       -4    1    3    3    0  502  0.60357257029E+03  0.56803744244E+03  0.28391270589E+04  0.29576359568E+04  0.12699999809E+01 0.  1.
</event>
<event>
 5   0  0.6599276E-09  0.3999623E+04  0.7818609E-02  0.8004623E-01
        2   -1    0    0  501    0  0.00000000000E+00  0.00000000000E+00  0.19854545354E+04  0.19854545354E+04  0.25500000920E-02 0. -1.
       -2   -1    0    0    0  501  0.00000000000E+00  0.00000000000E+00 -0.20142720953E+04  0.20142720953E+04  0.25500000920E-02 0.  1.
    10030    2    1    2    0    0  0.00000000000E+00  0.00000000000E+00 -0.28817559948E+02  0.39997266307E+04  0.39996228158E+04 0.  0.
        2    1    3    3  502    0 -0.32515618513E+03  0.16900600564E+04  0.10040557375E+04  0.19925253983E+04  0.25500000920E-02 0. -1.
       -2    1    3    3    0  502  0.32515618513E+03 -0.16900600564E+04 -0.10328732974E+04  0.20072012324E+04  0.25500000920E-02 0.  1.
</event>
<event>
 5   0  0.6538370E-09  0.4000355E+04  0.7818609E-02  0.8004475E-01
        2   -1    0    0  501    0  0.00000000000E+00  0.00000000000E+00  0.17818228224E+04  0.17818228224E+04  0.25500000920E-02 0.  1.
       -2   -1    0    0    0  501  0.00000000000E+00  0.00000000000E+00 -0.22452903147E+04  0.22452903147E+04  0.25500000920E-02 0. -1.
    10030    2    1    2    0    0  0.00000000000E+00  0.00000000000E+00 -0.46346749223E+03  0.40271131371E+04  0.40003547471E+04 0.  0.
        4    1    3    3  502    0  0.32049327851E+03 -0.13078075694E+04 -0.17206915575E+04  0.21849159318E+04  0.12699999809E+01 0. -1.
       -4    1    3    3    0  502 -0.32049327851E+03  0.13078075694E+04  0.12572240653E+04  0.18421972053E+04  0.12699999809E+01 0.  1.
</event>
<event>
 5   0  0.2078125E-09  0.4001378E+04  0.7818609E-02  0.8004269E-01
       -1   -1    0    0    0  501  0.00000000000E+00  0.00000000000E+00  0.19957867714E+04  0.19957867714E+04  0.50400001928E-02 0. -1.
        1   -1    0    0  501    0  0.00000000000E+00  0.00000000000E+00 -0.20056034497E+04  0.20056034497E+04  0.50400001928E-02 0.  1.
    10030    2    1    2    0    0  0.00000000000E+00  0.00000000000E+00 -0.98166783392E+01  0.40013902211E+04  0.40013781794E+04 0.  0.
        2    1    3    3  502    0  0.15562448966E+04  0.49159193330E+03 -0.11621481963E+04  0.20035341867E+04  0.25500000920E-02 0.  1.
       -2    1    3    3    0  502 -0.15562448966E+04 -0.49159193330E+03  0.11523315179E+04  0.19978560344E+04  0.25500000920E-02 0. -1.
</event>
<event>
 5   0  0.6736335E-09  0.3999075E+04  0.7818609E-02  0.8004733E-01
        2   -1    0    0  501    0  0.00000000000E+00  0.00000000000E+00  0.20908823169E+04  0.20908823169E+04  0.25500000920E-02 0.  1.
       -2   -1    0    0    0  501  0.00000000000E+00  0.00000000000E+00 -0.19121834889E+04  0.19121834889E+04  0.25500000920E-02 0. -1.
    10030    2    1    2    0    0  0.00000000000E+00  0.00000000000E+00  0.17869882803E+03  0.40030658058E+04  0.39990752149E+04 0.  0.
        1    1    3    3  502    0 -0.16928636376E+04  0.79602249183E+03 -0.61755039808E+03  0.19699765473E+04  0.50400001928E-02 0. -1.
       -1    1    3    3    0  502  0.16928636376E+04 -0.79602249183E+03  0.79624922612E+03  0.20330892585E+04  0.50400001928E-02 0.  1.
</event>
<event>
 5   0  0.2078125E-09  0.4000609E+04  0.7818609E-02  0.8004424E-01
        1   -1    0    0  501    0  0.00000000000E+00  0.00000000000E+00  0.28346221450E+04  0.28346221451E+04  0.50400001928E-02 0.  1.
       -1   -1    0    0    0  501  0.00000000000E+00  0.00000000000E+00 -0.14115527275E+04  0.14115527275E+04  0.50400001928E-02 0. -1.
    10030    2    1    2    0    0  0.00000000000E+00  0.00000000000E+00  0.14230694175E+04  0.42461748726E+04  0.40006092638E+04 0.  0.
        4    1    3    3  502    0  0.76392849989E+03 -0.17444742720E+04  0.62059281891E+02  0.19054212673E+04  0.12699999809E+01 0. -1.
       -4    1    3    3    0  502 -0.76392849989E+03  0.17444742720E+04  0.13610101356E+04  0.23407536053E+04  0.12699999809E+01 0.  1.
</event>
<event>
 5   0  0.2078125E-09  0.4000032E+04  0.7818609E-02  0.8004540E-01
        1   -1    0    0  501    0  0.00000000000E+00  0.00000000000E+00  0.32488875617E+04  0.32488875617E+04  0.50400001928E-02 0. -1.
       -1   -1    0    0    0  501  0.00000000000E+00  0.00000000000E+00 -0.12312104479E+04  0.12312104479E+04  0.50400001928E-02 0.  1.
    10030    2    1    2    0    0  0.00000000000E+00  0.00000000000E+00  0.20176771138E+04  0.44800980096E+04  0.40000321548E+04 0.  0.
        2    1    3    3  502    0  0.59845306493E+03 -0.18506875716E+04  0.15304264812E+04  0.24749536911E+04  0.25500000920E-02 0.  1.
       -2    1    3    3    0  502 -0.59845306493E+03  0.18506875716E+04  0.48725063257E+03  0.20051443184E+04  0.25500000920E-02 0. -1.
</event>
<event>
 5   0  0.2078125E-09  0.3978825E+04  0.7818609E-02  0.8008832E-01
       -1   -1    0    0    0  501  0.00000000000E+00  0.00000000000E+00  0.15822123358E+04  0.15822123358E+04  0.50400001928E-02 0.  1.
        1   -1    0    0  501    0  0.00000000000E+00  0.00000000000E+00 -0.25014106240E+04  0.25014106240E+04  0.50400001928E-02 0. -1.
    10030    2    1    2    0    0  0.00000000000E+00  0.00000000000E+00 -0.91919828819E+03  0.40836229599E+04  0.39788253273E+04 0.  0.
        1    1    3    3  502    0 -0.24885693639E+03 -0.70388230922E+02 -0.24840842968E+04  0.24975105749E+04  0.50400001928E-02 0. -1.
       -1    1    3    3    0  502  0.24885693639E+03  0.70388230922E+02  0.15648860086E+04  0.15861123850E+04  0.50400001928E-02 0.  1.
</event>
<event>
 5   0  0.6736335E-09  0.3999496E+04  0.7818609E-02  0.8004648E-01
       -2   -1    0    0    0  501  0.00000000000E+00  0.00000000000E+00  0.22855226393E+04  0.22855226393E+04  0.25500000920E-02 0.  1.
        2   -1    0    0  501    0  0.00000000000E+00  0.00000000000E+00 -0.17497061649E+04  0.17497061649E+04  0.25500000920E-02 0. -1.
    10030    2    1    2    0    0  0.00000000000E+00  0.00000000000E+00  0.53581647448E+03  0.40352288042E+04  0.39994964943E+04 0.  0.
        1    1    3    3  502    0 -0.13037143078E+04 -0.44852020738E+03 -0.11935327557E+04  0.18235574605E+04  0.50400001928E-02 0. -1.
       -1    1    3    3    0  502  0.13037143078E+04  0.44852020738E+03  0.17293492302E+04  0.22116713437E+04  0.50400001928E-02 0.  1.
</event>
<event>
 5   0  0.2078125E-09  0.3998980E+04  0.7818609E-02  0.8004752E-01
        1   -1    0    0  501    0  0.00000000000E+00  0.00000000000E+00  0.21067601743E+04  0.21067601744E+04  0.50400001928E-02 0.  1.
       -1   -1    0    0    0  501  0.00000000000E+00  0.00000000000E+00 -0.18976821317E+04  0.18976821317E+04  0.50400001928E-02 0. -1.
    10030    2    1    2    0    0  0.00000000000E+00  0.00000000000E+00  0.20907804265E+03  0.40044423061E+04  0.39989804394E+04 0.  0.
        3    1    3    3  502    0  0.15977747488E+04 -0.20602178126E+03 -0.10814062109E+04  0.19403011430E+04  0.10100000352E+00 0. -1.
       -3    1    3    3    0  502 -0.15977747488E+04  0.20602178126E+03  0.12904842535E+04  0.20641411631E+04  0.10100000352E+00 0.  1.
</event>
<event>
 5   0  0.2078125E-09  0.3999087E+04  0.7818609E-02  0.8004731E-01
       -1   -1    0    0    0  501  0.00000000000E+00  0.00000000000E+00  0.23641713951E+04  0.23641713951E+04  0.50400001928E-02 0.  1.
        1   -1    0    0  501    0  0.00000000000E+00  0.00000000000E+00 -0.16911524493E+04  0.16911524493E+04  0.50400001928E-02 0. -1.
    10030    2    1    2    0    0  0.00000000000E+00  0.00000000000E+00  0.67301894583E+03  0.40553238444E+04  0.39990870185E+04 0.  0.
        5    1    3    3  502    0  0.11213641812E+04  0.27852603846E+03  0.19913641949E+04  0.23023005511E+04  0.46999998093E+01 0.  1.
       -5    1    3    3    0  502 -0.11213641812E+04 -0.27852603846E+03 -0.13183452491E+04  0.17530232933E+04  0.46999998093E+01 0. -1.
</event>
<event>
 5   0  0.2078125E-09  0.4001570E+04  0.7818609E-02  0.8004230E-01
        1   -1    0    0  501    0  0.00000000000E+00  0.00000000000E+00  0.28749726886E+04  0.28749726886E+04  0.50400001928E-02 0. -1.
       -1   -1    0    0    0  501  0.00000000000E+00  0.00000000000E+00 -0.13924102027E+04  0.13924102027E+04  0.50400001928E-02 0.  1.
    10030    2    1    2    0    0  0.00000000000E+00  0.00000000000E+00  0.14825624859E+04  0.42673828913E+04  0.40015703438E+04 0.  0.
        3    1    3    3  502    0 -0.38996243487E+03  0.18618929341E+04  0.80074712480E+02  0.19039768823E+04  0.10100000352E+00 0.  1.
       -3    1    3    3    0  502  0.38996243487E+03 -0.18618929341E+04  0.14024877734E+04  0.23634060090E+04  0.10100000352E+00 0. -1.
</event>
<event>
 5   0  0.6599276E-09  0.4000066E+04  0.7818609E-02  0.8004533E-01
       -2   -1    0    0    0  501  0.00000000000E+00  0.00000000000E+00  0.15553475194E+04  0.15553475194E+04  0.25500000920E-02 0.  1.
        2   -1    0    0  501    0  0.00000000000E+00  0.00000000000E+00 -0.25718568438E+04  0.25718568438E+04  0.25500000920E-02 0. -1.
    10030    2    1    2    0    0  0.00000000000E+00  0.00000000000E+00 -0.10165093244E+04  0.41272043632E+04  0.40000655806E+04 0.  0.
        2    1    3    3  502    0  0.78989399346E+03  0.14660731590E+04 -0.16510822765E+04  0.23450747775E+04  0.25500000920E-02 0. -1.
       -2    1    3    3    0  502 -0.78989399346E+03 -0.14660731590E+04  0.63457295216E+03  0.17821295856E+04  0.25500000920E-02 0.  1.
</event>
<event>
 5   0  0.6599276E-09  0.4000260E+04  0.7818609E-02  0.8004494E-01
       -2   -1    0    0    0  501  0.00000000000E+00  0.00000000000E+00  0.17060686653E+04  0.17060686653E+04  0.25500000920E-02 0.  1.
        2   -1    0    0  501    0  0.00000000000E+00  0.00000000000E+00 -0.23448762752E+04  0.23448762752E+04  0.25500000920E-02 0. -1.
    10030    2    1    2    0    0  0.00000000000E+00  0.00000000000E+00 -0.63880760989E+03  0.40509449405E+04  0.40002599601E+04 0.  0.
        2    1    3    3  502    0  0.53511408044E+03  0.54871859142E+03  0.15514567043E+04  0.17304499637E+04  0.25500000920E-02 0.  1.
       -2    1    3    3    0  502 -0.53511408044E+03 -0.54871859142E+03 -0.21902643141E+04  0.23204949768E+04  0.25500000920E-02 0. -1.
</event>
<event>
 5   0  0.6538370E-09  0.4000245E+04  0.7818609E-02  0.8004497E-01
       -2   -1    0    0    0  501  0.00000000000E+00  0.00000000000E+00  0.15439711402E+04  0.15439711402E+04  0.25500000920E-02 0. -1.
        2   -1    0    0  501    0  0.00000000000E+00  0.00000000000E+00 -0.25910400189E+04  0.25910400189E+04  0.25500000920E-02 0.  1.
    10030    2    1    2    0    0  0.00000000000E+00  0.00000000000E+00 -0.10470688788E+04  0.41350111591E+04  0.40002454986E+04 0.  0.
        4    1    3    3  502    0  0.33881275385E+03 -0.16427468884E+04  0.60270223348E+03  0.17823195607E+04  0.12699999809E+01 0. -1.
       -4    1    3    3    0  502 -0.33881275385E+03  0.16427468884E+04 -0.16497711123E+04  0.23526915984E+04  0.12699999809E+01 0.  1.
</event>
<event>
 5   0  0.2078125E-09  0.4000038E+04  0.7818609E-02  0.8004539E-01
        1   -1    0    0  501    0  0.00000000000E+00  0.00000000000E+00  0.24032137918E+04  0.24032137918E+04  0.50400001928E-02 0.  1.
       -1   -1    0    0    0  501  0.00000000000E+00  0.00000000000E+00 -0.16644694537E+04  0.16644694537E+04  0.50400001928E-02 0. -1.
    10030    2    1    2    0    0  0.00000000000E+00  0.00000000000E+00  0.73874433809E+03  0.40676832455E+04  0.40000379734E+04 0.  0.
        3    1    3    3  502    0  0.10266709546E+03  0.11017326603E+04 -0.13248520384E+04  0.17261484065E+04  0.10100000352E+00 0. -1.
       -3    1    3    3    0  502 -0.10266709546E+03 -0.11017326603E+04  0.20635963765E+04  0.23415348391E+04  0.10100000352E+00 0.  1.
</event>
<event>
 5   0  0.2078125E-09  0.3997937E+04  0.7818609E-02  0.8004963E-01
       -1   -1    0    0    0  501  0.00000000000E+00  0.00000000000E+00  0.17090701536E+04  0.17090701536E+04  0.50400001928E-02 0.  1.
        1   -1    0    0  501    0  0.00000000000E+00  0.00000000000E+00 -0.23380399365E+04  0.23380399365E+04  0.50400001928E-02 0. -1.
    10030    2    1    2    0    0  0.00000000000E+00  0.00000000000E+00 -0.62896978294E+03  0.40471100901E+04  0.39979366045E+04 0.  0.
        4    1    3    3  502    0  0.13762789863E+04  0.89466483463E+03  0.84029294088E+03  0.18440886242E+04  0.12699999809E+01 0.  1.
       -4    1    3    3    0  502 -0.13762789863E+04 -0.89466483463E+03 -0.14692627238E+04  0.22030214659E+04  0.12699999809E+01 0. -1.
</event>
<event>
 5   0  0.6547327E-09  0.4004036E+04  0.7818609E-02  0.8003733E-01
       -2   -1    0    0    0  501  0.00000000000E+00  0.00000000000E+00  0.17209816953E+04  0.17209816953E+04  0.25500000920E-02 0. -1.
        2   -1    0    0  501    0  0.00000000000E+00  0.00000000000E+00 -0.23289480149E+04  0.23289480149E+04  0.25500000920E-02 0.  1.
    10030    2    1    2    0    0  0.00000000000E+00  0.00000000000E+00 -0.60796631953E+03  0.40499297102E+04  0.40040364149E+04 0.  0.
        5    1    3    3  502    0  0.19551413718E+04  0.37810320567E+03 -0.95428194883E+02  0.19936570538E+04  0.46999998093E+01 0. -1.
       -5    1    3    3    0  502 -0.19551413718E+04 -0.37810320567E+03 -0.51253812464E+03  0.20562726563E+04  0.46999998093E+01 0.  1.
</event>
<event>
 5   0  0.2078125E-09  0.3998357E+04  0.7818609E-02  0.8004878E-01
       -1   -1    0    0    0  501  0.00000000000E+00  0.00000000000E+00  0.21422190960E+04  0.21422190960E+04  0.50400001928E-02 0. -1.
        1   -1    0    0  501    0  0.00000000000E+00  0.00000000000E+00 -0.18656890880E+04  0.18656890880E+04  0.50400001928E-02 0.  1.
    10030    2    1    2    0    0  0.00000000000E+00  0.00000000000E+00  0.27653000795E+03  0.40079081840E+04  0.39983570583E+04 0.  0.
        5    1    3    3  502    0  0.68656988436E+02  0.17995317624E+04  0.10084772231E+04  0.20639953357E+04  0.46999998093E+01 0. -1.
       -5    1    3    3    0  502 -0.68656988436E+02 -0.17995317624E+04 -0.73194721517E+03  0.19439128483E+04  0.46999998093E+01 0.  1.
</event>
<event>
 5   0  0.2078125E-09  0.4001084E+04  0.7818609E-02  0.8004328E-01
       -1   -1    0    0    0  501  0.00000000000E+00  0.00000000000E+00  0.19306434676E+04  0.19306434676E+04  0.50400001928E-02 0. -1.
        1   -1    0    0  501    0  0.00000000000E+00  0.00000000000E+00 -0.20729706757E+04  0.20729706757E+04  0.50400001928E-02 0.  1.
    10030    2    1    2    0    0  0.00000000000E+00  0.00000000000E+00 -0.14232720806E+03  0.40036141433E+04  0.40010835001E+04 0.  0.
        2    1    3    3  502    0  0.56511841951E+03 -0.13425568065E+04  0.13009621343E+04  0.19530284385E+04  0.25500000920E-02 0. -1.
       -2    1    3    3    0  502 -0.56511841951E+03  0.13425568065E+04 -0.14432893424E+04  0.20505857048E+04  0.25500000920E-02 0.  1.
</event>
<event>
 5   0  0.6645526E-09  0.4002030E+04  0.7818609E-02  0.8004137E-01
       -2   -1    0    0    0  501  0.00000000000E+00  0.00000000000E+00  0.14870694079E+04  0.14870694079E+04  0.25500000920E-02 0.  1.
        2   -1    0    0  501    0  0.00000000000E+00  0.00000000000E+00 -0.26925857542E+04  0.26925857542E+04  0.25500000920E-02 0. -1.
    10030    2    1    2    0    0  0.00000000000E+00  0.00000000000E+00 -0.12055163463E+04  0.41796551621E+04  0.40020304363E+04 0.  0.
        3    1    3    3  502    0 -0.16699550644E+04 -0.83532034624E+03 -0.13540990487E+04  0.23065329484E+04  0.10100000352E+00 0. -1.
       -3    1    3    3    0  502  0.16699550644E+04  0.83532034624E+03  0.14858270241E+03  0.18731222138E+04  0.10100000352E+00 0.  1.
</event>
<event>
 5   0  0.2078125E-09  0.4002860E+04  0.7818609E-02  0.8003970E-01
        1   -1    0    0  501    0  0.00000000000E+00  0.00000000000E+00  0.13673353214E+04  0.13673353214E+04  0.50400001928E-02 0.  1.
       -1   -1    0    0    0  501  0.00000000000E+00  0.00000000000E+00 -0.29295831151E+04  0.29295831151E+04  0.50400001928E-02 0. -1.
    10030    2    1    2    0    0  0.00000000000E+00  0.00000000000E+00 -0.15622477937E+04  0.42969184365E+04  0.40028602125E+04 0.  0.
        5    1    3    3  502    0  0.29113891320E+03  0.85717736151E+03 -0.26972417326E+04  0.28451098309E+04  0.46999998093E+01 0. -1.
       -5    1    3    3    0  502 -0.29113891320E+03 -0.85717736151E+03  0.11349939389E+04  0.14518086056E+04  0.46999998093E+01 0.  1.
</event>
<event>
 5   0  0.2078125E-09  0.4001334E+04  0.7818609E-02  0.8004277E-01
       -1   -1    0    0    0  501  0.00000000000E+00  0.00000000000E+00  0.26721007714E+04  0.26721007714E+04  0.50400001928E-02 0. -1.
        1   -1    0    0  501    0  0.00000000000E+00  0.00000000000E+00 -0.14979484209E+04  0.14979484209E+04  0.50400001928E-02 0.  1.
    10030    2    1    2    0    0  0.00000000000E+00  0.00000000000E+00  0.11741523504E+04  0.41700491923E+04  0.40013343430E+04 0.  0.
        5    1    3    3  502    0  0.15742189655E+04 -0.11915462275E+04  0.92429218018E+03  0.21799738273E+04  0.46999998093E+01 0. -1.
       -5    1    3    3    0  502 -0.15742189655E+04  0.11915462275E+04  0.24986017026E+03  0.19900753650E+04  0.46999998093E+01 0.  1.
</event>
<event>
 5   0  0.2078125E-09  0.4000495E+04  0.7818609E-02  0.8004447E-01
       -1   -1    0    0    0  501  0.00000000000E+00  0.00000000000E+00  0.20635113505E+04  0.20635113505E+04  0.50400001928E-02 0.  1.
        1   -1    0    0  501    0  0.00000000000E+00  0.00000000000E+00 -0.19389229545E+04  0.19389229545E+04  0.50400001928E-02 0. -1.
    10030    2    1    2    0    0  0.00000000000E+00  0.00000000000E+00  0.12458839601E+03  0.40024343051E+04  0.40004947317E+04 0.  0.
        3    1    3    3  502    0 -0.37290853661E+03 -0.19546377545E+04  0.26566593269E+03  0.20075477394E+04  0.10100000352E+00 0.  1.
       -3    1    3    3    0  502  0.37290853661E+03  0.19546377545E+04 -0.14107753667E+03  0.19948865656E+04  0.10100000352E+00 0. -1.
</event>
<event>
 5   0  0.2078125E-09  0.4003338E+04  0.7818609E-02  0.8003873E-01
        4   -1    0    0  501    0  0.00000000000E+00  0.00000000000E+00  0.23526636746E+04  0.23526640173E+04  0.12699999809E+01 0. -1.
       -4   -1    0    0    0  501  0.00000000000E+00  0.00000000000E+00 -0.17030389668E+04  0.17030394403E+04  0.12699999809E+01 0.  1.
    10030    2    1    2    0    0  0.00000000000E+00  0.00000000000E+00  0.64962470779E+03  0.40557034576E+04  0.40033383913E+04 0.  0.
        5    1    3    3  502    0 -0.53132954756E+02 -0.15928173140E+04  0.15517557062E+04  0.22243781083E+04  0.46999998093E+01 0. -1.
       -5    1    3    3    0  502  0.53132954756E+02  0.15928173140E+04 -0.90213099845E+03  0.18313253493E+04  0.46999998093E+01 0.  1.
</event>
<event>
 5   0  0.2078125E-09  0.3999523E+04  0.7818609E-02  0.8004643E-01
        1   -1    0    0  501    0  0.00000000000E+00  0.00000000000E+00  0.20940707372E+04  0.20940707372E+04  0.50400001928E-02 0. -1.
       -1   -1    0    0    0  501  0.00000000000E+00  0.00000000000E+00 -0.19096999186E+04  0.19096999186E+04  0.50400001928E-02 0.  1.
    10030    2    1    2    0    0  0.00000000000E+00  0.00000000000E+00  0.18437081860E+03  0.40037706558E+04  0.39995233297E+04 0.  0.
        4    1    3    3  502    0 -0.57539276188E+03  0.58989345906E+03  0.19162054511E+04  0.20858801660E+04  0.12699999809E+01 0. -1.
       -4    1    3    3    0  502  0.57539276188E+03 -0.58989345906E+03 -0.17318346325E+04  0.19178904897E+04  0.12699999809E+01 0.  1.
</event>
<event>
 5   0  0.2078125E-09  0.4004299E+04  0.7818609E-02  0.8003680E-01
        1   -1    0    0  501    0  0.00000000000E+00  0.00000000000E+00  0.17809471688E+04  0.17809471688E+04  0.50400001928E-02 0.  1.
       -1   -1    0    0    0  501  0.00000000000E+00  0.00000000000E+00 -0.22508265778E+04  0.22508265778E+04  0.50400001928E-02 0. -1.
    10030    2    1    2    0    0  0.00000000000E+00  0.00000000000E+00 -0.46987940903E+03  0.40317737466E+04  0.40042993001E+04 0.  0.
        4    1    3    3  502    0 -0.61504504786E+03  0.18568054983E+04  0.19530299879E+03  0.19657446283E+04  0.12699999809E+01 0.  1.
       -4    1    3    3    0  502  0.61504504786E+03 -0.18568054983E+04 -0.66518240782E+03  0.20660291184E+04  0.12699999809E+01 0. -1.
</event>
<event>
 5   0  0.6645526E-09  0.3995818E+04  0.7818609E-02  0.8005391E-01
       -2   -1    0    0    0  501  0.00000000000E+00  0.00000000000E+00  0.14203283066E+04  0.14203283066E+04  0.25500000920E-02 0.  1.
        2   -1    0    0  501    0  0.00000000000E+00  0.00000000000E+00 -0.28103648616E+04  0.28103648616E+04  0.25500000920E-02 0. -1.
    10030    2    1    2    0    0  0.00000000000E+00  0.00000000000E+00 -0.13900365550E+04  0.42306931682E+04  0.39958181965E+04 0.  0.
        3    1    3    3  502    0  0.59182156366E+03 -0.16754698361E+04 -0.16620439221E+04  0.24330725317E+04  0.10100000352E+00 0. -1.
       -3    1    3    3    0  502 -0.59182156366E+03  0.16754698361E+04  0.27200736717E+03  0.17976206366E+04  0.10100000352E+00 0.  1.
</event>
<event>
 5   0  0.6538370E-09  0.4000280E+04  0.7818609E-02  0.8004490E-01
        2   -1    0    0  501    0  0.00000000000E+00  0.00000000000E+00  0.21557627952E+04  0.21557627952E+04  0.25500000920E-02 0.  1.
       -2   -1    0    0    0  501  0.00000000000E+00  0.00000000000E+00 -0.18557510797E+04  0.18557510797E+04  0.25500000920E-02 0. -1.
    10030    2    1    2    0    0  0.00000000000E+00  0.00000000000E+00  0.30001171550E+03  0.40115138749E+04  0.40002795576E+04 0.  0.
        4    1    3    3  502    0 -0.12830821286E+04  0.13519099109E+04  0.87771410515E+03  0.20601805307E+04  0.12699999809E+01 0.  1.
       -4    1    3    3    0  502  0.12830821286E+04 -0.13519099109E+04 -0.57770238965E+03  0.19513333441E+04  0.12699999809E+01 0. -1.
</event>
<event>
 5   0  0.6538370E-09  0.3999557E+04  0.7818609E-02  0.8004636E-01
       -2   -1    0    0    0  501  0.00000000000E+00  0.00000000000E+00  0.17143230903E+04  0.17143230903E+04  0.25500000920E-02 0.  1.
        2   -1    0    0  501    0  0.00000000000E+00  0.00000000000E+00 -0.23327652190E+04  0.23327652190E+04  0.25500000920E-02 0. -1.
    10030    2    1    2    0    0  0.00000000000E+00  0.00000000000E+00 -0.61844212872E+03  0.40470883094E+04  0.39995566151E+04 0.  0.
        4    1    3    3  502    0 -0.89705938670E+03 -0.10004289958E+04  0.11894399443E+04  0.17945313352E+04  0.12699999809E+01 0.  1.
       -4    1    3    3    0  502  0.89705938670E+03  0.10004289958E+04 -0.18078820730E+04  0.22525569742E+04  0.12699999809E+01 0. -1.
</event>
<event>
 5   0  0.2078125E-09  0.3999955E+04  0.7818609E-02  0.8004556E-01
       -1   -1    0    0    0  501  0.00000000000E+00  0.00000000000E+00  0.17611157817E+04  0.17611157817E+04  0.50400001928E-02 0.  1.
        1   -1    0    0  501    0  0.00000000000E+00  0.00000000000E+00 -0.22712358406E+04  0.22712358407E+04  0.50400001928E-02 0. -1.
    10030    2    1    2    0    0  0.00000000000E+00  0.00000000000E+00 -0.51012005899E+03  0.40323516223E+04  0.39999546412E+04 0.  0.
        5    1    3    3  502    0 -0.37426629309E+03  0.73314862264E+02  0.17241131517E+04  0.17657968674E+04  0.46999998093E+01 0.  1.
       -5    1    3    3    0  502  0.37426629309E+03 -0.73314862264E+02 -0.22342332107E+04  0.22665547549E+04  0.46999998093E+01 0. -1.
</event>
<event>
 5   0  0.2078125E-09  0.4001157E+04  0.7818609E-02  0.8004313E-01
       -1   -1    0    0    0  501  0.00000000000E+00  0.00000000000E+00  0.26974262644E+04  0.26974262644E+04  0.50400001928E-02 0. -1.
        1   -1    0    0  501    0  0.00000000000E+00  0.00000000000E+00 -0.14837531224E+04  0.14837531224E+04  0.50400001928E-02 0.  1.
    10030    2    1    2    0    0  0.00000000000E+00  0.00000000000E+00  0.12136731419E+04  0.41811793868E+04  0.40011571538E+04 0.  0.
        3    1    3    3  502    0 -0.69267468440E+03  0.40860256911E+03 -0.13074004821E+04  0.15349430962E+04  0.10100000352E+00 0.  1.
       -3    1    3    3    0  502  0.69267468440E+03 -0.40860256911E+03  0.25210736240E+04  0.26462362906E+04  0.10100000352E+00 0. -1.
</event>
<event>
 5   0  0.6538370E-09  0.3997847E+04  0.7818609E-02  0.8004981E-01
        2   -1    0    0  501    0  0.00000000000E+00  0.00000000000E+00  0.27556343950E+04  0.27556343950E+04  0.25500000920E-02 0. -1.
       -2   -1    0    0    0  501  0.00000000000E+00  0.00000000000E+00 -0.14500094558E+04  0.14500094558E+04  0.25500000920E-02 0.  1.
    10030    2    1    2    0    0  0.00000000000E+00  0.00000000000E+00  0.13056249392E+04  0.42056438508E+04  0.39978473855E+04 0.  0.
        4    1    3    3  502    0 -0.81846368805E+03 -0.14188098344E+03 -0.12598431074E+04  0.15090458212E+04  0.12699999809E+01 0.  1.
       -4    1    3    3    0  502  0.81846368805E+03  0.14188098344E+03  0.25654680467E+04  0.26965980296E+04  0.12699999809E+01 0. -1.
</event>
<event>
 5   0  0.6547327E-09  0.3999092E+04  0.7818609E-02  0.8004730E-01
       -2   -1    0    0    0  501  0.00000000000E+00  0.00000000000E+00  0.14213064938E+04  0.14213064938E+04  0.25500000920E-02 0. -1.
        2   -1    0    0  501    0  0.00000000000E+00  0.00000000000E+00 -0.28130345677E+04  0.28130345677E+04  0.25500000920E-02 0.  1.
    10030    2    1    2    0    0  0.00000000000E+00  0.00000000000E+00 -0.13917280739E+04  0.42343410615E+04  0.39990920461E+04 0.  0.
        5    1    3    3  502    0  0.68552449737E+03  0.15106802718E+04  0.48607348768E+03  0.17286955329E+04  0.46999998093E+01 0. -1.
       -5    1    3    3    0  502 -0.68552449737E+03 -0.15106802718E+04 -0.18778015615E+04  0.25056455285E+04  0.46999998093E+01 0.  1.
</event>
<event>
 5   0  0.2078125E-09  0.3998769E+04  0.7818609E-02  0.8004795E-01
        1   -1    0    0  501    0  0.00000000000E+00  0.00000000000E+00  0.24649263408E+04  0.24649263408E+04  0.50400001928E-02 0.  1.
       -1   -1    0    0    0  501  0.00000000000E+00  0.00000000000E+00 -0.16217682697E+04  0.16217682697E+04  0.50400001928E-02 0. -1.
    10030    2    1    2    0    0  0.00000000000E+00  0.00000000000E+00  0.84315807110E+03  0.40866946106E+04  0.39987694741E+04 0.  0.
        5    1    3    3  502    0  0.12487779593E+04  0.44021505445E+03  0.19526118066E+04  0.23592267044E+04  0.46999998093E+01 0.  1.
       -5    1    3    3    0  502 -0.12487779593E+04 -0.44021505445E+03 -0.11094537355E+04  0.17274679062E+04  0.46999998093E+01 0. -1.
</event>
<event>
 5   0  0.2078125E-09  0.3999784E+04  0.7818609E-02  0.8004590E-01
        1   -1    0    0  501    0  0.00000000000E+00  0.00000000000E+00  0.16880912062E+04  0.16880912062E+04  0.50400001928E-02 0.  1.
       -1   -1    0    0    0  501  0.00000000000E+00  0.00000000000E+00 -0.23692842959E+04  0.23692842959E+04  0.50400001928E-02 0. -1.
    10030    2    1    2    0    0  0.00000000000E+00  0.00000000000E+00 -0.68119308968E+03  0.40573755021E+04  0.39997839866E+04 0.  0.
        3    1    3    3  502    0 -0.14013310839E+04  0.21249976299E+03  0.10906344119E+04  0.17883982740E+04  0.10100000352E+00 0.  1.
       -3    1    3    3    0  502  0.14013310839E+04 -0.21249976299E+03 -0.17718275016E+04  0.22689772281E+04  0.10100000352E+00 0. -1.
</event>
<event>
 5   0  0.6599276E-09  0.3999432E+04  0.7818609E-02  0.8004661E-01
       -2   -1    0    0    0  501  0.00000000000E+00  0.00000000000E+00  0.29517880135E+04  0.29517880135E+04  0.25500000920E-02 0.  1.
        2   -1    0    0  501    0  0.00000000000E+00  0.00000000000E+00 -0.13547258863E+04  0.13547258863E+04  0.25500000920E-02 0. -1.
    10030    2    1    2    0    0  0.00000000000E+00  0.00000000000E+00  0.15970621272E+04  0.43065138997E+04  0.39994317759E+04 0.  0.
        2    1    3    3  502    0 -0.68621151907E+03  0.18769268098E+04  0.72145927520E+03  0.21246750302E+04  0.25500000920E-02 0. -1.
       -2    1    3    3    0  502  0.68621151907E+03 -0.18769268098E+04  0.87560285200E+03  0.21818388695E+04  0.25500000920E-02 0.  1.
</event>
<event>
 5   0  0.6547327E-09  0.3994630E+04  0.7818609E-02  0.8005631E-01
        2   -1    0    0  501    0  0.00000000000E+00  0.00000000000E+00  0.22924502725E+04  0.22924502725E+04  0.25500000920E-02 0.  1.
       -2   -1    0    0    0  501  0.00000000000E+00  0.00000000000E+00 -0.17401757363E+04  0.17401757363E+04  0.25500000920E-02 0. -1.
    10030    2    1    2    0    0  0.00000000000E+00  0.00000000000E+00  0.55227453618E+03  0.40326260088E+04  0.39946295652E+04 0.  0.
        5    1    3    3  502    0  0.72252104577E+03 -0.17488472140E+04  0.92154704850E+03  0.21047028988E+04  0.46999998093E+01 0.  1.
       -5    1    3    3    0  502 -0.72252104577E+03  0.17488472140E+04 -0.36927251232E+03  0.19279231100E+04  0.46999998093E+01 0. -1.
</event>
<event>
 5   0  0.6736335E-09  0.3998894E+04  0.7818609E-02  0.8004770E-01
       -2   -1    0    0    0  501  0.00000000000E+00  0.00000000000E+00  0.28675349719E+04  0.28675349719E+04  0.25500000920E-02 0.  1.
        2   -1    0    0  501    0  0.00000000000E+00  0.00000000000E+00 -0.13941552732E+04  0.13941552732E+04  0.25500000920E-02 0. -1.
    10030    2    1    2    0    0  0.00000000000E+00  0.00000000000E+00  0.14733796987E+04  0.42616902452E+04  0.39988943483E+04 0.  0.
        1    1    3    3  502    0  0.14432629309E+03  0.17263565232E+04 -0.32724182542E+03  0.17630156370E+04  0.50400001928E-02 0. -1.
       -1    1    3    3    0  502 -0.14432629309E+03 -0.17263565232E+04  0.18006215241E+04  0.24986746081E+04  0.50400001928E-02 0.  1.
</event>
<event>
 5   0  0.6538370E-09  0.4000449E+04  0.7818609E-02  0.8004456E-01
       -2   -1    0    0    0  501  0.00000000000E+00  0.00000000000E+00  0.32427149968E+04  0.32427149968E+04  0.25500000920E-02 0. -1.
        2   -1    0    0  501    0  0.00000000000E+00  0.00000000000E+00 -0.12338110258E+04  0.12338110258E+04  0.25500000920E-02 0.  1.
    10030    2    1    2    0    0  0.00000000000E+00  0.00000000000E+00  0.20089039710E+04  0.44765260225E+04  0.40004487330E+04 0.  0.
        4    1    3    3  502    0 -0.38912704416E+03  0.15439559283E+04  0.23591778205E+04  0.28462152707E+04  0.12699999809E+01 0. -1.
       -4    1    3    3    0  502  0.38912704416E+03 -0.15439559283E+04 -0.35027384949E+03  0.16303107519E+04  0.12699999809E+01 0.  1.
</event>
<event>
 5   0  0.6547327E-09  0.3998701E+04  0.7818609E-02  0.8004809E-01
        2   -1    0    0  501    0  0.00000000000E+00  0.00000000000E+00  0.18750822774E+04  0.18750822774E+04  0.25500000920E-02 0.  1.
       -2   -1    0    0    0  501  0.00000000000E+00  0.00000000000E+00 -0.21318542090E+04  0.21318542090E+04  0.25500000920E-02 0. -1.
    10030    2    1    2    0    0  0.00000000000E+00  0.00000000000E+00 -0.25677193162E+03  0.40069364864E+04  0.39987008116E+04 0.  0.
        5    1    3    3  502    0  0.15795916742E+04 -0.11083324239E+04  0.39601713649E+03  0.19698635185E+04  0.46999998093E+01 0.  1.
       -5    1    3    3    0  502 -0.15795916742E+04  0.11083324239E+04 -0.65278906811E+03  0.20370729679E+04  0.46999998093E+01 0. -1.
</event>
<event>
 5   0  0.6645526E-09  0.4000324E+04  0.7818609E-02  0.8004481E-01
       -2   -1    0    0    0  501  0.00000000000E+00  0.00000000000E+00  0.33481510213E+04  0.33481510213E+04  0.25500000920E-02 0. -1.
        2   -1    0    0  501    0  0.00000000000E+00  0.00000000000E+00 -0.11948827820E+04  0.11948827820E+04  0.25500000920E-02 0.  1.
    10030    2    1    2    0    0  0.00000000000E+00  0.00000000000E+00  0.21532682394E+04  0.45430338033E+04  0.40003239903E+04 0.  0.
        3    1    3    3  502    0 -0.14129351109E+04  0.35735942795E+03 -0.47908660245E+03  0.15341497225E+04  0.10100000352E+00 0.  1.
       -3    1    3    3    0  502  0.14129351109E+04 -0.35735942795E+03  0.26323548418E+04  0.30088840808E+04  0.10100000352E+00 0. -1.
</event>
<event>
 5   0  0.2078125E-09  0.3995883E+04  0.7818609E-02  0.8005378E-01
       -1   -1    0    0    0  501  0.00000000000E+00  0.00000000000E+00  0.15701571195E+04  0.15701571195E+04  0.50400001928E-02 0.  1.
        1   -1    0    0  501    0  0.00000000000E+00  0.00000000000E+00 -0.25422749776E+04  0.25422749776E+04  0.50400001928E-02 0. -1.
    10030    2    1    2    0    0  0.00000000000E+00  0.00000000000E+00 -0.97211785818E+03  0.41124320971E+04  0.39958834596E+04 0.  0.
        4    1    3    3  502    0 -0.13918404159E+04  0.80600998824E+02 -0.19589022572E+04  0.24043743324E+04  0.12699999809E+01 0. -1.
       -4    1    3    3    0  502  0.13918404159E+04 -0.80600998824E+02  0.98678439905E+03  0.17080577646E+04  0.12699999809E+01 0.  1.
</event>
<event>
 5   0  0.6547327E-09  0.3999913E+04  0.7818609E-02  0.8004564E-01
       -2   -1    0    0    0  501  0.00000000000E+00  0.00000000000E+00  0.17273497249E+04  0.17273497249E+04  0.25500000920E-02 0.  1.
        2   -1    0    0  501    0  0.00000000000E+00  0.00000000000E+00 -0.23155855376E+04  0.23155855376E+04  0.25500000920E-02 0. -1.
    10030    2    1    2    0    0  0.00000000000E+00  0.00000000000E+00 -0.58823581272E+03  0.40429352624E+04  0.39999130197E+04 0.  0.
        5    1    3    3  502    0 -0.44493854394E+03  0.18985956428E+04 -0.74293016159E+03  0.20867685635E+04  0.46999998093E+01 0.  1.
       -5    1    3    3    0  502  0.44493854394E+03 -0.18985956428E+04  0.15469434887E+03  0.19561666990E+04  0.46999998093E+01 0. -1.
</event>
<event>
 5   0  0.2078125E-09  0.4008488E+04  0.7818609E-02  0.8002836E-01
       -1   -1    0    0    0  501  0.00000000000E+00  0.00000000000E+00  0.13466045080E+04  0.13466045080E+04  0.50400001928E-02 0.  1.
        1   -1    0    0  501    0  0.00000000000E+00  0.00000000000E+00 -0.29830537750E+04  0.29830537750E+04  0.50400001928E-02 0. -1.
    10030    2    1    2    0    0  0.00000000000E+00  0.00000000000E+00 -0.16364492670E+04  0.43296582830E+04  0.40084878251E+04 0.  0.
        5    1    3    3  502    0 -0.14915351010E+04  0.60464411012E+03 -0.21083722375E+04  0.26524567931E+04  0.46999998093E+01 0. -1.
       -5    1    3    3    0  502  0.14915351010E+04 -0.60464411012E+03  0.47192297053E+03  0.16772014899E+04  0.46999998093E+01 0.  1.
</event>
<event>
 5   0  0.2078125E-09  0.3999753E+04  0.7818609E-02  0.8004596E-01
       -1   -1    0    0    0  501  0.00000000000E+00  0.00000000000E+00  0.17769750345E+04  0.17769750345E+04  0.50400001928E-02 0. -1.
        1   -1    0    0  501    0  0.00000000000E+00  0.00000000000E+00 -0.22507389267E+04  0.22507389267E+04  0.50400001928E-02 0.  1.
    10030    2    1    2    0    0  0.00000000000E+00  0.00000000000E+00 -0.47376389221E+03  0.40277139612E+04  0.39997534334E+04 0.  0.
        5    1    3    3  502    0 -0.16649778594E+04 -0.98152795736E+03  0.28045683510E+03  0.19530044879E+04  0.46999998093E+01 0. -1.
       -5    1    3    3    0  502  0.16649778594E+04  0.98152795736E+03 -0.75422072731E+03  0.20747094734E+04  0.46999998093E+01 0.  1.
</event>
<event>
 5   0  0.2078125E-09  0.4000224E+04  0.7818609E-02  0.8004501E-01
       -1   -1    0    0    0  501  0.00000000000E+00  0.00000000000E+00  0.15473392327E+04  0.15473392327E+04  0.50400001928E-02 0. -1.
        1   -1    0    0  501    0  0.00000000000E+00  0.00000000000E+00 -0.25853717060E+04  0.25853717060E+04  0.50400001928E-02 0.  1.
    10030    2    1    2    0    0  0.00000000000E+00  0.00000000000E+00 -0.10380324733E+04  0.41327109387E+04  0.40002235296E+04 0.  0.
        5    1    3    3  502    0 -0.12908979584E+04  0.13193820862E+04 -0.13147455922E+04  0.22662225598E+04  0.46999998093E+01 0.  1.
       -5    1    3    3    0  502  0.12908979584E+04 -0.13193820862E+04  0.27671311896E+03  0.18664883789E+04  0.46999998093E+01 0. -1.
</event>
<event>
 5   0  0.2078125E-09  0.3995138E+04  0.7818609E-02  0.8005528E-01
        1   -1    0    0  501    0  0.00000000000E+00  0.00000000000E+00  0.14705438771E+04  0.14705438771E+04  0.50400001928E-02 0. -1.
       -1   -1    0    0    0  501  0.00000000000E+00  0.00000000000E+00 -0.27134742093E+04  0.27134742093E+04  0.50400001928E-02 0.  1.
    10030    2    1    2    0    0  0.00000000000E+00  0.00000000000E+00 -0.12429303323E+04  0.41840180864E+04  0.39951384878E+04 0.  0.
        1    1    3    3  502    0 -0.79328045692E+03 -0.18192666242E+04 -0.38435928040E+03  0.20215728999E+04  0.50400001928E-02 0.  1.
       -1    1    3    3    0  502  0.79328045692E+03  0.18192666242E+04 -0.85857105189E+03  0.21624451865E+04  0.50400001928E-02 0. -1.
</event>
<event>
 5   0  0.6645526E-09  0.4001896E+04  0.7818609E-02  0.8004164E-01
       -2   -1    0    0    0  501  0.00000000000E+00  0.00000000000E+00  0.13236243316E+04  0.13236243316E+04  0.25500000920E-02 0.  1.
        2   -1    0    0  501    0  0.00000000000E+00  0.00000000000E+00 -0.30248712344E+04  0.30248712344E+04  0.25500000920E-02 0. -1.
    10030    2    1    2    0    0  0.00000000000E+00  0.00000000000E+00 -0.17012469028E+04  0.43484955660E+04  0.40018961335E+04 0.  0.
        3    1    3    3  502    0 -0.46326161988E+03  0.71448066191E+03  0.11169185271E+04  0.14044931296E+04  0.10100000352E+00 0.  1.
       -3    1    3    3    0  502  0.46326161988E+03 -0.71448066191E+03 -0.28181654300E+04  0.29440024364E+04  0.10100000352E+00 0. -1.
</event>
<event>
 5   0  0.6547327E-09  0.3997820E+04  0.7818609E-02  0.8004986E-01
        2   -1    0    0  501    0  0.00000000000E+00  0.00000000000E+00  0.25978654507E+04  0.25978654507E+04  0.25500000920E-02 0.  1.
       -2   -1    0    0    0  501  0.00000000000E+00  0.00000000000E+00 -0.15380479333E+04  0.15380479333E+04  0.25500000920E-02 0. -1.
    10030    2    1    2    0    0  0.00000000000E+00  0.00000000000E+00  0.10598175174E+04  0.41359133839E+04  0.39978201997E+04 0.  0.
        5    1    3    3  502    0  0.34286739721E+03 -0.23774301120E+03 -0.14924926780E+04  0.15497213541E+04  0.46999998093E+01 0. -1.
       -5    1    3    3    0  502 -0.34286739721E+03  0.23774301120E+03  0.25523101954E+04  0.25861920298E+04  0.46999998093E+01 0.  1.
</event>
<event>
 5   0  0.2078125E-09  0.3992265E+04  0.7818609E-02  0.8006109E-01
        1   -1    0    0  501    0  0.00000000000E+00  0.00000000000E+00  0.23177761140E+04  0.23177761140E+04  0.50400001928E-02 0. -1.
       -1   -1    0    0    0  501  0.00000000000E+00  0.00000000000E+00 -0.17191244733E+04  0.17191244733E+04  0.50400001928E-02 0.  1.
    10030    2    1    2    0    0  0.00000000000E+00  0.00000000000E+00  0.59865164071E+03  0.40369005872E+04  0.39922653424E+04 0.  0.
        4    1    3    3  502    0 -0.36644042597E+03 -0.12188896475E+04 -0.12555834839E+04  0.17878652232E+04  0.12699999809E+01 0.  1.
       -4    1    3    3    0  502  0.36644042597E+03  0.12188896475E+04  0.18542351246E+04  0.22490353640E+04  0.12699999809E+01 0. -1.
</event>
<event>
 5   0  0.6599276E-09  0.3997861E+04  0.7818609E-02  0.8004978E-01
        2   -1    0    0  501    0  0.00000000000E+00  0.00000000000E+00  0.16907116132E+04  0.16907116132E+04  0.25500000920E-02 0.  1.
       -2   -1    0    0    0  501  0.00000000000E+00  0.00000000000E+00 -0.23633376893E+04  0.23633376893E+04  0.25500000920E-02 0. -1.
    10030    2    1    2    0    0  0.00000000000E+00  0.00000000000E+00 -0.67262607608E+03  0.40540493026E+04  0.39978606666E+04 0.  0.
        2    1    3    3  502    0  0.44737622553E+02  0.82157469719E+03 -0.21836568396E+04  0.23335260082E+04  0.25500000920E-02 0. -1.
       -2    1    3    3    0  502 -0.44737622553E+02 -0.82157469719E+03  0.15110307635E+04  0.17205232943E+04  0.25500000920E-02 0.  1.
</event>
<event>
 5   0  0.6599276E-09  0.3997876E+04  0.7818609E-02  0.8004975E-01
        2   -1    0    0  501    0  0.00000000000E+00  0.00000000000E+00  0.22973143495E+04  0.22973143495E+04  0.25500000920E-02 0.  1.
       -2   -1    0    0    0  501  0.00000000000E+00  0.00000000000E+00 -0.17393146729E+04  0.17393146729E+04  0.25500000920E-02 0. -1.
    10030    2    1    2    0    0  0.00000000000E+00  0.00000000000E+00  0.55799967667E+03  0.40366290224E+04  0.39978757141E+04 0.  0.
        2    1    3    3  502    0  0.94665285547E+03 -0.15742320146E+04 -0.51692718344E+03  0.19082902761E+04  0.25500000920E-02 0. -1.
       -2    1    3    3    0  502 -0.94665285547E+03  0.15742320146E+04  0.10749268601E+04  0.21283387464E+04  0.25500000920E-02 0.  1.
</event>
<event>
 5   0  0.2078125E-09  0.4000453E+04  0.7818609E-02  0.8004455E-01
        1   -1    0    0  501    0  0.00000000000E+00  0.00000000000E+00  0.18914330356E+04  0.18914330356E+04  0.50400001928E-02 0.  1.
       -1   -1    0    0    0  501  0.00000000000E+00  0.00000000000E+00 -0.21152778367E+04  0.21152778367E+04  0.50400001928E-02 0. -1.
    10030    2    1    2    0    0  0.00000000000E+00  0.00000000000E+00 -0.22384480112E+03  0.40067108723E+04  0.40004531642E+04 0.  0.
        1    1    3    3  502    0 -0.12023106575E+04  0.36992157721E+03 -0.16695121173E+04  0.20903740335E+04  0.50400001928E-02 0. -1.
       -1    1    3    3    0  502  0.12023106575E+04 -0.36992157721E+03  0.14456673162E+04  0.19163368387E+04  0.50400001928E-02 0.  1.
</event>
<event>
 5   0  0.6547327E-09  0.3999774E+04  0.7818609E-02  0.8004592E-01
        2   -1    0    0  501    0  0.00000000000E+00  0.00000000000E+00  0.15591598107E+04  0.15591598107E+04  0.25500000920E-02 0. -1.
       -2   -1    0    0    0  501  0.00000000000E+00  0.00000000000E+00 -0.25651945078E+04  0.25651945078E+04  0.25500000920E-02 0.  1.
    10030    2    1    2    0    0  0.00000000000E+00  0.00000000000E+00 -0.10060346971E+04  0.41243543185E+04  0.39997740852E+04 0.  0.
        5    1    3    3  502    0 -0.12729900285E+04  0.13576831216E+04 -0.12577428755E+04  0.22462738707E+04  0.46999998093E+01 0. -1.
       -5    1    3    3    0  502  0.12729900285E+04 -0.13576831216E+04  0.25170817844E+03  0.18780804478E+04  0.46999998093E+01 0.  1.
</event>
<event>
 5   0  0.2078125E-09  0.3999731E+04  0.7818609E-02  0.8004601E-01
       -1   -1    0    0    0  501  0.00000000000E+00  0.00000000000E+00  0.20917852148E+04  0.20917852148E+04  0.50400001928E-02 0.  1.
        1   -1    0    0  501    0  0.00000000000E+00  0.00000000000E+00 -0.19119847355E+04  0.19119847355E+04  0.50400001928E-02 0. -1.
    10030    2    1    2    0    0  0.00000000000E+00  0.00000000000E+00  0.17980047930E+03  0.40037699503E+04  0.39997306913E+04 0.  0.
        3    1    3    3  502    0 -0.24390899715E+03 -0.42688380670E+03 -0.18505465113E+04  0.19147437907E+04  0.10100000352E+00 0. -1.
       -3    1    3    3    0  502  0.24390899715E+03  0.42688380670E+03  0.20303469906E+04  0.20890261597E+04  0.10100000352E+00 0.  1.
</event>
<event>
 5   0  0.6538370E-09  0.3999392E+04  0.7818609E-02  0.8004669E-01
       -2   -1    0    0    0  501  0.00000000000E+00  0.00000000000E+00  0.26353652438E+04  0.26353652438E+04  0.25500000920E-02 0.  1.
        2   -1    0    0  501    0  0.00000000000E+00  0.00000000000E+00 -0.15173551624E+04  0.15173551624E+04  0.25500000920E-02 0. -1.
    10030    2    1    2    0    0  0.00000000000E+00  0.00000000000E+00  0.11180100814E+04  0.41527204063E+04  0.39993924827E+04 0.  0.
        4    1    3    3  502    0  0.80095616091E+02 -0.10653582991E+04 -0.11961789683E+04  0.16038233538E+04  0.12699999809E+01 0. -1.
       -4    1    3    3    0  502 -0.80095616091E+02  0.10653582991E+04  0.23141890497E+04  0.25488970524E+04  0.12699999809E+01 0.  1.
</event>
<event>
 5   0  0.6547327E-09  0.3999483E+04  0.7818609E-02  0.8004651E-01
       -2   -1    0    0    0  501  0.00000000000E+00  0.00000000000E+00  0.22394771926E+04  0.22394771926E+04  0.25500000920E-02 0.  1.
        2   -1    0    0  501    0  0.00000000000E+00  0.00000000000E+00 -0.17856691557E+04  0.17856691557E+04  0.25500000920E-02 0. -1.
    10030    2    1    2    0    0  0.00000000000E+00  0.00000000000E+00  0.45380803690E+03  0.40251463483E+04  0.39994826404E+04 0.  0.
        5    1    3    3  502    0  0.19226628482E+04 -0.32969258735E+03 -0.21593493985E+03  0.19626460756E+04  0.46999998093E+01 0. -1.
       -5    1    3    3    0  502 -0.19226628482E+04  0.32969258735E+03  0.66974297675E+03  0.20625002727E+04  0.46999998093E+01 0.  1.
</event>
<event>
 5   0  0.2078125E-09  0.4000030E+04  0.7818609E-02  0.8004541E-01
       -1   -1    0    0    0  501  0.00000000000E+00  0.00000000000E+00  0.16298305095E+04  0.16298305096E+04  0.50400001928E-02 0. -1.
        1   -1    0    0  501    0  0.00000000000E+00  0.00000000000E+00 -0.24542793815E+04  0.24542793815E+04  0.50400001928E-02 0.  1.
    10030    2    1    2    0    0  0.00000000000E+00  0.00000000000E+00 -0.82444887193E+03  0.40841098910E+04  0.40000297073E+04 0.  0.
        3    1    3    3  502    0 -0.15698686578E+04 -0.11799270057E+04 -0.25658076201E+02  0.19640197781E+04  0.10100000352E+00 0. -1.
       -3    1    3    3    0  502  0.15698686578E+04  0.11799270057E+04 -0.79879079573E+03  0.21200901130E+04  0.10100000352E+00 0.  1.
</event>
<event>
 5   0  0.2078125E-09  0.4001014E+04  0.7818609E-02  0.8004342E-01
       -1   -1    0    0    0  501  0.00000000000E+00  0.00000000000E+00  0.21435342309E+04  0.21435342309E+04  0.50400001928E-02 0. -1.
        1   -1    0    0  501    0  0.00000000000E+00  0.00000000000E+00 -0.18670233750E+04  0.18670233750E+04  0.50400001928E-02 0.  1.
    10030    2    1    2    0    0  0.00000000000E+00  0.00000000000E+00  0.27651085584E+03  0.40105576059E+04  0.40010141286E+04 0.  0.
        1    1    3    3  502    0 -0.56284736881E+03  0.11379141663E+04  0.16880295064E+04  0.21121291213E+04  0.50400001928E-02 0. -1.
       -1    1    3    3    0  502  0.56284736881E+03 -0.11379141663E+04 -0.14115186506E+04  0.18984284847E+04  0.50400001928E-02 0.  1.
</event>
<event>
 5   0  0.2078125E-09  0.3997446E+04  0.7818609E-02  0.8005062E-01
       -1   -1    0    0    0  501  0.00000000000E+00  0.00000000000E+00  0.26949389618E+04  0.26949389618E+04  0.50400001928E-02 0.  1.
        1   -1    0    0  501    0  0.00000000000E+00  0.00000000000E+00 -0.14823690140E+04  0.14823690140E+04  0.50400001928E-02 0. -1.
    10030    2    1    2    0    0  0.00000000000E+00  0.00000000000E+00  0.12125699479E+04  0.41773079758E+04  0.39974461905E+04 0.  0.
        3    1    3    3  502    0  0.47481154868E+02 -0.55902132818E+02 -0.14809622509E+04  0.14827773627E+04  0.10100000352E+00 0. -1.
       -3    1    3    3    0  502 -0.47481154868E+02  0.55902132818E+02  0.26935321988E+04  0.26945306130E+04  0.10100000352E+00 0.  1.
</event>
<event>
 5   0  0.6538370E-09  0.3992232E+04  0.7818609E-02  0.8006115E-01
        2   -1    0    0  501    0  0.00000000000E+00  0.00000000000E+00  0.17091639892E+04  0.17091639892E+04  0.25500000920E-02 0. -1.
       -2   -1    0    0    0  501  0.00000000000E+00  0.00000000000E+00 -0.23312445464E+04  0.23312445464E+04  0.25500000920E-02 0.  1.
    10030    2    1    2    0    0  0.00000000000E+00  0.00000000000E+00 -0.62208055719E+03  0.40404085357E+04  0.39922320719E+04 0.  0.
        4    1    3    3  502    0 -0.55163326404E+03  0.17781122426E+04  0.41771527141E+03  0.19080015897E+04  0.12699999809E+01 0. -1.
       -4    1    3    3    0  502  0.55163326404E+03 -0.17781122426E+04 -0.10397958286E+04  0.21324069460E+04  0.12699999809E+01 0.  1.
</event>
<event>
 5   0  0.6736335E-09  0.3998564E+04  0.7818609E-02  0.8004836E-01
        2   -1    0    0  501    0  0.00000000000E+00  0.00000000000E+00  0.14177793490E+04  0.14177793490E+04  0.25500000920E-02 0. -1.
       -2   -1    0    0    0  501  0.00000000000E+00  0.00000000000E+00 -0.28192875140E+04  0.28192875140E+04  0.25500000920E-02 0.  1.
    10030    2    1    2    0    0  0.00000000000E+00  0.00000000000E+00 -0.14015081649E+04  0.42370668630E+04  0.39985635502E+04 0.  0.
        1    1    3    3  502    0  0.10591953176E+04  0.10400247235E+04 -0.21198830625E+04  0.25879432655E+04  0.50400001928E-02 0. -1.
       -1    1    3    3    0  502 -0.10591953176E+04 -0.10400247235E+04  0.71837489760E+03  0.16491235975E+04  0.50400001928E-02 0.  1.
</event>
<event>
 5   0  0.6547327E-09  0.4000602E+04  0.7818609E-02  0.8004425E-01
       -2   -1    0    0    0  501  0.00000000000E+00  0.00000000000E+00  0.14161690756E+04  0.14161690756E+04  0.25500000920E-02 0. -1.
        2   -1    0    0  501    0  0.00000000000E+00  0.00000000000E+00 -0.28253720420E+04  0.28253720420E+04  0.25500000920E-02 0.  1.
    10030    2    1    2    0    0  0.00000000000E+00  0.00000000000E+00 -0.14092029664E+04  0.42415411176E+04  0.40006022112E+04 0.  0.
        5    1    3    3  502    0  0.10422842033E+04 -0.54386596892E+03 -0.24204108488E+04  0.26908283705E+04  0.46999998093E+01 0.  1.
       -5    1    3    3    0  502 -0.10422842033E+04  0.54386596892E+03  0.10112078824E+04  0.15507127471E+04  0.46999998093E+01 0. -1.
</event>
<event>
 5   0  0.2078125E-09  0.3999014E+04  0.7818609E-02  0.8004745E-01
        1   -1    0    0  501    0  0.00000000000E+00  0.00000000000E+00  0.24909984053E+04  0.24909984053E+04  0.50400001928E-02 0. -1.
       -1   -1    0    0    0  501  0.00000000000E+00  0.00000000000E+00 -0.16049902527E+04  0.16049902528E+04  0.50400001928E-02 0.  1.
    10030    2    1    2    0    0  0.00000000000E+00  0.00000000000E+00  0.88600815258E+03  0.40959886581E+04  0.39990139586E+04 0.  0.
        2    1    3    3  502    0  0.85564675746E+03 -0.13818162356E+04  0.16359276785E+04  0.23060370448E+04  0.25500000920E-02 0. -1.
       -2    1    3    3    0  502 -0.85564675746E+03  0.13818162356E+04 -0.74991952591E+03  0.17899516133E+04  0.25500000920E-02 0.  1.
</event>
<event>
 5   0  0.6538370E-09  0.4000067E+04  0.7818609E-02  0.8004533E-01
        2   -1    0    0  501    0  0.00000000000E+00  0.00000000000E+00  0.26171613238E+04  0.26171613238E+04  0.25500000920E-02 0.  1.
       -2   -1    0    0    0  501  0.00000000000E+00  0.00000000000E+00 -0.15284249470E+04  0.15284249470E+04  0.25500000920E-02 0. -1.
    10030    2    1    2    0    0  0.00000000000E+00  0.00000000000E+00  0.10887363768E+04  0.41455862708E+04  0.40000673282E+04 0.  0.
        4    1    3    3  502    0 -0.18799245231E+04 -0.62317520534E+03  0.83319925125E+03  0.21486475175E+04  0.12699999809E+01 0.  1.
       -4    1    3    3    0  502  0.18799245231E+04  0.62317520534E+03  0.25553712556E+03  0.19969387533E+04  0.12699999809E+01 0. -1.
</event>
<event>
 5   0  0.2078125E-09  0.3998559E+04  0.7818609E-02  0.8004837E-01
        1   -1    0    0  501    0  0.00000000000E+00  0.00000000000E+00  0.33641987964E+04  0.33641987964E+04  0.50400001928E-02 0.  1.
       -1   -1    0    0    0  501  0.00000000000E+00  0.00000000000E+00 -0.11881336614E+04  0.11881336614E+04  0.50400001928E-02 0. -1.
    10030    2    1    2    0    0  0.00000000000E+00  0.00000000000E+00  0.21760651349E+04  0.45523324578E+04  0.39985586572E+04 0.  0.
        3    1    3    3  502    0 -0.13251086093E+04 -0.40242299437E+03 -0.55363408211E+03  0.14914314600E+04  0.10100000352E+00 0. -1.
       -3    1    3    3    0  502  0.13251086093E+04  0.40242299437E+03  0.27296992170E+04  0.30609009978E+04  0.10100000352E+00 0.  1.
</event>
<event>
 5   0  0.6538370E-09  0.4000900E+04  0.7818609E-02  0.8004365E-01
       -2   -1    0    0    0  501  0.00000000000E+00  0.00000000000E+00  0.20033109308E+04  0.20033109308E+04  0.25500000920E-02 0.  1.
        2   -1    0    0  501    0  0.00000000000E+00  0.00000000000E+00 -0.19975932052E+04  0.19975932052E+04  0.25500000920E-02 0. -1.
    10030    2    1    2    0    0  0.00000000000E+00  0.00000000000E+00  0.57177255943E+01  0.40009041360E+04  0.40009000504E+04 0.  0.
        4    1    3    3  502    0 -0.25126818600E+03  0.13767151925E+04  0.14323071623E+04  0.20024949045E+04  0.12699999809E+01 0.  1.
       -4    1    3    3    0  502  0.25126818600E+03 -0.13767151925E+04 -0.14265894367E+04  0.19984092315E+04  0.12699999809E+01 0. -1.
</event>
<event>
 5   0  0.2078125E-09  0.4000537E+04  0.7818609E-02  0.8004438E-01
       -1   -1    0    0    0  501  0.00000000000E+00  0.00000000000E+00  0.17765317662E+04  0.17765317662E+04  0.50400001928E-02 0.  1.
        1   -1    0    0  501    0  0.00000000000E+00  0.00000000000E+00 -0.22521821867E+04  0.22521821867E+04  0.50400001928E-02 0. -1.
    10030    2    1    2    0    0  0.00000000000E+00  0.00000000000E+00 -0.47565042051E+03  0.40287139529E+04  0.40005365630E+04 0.  0.
        3    1    3    3  502    0  0.17869604659E+03  0.22236317554E+03  0.17559415692E+04  0.17789627494E+04  0.10100000352E+00 0.  1.
       -3    1    3    3    0  502 -0.17869604659E+03 -0.22236317554E+03 -0.22315919897E+04  0.22497512035E+04  0.10100000352E+00 0. -1.
</event>
<event>
 5   0  0.2078125E-09  0.3986625E+04  0.7818609E-02  0.8007250E-01
       -1   -1    0    0    0  501  0.00000000000E+00  0.00000000000E+00  0.19684118405E+04  0.19684118405E+04  0.50400001928E-02 0. -1.
        1   -1    0    0  501    0  0.00000000000E+00  0.00000000000E+00 -0.20185285312E+04  0.20185285312E+04  0.50400001928E-02 0.  1.
    10030    2    1    2    0    0  0.00000000000E+00  0.00000000000E+00 -0.50116690733E+02  0.39869403717E+04  0.39866253705E+04 0.  0.
        3    1    3    3  502    0 -0.10314831480E+04 -0.49723351007E+03 -0.16567805975E+04  0.20139812825E+04  0.10100000352E+00 0.  1.
       -3    1    3    3    0  502  0.10314831480E+04  0.49723351007E+03  0.16066639067E+04  0.19729590892E+04  0.10100000352E+00 0. -1.
</event>
<event>
 5   0  0.6538370E-09  0.3999462E+04  0.7818609E-02  0.8004655E-01
       -2   -1    0    0    0  501  0.00000000000E+00  0.00000000000E+00  0.18088527961E+04  0.18088527961E+04  0.25500000920E-02 0.  1.
        2   -1    0    0  501    0  0.00000000000E+00  0.00000000000E+00 -0.22107519405E+04  0.22107519405E+04  0.25500000920E-02 0. -1.
    10030    2    1    2    0    0  0.00000000000E+00  0.00000000000E+00 -0.40189914441E+03  0.40196047367E+04  0.39994623785E+04 0.  0.
        4    1    3    3  502    0 -0.89701970650E+03  0.75723209983E+03 -0.18280155725E+04  0.21724841433E+04  0.12699999809E+01 0. -1.
       -4    1    3    3    0  502  0.89701970650E+03 -0.75723209983E+03  0.14261164281E+04  0.18471205933E+04  0.12699999809E+01 0.  1.
</event>
<event>
 5   0  0.6736335E-09  0.3999604E+04  0.7818609E-02  0.8004626E-01
        2   -1    0    0  501    0  0.00000000000E+00  0.00000000000E+00  0.20543616743E+04  0.20543616743E+04  0.25500000920E-02 0. -1.
       -2   -1    0    0    0  501  0.00000000000E+00  0.00000000000E+00 -0.19466917225E+04  0.19466917225E+04  0.25500000920E-02 0.  1.
    10030    2    1    2    0    0  0.00000000000E+00  0.00000000000E+00  0.10766995172E+03  0.40010533968E+04  0.39996044136E+04 0.  0.
        1    1    3    3  502    0 -0.14783313613E+04  0.12409159096E+04 -0.46968334492E+03  0.19864386104E+04  0.50400001928E-02 0. -1.
       -1    1    3    3    0  502  0.14783313613E+04 -0.12409159096E+04  0.57735329664E+03  0.20146147864E+04  0.50400001928E-02 0.  1.
</event>
<event>
 5   0  0.6599276E-09  0.3999454E+04  0.7818609E-02  0.8004657E-01
       -2   -1    0    0    0  501  0.00000000000E+00  0.00000000000E+00  0.22568344509E+04  0.22568344509E+04  0.25500000920E-02 0. -1.
        2   -1    0    0  501    0  0.00000000000E+00  0.00000000000E+00 -0.17719101095E+04  0.17719101095E+04  0.25500000920E-02 0.  1.
    10030    2    1    2    0    0  0.00000000000E+00  0.00000000000E+00  0.48492434141E+03  0.40287445604E+04  0.39994538522E+04 0.  0.
        2    1    3    3  502    0  0.92118938633E+03  0.90940486053E+02  0.20280262089E+04  0.22292936911E+04  0.25500000920E-02 0. -1.
       -2    1    3    3    0  502 -0.92118938633E+03 -0.90940486053E+02 -0.15431018675E+04  0.17994508692E+04  0.25500000920E-02 0.  1.
</event>
<event>
 5   0  0.6538370E-09  0.3995194E+04  0.7818609E-02  0.8005517E-01
        2   -1    0    0  501    0  0.00000000000E+00  0.00000000000E+00  0.18271199891E+04  0.18271199891E+04  0.25500000920E-02 0.  1.
       -2   -1    0    0    0  501  0.00000000000E+00  0.00000000000E+00 -0.21839806520E+04  0.21839806520E+04  0.25500000920E-02 0. -1.
    10030    2    1    2    0    0  0.00000000000E+00  0.00000000000E+00 -0.35686066292E+03  0.40111006412E+04  0.39951944660E+04 0.  0.
        4    1    3    3  502    0 -0.57625556583E+03 -0.94049112201E+03 -0.18505337474E+04  0.21543144596E+04  0.12699999809E+01 0. -1.
       -4    1    3    3    0  502  0.57625556583E+03  0.94049112201E+03  0.14936730845E+04  0.18567861815E+04  0.12699999809E+01 0.  1.
</event>
<event>
 5   0  0.2078125E-09  0.3994301E+04  0.7818609E-02  0.8005697E-01
       -1   -1    0    0    0  501  0.00000000000E+00  0.00000000000E+00  0.17752122960E+04  0.17752122960E+04  0.50400001928E-02 0.  1.
        1   -1    0    0  501    0  0.00000000000E+00  0.00000000000E+00 -0.22468355457E+04  0.22468355457E+04  0.50400001928E-02 0. -1.
    10030    2    1    2    0    0  0.00000000000E+00  0.00000000000E+00 -0.47162324965E+03  0.40220478417E+04  0.39943009840E+04 0.  0.
        1    1    3    3  502    0 -0.42842185701E+03  0.73724215490E+03 -0.20543301094E+04  0.22242624578E+04  0.50400001928E-02 0. -1.
       -1    1    3    3    0  502  0.42842185701E+03 -0.73724215490E+03  0.15827068598E+04  0.17977853839E+04  0.50400001928E-02 0.  1.
</event>
<event>
 5   0  0.2078125E-09  0.3998327E+04  0.7818609E-02  0.8004884E-01
       -1   -1    0    0    0  501  0.00000000000E+00  0.00000000000E+00  0.19060856726E+04  0.19060856726E+04  0.50400001928E-02 0.  1.
        1   -1    0    0  501    0  0.00000000000E+00  0.00000000000E+00 -0.20967868754E+04  0.20967868754E+04  0.50400001928E-02 0. -1.
    10030    2    1    2    0    0  0.00000000000E+00  0.00000000000E+00 -0.19070120286E+03  0.40028725480E+04  0.39983273611E+04 0.  0.
        3    1    3    3  502    0  0.98296039183E+02 -0.19708000731E+04  0.22585734450E+03  0.19861335780E+04  0.10100000352E+00 0. -1.
       -3    1    3    3    0  502 -0.98296039183E+02  0.19708000731E+04 -0.41655854736E+03  0.20167389700E+04  0.10100000352E+00 0.  1.
</event>
<event>
 5   0  0.6599276E-09  0.3986244E+04  0.7818609E-02  0.8007327E-01
        2   -1    0    0  501    0  0.00000000000E+00  0.00000000000E+00  0.18870983805E+04  0.18870983805E+04  0.25500000920E-02 0.  1.
       -2   -1    0    0    0  501  0.00000000000E+00  0.00000000000E+00 -0.21051028396E+04  0.21051028396E+04  0.25500000920E-02 0. -1.
    10030    2    1    2    0    0  0.00000000000E+00  0.00000000000E+00 -0.21800445908E+03  0.39922012202E+04  0.39862444278E+04 0.  0.
        2    1    3    3  502    0 -0.11158794506E+04  0.12648823084E+04 -0.11723901979E+04  0.20541696567E+04  0.25500000920E-02 0. -1.
       -2    1    3    3    0  502  0.11158794506E+04 -0.12648823084E+04  0.95438573886E+03  0.19380315634E+04  0.25500000920E-02 0.  1.
</event>
<event>
 5   0  0.2078125E-09  0.4004924E+04  0.7818609E-02  0.8003554E-01
       -1   -1    0    0    0  501  0.00000000000E+00  0.00000000000E+00  0.17885347946E+04  0.17885347946E+04  0.50400001928E-02 0.  1.
        1   -1    0    0  501    0  0.00000000000E+00  0.00000000000E+00 -0.22419767562E+04  0.22419767562E+04  0.50400001928E-02 0. -1.
    10030    2    1    2    0    0  0.00000000000E+00  0.00000000000E+00 -0.45344196155E+03  0.40305115508E+04  0.40049236882E+04 0.  0.
        2    1    3    3  502    0 -0.11493320670E+04  0.15750010867E+04 -0.68599270182E+03  0.20669249165E+04  0.25500000920E-02 0. -1.
       -2    1    3    3    0  502  0.11493320670E+04 -0.15750010867E+04  0.23255074028E+03  0.19635866343E+04  0.25500000920E-02 0.  1.
</event>
<event>
 5   0  0.2078125E-09  0.4000594E+04  0.7818609E-02  0.8004427E-01
       -1   -1    0    0    0  501  0.00000000000E+00  0.00000000000E+00  0.21174372255E+04  0.21174372255E+04  0.50400001928E-02 0. -1.
        1   -1    0    0  501    0  0.00000000000E+00  0.00000000000E+00 -0.18896372691E+04  0.18896372691E+04  0.50400001928E-02 0.  1.
    10030    2    1    2    0    0  0.00000000000E+00  0.00000000000E+00  0.22779995646E+03  0.40070744946E+04  0.40005941041E+04 0.  0.
        4    1    3    3  502    0 -0.17796607202E+04  0.54347019966E+03  0.84900608056E+03  0.20453276204E+04  0.12699999809E+01 0. -1.
       -4    1    3    3    0  502  0.17796607202E+04 -0.54347019966E+03 -0.62120612410E+03  0.19617468742E+04  0.12699999809E+01 0.  1.
</event>
<event>
 5   0  0.2078125E-09  0.4001398E+04  0.7818609E-02  0.8004265E-01
       -1   -1    0    0    0  501  0.00000000000E+00  0.00000000000E+00  0.23168750212E+04  0.23168750212E+04  0.50400001928E-02 0. -1.
        1   -1    0    0  501    0  0.00000000000E+00  0.00000000000E+00 -0.17276703572E+04  0.17276703572E+04  0.50400001928E-02 0.  1.
    10030    2    1    2    0    0  0.00000000000E+00  0.00000000000E+00  0.58920466400E+03  0.40445453783E+04  0.40013979034E+04 0.  0.
        4    1    3    3  502    0  0.18842346421E+04  0.61950684339E+03  0.29735175349E+02  0.19836871500E+04  0.12699999809E+01 0. -1.
       -4    1    3    3    0  502 -0.18842346421E+04 -0.61950684339E+03  0.55946948865E+03  0.20608582283E+04  0.12699999809E+01 0.  1.
</event>
<event>
 5   0  0.6599276E-09  0.4002909E+04  0.7818609E-02  0.8003960E-01
        2   -1    0    0  501    0  0.00000000000E+00  0.00000000000E+00  0.27020699940E+04  0.27020699940E+04  0.25500000920E-02 0.  1.
       -2   -1    0    0    0  501  0.00000000000E+00  0.00000000000E+00 -0.14825002409E+04  0.14825002409E+04  0.25500000920E-02 0. -1.
    10030    2    1    2    0    0  0.00000000000E+00  0.00000000000E+00  0.12195697532E+04  0.41845702349E+04  0.40029086510E+04 0.  0.
        2    1    3    3  502    0 -0.12963603586E+04  0.14552251611E+04  0.10860812968E+04  0.22310990637E+04  0.25500000920E-02 0. -1.
       -2    1    3    3    0  502  0.12963603586E+04 -0.14552251611E+04  0.13348845642E+03  0.19534711712E+04  0.25500000920E-02 0.  1.
</event>
<event>
 5   0  0.2078125E-09  0.3999310E+04  0.7818609E-02  0.8004686E-01
        1   -1    0    0  501    0  0.00000000000E+00  0.00000000000E+00  0.15114977965E+04  0.15114977965E+04  0.50400001928E-02 0.  1.
       -1   -1    0    0    0  501  0.00000000000E+00  0.00000000000E+00 -0.26454683347E+04  0.26454683347E+04  0.50400001928E-02 0. -1.
    10030    2    1    2    0    0  0.00000000000E+00  0.00000000000E+00 -0.11339705381E+04  0.41569661312E+04  0.39993097198E+04 0.  0.
        1    1    3    3  502    0 -0.14337054770E+04  0.98004332010E+03 -0.15973357221E+04  0.23595503201E+04  0.50400001928E-02 0. -1.
       -1    1    3    3    0  502  0.14337054770E+04 -0.98004332010E+03  0.46336518394E+03  0.17974158111E+04  0.50400001928E-02 0.  1.
</event>
<event>
 5   0  0.6599276E-09  0.4000476E+04  0.7818609E-02  0.8004451E-01
       -2   -1    0    0    0  501  0.00000000000E+00  0.00000000000E+00  0.21588488773E+04  0.21588488773E+04  0.25500000920E-02 0.  1.
        2   -1    0    0  501    0  0.00000000000E+00  0.00000000000E+00 -0.18532803495E+04  0.18532803495E+04  0.25500000920E-02 0. -1.
    10030    2    1    2    0    0  0.00000000000E+00  0.00000000000E+00  0.30556852786E+03  0.40121292268E+04  0.40004760726E+04 0.  0.
        2    1    3    3  502    0  0.16082864696E+04 -0.11778203003E+04 -0.12334847605E+02  0.19934889457E+04  0.25500000920E-02 0. -1.
       -2    1    3    3    0  502 -0.16082864696E+04  0.11778203003E+04  0.31790337547E+03  0.20186402811E+04  0.25500000920E-02 0.  1.
</event>
<event>
 5   0  0.6599276E-09  0.4002434E+04  0.7818609E-02  0.8004056E-01
       -2   -1    0    0    0  501  0.00000000000E+00  0.00000000000E+00  0.23230748719E+04  0.23230748719E+04  0.25500000920E-02 0. -1.
        2   -1    0    0  501    0  0.00000000000E+00  0.00000000000E+00 -0.17239523462E+04  0.17239523462E+04  0.25500000920E-02 0.  1.
    10030    2    1    2    0    0  0.00000000000E+00  0.00000000000E+00  0.59912252570E+03  0.40470272181E+04  0.40024344471E+04 0.  0.
        2    1    3    3  502    0  0.18736511392E+04 -0.50371312423E+03 -0.19638774985E+03  0.19500932417E+04  0.25500000920E-02 0.  1.
       -2    1    3    3    0  502 -0.18736511392E+04  0.50371312423E+03  0.79551027555E+03  0.20969339764E+04  0.25500000920E-02 0. -1.
</event>
<event>
 5   0  0.6599276E-09  0.4000880E+04  0.7818609E-02  0.8004369E-01
       -2   -1    0    0    0  501  0.00000000000E+00  0.00000000000E+00  0.17249711963E+04  0.17249711963E+04  0.25500000920E-02 0.  1.
        2   -1    0    0  501    0  0.00000000000E+00  0.00000000000E+00 -0.23198994767E+04  0.23198994767E+04  0.25500000920E-02 0. -1.
    10030    2    1    2    0    0  0.00000000000E+00  0.00000000000E+00 -0.59492828043E+03  0.40448706730E+04  0.40008797910E+04 0.  0.
        2    1    3    3  502    0 -0.14206378863E+04  0.11664365177E+04  0.50050108672E+03  0.19050688942E+04  0.25500000920E-02 0.  1.
       -2    1    3    3    0  502  0.14206378863E+04 -0.11664365177E+04 -0.10954293671E+04  0.21398017788E+04  0.25500000920E-02 0. -1.
</event>
<event>
 5   0  0.6736335E-09  0.4000657E+04  0.7818609E-02  0.8004414E-01
        2   -1    0    0  501    0  0.00000000000E+00  0.00000000000E+00  0.21061128073E+04  0.21061128073E+04  0.25500000920E-02 0.  1.
       -2   -1    0    0    0  501  0.00000000000E+00  0.00000000000E+00 -0.18998577476E+04  0.18998577476E+04  0.25500000920E-02 0. -1.
    10030    2    1    2    0    0  0.00000000000E+00  0.00000000000E+00  0.20625505976E+03  0.40059705549E+04  0.40006573131E+04 0.  0.
        1    1    3    3  502    0 -0.15944124446E+03 -0.17496291224E+04  0.10607925860E+04  0.20522924954E+04  0.50400001928E-02 0.  1.
       -1    1    3    3    0  502  0.15944124446E+03  0.17496291224E+04 -0.85453752624E+03  0.19536780595E+04  0.50400001928E-02 0. -1.
</event>
<event>
 5   0  0.2078125E-09  0.3999562E+04  0.7818609E-02  0.8004635E-01
       -1   -1    0    0    0  501  0.00000000000E+00  0.00000000000E+00  0.21994625172E+04  0.21994625172E+04  0.50400001928E-02 0. -1.
        1   -1    0    0  501    0  0.00000000000E+00  0.00000000000E+00 -0.18182276275E+04  0.18182276275E+04  0.50400001928E-02 0.  1.
    10030    2    1    2    0    0  0.00000000000E+00  0.00000000000E+00  0.38123488967E+03  0.40176901447E+04  0.39995617332E+04 0.  0.
        2    1    3    3  502    0 -0.58699006146E+03  0.34231034318E+03  0.20799373297E+04  0.21881208830E+04  0.25500000920E-02 0. -1.
       -2    1    3    3    0  502  0.58699006146E+03 -0.34231034318E+03 -0.16987024400E+04  0.18295692616E+04  0.25500000920E-02 0.  1.
</event>
<event>
 5   0  0.6538370E-09  0.4000421E+04  0.7818609E-02  0.8004462E-01
       -2   -1    0    0    0  501  0.00000000000E+00  0.00000000000E+00  0.16157765840E+04  0.16157765840E+04  0.25500000920E-02 0.  1.
        2   -1    0    0  501    0  0.00000000000E+00  0.00000000000E+00 -0.24761108105E+04  0.24761108105E+04  0.25500000920E-02 0. -1.
    10030    2    1    2    0    0  0.00000000000E+00  0.00000000000E+00 -0.86033422652E+03  0.40918873945E+04  0.40004209114E+04 0.  0.
        4    1    3    3  502    0  0.19172062217E+04  0.53551459366E+03 -0.22976747477E+03  0.20038089434E+04  0.12699999809E+01 0. -1.
       -4    1    3    3    0  502 -0.19172062217E+04 -0.53551459366E+03 -0.63056675174E+03  0.20880784511E+04  0.12699999809E+01 0.  1.
</event>
<event>
 5   0  0.6547327E-09  0.4001330E+04  0.7818609E-02  0.8004278E-01
        2   -1    0    0  501    0  0.00000000000E+00  0.00000000000E+00  0.21389255036E+04  0.21389255036E+04  0.25500000920E-02 0.  1.
       -2   -1    0    0    0  501  0.00000000000E+00  0.00000000000E+00 -0.18713413191E+04  0.18713413191E+04  0.25500000920E-02 0. -1.
    10030    2    1    2    0    0  0.00000000000E+00  0.00000000000E+00  0.26758418453E+03  0.40102668227E+04  0.40013296157E+04 0.  0.
        5    1    3    3  502    0  0.13125221184E+04 -0.15057839325E+04  0.24601549557E+03  0.20126214936E+04  0.46999998093E+01 0.  1.
       -5    1    3    3    0  502 -0.13125221184E+04  0.15057839325E+04  0.21568688966E+02  0.19976453291E+04  0.46999998093E+01 0. -1.
</event>
<event>
 5   0  0.2078125E-09  0.4001253E+04  0.7818609E-02  0.8004294E-01
        1   -1    0    0  501    0  0.00000000000E+00  0.00000000000E+00  0.21331409460E+04  0.21331409460E+04  0.50400001928E-02 0. -1.
       -1   -1    0    0    0  501  0.00000000000E+00  0.00000000000E+00 -0.18763440954E+04  0.18763440954E+04  0.50400001928E-02 0.  1.
    10030    2    1    2    0    0  0.00000000000E+00  0.00000000000E+00  0.25679685057E+03  0.40094850414E+04  0.40012530131E+04 0.  0.
        5    1    3    3  502    0  0.13132422334E+04  0.31986160571E+03  0.16064135775E+04  0.20994054593E+04  0.46999998093E+01 0. -1.
       -5    1    3    3    0  502 -0.13132422334E+04 -0.31986160571E+03 -0.13496167269E+04  0.19100795821E+04  0.46999998093E+01 0.  1.
</event>
<event>
 5   0  0.6547327E-09  0.4000496E+04  0.7818609E-02  0.8004447E-01
       -2   -1    0    0    0  501  0.00000000000E+00  0.00000000000E+00  0.13329770091E+04  0.13329770091E+04  0.25500000920E-02 0.  1.
        2   -1    0    0  501    0  0.00000000000E+00  0.00000000000E+00 -0.30015459562E+04  0.30015459562E+04  0.25500000920E-02 0. -1.
    10030    2    1    2    0    0  0.00000000000E+00  0.00000000000E+00 -0.16685689471E+04  0.43345229652E+04  0.40004958449E+04 0.  0.
        5    1    3    3  502    0  0.92208483465E+03 -0.46588610643E+01 -0.27575158203E+04  0.29076068745E+04  0.46999998093E+01 0. -1.
       -5    1    3    3    0  502 -0.92208483465E+03  0.46588610643E+01  0.10889468732E+04  0.14269160907E+04  0.46999998093E+01 0.  1.
</event>
<event>
 5   0  0.2078125E-09  0.4000800E+04  0.7818609E-02  0.8004385E-01
       -1   -1    0    0    0  501  0.00000000000E+00  0.00000000000E+00  0.16390299621E+04  0.16390299621E+04  0.50400001928E-02 0. -1.
        1   -1    0    0  501    0  0.00000000000E+00  0.00000000000E+00 -0.24414435716E+04  0.24414435716E+04  0.50400001928E-02 0.  1.
    10030    2    1    2    0    0  0.00000000000E+00  0.00000000000E+00 -0.80241360950E+03  0.40804735337E+04  0.40007995024E+04 0.  0.
        5    1    3    3  502    0  0.13502933437E+04  0.51270012011E+03 -0.18127565529E+04  0.23178140429E+04  0.46999998093E+01 0.  1.
       -5    1    3    3    0  502 -0.13502933437E+04 -0.51270012011E+03  0.10103429434E+04  0.17626594908E+04  0.46999998093E+01 0. -1.
</event>
<event>
 5   0  0.6547327E-09  0.3999905E+04  0.7818609E-02  0.8004566E-01
        2   -1    0    0  501    0  0.00000000000E+00  0.00000000000E+00  0.11224081830E+04  0.11224081830E+04  0.25500000920E-02 0. -1.
       -2   -1    0    0    0  501  0.00000000000E+00  0.00000000000E+00 -0.35635968943E+04  0.35635968943E+04  0.25500000920E-02 0.  1.
    10030    2    1    2    0    0  0.00000000000E+00  0.00000000000E+00 -0.24411887113E+04  0.46860050773E+04  0.39999051565E+04 0.  0.
        5    1    3    3  502    0 -0.87461194006E+03 -0.16797340661E+03 -0.33184581671E+04  0.34358911229E+04  0.46999998093E+01 0.  1.
       -5    1    3    3    0  502  0.87461194006E+03  0.16797340661E+03  0.87726945587E+03  0.12501139545E+04  0.46999998093E+01 0. -1.
</event>
<event>
 5   0  0.6599276E-09  0.4000492E+04  0.7818609E-02  0.8004447E-01
        2   -1    0    0  501    0  0.00000000000E+00  0.00000000000E+00  0.25995581519E+04  0.25995581519E+04  0.25500000920E-02 0. -1.
       -2   -1    0    0    0  501  0.00000000000E+00  0.00000000000E+00 -0.15391012768E+04  0.15391012768E+04  0.25500000920E-02 0.  1.
    10030    2    1    2    0    0  0.00000000000E+00  0.00000000000E+00  0.10604568751E+04  0.41386594287E+04  0.40004916051E+04 0.  0.
        2    1    3    3  502    0  0.14309547307E+03 -0.32408121937E+03  0.25668436440E+04  0.25911756490E+04  0.25500000920E-02 0. -1.
       -2    1    3    3    0  502 -0.14309547307E+03  0.32408121937E+03 -0.15063867689E+04  0.15474837797E+04  0.25500000920E-02 0.  1.
</event>
<event>
 5   0  0.2078125E-09  0.4001518E+04  0.7818609E-02  0.8004240E-01
       -1   -1    0    0    0  501  0.00000000000E+00  0.00000000000E+00  0.25740950893E+04  0.25740950893E+04  0.50400001928E-02 0. -1.
        1   -1    0    0  501    0  0.00000000000E+00  0.00000000000E+00 -0.15551240571E+04  0.15551240571E+04  0.50400001928E-02 0.  1.
    10030    2    1    2    0    0  0.00000000000E+00  0.00000000000E+00  0.10189710323E+04  0.41292191464E+04  0.40015183112E+04 0.  0.
        1    1    3    3  502    0 -0.16192071260E+04 -0.61864171375E+03  0.15406181444E+04  0.23190630768E+04  0.50400001928E-02 0. -1.
       -1    1    3    3    0  502  0.16192071260E+04  0.61864171375E+03 -0.52164711218E+03  0.18101560697E+04  0.50400001928E-02 0.  1.
</event>
<event>
 5   0  0.2078125E-09  0.3996653E+04  0.7818609E-02  0.8005222E-01
       -1   -1    0    0    0  501  0.00000000000E+00  0.00000000000E+00  0.12983482994E+04  0.12983482994E+04  0.50400001928E-02 0.  1.
        1   -1    0    0  501    0  0.00000000000E+00  0.00000000000E+00 -0.30756842525E+04  0.30756842525E+04  0.50400001928E-02 0. -1.
    10030    2    1    2    0    0  0.00000000000E+00  0.00000000000E+00 -0.17773359531E+04  0.43740325519E+04  0.39966533093E+04 0.  0.
        3    1    3    3  502    0 -0.13983674764E+04  0.32995557998E+03  0.63136303934E+03  0.15693698039E+04  0.10100000352E+00 0.  1.
       -3    1    3    3    0  502  0.13983674764E+04 -0.32995557998E+03 -0.24086989924E+04  0.28046627480E+04  0.10100000352E+00 0. -1.
</event>
<event>
 5   0  0.6538370E-09  0.4009367E+04  0.7818609E-02  0.8002660E-01
       -2   -1    0    0    0  501  0.00000000000E+00  0.00000000000E+00  0.24046623534E+04  0.24046623534E+04  0.25500000920E-02 0. -1.
        2   -1    0    0  501    0  0.00000000000E+00  0.00000000000E+00 -0.16712346732E+04  0.16712346732E+04  0.25500000920E-02 0.  1.
    10030    2    1    2    0    0  0.00000000000E+00  0.00000000000E+00  0.73342768020E+03  0.40758970267E+04  0.40093665846E+04 0.  0.
        4    1    3    3  502    0  0.39913957993E+03  0.26718629750E+03  0.23453021352E+04  0.23939809189E+04  0.12699999809E+01 0. -1.
       -4    1    3    3    0  502 -0.39913957993E+03 -0.26718629750E+03 -0.16118744550E+04  0.16819161077E+04  0.12699999809E+01 0.  1.
</event>
<event>
 5   0  0.6538370E-09  0.4001026E+04  0.7818609E-02  0.8004340E-01
        2   -1    0    0  501    0  0.00000000000E+00  0.00000000000E+00  0.19141478885E+04  0.19141478885E+04  0.25500000920E-02 0.  1.
       -2   -1    0    0    0  501  0.00000000000E+00  0.00000000000E+00 -0.20907744288E+04  0.20907744288E+04  0.25500000920E-02 0. -1.
    10030    2    1    2    0    0  0.00000000000E+00  0.00000000000E+00 -0.17662654024E+03  0.40049223173E+04  0.40010255976E+04 0.  0.
        4    1    3    3  502    0 -0.13955237246E+04  0.10915729246E+04 -0.10182131647E+04  0.20434719419E+04  0.12699999809E+01 0. -1.
       -4    1    3    3    0  502  0.13955237246E+04 -0.10915729246E+04  0.84158662445E+03  0.19614503754E+04  0.12699999809E+01 0.  1.
</event>
<event>
 5   0  0.6736335E-09  0.3999344E+04  0.7818609E-02  0.8004679E-01
        2   -1    0    0  501    0  0.00000000000E+00  0.00000000000E+00  0.27651416901E+04  0.27651416901E+04  0.25500000920E-02 0.  1.
       -2   -1    0    0    0  501  0.00000000000E+00  0.00000000000E+00 -0.14461060486E+04  0.14461060486E+04  0.25500000920E-02 0. -1.
    10030    2    1    2    0    0  0.00000000000E+00  0.00000000000E+00  0.13190356415E+04  0.42112477386E+04  0.39993440078E+04 0.  0.
        1    1    3    3  502    0 -0.12447577022E+04  0.12878256727E+04 -0.27685222404E+03  0.18123365731E+04  0.50400001928E-02 0.  1.
       -1    1    3    3    0  502  0.12447577022E+04 -0.12878256727E+04  0.15958878655E+04  0.23989111655E+04  0.50400001928E-02 0. -1.
</event>
<event>
 5   0  0.6547327E-09  0.3987777E+04  0.7818609E-02  0.8007017E-01
        2   -1    0    0  501    0  0.00000000000E+00  0.00000000000E+00  0.16330790219E+04  0.16330790219E+04  0.25500000920E-02 0. -1.
       -2   -1    0    0    0  501  0.00000000000E+00  0.00000000000E+00 -0.24344140760E+04  0.24344140760E+04  0.25500000920E-02 0.  1.
    10030    2    1    2    0    0  0.00000000000E+00  0.00000000000E+00 -0.80133505414E+03  0.40674930979E+04  0.39877766026E+04 0.  0.
        5    1    3    3  502    0 -0.83390130136E+03  0.90303191262E+03  0.12006555307E+04  0.17182705866E+04  0.46999998093E+01 0. -1.
       -5    1    3    3    0  502  0.83390130136E+03 -0.90303191262E+03 -0.20019905848E+04  0.23492225112E+04  0.46999998093E+01 0.  1.
</event>
<event>
 5   0  0.2078125E-09  0.4000510E+04  0.7818609E-02  0.8004444E-01
       -1   -1    0    0    0  501  0.00000000000E+00  0.00000000000E+00  0.16487787949E+04  0.16487787949E+04  0.50400001928E-02 0.  1.
        1   -1    0    0  501    0  0.00000000000E+00  0.00000000000E+00 -0.24266571354E+04  0.24266571354E+04  0.50400001928E-02 0. -1.
    10030    2    1    2    0    0  0.00000000000E+00  0.00000000000E+00 -0.77787834055E+03  0.40754359303E+04  0.40005103811E+04 0.  0.
        3    1    3    3  502    0  0.16820782797E+04 -0.99162195461E+03  0.53146230100E+02  0.19533371373E+04  0.10100000352E+00 0.  1.
       -3    1    3    3    0  502 -0.16820782797E+04  0.99162195461E+03 -0.83102457065E+03  0.21220987930E+04  0.10100000352E+00 0. -1.
</event>
<event>
 5   0  0.2078125E-09  0.3999366E+04  0.7818609E-02  0.8004675E-01
        1   -1    0    0  501    0  0.00000000000E+00  0.00000000000E+00  0.29076491345E+04  0.29076491345E+04  0.50400001928E-02 0. -1.
       -1   -1    0    0    0  501  0.00000000000E+00  0.00000000000E+00 -0.13752455419E+04  0.13752455419E+04  0.50400001928E-02 0.  1.
    10030    2    1    2    0    0  0.00000000000E+00  0.00000000000E+00  0.15324035926E+04  0.42828946765E+04  0.39993657046E+04 0.  0.
        1    1    3    3  502    0  0.12263915004E+04 -0.31883633715E+03 -0.89041150984E+03  0.15487173335E+04  0.50400001928E-02 0.  1.
       -1    1    3    3    0  502 -0.12263915004E+04  0.31883633715E+03  0.24228151025E+04  0.27341773430E+04  0.50400001928E-02 0. -1.
</event>
<event>
 5   0  0.6599276E-09  0.3998479E+04  0.7818609E-02  0.8004853E-01
        2   -1    0    0  501    0  0.00000000000E+00  0.00000000000E+00  0.13915798644E+04  0.13915798644E+04  0.25500000920E-02 0.  1.
       -2   -1    0    0    0  501  0.00000000000E+00  0.00000000000E+00 -0.28722451370E+04  0.28722451370E+04  0.25500000920E-02 0. -1.
    10030    2    1    2    0    0  0.00000000000E+00  0.00000000000E+00 -0.14806652726E+04  0.42638250015E+04  0.39984789600E+04 0.  0.
        2    1    3    3  502    0  0.17889886507E+04 -0.84527351076E+03 -0.43499023737E+03  0.20258786259E+04  0.25500000920E-02 0. -1.
       -2    1    3    3    0  502 -0.17889886507E+04  0.84527351076E+03 -0.10456750353E+04  0.22379463755E+04  0.25500000920E-02 0.  1.
</event>
<event>
 5   0  0.2078125E-09  0.4001659E+04  0.7818609E-02  0.8004212E-01
        1   -1    0    0  501    0  0.00000000000E+00  0.00000000000E+00  0.18461396905E+04  0.18461396905E+04  0.50400001928E-02 0.  1.
       -1   -1    0    0    0  501  0.00000000000E+00  0.00000000000E+00 -0.21684805201E+04  0.21684805201E+04  0.50400001928E-02 0. -1.
    10030    2    1    2    0    0  0.00000000000E+00  0.00000000000E+00 -0.32234082957E+03  0.40146202106E+04  0.40016586342E+04 0.  0.
        5    1    3    3  502    0  0.19628685545E+04 -0.25100339256E+03 -0.45783110407E+03  0.20311295073E+04  0.46999998093E+01 0.  1.
       -5    1    3    3    0  502 -0.19628685545E+04  0.25100339256E+03  0.13549027450E+03  0.19834907033E+04  0.46999998093E+01 0. -1.
</event>
<event>
 5   0  0.2078125E-09  0.4005114E+04  0.7818609E-02  0.8003516E-01
        1   -1    0    0  501    0  0.00000000000E+00  0.00000000000E+00  0.24075197329E+04  0.24075197329E+04  0.50400001928E-02 0. -1.
       -1   -1    0    0    0  501  0.00000000000E+00  0.00000000000E+00 -0.16657117851E+04  0.16657117851E+04  0.50400001928E-02 0.  1.
    10030    2    1    2    0    0  0.00000000000E+00  0.00000000000E+00  0.74180794776E+03  0.40732315180E+04  0.40051137272E+04 0.  0.
        3    1    3    3  502    0 -0.18434279702E+04  0.27027282101E+03  0.11175288763E+04  0.21725894409E+04  0.10100000352E+00 0.  1.
       -3    1    3    3    0  502  0.18434279702E+04 -0.27027282101E+03 -0.37572092852E+03  0.19006420771E+04  0.10100000352E+00 0. -1.
</event>
<event>
 5   0  0.2078125E-09  0.4000466E+04  0.7818609E-02  0.8004453E-01
       -1   -1    0    0    0  501  0.00000000000E+00  0.00000000000E+00  0.17711454365E+04  0.17711454366E+04  0.50400001928E-02 0.  1.
        1   -1    0    0  501    0  0.00000000000E+00  0.00000000000E+00 -0.22589512539E+04  0.22589512539E+04  0.50400001928E-02 0. -1.
    10030    2    1    2    0    0  0.00000000000E+00  0.00000000000E+00 -0.48780581734E+03  0.40300966904E+04  0.40004655753E+04 0.  0.
        2    1    3    3  502    0  0.11345684682E+04  0.11311277290E+04  0.96256336518E+03  0.18690167951E+04  0.25500000920E-02 0.  1.
       -2    1    3    3    0  502 -0.11345684682E+04 -0.11311277290E+04 -0.14503691825E+04  0.21610798953E+04  0.25500000920E-02 0. -1.
</event>
<event>
 5   0  0.6599276E-09  0.4010849E+04  0.7818609E-02  0.8002361E-01
        2   -1    0    0  501    0  0.00000000000E+00  0.00000000000E+00  0.16647079837E+04  0.16647079837E+04  0.25500000920E-02 0. -1.
       -2   -1    0    0    0  501  0.00000000000E+00  0.00000000000E+00 -0.24158758874E+04  0.24158758874E+04  0.25500000920E-02 0.  1.
    10030    2    1    2    0    0  0.00000000000E+00  0.00000000000E+00 -0.75116790369E+03  0.40805838712E+04  0.40108492256E+04 0.  0.
        2    1    3    3  502    0  0.64427999752E+03  0.15315193599E+03  0.15502552422E+04  0.16857768378E+04  0.25500000920E-02 0. -1.
       -2    1    3    3    0  502 -0.64427999752E+03 -0.15315193599E+03 -0.23014231459E+04  0.23948070334E+04  0.25500000920E-02 0.  1.
</event>
<event>
 5   0  0.6645526E-09  0.3998951E+04  0.7818609E-02  0.8004758E-01
        2   -1    0    0  501    0  0.00000000000E+00  0.00000000000E+00  0.29951843135E+04  0.29951843135E+04  0.25500000920E-02 0.  1.
       -2   -1    0    0    0  501  0.00000000000E+00  0.00000000000E+00 -0.13347768928E+04  0.13347768928E+04  0.25500000920E-02 0. -1.
    10030    2    1    2    0    0  0.00000000000E+00  0.00000000000E+00  0.16604074207E+04  0.43299612064E+04  0.39989512683E+04 0.  0.
        3    1    3    3  502    0  0.11465757303E+04  0.13733506140E+04 -0.13654750186E+03  0.17942611417E+04  0.10100000352E+00 0. -1.
       -3    1    3    3    0  502 -0.11465757303E+04 -0.13733506140E+04  0.17969549226E+04  0.25357000647E+04  0.10100000352E+00 0.  1.
</event>
<event>
 5   0  0.2078125E-09  0.4000411E+04  0.7818609E-02  0.8004464E-01
       -1   -1    0    0    0  501  0.00000000000E+00  0.00000000000E+00  0.29853480153E+04  0.29853480153E+04  0.50400001928E-02 0.  1.
        1   -1    0    0  501    0  0.00000000000E+00  0.00000000000E+00 -0.13401526486E+04  0.13401526486E+04  0.50400001928E-02 0. -1.
    10030    2    1    2    0    0  0.00000000000E+00  0.00000000000E+00  0.16451953667E+04  0.43255006639E+04  0.40004110037E+04 0.  0.
        5    1    3    3  502    0  0.93882168740E+03  0.74339201496E+03 -0.90971494655E+03  0.15038687518E+04  0.46999998093E+01 0. -1.
       -5    1    3    3    0  502 -0.93882168740E+03 -0.74339201496E+03  0.25549103132E+04  0.28216319121E+04  0.46999998093E+01 0.  1.
</event>
<event>
 5   0  0.2078125E-09  0.3997162E+04  0.7818609E-02  0.8005119E-01
       -1   -1    0    0    0  501  0.00000000000E+00  0.00000000000E+00  0.18938821458E+04  0.18938821458E+04  0.50400001928E-02 0.  1.
        1   -1    0    0  501    0  0.00000000000E+00  0.00000000000E+00 -0.21090676106E+04  0.21090676106E+04  0.50400001928E-02 0. -1.
    10030    2    1    2    0    0  0.00000000000E+00  0.00000000000E+00 -0.21518546477E+03  0.40029497564E+04  0.39971617390E+04 0.  0.
        1    1    3    3  502    0  0.45405900628E+03 -0.60309871944E+03  0.17456078468E+04  0.19018528864E+04  0.50400001928E-02 0.  1.
       -1    1    3    3    0  502 -0.45405900628E+03  0.60309871944E+03 -0.19607933115E+04  0.21010968700E+04  0.50400001928E-02 0. -1.
</event>
<event>
 5   0  0.2078125E-09  0.4000586E+04  0.7818609E-02  0.8004428E-01
        1   -1    0    0  501    0  0.00000000000E+00  0.00000000000E+00  0.18966342586E+04  0.18966342586E+04  0.50400001928E-02 0.  1.
       -1   -1    0    0    0  501  0.00000000000E+00  0.00000000000E+00 -0.21096171972E+04  0.21096171972E+04  0.50400001928E-02 0. -1.
    10030    2    1    2    0    0  0.00000000000E+00  0.00000000000E+00 -0.21298293863E+03  0.40062514558E+04  0.40005860815E+04 0.  0.
        5    1    3    3  502    0  0.57893682927E+03 -0.14471662658E+04 -0.13619382892E+04  0.20698686061E+04  0.46999998093E+01 0. -1.
       -5    1    3    3    0  502 -0.57893682927E+03  0.14471662658E+04  0.11489553505E+04  0.19363828497E+04  0.46999998093E+01 0.  1.
</event>
<event>
 5   0  0.6547327E-09  0.3999405E+04  0.7818609E-02  0.8004667E-01
        2   -1    0    0  501    0  0.00000000000E+00  0.00000000000E+00  0.22335310106E+04  0.22335310106E+04  0.25500000920E-02 0.  1.
       -2   -1    0    0    0  501  0.00000000000E+00  0.00000000000E+00 -0.17903534732E+04  0.17903534732E+04  0.25500000920E-02 0. -1.
    10030    2    1    2    0    0  0.00000000000E+00  0.00000000000E+00  0.44317753744E+03  0.40238844838E+04  0.39994049569E+04 0.  0.
        5    1    3    3  502    0  0.75979434797E+03 -0.13853498144E+04  0.14547770129E+04  0.21477615805E+04  0.46999998093E+01 0.  1.
       -5    1    3    3    0  502 -0.75979434797E+03  0.13853498144E+04 -0.10115994755E+04  0.18761229033E+04  0.46999998093E+01 0. -1.
</event>
<event>
 5   0  0.6599276E-09  0.3999432E+04  0.7818609E-02  0.8004661E-01
       -2   -1    0    0    0  501  0.00000000000E+00  0.00000000000E+00  0.20877903157E+04  0.20877903157E+04  0.25500000920E-02 0.  1.
        2   -1    0    0  501    0  0.00000000000E+00  0.00000000000E+00 -0.19153575051E+04  0.19153575051E+04  0.25500000920E-02 0. -1.
    10030    2    1    2    0    0  0.00000000000E+00  0.00000000000E+00  0.17243281060E+03  0.40031478208E+04  0.39994323849E+04 0.  0.
        2    1    3    3  502    0 -0.13069526714E+04  0.15134900532E+04  0.76857653504E+02  0.20011707887E+04  0.25500000920E-02 0.  1.
       -2    1    3    3    0  502  0.13069526714E+04 -0.15134900532E+04  0.95575157096E+02  0.20019770321E+04  0.25500000920E-02 0. -1.
</event>
<event>
 5   0  0.6599276E-09  0.4000762E+04  0.7818609E-02  0.8004393E-01
       -2   -1    0    0    0  501  0.00000000000E+00  0.00000000000E+00  0.16874631340E+04  0.16874631340E+04  0.25500000920E-02 0. -1.
        2   -1    0    0  501    0  0.00000000000E+00  0.00000000000E+00 -0.23713258551E+04  0.23713258551E+04  0.25500000920E-02 0.  1.
    10030    2    1    2    0    0  0.00000000000E+00  0.00000000000E+00 -0.68386272104E+03  0.40587889891E+04  0.40007624069E+04 0.  0.
        2    1    3    3  502    0  0.97439378988E+03  0.29409615171E+03 -0.20889969313E+04  0.23237564380E+04  0.25500000920E-02 0.  1.
       -2    1    3    3    0  502 -0.97439378988E+03 -0.29409615171E+03  0.14051342103E+04  0.17350325510E+04  0.25500000920E-02 0. -1.
</event>
<event>
 5   0  0.6547327E-09  0.3999943E+04  0.7818609E-02  0.8004558E-01
        2   -1    0    0  501    0  0.00000000000E+00  0.00000000000E+00  0.26185003149E+04  0.26185003149E+04  0.25500000920E-02 0.  1.
       -2   -1    0    0    0  501  0.00000000000E+00  0.00000000000E+00 -0.15275487858E+04  0.15275487858E+04  0.25500000920E-02 0. -1.
    10030    2    1    2    0    0  0.00000000000E+00  0.00000000000E+00  0.10909515291E+04  0.41460491008E+04  0.39999434880E+04 0.  0.
        5    1    3    3  502    0 -0.17894646180E+04 -0.33908606749E+03  0.14019141879E+04  0.22983795293E+04  0.46999998093E+01 0.  1.
       -5    1    3    3    0  502  0.17894646180E+04  0.33908606749E+03 -0.31096265883E+03  0.18476695715E+04  0.46999998093E+01 0. -1.
</event>
<event>
 5   0  0.6736335E-09  0.3995451E+04  0.7818609E-02  0.8005465E-01
        2   -1    0    0  501    0  0.00000000000E+00  0.00000000000E+00  0.17122319203E+04  0.17122319203E+04  0.25500000920E-02 0.  1.
       -2   -1    0    0    0  501  0.00000000000E+00  0.00000000000E+00 -0.23308218306E+04  0.23308218306E+04  0.25500000920E-02 0. -1.
    10030    2    1    2    0    0  0.00000000000E+00  0.00000000000E+00 -0.61858991030E+03  0.40430537509E+04  0.39954511830E+04 0.  0.
        1    1    3    3  502    0  0.12701591255E+04  0.15263744631E+04 -0.53049563176E+03  0.20553707260E+04  0.50400001928E-02 0.  1.
       -1    1    3    3    0  502 -0.12701591255E+04 -0.15263744631E+04 -0.88094278538E+02  0.19876830250E+04  0.50400001928E-02 0. -1.
</event>
<event>
 5   0  0.6599276E-09  0.4000938E+04  0.7818609E-02  0.8004357E-01
        2   -1    0    0  501    0  0.00000000000E+00  0.00000000000E+00  0.19836761955E+04  0.19836761955E+04  0.25500000920E-02 0. -1.
       -2   -1    0    0    0  501  0.00000000000E+00  0.00000000000E+00 -0.20174038220E+04  0.20174038220E+04  0.25500000920E-02 0.  1.
    10030    2    1    2    0    0  0.00000000000E+00  0.00000000000E+00 -0.33727626534E+02  0.40010800174E+04  0.40009378592E+04 0.  0.
        2    1    3    3  502    0 -0.12683977118E+03 -0.72314293186E+03  0.18440762701E+04  0.19848529713E+04  0.25500000920E-02 0. -1.
       -2    1    3    3    0  502  0.12683977118E+03  0.72314293186E+03 -0.18778038967E+04  0.20162270462E+04  0.25500000920E-02 0.  1.
</event>
<event>
 5   0  0.6736335E-09  0.3993549E+04  0.7818609E-02  0.8005849E-01
       -2   -1    0    0    0  501  0.00000000000E+00  0.00000000000E+00  0.20790000597E+04  0.20790000597E+04  0.25500000920E-02 0. -1.
        2   -1    0    0  501    0  0.00000000000E+00  0.00000000000E+00 -0.19178010735E+04  0.19178010735E+04  0.25500000920E-02 0.  1.
    10030    2    1    2    0    0  0.00000000000E+00  0.00000000000E+00  0.16119898627E+03  0.39968011332E+04  0.39935490713E+04 0.  0.
        1    1    3    3  502    0  0.58562926620E+03 -0.36438447666E+03 -0.17947916690E+04  0.19227622889E+04  0.50400001928E-02 0.  1.
       -1    1    3    3    0  502 -0.58562926620E+03  0.36438447666E+03  0.19559906553E+04  0.20740388443E+04  0.50400001928E-02 0. -1.
</event>
<event>
 5   0  0.2078125E-09  0.3999865E+04  0.7818609E-02  0.8004574E-01
       -1   -1    0    0    0  501  0.00000000000E+00  0.00000000000E+00  0.19022446760E+04  0.19022446760E+04  0.50400001928E-02 0.  1.
        1   -1    0    0  501    0  0.00000000000E+00  0.00000000000E+00 -0.21026370658E+04  0.21026370658E+04  0.50400001928E-02 0. -1.
    10030    2    1    2    0    0  0.00000000000E+00  0.00000000000E+00 -0.20039238983E+03  0.40048817418E+04  0.39998650797E+04 0.  0.
        4    1    3    3  502    0  0.74766232461E+03 -0.37311749078E+03  0.17190892961E+04  0.19114092273E+04  0.12699999809E+01 0.  1.
       -4    1    3    3    0  502 -0.74766232461E+03  0.37311749078E+03 -0.19194816859E+04  0.20934725145E+04  0.12699999809E+01 0. -1.
</event>
<event>
 5   0  0.2078125E-09  0.3999055E+04  0.7818609E-02  0.8004737E-01
       -1   -1    0    0    0  501  0.00000000000E+00  0.00000000000E+00  0.19490642668E+04  0.19490642668E+04  0.50400001928E-02 0.  1.
        1   -1    0    0  501    0  0.00000000000E+00  0.00000000000E+00 -0.20512969197E+04  0.20512969198E+04  0.50400001928E-02 0. -1.
    10030    2    1    2    0    0  0.00000000000E+00  0.00000000000E+00 -0.10223265291E+03  0.40003611866E+04  0.39990546518E+04 0.  0.
        1    1    3    3  502    0  0.21742197590E+03 -0.15659470878E+04  0.11734759887E+04  0.19688850889E+04  0.50400001928E-02 0.  1.
       -1    1    3    3    0  502 -0.21742197590E+03  0.15659470878E+04 -0.12757086416E+04  0.20314760977E+04  0.50400001928E-02 0. -1.
</event>
<event>
 5   0  0.2078125E-09  0.4000313E+04  0.7818609E-02  0.8004483E-01
       -1   -1    0    0    0  501  0.00000000000E+00  0.00000000000E+00  0.18768485774E+04  0.18768485774E+04  0.50400001928E-02 0. -1.
        1   -1    0    0  501    0  0.00000000000E+00  0.00000000000E+00 -0.21315659111E+04  0.21315659111E+04  0.50400001928E-02 0.  1.
    10030    2    1    2    0    0  0.00000000000E+00  0.00000000000E+00 -0.25471733374E+03  0.40084144885E+04  0.40003132116E+04 0.  0.
        1    1    3    3  502    0  0.74781385227E+03 -0.10181420537E+04  0.14265196018E+04  0.19054650282E+04  0.50400001928E-02 0. -1.
       -1    1    3    3    0  502 -0.74781385227E+03  0.10181420537E+04 -0.16812369355E+04  0.21029494603E+04  0.50400001928E-02 0.  1.
</event>
<event>
 5   0  0.6538370E-09  0.4008168E+04  0.7818609E-02  0.8002901E-01
        2   -1    0    0  501    0  0.00000000000E+00  0.00000000000E+00  0.16003375292E+04  0.16003375292E+04  0.25500000920E-02 0.  1.
       -2   -1    0    0    0  501  0.00000000000E+00  0.00000000000E+00 -0.25096915501E+04  0.25096915501E+04  0.25500000920E-02 0. -1.
    10030    2    1    2    0    0  0.00000000000E+00  0.00000000000E+00 -0.90935402094E+03  0.41100290793E+04  0.40081684467E+04 0.  0.
        4    1    3    3  502    0 -0.54048740058E+03  0.57990378408E+03  0.14327344525E+04  0.16374201212E+04  0.12699999809E+01 0.  1.
       -4    1    3    3    0  502  0.54048740058E+03 -0.57990378408E+03 -0.23420884735E+04  0.24726089581E+04  0.12699999809E+01 0. -1.
</event>
<event>
 5   0  0.2078125E-09  0.4005443E+04  0.7818609E-02  0.8003449E-01
       -3   -1    0    0    0  501  0.00000000000E+00  0.00000000000E+00  0.22626071867E+04  0.22626071889E+04  0.10100000352E+00 0. -1.
        3   -1    0    0  501    0  0.00000000000E+00  0.00000000000E+00 -0.17726865100E+04  0.17726865129E+04  0.10100000352E+00 0.  1.
    10030    2    1    2    0    0  0.00000000000E+00  0.00000000000E+00  0.48992067667E+03  0.40352937018E+04  0.40054429206E+04 0.  0.
        4    1    3    3  502    0  0.63292880062E+03 -0.15321075281E+04 -0.88722060231E+03  0.18801899782E+04  0.12699999809E+01 0.  1.
       -4    1    3    3    0  502 -0.63292880062E+03  0.15321075281E+04  0.13771412790E+04  0.21551037236E+04  0.12699999809E+01 0. -1.
</event>
<event>
 5   0  0.2078125E-09  0.4000802E+04  0.7818609E-02  0.8004385E-01
       -1   -1    0    0    0  501  0.00000000000E+00  0.00000000000E+00  0.18835998393E+04  0.18835998393E+04  0.50400001928E-02 0. -1.
        1   -1    0    0  501    0  0.00000000000E+00  0.00000000000E+00 -0.21244449580E+04  0.21244449580E+04  0.50400001928E-02 0.  1.
    10030    2    1    2    0    0  0.00000000000E+00  0.00000000000E+00 -0.24084511869E+03  0.40080447973E+04  0.40008020104E+04 0.  0.
        2    1    3    3  502    0 -0.19823143789E+04 -0.75545141765E+01 -0.38919319390E+03  0.20201729405E+04  0.25500000920E-02 0. -1.
       -2    1    3    3    0  502  0.19823143789E+04  0.75545141765E+01  0.14834807521E+03  0.19878718568E+04  0.25500000920E-02 0.  1.
</event>
<event>
 5   0  0.2078125E-09  0.4004708E+04  0.7818609E-02  0.8003597E-01
        1   -1    0    0  501    0  0.00000000000E+00  0.00000000000E+00  0.12669465589E+04  0.12669465589E+04  0.50400001928E-02 0. -1.
       -1   -1    0    0    0  501  0.00000000000E+00  0.00000000000E+00 -0.31646338916E+04  0.31646338917E+04  0.50400001928E-02 0.  1.
    10030    2    1    2    0    0  0.00000000000E+00  0.00000000000E+00 -0.18976873327E+04  0.44315804506E+04  0.40047082387E+04 0.  0.
        4    1    3    3  502    0  0.15565183165E+04 -0.81401860932E+03 -0.20125807013E+04  0.26713027268E+04  0.12699999809E+01 0.  1.
       -4    1    3    3    0  502 -0.15565183165E+04  0.81401860932E+03  0.11489336855E+03  0.17602777238E+04  0.12699999809E+01 0. -1.
</event>
<event>
 5   0  0.2078125E-09  0.3998727E+04  0.7818609E-02  0.8004803E-01
        1   -1    0    0  501    0  0.00000000000E+00  0.00000000000E+00  0.20693867018E+04  0.20693867018E+04  0.50400001928E-02 0. -1.
       -1   -1    0    0    0  501  0.00000000000E+00  0.00000000000E+00 -0.19317097293E+04  0.19317097293E+04  0.50400001928E-02 0.  1.
    10030    2    1    2    0    0  0.00000000000E+00  0.00000000000E+00  0.13767697253E+03  0.40010964311E+04  0.39987270102E+04 0.  0.
        1    1    3    3  502    0 -0.14634357484E+04 -0.92640548840E+03 -0.93054416342E+03  0.19661596473E+04  0.50400001928E-02 0.  1.
       -1    1    3    3    0  502  0.14634357484E+04  0.92640548840E+03  0.10682211360E+04  0.20349367838E+04  0.50400001928E-02 0. -1.
</event>
<event>
 5   0  0.6645526E-09  0.4000768E+04  0.7818609E-02  0.8004392E-01
       -2   -1    0    0    0  501  0.00000000000E+00  0.00000000000E+00  0.20955749360E+04  0.20955749360E+04  0.25500000920E-02 0. -1.
        2   -1    0    0  501    0  0.00000000000E+00  0.00000000000E+00 -0.19095169162E+04  0.19095169162E+04  0.25500000920E-02 0.  1.
    10030    2    1    2    0    0  0.00000000000E+00  0.00000000000E+00  0.18605801980E+03  0.40050918521E+04  0.40007678210E+04 0.  0.
        3    1    3    3  502    0  0.19717704981E+04  0.13711401929E+03 -0.21529189566E+03  0.19882227646E+04  0.10100000352E+00 0. -1.
       -3    1    3    3    0  502 -0.19717704981E+04 -0.13711401929E+03  0.40134991545E+03  0.20168690875E+04  0.10100000352E+00 0.  1.
</event>
<event>
 5   0  0.2078125E-09  0.3998269E+04  0.7818609E-02  0.8004896E-01
       -1   -1    0    0    0  501  0.00000000000E+00  0.00000000000E+00  0.20728749658E+04  0.20728749658E+04  0.50400001928E-02 0.  1.
        1   -1    0    0  501    0  0.00000000000E+00  0.00000000000E+00 -0.19280175366E+04  0.19280175366E+04  0.50400001928E-02 0. -1.
    10030    2    1    2    0    0  0.00000000000E+00  0.00000000000E+00  0.14485742922E+03  0.40008925024E+04  0.39982692682E+04 0.  0.
        2    1    3    3  502    0  0.16865830249E+04 -0.83419174866E+03 -0.60336696257E+03  0.19759782045E+04  0.25500000920E-02 0. -1.
       -2    1    3    3    0  502 -0.16865830249E+04  0.83419174866E+03  0.74822439179E+03  0.20249142979E+04  0.25500000920E-02 0.  1.
</event>
<event>
 5   0  0.6645526E-09  0.3999650E+04  0.7818609E-02  0.8004617E-01
       -2   -1    0    0    0  501  0.00000000000E+00  0.00000000000E+00  0.21805569470E+04  0.21805569470E+04  0.25500000920E-02 0. -1.
        2   -1    0    0  501    0  0.00000000000E+00  0.00000000000E+00 -0.18340726907E+04  0.18340726907E+04  0.25500000920E-02 0.  1.
    10030    2    1    2    0    0  0.00000000000E+00  0.00000000000E+00  0.34648425635E+03  0.40146296377E+04  0.39996499582E+04 0.  0.
        3    1    3    3  502    0  0.81007157598E+02 -0.65438686422E+03  0.20683056088E+04  0.21708690493E+04  0.10100000352E+00 0. -1.
       -3    1    3    3    0  502 -0.81007157598E+02  0.65438686422E+03 -0.17218213524E+04  0.18437605884E+04  0.10100000352E+00 0.  1.
</event>
<event>
 5   0  0.2078125E-09  0.4013765E+04  0.7818609E-02  0.8001776E-01
       -3   -1    0    0    0  501  0.00000000000E+00  0.00000000000E+00  0.19347018405E+04  0.19347018432E+04  0.10100000352E+00 0. -1.
        3   -1    0    0  501    0  0.00000000000E+00  0.00000000000E+00 -0.20817557798E+04  0.20817557823E+04  0.10100000352E+00 0.  1.
    10030    2    1    2    0    0  0.00000000000E+00  0.00000000000E+00 -0.14705393929E+03  0.40164576255E+04  0.40137646912E+04 0.  0.
        5    1    3    3  502    0  0.13084795043E+04  0.30092317358E+03  0.14190773808E+04  0.19535803214E+04  0.46999998093E+01 0.  1.
       -5    1    3    3    0  502 -0.13084795043E+04 -0.30092317358E+03 -0.15661313201E+04  0.20628773040E+04  0.46999998093E+01 0. -1.
</event>
<event>
 5   0  0.6645526E-09  0.4000136E+04  0.7818609E-02  0.8004519E-01
       -2   -1    0    0    0  501  0.00000000000E+00  0.00000000000E+00  0.19201259595E+04  0.19201259595E+04  0.25500000920E-02 0. -1.
        2   -1    0    0  501    0  0.00000000000E+00  0.00000000000E+00 -0.20833386951E+04  0.20833386951E+04  0.25500000920E-02 0.  1.
    10030    2    1    2    0    0  0.00000000000E+00  0.00000000000E+00 -0.16321273558E+03  0.40034646547E+04  0.40001363532E+04 0.  0.
        3    1    3    3  502    0  0.28900004772E+03  0.17566989875E+03 -0.20545130912E+04  0.20821635366E+04  0.10100000352E+00 0.  1.
       -3    1    3    3    0  502 -0.28900004772E+03 -0.17566989875E+03  0.18913003556E+04  0.19213011181E+04  0.10100000352E+00 0. -1.
</event>
<event>
 5   0  0.2078125E-09  0.4000309E+04  0.7818609E-02  0.8004484E-01
       -1   -1    0    0    0  501  0.00000000000E+00  0.00000000000E+00  0.17093515850E+04  0.17093515850E+04  0.50400001928E-02 0.  1.
        1   -1    0    0  501    0  0.00000000000E+00  0.00000000000E+00 -0.23404306003E+04  0.23404306003E+04  0.50400001928E-02 0. -1.
    10030    2    1    2    0    0  0.00000000000E+00  0.00000000000E+00 -0.63107901532E+03  0.40497821853E+04  0.40003093661E+04 0.  0.
        3    1    3    3  502    0 -0.11615831306E+04 -0.13803026681E+03  0.13269592050E+04  0.17689399271E+04  0.10100000352E+00 0.  1.
       -3    1    3    3    0  502  0.11615831306E+04  0.13803026681E+03 -0.19580382204E+04  0.22808422581E+04  0.10100000352E+00 0. -1.
</event>
<event>
 5   0  0.2078125E-09  0.3999815E+04  0.7818609E-02  0.8004584E-01
       -1   -1    0    0    0  501  0.00000000000E+00  0.00000000000E+00  0.21957470578E+04  0.21957470578E+04  0.50400001928E-02 0.  1.
        1   -1    0    0  501    0  0.00000000000E+00  0.00000000000E+00 -0.18215353573E+04  0.18215353573E+04  0.50400001928E-02 0. -1.
    10030    2    1    2    0    0  0.00000000000E+00  0.00000000000E+00  0.37421170051E+03  0.40172824151E+04  0.39998154464E+04 0.  0.
        5    1    3    3  502    0  0.17273362492E+04  0.38344243551E+03  0.11233192613E+04  0.20958499164E+04  0.46999998093E+01 0.  1.
       -5    1    3    3    0  502 -0.17273362492E+04 -0.38344243551E+03 -0.74910756078E+03  0.19214324987E+04  0.46999998093E+01 0. -1.
</event>
<event>
 5   0  0.6547327E-09  0.3999206E+04  0.7818609E-02  0.8004707E-01
        2   -1    0    0  501    0  0.00000000000E+00  0.00000000000E+00  0.20880714431E+04  0.20880714431E+04  0.25500000920E-02 0. -1.
       -2   -1    0    0    0  501  0.00000000000E+00  0.00000000000E+00 -0.19148829694E+04  0.19148829694E+04  0.25500000920E-02 0.  1.
    10030    2    1    2    0    0  0.00000000000E+00  0.00000000000E+00  0.17318847368E+03  0.40029544125E+04  0.39992061439E+04 0.  0.
        5    1    3    3  502    0 -0.15947306401E+03 -0.19915769588E+04  0.54015386009E+01  0.19979643910E+04  0.46999998093E+01 0.  1.
       -5    1    3    3    0  502  0.15947306401E+03  0.19915769588E+04  0.16778693508E+03  0.20049900216E+04  0.46999998093E+01 0. -1.
</event>
<event>
 5   0  0.2078125E-09  0.4000124E+04  0.7818609E-02  0.8004522E-01
       -1   -1    0    0    0  501  0.00000000000E+00  0.00000000000E+00  0.20290261462E+04  0.20290261462E+04  0.50400001928E-02 0.  1.
        1   -1    0    0  501    0  0.00000000000E+00  0.00000000000E+00 -0.19715114923E+04  0.19715114924E+04  0.50400001928E-02 0. -1.
    10030    2    1    2    0    0  0.00000000000E+00  0.00000000000E+00  0.57514653845E+02  0.40005376386E+04  0.40001241808E+04 0.  0.
        3    1    3    3  502    0 -0.48028817795E+03 -0.74088444269E+03  0.18235630773E+04  0.20260722589E+04  0.10100000352E+00 0.  1.
       -3    1    3    3    0  502  0.48028817795E+03  0.74088444269E+03 -0.17660484234E+04  0.19744653796E+04  0.10100000352E+00 0. -1.
</event>
<event>
 5   0  0.2078125E-09  0.4003359E+04  0.7818609E-02  0.8003869E-01
        1   -1    0    0  501    0  0.00000000000E+00  0.00000000000E+00  0.21975551164E+04  0.21975551165E+04  0.50400001928E-02 0. -1.
       -1   -1    0    0    0  501  0.00000000000E+00  0.00000000000E+00 -0.18232628692E+04  0.18232628692E+04  0.50400001928E-02 0.  1.
    10030    2    1    2    0    0  0.00000000000E+00  0.00000000000E+00  0.37429224722E+03  0.40208179857E+04  0.40033589132E+04 0.  0.
        2    1    3    3  502    0  0.62201565466E+01  0.19621220721E+04 -0.21050849644E+03  0.19733918879E+04  0.25500000920E-02 0. -1.
       -2    1    3    3    0  502 -0.62201565466E+01 -0.19621220721E+04  0.58480074366E+03  0.20474260978E+04  0.25500000920E-02 0.  1.
</event>
<event>
 5   0  0.6599276E-09  0.4009890E+04  0.7818609E-02  0.8002554E-01
        2   -1    0    0  501    0  0.00000000000E+00  0.00000000000E+00  0.26093548164E+04  0.26093548164E+04  0.25500000920E-02 0. -1.
       -2   -1    0    0    0  501  0.00000000000E+00  0.00000000000E+00 -0.15405356914E+04  0.15405356914E+04  0.25500000920E-02 0.  1.
    10030    2    1    2    0    0  0.00000000000E+00  0.00000000000E+00  0.10688191249E+04  0.41498905078E+04  0.40098898869E+04 0.  0.
        2    1    3    3  502    0  0.82985535966E+02  0.11585569428E+03  0.26041065860E+04  0.26080031159E+04  0.25500000920E-02 0. -1.
       -2    1    3    3    0  502 -0.82985535966E+02 -0.11585569428E+03 -0.15352874611E+04  0.15418873919E+04  0.25500000920E-02 0.  1.
</event>
<event>
 5   0  0.6599276E-09  0.3992932E+04  0.7818609E-02  0.8005974E-01
        2   -1    0    0  501    0  0.00000000000E+00  0.00000000000E+00  0.20728563907E+04  0.20728563907E+04  0.25500000920E-02 0.  1.
       -2   -1    0    0    0  501  0.00000000000E+00  0.00000000000E+00 -0.19228909057E+04  0.19228909057E+04  0.25500000920E-02 0. -1.
    10030    2    1    2    0    0  0.00000000000E+00  0.00000000000E+00  0.14996548502E+03  0.39957472964E+04  0.39929321069E+04 0.  0.
        2    1    3    3  502    0 -0.32762958987E+03 -0.18807608870E+04 -0.50961578269E+03  0.19759329210E+04  0.25500000920E-02 0.  1.
       -2    1    3    3    0  502  0.32762958987E+03  0.18807608870E+04  0.65958126772E+03  0.20198143754E+04  0.25500000920E-02 0. -1.
</event>
<event>
 5   0  0.6538370E-09  0.3996060E+04  0.7818609E-02  0.8005342E-01
        2   -1    0    0  501    0  0.00000000000E+00  0.00000000000E+00  0.15349503611E+04  0.15349503611E+04  0.25500000920E-02 0.  1.
       -2   -1    0    0    0  501  0.00000000000E+00  0.00000000000E+00 -0.26008166830E+04  0.26008166830E+04  0.25500000920E-02 0. -1.
    10030    2    1    2    0    0  0.00000000000E+00  0.00000000000E+00 -0.10658663219E+04  0.41357670440E+04  0.39960603131E+04 0.  0.
        4    1    3    3  502    0  0.16010144825E+04  0.71031251294E+03  0.46210089880E+03  0.18114442008E+04  0.12699999809E+01 0.  1.
       -4    1    3    3    0  502 -0.16010144825E+04 -0.71031251294E+03 -0.15279672207E+04  0.23243228432E+04  0.12699999809E+01 0. -1.
</event>
<event>
 5   0  0.6736335E-09  0.4000461E+04  0.7818609E-02  0.8004454E-01
        2   -1    0    0  501    0  0.00000000000E+00  0.00000000000E+00  0.27550418787E+04  0.27550418787E+04  0.25500000920E-02 0.  1.
       -2   -1    0    0    0  501  0.00000000000E+00  0.00000000000E+00 -0.14522181240E+04  0.14522181240E+04  0.25500000920E-02 0. -1.
    10030    2    1    2    0    0  0.00000000000E+00  0.00000000000E+00  0.13028237547E+04  0.42072600027E+04  0.40004608477E+04 0.  0.
        1    1    3    3  502    0 -0.63920227635E+03  0.12229999547E+04  0.21742316125E+04  0.25751876716E+04  0.50400001928E-02 0.  1.
       -1    1    3    3    0  502  0.63920227635E+03 -0.12229999547E+04 -0.87140785776E+03  0.16320723311E+04  0.50400001928E-02 0. -1.
</event>
<event>
 5   0  0.6547327E-09  0.3996897E+04  0.7818609E-02  0.8005173E-01
        2   -1    0    0  501    0  0.00000000000E+00  0.00000000000E+00  0.22301552971E+04  0.22301552971E+04  0.25500000920E-02 0. -1.
       -2   -1    0    0    0  501  0.00000000000E+00  0.00000000000E+00 -0.17908158074E+04  0.17908158074E+04  0.25500000920E-02 0.  1.
    10030    2    1    2    0    0  0.00000000000E+00  0.00000000000E+00  0.43933948964E+03  0.40209711045E+04  0.39968974763E+04 0.  0.
        5    1    3    3  502    0  0.64930339015E+03 -0.13730550328E+04 -0.10869603160E+04  0.18677204915E+04  0.46999998093E+01 0.  1.
       -5    1    3    3    0  502 -0.64930339015E+03  0.13730550328E+04  0.15262998057E+04  0.21532506130E+04  0.46999998093E+01 0. -1.
</event>
<event>
 5   0  0.6599276E-09  0.3998383E+04  0.7818609E-02  0.8004873E-01
        2   -1    0    0  501    0  0.00000000000E+00  0.00000000000E+00  0.20371786582E+04  0.20371786582E+04  0.25500000920E-02 0. -1.
       -2   -1    0    0    0  501  0.00000000000E+00  0.00000000000E+00 -0.19619124291E+04  0.19619124291E+04  0.25500000920E-02 0.  1.
    10030    2    1    2    0    0  0.00000000000E+00  0.00000000000E+00  0.75266229137E+02  0.39990910873E+04  0.39983827380E+04 0.  0.
        2    1    3    3  502    0 -0.54486194287E+03  0.33812826969E+03  0.19315263025E+04  0.20351901928E+04  0.25500000920E-02 0. -1.
       -2    1    3    3    0  502  0.54486194287E+03 -0.33812826969E+03 -0.18562600734E+04  0.19639008945E+04  0.25500000920E-02 0.  1.
</event>
<event>
 5   0  0.6645526E-09  0.4009144E+04  0.7818609E-02  0.8002704E-01
        2   -1    0    0  501    0  0.00000000000E+00  0.00000000000E+00  0.15497669886E+04  0.15497669886E+04  0.25500000920E-02 0.  1.
       -2   -1    0    0    0  501  0.00000000000E+00  0.00000000000E+00 -0.25928477630E+04  0.25928477630E+04  0.25500000920E-02 0. -1.
    10030    2    1    2    0    0  0.00000000000E+00  0.00000000000E+00 -0.10430807745E+04  0.41426147516E+04  0.40091444821E+04 0.  0.
        3    1    3    3  502    0 -0.78716306565E+03  0.12341927287E+04  0.89352292526E+03  0.17150045515E+04  0.10100000352E+00 0.  1.
       -3    1    3    3    0  502  0.78716306565E+03 -0.12341927287E+04 -0.19366036997E+04  0.24276102001E+04  0.10100000352E+00 0. -1.
</event>
<event>
 5   0  0.2078125E-09  0.3999889E+04  0.7818609E-02  0.8004569E-01
        1   -1    0    0  501    0  0.00000000000E+00  0.00000000000E+00  0.20285891464E+04  0.20285891464E+04  0.50400001928E-02 0. -1.
       -1   -1    0    0    0  501  0.00000000000E+00  0.00000000000E+00 -0.19717038659E+04  0.19717038659E+04  0.50400001928E-02 0.  1.
    10030    2    1    2    0    0  0.00000000000E+00  0.00000000000E+00  0.56885280448E+02  0.40002930123E+04  0.39998885296E+04 0.  0.
        3    1    3    3  502    0  0.15308317002E+04 -0.38661240004E+03 -0.11992246534E+04  0.19826887354E+04  0.10100000352E+00 0.  1.
       -3    1    3    3    0  502 -0.15308317002E+04  0.38661240004E+03  0.12561099338E+04  0.20176042769E+04  0.10100000352E+00 0. -1.
</event>
<event>
 5   0  0.6547327E-09  0.4000877E+04  0.7818609E-02  0.8004370E-01
        2   -1    0    0  501    0  0.00000000000E+00  0.00000000000E+00  0.18524638092E+04  0.18524638092E+04  0.25500000920E-02 0. -1.
       -2   -1    0    0    0  501  0.00000000000E+00  0.00000000000E+00 -0.21602332803E+04  0.21602332803E+04  0.25500000920E-02 0.  1.
    10030    2    1    2    0    0  0.00000000000E+00  0.00000000000E+00 -0.30776947116E+03  0.40126970895E+04  0.40008768895E+04 0.  0.
        5    1    3    3  502    0 -0.13460887794E+04  0.62303578548E+03  0.11923189401E+04  0.19030961975E+04  0.46999998093E+01 0. -1.
       -5    1    3    3    0  502  0.13460887794E+04 -0.62303578548E+03 -0.15000884112E+04  0.21096008920E+04  0.46999998093E+01 0.  1.
</event>
<event>
 5   0  0.2078125E-09  0.4004001E+04  0.7818609E-02  0.8003740E-01
       -1   -1    0    0    0  501  0.00000000000E+00  0.00000000000E+00  0.34407263325E+04  0.34407263325E+04  0.50400001928E-02 0.  1.
        1   -1    0    0  501    0  0.00000000000E+00  0.00000000000E+00 -0.11648722318E+04  0.11648722318E+04  0.50400001928E-02 0. -1.
    10030    2    1    2    0    0  0.00000000000E+00  0.00000000000E+00  0.22758541007E+04  0.46055985643E+04  0.40040012796E+04 0.  0.
        4    1    3    3  502    0 -0.17303123340E+04 -0.68109713127E+03  0.28477805719E+03  0.18812161573E+04  0.12699999809E+01 0.  1.
       -4    1    3    3    0  502  0.17303123340E+04  0.68109713127E+03  0.19910760435E+04  0.27243824070E+04  0.12699999809E+01 0. -1.
</event>
<event>
 5   0  0.6736335E-09  0.3996827E+04  0.7818609E-02  0.8005187E-01
       -2   -1    0    0    0  501  0.00000000000E+00  0.00000000000E+00  0.25115263912E+04  0.25115263912E+04  0.25500000920E-02 0.  1.
        2   -1    0    0  501    0  0.00000000000E+00  0.00000000000E+00 -0.15901315755E+04  0.15901315755E+04  0.25500000920E-02 0. -1.
    10030    2    1    2    0    0  0.00000000000E+00  0.00000000000E+00  0.92139481574E+03  0.41016579667E+04  0.39968274505E+04 0.  0.
        1    1    3    3  502    0  0.91453768964E+03  0.82480890079E+03 -0.11544206963E+04  0.16880094942E+04  0.50400001928E-02 0. -1.
       -1    1    3    3    0  502 -0.91453768964E+03 -0.82480890079E+03  0.20758155120E+04  0.24136484724E+04  0.50400001928E-02 0.  1.
</event>
<event>
 5   0  0.6599276E-09  0.3999063E+04  0.7818609E-02  0.8004736E-01
       -2   -1    0    0    0  501  0.00000000000E+00  0.00000000000E+00  0.17350776206E+04  0.17350776206E+04  0.25500000920E-02 0.  1.
        2   -1    0    0  501    0  0.00000000000E+00  0.00000000000E+00 -0.23042928189E+04  0.23042928189E+04  0.25500000920E-02 0. -1.
    10030    2    1    2    0    0  0.00000000000E+00  0.00000000000E+00 -0.56921519827E+03  0.40393704395E+04  0.39990633410E+04 0.  0.
        2    1    3    3  502    0  0.16645874147E+04 -0.37949721817E+03  0.76667930052E+03  0.18715412231E+04  0.25500000920E-02 0.  1.
       -2    1    3    3    0  502 -0.16645874147E+04  0.37949721817E+03 -0.13358944988E+04  0.21678292164E+04  0.25500000920E-02 0. -1.
</event>
<event>
 5   0  0.2078125E-09  0.3995296E+04  0.7818609E-02  0.8005496E-01
       -3   -1    0    0    0  501  0.00000000000E+00  0.00000000000E+00  0.22270727201E+04  0.22270727224E+04  0.10100000352E+00 0. -1.
        3   -1    0    0  501    0  0.00000000000E+00  0.00000000000E+00 -0.17918579488E+04  0.17918579516E+04  0.10100000352E+00 0.  1.
    10030    2    1    2    0    0  0.00000000000E+00  0.00000000000E+00  0.43521477135E+03  0.40189306741E+04  0.39952962175E+04 0.  0.
        1    1    3    3  502    0 -0.11908333428E+04 -0.10438176186E+03 -0.13923661773E+04  0.18351193896E+04  0.50400001928E-02 0.  1.
       -1    1    3    3    0  502  0.11908333428E+04  0.10438176186E+03  0.18275809486E+04  0.21838112845E+04  0.50400001928E-02 0. -1.
</event>
<event>
 5   0  0.6538370E-09  0.3999047E+04  0.7818609E-02  0.8004739E-01
        2   -1    0    0  501    0  0.00000000000E+00  0.00000000000E+00  0.16759592776E+04  0.16759592776E+04  0.25500000920E-02 0. -1.
       -2   -1    0    0    0  501  0.00000000000E+00  0.00000000000E+00 -0.23855558886E+04  0.23855558886E+04  0.25500000920E-02 0.  1.
    10030    2    1    2    0    0  0.00000000000E+00  0.00000000000E+00 -0.70959661106E+03  0.40615151662E+04  0.39990471483E+04 0.  0.
        4    1    3    3  502    0  0.99493300503E+03 -0.13927718217E+04  0.69497622302E+03  0.18473490724E+04  0.12699999809E+01 0. -1.
       -4    1    3    3    0  502 -0.99493300503E+03  0.13927718217E+04 -0.14045728341E+04  0.22141660938E+04  0.12699999809E+01 0.  1.
</event>
<event>
 5   0  0.6547327E-09  0.3998867E+04  0.7818609E-02  0.8004775E-01
        2   -1    0    0  501    0  0.00000000000E+00  0.00000000000E+00  0.23857794518E+04  0.23857794518E+04  0.25500000920E-02 0. -1.
       -2   -1    0    0    0  501  0.00000000000E+00  0.00000000000E+00 -0.16756508811E+04  0.16756508811E+04  0.25500000920E-02 0.  1.
    10030    2    1    2    0    0  0.00000000000E+00  0.00000000000E+00  0.71012857070E+03  0.40614303328E+04  0.39988665596E+04 0.  0.
        5    1    3    3  502    0  0.38799903320E+02  0.15277723896E+04  0.16644661334E+04  0.22596600421E+04  0.46999998093E+01 0. -1.
       -5    1    3    3    0  502 -0.38799903320E+02 -0.15277723896E+04 -0.95433756266E+03  0.18017702907E+04  0.46999998093E+01 0.  1.
</event>
<event>
 5   0  0.2078125E-09  0.3996209E+04  0.7818609E-02  0.8005312E-01
       -1   -1    0    0    0  501  0.00000000000E+00  0.00000000000E+00  0.16547923629E+04  0.16547923629E+04  0.50400001928E-02 0. -1.
        1   -1    0    0  501    0  0.00000000000E+00  0.00000000000E+00 -0.24126420204E+04  0.24126420204E+04  0.50400001928E-02 0.  1.
    10030    2    1    2    0    0  0.00000000000E+00  0.00000000000E+00 -0.75784965749E+03  0.40674343832E+04  0.39962089983E+04 0.  0.
        4    1    3    3  502    0  0.12790735318E+04 -0.11246950817E+04 -0.14422709539E+04  0.22318412228E+04  0.12699999809E+01 0.  1.
       -4    1    3    3    0  502 -0.12790735318E+04  0.11246950817E+04  0.68442129642E+03  0.18355931604E+04  0.12699999809E+01 0. -1.
</event>
<event>
 5   0  0.6736335E-09  0.3999871E+04  0.7818609E-02  0.8004573E-01
       -2   -1    0    0    0  501  0.00000000000E+00  0.00000000000E+00  0.25514573387E+04  0.25514573387E+04  0.25500000920E-02 0. -1.
        2   -1    0    0  501    0  0.00000000000E+00  0.00000000000E+00 -0.15676305106E+04  0.15676305106E+04  0.25500000920E-02 0.  1.
    10030    2    1    2    0    0  0.00000000000E+00  0.00000000000E+00  0.98382682811E+03  0.41190878493E+04  0.39998711832E+04 0.  0.
        1    1    3    3  502    0  0.35440121316E+03  0.43670913611E+03  0.24683418768E+04  0.25316055598E+04  0.50400001928E-02 0. -1.
       -1    1    3    3    0  502 -0.35440121316E+03 -0.43670913611E+03 -0.14845150487E+04  0.15874822895E+04  0.50400001928E-02 0.  1.
</event>
<event>
 5   0  0.2078125E-09  0.4000001E+04  0.7818609E-02  0.8004546E-01
       -1   -1    0    0    0  501  0.00000000000E+00  0.00000000000E+00  0.16420551187E+04  0.16420551187E+04  0.50400001928E-02 0.  1.
        1   -1    0    0  501    0  0.00000000000E+00  0.00000000000E+00 -0.24359734999E+04  0.24359734999E+04  0.50400001928E-02 0. -1.
    10030    2    1    2    0    0  0.00000000000E+00  0.00000000000E+00 -0.79391838122E+03  0.40780286186E+04  0.40000013773E+04 0.  0.
        3    1    3    3  502    0  0.24795159347E+02 -0.19383646213E+04  0.10470709241E+03  0.19413489615E+04  0.10100000352E+00 0. -1.
       -3    1    3    3    0  502 -0.24795159347E+02  0.19383646213E+04 -0.89862547363E+03  0.21366796571E+04  0.10100000352E+00 0.  1.
</event>
<event>
 5   0  0.2078125E-09  0.3999346E+04  0.7818609E-02  0.8004678E-01
       -1   -1    0    0    0  501  0.00000000000E+00  0.00000000000E+00  0.17536787750E+04  0.17536787750E+04  0.50400001928E-02 0. -1.
        1   -1    0    0  501    0  0.00000000000E+00  0.00000000000E+00 -0.22801741802E+04  0.22801741802E+04  0.50400001928E-02 0.  1.
    10030    2    1    2    0    0  0.00000000000E+00  0.00000000000E+00 -0.52649540520E+03  0.40338529552E+04  0.39993464781E+04 0.  0.
        5    1    3    3  502    0 -0.13418489701E+04 -0.14082376837E+04  0.20441096918E+03  0.19558880251E+04  0.46999998093E+01 0. -1.
       -5    1    3    3    0  502  0.13418489701E+04  0.14082376837E+04 -0.73090637437E+03  0.20779649300E+04  0.46999998093E+01 0.  1.
</event>
<event>
 5   0  0.2078125E-09  0.4000501E+04  0.7818609E-02  0.8004446E-01
       -1   -1    0    0    0  501  0.00000000000E+00  0.00000000000E+00  0.14334989922E+04  0.14334989922E+04  0.50400001928E-02 0. -1.
        1   -1    0    0  501    0  0.00000000000E+00  0.00000000000E+00 -0.27910735718E+04  0.27910735718E+04  0.50400001928E-02 0.  1.
    10030    2    1    2    0    0  0.00000000000E+00  0.00000000000E+00 -0.13575745796E+04  0.42245725640E+04  0.40005005448E+04 0.  0.
        1    1    3    3  502    0  0.58937741065E+03  0.25269167369E+03 -0.26795818529E+04  0.27552454919E+04  0.50400001928E-02 0.  1.
       -1    1    3    3    0  502 -0.58937741065E+03 -0.25269167369E+03  0.13220072733E+04  0.14693270721E+04  0.50400001928E-02 0. -1.
</event>
<event>
 5   0  0.6645526E-09  0.4000513E+04  0.7818609E-02  0.8004443E-01
        2   -1    0    0  501    0  0.00000000000E+00  0.00000000000E+00  0.22018723887E+04  0.22018723887E+04  0.25500000920E-02 0.  1.
       -2   -1    0    0    0  501  0.00000000000E+00  0.00000000000E+00 -0.18171016467E+04  0.18171016467E+04  0.25500000920E-02 0. -1.
    10030    2    1    2    0    0  0.00000000000E+00  0.00000000000E+00  0.38477074198E+03  0.40189740354E+04  0.40005129387E+04 0.  0.
        3    1    3    3  502    0  0.21794428867E+03 -0.19715327951E+04 -0.66845433259E+02  0.19846686367E+04  0.10100000352E+00 0. -1.
       -3    1    3    3    0  502 -0.21794428867E+03  0.19715327951E+04  0.45161617524E+03  0.20343053987E+04  0.10100000352E+00 0.  1.
</event>
<event>
 5   0  0.6645526E-09  0.3995453E+04  0.7818609E-02  0.8005465E-01
       -2   -1    0    0    0  501  0.00000000000E+00  0.00000000000E+00  0.12723050450E+04  0.12723050450E+04  0.25500000920E-02 0.  1.
        2   -1    0    0  501    0  0.00000000000E+00  0.00000000000E+00 -0.31367561561E+04  0.31367561561E+04  0.25500000920E-02 0. -1.
    10030    2    1    2    0    0  0.00000000000E+00  0.00000000000E+00 -0.18644511111E+04  0.44090612011E+04  0.39954527565E+04 0.  0.
        3    1    3    3  502    0 -0.43965955634E+03 -0.80815328546E+03 -0.28890678092E+04  0.30320166679E+04  0.10100000352E+00 0. -1.
       -3    1    3    3    0  502  0.43965955634E+03  0.80815328546E+03  0.10246166980E+04  0.13770445332E+04  0.10100000352E+00 0.  1.
</event>
<event>
 5   0  0.6547327E-09  0.3999359E+04  0.7818609E-02  0.8004676E-01
       -2   -1    0    0    0  501  0.00000000000E+00  0.00000000000E+00  0.16568425905E+04  0.16568425905E+04  0.25500000920E-02 0.  1.
        2   -1    0    0  501    0  0.00000000000E+00  0.00000000000E+00 -0.24134566052E+04  0.24134566052E+04  0.25500000920E-02 0. -1.
    10030    2    1    2    0    0  0.00000000000E+00  0.00000000000E+00 -0.75661401462E+03  0.40702991957E+04  0.39993587955E+04 0.  0.
        5    1    3    3  502    0  0.74426587008E+03 -0.17520607068E+04 -0.10015808901E+04  0.21510078510E+04  0.46999998093E+01 0. -1.
       -5    1    3    3    0  502 -0.74426587008E+03  0.17520607068E+04  0.24496687553E+03  0.19192913447E+04  0.46999998093E+01 0.  1.
</event>
<event>
 5   0  0.2078125E-09  0.3999269E+04  0.7818609E-02  0.8004694E-01
        1   -1    0    0  501    0  0.00000000000E+00  0.00000000000E+00  0.22582329799E+04  0.22582329799E+04  0.50400001928E-02 0. -1.
       -1   -1    0    0    0  501  0.00000000000E+00  0.00000000000E+00 -0.17706492556E+04  0.17706492556E+04  0.50400001928E-02 0.  1.
    10030    2    1    2    0    0  0.00000000000E+00  0.00000000000E+00  0.48758372425E+03  0.40288822355E+04  0.39992692056E+04 0.  0.
        2    1    3    3  502    0 -0.15606284839E+04 -0.35022481808E+03  0.14528116475E+04  0.21607592117E+04  0.25500000920E-02 0. -1.
       -2    1    3    3    0  502  0.15606284839E+04  0.35022481808E+03 -0.96522792320E+03  0.18681230237E+04  0.25500000920E-02 0.  1.
</event>
<event>
 5   0  0.2078125E-09  0.4005755E+04  0.7818609E-02  0.8003387E-01
       -1   -1    0    0    0  501  0.00000000000E+00  0.00000000000E+00  0.21885221956E+04  0.21885221956E+04  0.50400001928E-02 0. -1.
        1   -1    0    0  501    0  0.00000000000E+00  0.00000000000E+00 -0.18329806882E+04  0.18329806882E+04  0.50400001928E-02 0.  1.
    10030    2    1    2    0    0  0.00000000000E+00  0.00000000000E+00  0.35554150739E+03  0.40215028838E+04  0.40057553197E+04 0.  0.
        1    1    3    3  502    0  0.93583525453E+03 -0.14890732210E+04  0.11398660002E+04  0.20958103873E+04  0.50400001928E-02 0. -1.
       -1    1    3    3    0  502 -0.93583525453E+03  0.14890732210E+04 -0.78432449285E+03  0.19256924965E+04  0.50400001928E-02 0.  1.
</event>
<event>
 5   0  0.6599276E-09  0.4000427E+04  0.7818609E-02  0.8004460E-01
        2   -1    0    0  501    0  0.00000000000E+00  0.00000000000E+00  0.26515377758E+04  0.26515377758E+04  0.25500000920E-02 0. -1.
       -2   -1    0    0    0  501  0.00000000000E+00  0.00000000000E+00 -0.15088806330E+04  0.15088806330E+04  0.25500000920E-02 0.  1.
    10030    2    1    2    0    0  0.00000000000E+00  0.00000000000E+00  0.11426571427E+04  0.41604184088E+04  0.40004269760E+04 0.  0.
        2    1    3    3  502    0 -0.44355318253E+03 -0.10482794754E+04  0.22818650301E+04  0.25500073137E+04  0.25500000920E-02 0. -1.
       -2    1    3    3    0  502  0.44355318253E+03  0.10482794754E+04 -0.11392078874E+04  0.16104110951E+04  0.25500000920E-02 0.  1.
</event>
<event>
 5   0  0.6645526E-09  0.4002172E+04  0.7818609E-02  0.8004109E-01
       -2   -1    0    0    0  501  0.00000000000E+00  0.00000000000E+00  0.24307307835E+04  0.24307307835E+04  0.25500000920E-02 0. -1.
        2   -1    0    0  501    0  0.00000000000E+00  0.00000000000E+00 -0.16473831308E+04  0.16473831308E+04  0.25500000920E-02 0.  1.
    10030    2    1    2    0    0  0.00000000000E+00  0.00000000000E+00  0.78334765262E+03  0.40781139143E+04  0.40021718545E+04 0.  0.
        3    1    3    3  502    0 -0.97579106585E+03  0.13946376202E+04  0.14638578195E+04  0.22450082454E+04  0.10100000352E+00 0. -1.
       -3    1    3    3    0  502  0.97579106585E+03 -0.13946376202E+04 -0.68051016689E+03  0.18331056689E+04  0.10100000352E+00 0.  1.
</event>
<event>
 5   0  0.2078125E-09  0.3998879E+04  0.7818609E-02  0.8004773E-01
        1   -1    0    0  501    0  0.00000000000E+00  0.00000000000E+00  0.20359494192E+04  0.20359494192E+04  0.50400001928E-02 0.  1.
       -1   -1    0    0    0  501  0.00000000000E+00  0.00000000000E+00 -0.19635841777E+04  0.19635841777E+04  0.50400001928E-02 0. -1.
    10030    2    1    2    0    0  0.00000000000E+00  0.00000000000E+00  0.72365241482E+02  0.39995335970E+04  0.39988788760E+04 0.  0.
        1    1    3    3  502    0  0.11681460124E+04 -0.16010547965E+04 -0.22808875887E+03  0.19949852254E+04  0.50400001928E-02 0.  1.
       -1    1    3    3    0  502 -0.11681460124E+04  0.16010547965E+04  0.30045400035E+03  0.20045483716E+04  0.50400001928E-02 0. -1.
</event>
<event>
 5   0  0.6547327E-09  0.3994498E+04  0.7818609E-02  0.8005657E-01
       -2   -1    0    0    0  501  0.00000000000E+00  0.00000000000E+00  0.21614180020E+04  0.21614180020E+04  0.25500000920E-02 0.  1.
        2   -1    0    0  501    0  0.00000000000E+00  0.00000000000E+00 -0.18455492886E+04  0.18455492886E+04  0.25500000920E-02 0. -1.
    10030    2    1    2    0    0  0.00000000000E+00  0.00000000000E+00  0.31586871335E+03  0.40069672906E+04  0.39944979440E+04 0.  0.
        5    1    3    3  502    0  0.12810525108E+04 -0.14974567083E+04 -0.16790147204E+03  0.19777980491E+04  0.46999998093E+01 0. -1.
       -5    1    3    3    0  502 -0.12810525108E+04  0.14974567083E+04  0.48377018538E+03  0.20291692416E+04  0.46999998093E+01 0.  1.
</event>
<event>
 5   0  0.2078125E-09  0.3996426E+04  0.7818609E-02  0.8005268E-01
       -1   -1    0    0    0  501  0.00000000000E+00  0.00000000000E+00  0.15147791510E+04  0.15147791510E+04  0.50400001928E-02 0. -1.
        1   -1    0    0  501    0  0.00000000000E+00  0.00000000000E+00 -0.26359324150E+04  0.26359324150E+04  0.50400001928E-02 0.  1.
    10030    2    1    2    0    0  0.00000000000E+00  0.00000000000E+00 -0.11211532640E+04  0.41507115660E+04  0.39964261363E+04 0.  0.
        1    1    3    3  502    0  0.11730006327E+04  0.14146442154E+04 -0.13755392968E+04  0.22954862443E+04  0.50400001928E-02 0.  1.
       -1    1    3    3    0  502 -0.11730006327E+04 -0.14146442154E+04  0.25438603282E+03  0.18552253217E+04  0.50400001928E-02 0. -1.
</event>
<event>
 5   0  0.2078125E-09  0.4003390E+04  0.7818609E-02  0.8003863E-01
        1   -1    0    0  501    0  0.00000000000E+00  0.00000000000E+00  0.27617153469E+04  0.27617153469E+04  0.50400001928E-02 0.  1.
       -1   -1    0    0    0  501  0.00000000000E+00  0.00000000000E+00 -0.14508308968E+04  0.14508308968E+04  0.50400001928E-02 0. -1.
    10030    2    1    2    0    0  0.00000000000E+00  0.00000000000E+00  0.13108844501E+04  0.42125462436E+04  0.40033895405E+04 0.  0.
        5    1    3    3  502    0 -0.14554007032E+04  0.11452970025E+04  0.14546382886E+04  0.23549715649E+04  0.46999998093E+01 0.  1.
       -5    1    3    3    0  502  0.14554007032E+04 -0.11452970025E+04 -0.14375383853E+03  0.18575746787E+04  0.46999998093E+01 0. -1.
</event>
<event>
 5   0  0.6599276E-09  0.4002621E+04  0.7818609E-02  0.8004018E-01
        2   -1    0    0  501    0  0.00000000000E+00  0.00000000000E+00  0.12420684913E+04  0.12420684913E+04  0.25500000920E-02 0. -1.
       -2   -1    0    0    0  501  0.00000000000E+00  0.00000000000E+00 -0.32246553439E+04  0.32246553439E+04  0.25500000920E-02 0.  1.
    10030    2    1    2    0    0  0.00000000000E+00  0.00000000000E+00 -0.19825868525E+04  0.44667238352E+04  0.40026205406E+04 0.  0.
        2    1    3    3  502    0  0.11256239421E+04 -0.15436260193E+04 -0.16566019670E+04  0.25286638020E+04  0.25500000920E-02 0. -1.
       -2    1    3    3    0  502 -0.11256239421E+04  0.15436260193E+04 -0.32598488550E+03  0.19380600332E+04  0.25500000920E-02 0.  1.
</event>
<event>
 5   0  0.2078125E-09  0.4000220E+04  0.7818609E-02  0.8004502E-01
        1   -1    0    0  501    0  0.00000000000E+00  0.00000000000E+00  0.25743002898E+04  0.25743002898E+04  0.50400001928E-02 0. -1.
       -1   -1    0    0    0  501  0.00000000000E+00  0.00000000000E+00 -0.15539914033E+04  0.15539914033E+04  0.50400001928E-02 0.  1.
    10030    2    1    2    0    0  0.00000000000E+00  0.00000000000E+00  0.10203088865E+04  0.41282916930E+04  0.40002202538E+04 0.  0.
        1    1    3    3  502    0 -0.78198179260E+03 -0.18050868369E+04  0.88312013036E+03  0.21563244601E+04  0.50400001928E-02 0. -1.
       -1    1    3    3    0  502  0.78198179260E+03  0.18050868369E+04  0.13718875613E+03  0.19719672329E+04  0.50400001928E-02 0.  1.
</event>
<event>
 5   0  0.2078125E-09  0.3999779E+04  0.7818609E-02  0.8004591E-01
       -1   -1    0    0    0  501  0.00000000000E+00  0.00000000000E+00  0.21199554983E+04  0.21199554983E+04  0.50400001928E-02 0.  1.
        1   -1    0    0  501    0  0.00000000000E+00  0.00000000000E+00 -0.18866238237E+04  0.18866238237E+04  0.50400001928E-02 0. -1.
    10030    2    1    2    0    0  0.00000000000E+00  0.00000000000E+00  0.23333167461E+03  0.40065793220E+04  0.39997792681E+04 0.  0.
        2    1    3    3  502    0 -0.48634275588E+03  0.14669692118E+04 -0.11547558513E+04  0.19292457128E+04  0.25500000920E-02 0. -1.
       -2    1    3    3    0  502  0.48634275588E+03 -0.14669692118E+04  0.13880875259E+04  0.20773336092E+04  0.25500000920E-02 0.  1.
</event>
<event>
 5   0  0.6547327E-09  0.4001763E+04  0.7818609E-02  0.8004191E-01
       -2   -1    0    0    0  501  0.00000000000E+00  0.00000000000E+00  0.22705341573E+04  0.22705341573E+04  0.25500000920E-02 0.  1.
        2   -1    0    0  501    0  0.00000000000E+00  0.00000000000E+00 -0.17632531873E+04  0.17632531873E+04  0.25500000920E-02 0. -1.
    10030    2    1    2    0    0  0.00000000000E+00  0.00000000000E+00  0.50728097007E+03  0.40337873446E+04  0.40017629064E+04 0.  0.
        5    1    3    3  502    0  0.18224708999E+03  0.19454002396E+04 -0.18074712095E+03  0.19622659621E+04  0.46999998093E+01 0. -1.
       -5    1    3    3    0  502 -0.18224708999E+03 -0.19454002396E+04  0.68802809102E+03  0.20715213825E+04  0.46999998093E+01 0.  1.
</event>
<event>
 5   0  0.6538370E-09  0.3997217E+04  0.7818609E-02  0.8005108E-01
       -2   -1    0    0    0  501  0.00000000000E+00  0.00000000000E+00  0.30802175466E+04  0.30802175466E+04  0.25500000920E-02 0. -1.
        2   -1    0    0  501    0  0.00000000000E+00  0.00000000000E+00 -0.12968032144E+04  0.12968032144E+04  0.25500000920E-02 0.  1.
    10030    2    1    2    0    0  0.00000000000E+00  0.00000000000E+00  0.17834143322E+04  0.43770207610E+04  0.39972170397E+04 0.  0.
        4    1    3    3  502    0  0.58283056562E+03 -0.46236535382E+03 -0.11395306118E+04  0.13608838366E+04  0.12699999809E+01 0.  1.
       -4    1    3    3    0  502 -0.58283056562E+03  0.46236535382E+03  0.29229449440E+04  0.30161369245E+04  0.12699999809E+01 0. -1.
</event>
<event>
 5   0  0.2078125E-09  0.4000938E+04  0.7818609E-02  0.8004357E-01
       -1   -1    0    0    0  501  0.00000000000E+00  0.00000000000E+00  0.15134139474E+04  0.15134139474E+04  0.50400001928E-02 0.  1.
        1   -1    0    0  501    0  0.00000000000E+00  0.00000000000E+00 -0.26442700861E+04  0.26442700862E+04  0.50400001928E-02 0. -1.
    10030    2    1    2    0    0  0.00000000000E+00  0.00000000000E+00 -0.11308561388E+04  0.41576840335E+04  0.40009375046E+04 0.  0.
        2    1    3    3  502    0  0.90261503108E+03  0.28921717221E+03  0.12652695709E+04  0.15809071934E+04  0.25500000920E-02 0.  1.
       -2    1    3    3    0  502 -0.90261503108E+03 -0.28921717221E+03 -0.23961257097E+04  0.25767768401E+04  0.25500000920E-02 0. -1.
</event>
<event>
 5   0  0.2078125E-09  0.4001045E+04  0.7818609E-02  0.8004336E-01
       -1   -1    0    0    0  501  0.00000000000E+00  0.00000000000E+00  0.28049767892E+04  0.28049767892E+04  0.50400001928E-02 0.  1.
        1   -1    0    0  501    0  0.00000000000E+00  0.00000000000E+00 -0.14267820026E+04  0.14267820026E+04  0.50400001928E-02 0. -1.
    10030    2    1    2    0    0  0.00000000000E+00  0.00000000000E+00  0.13781947866E+04  0.42317587918E+04  0.40010450638E+04 0.  0.
        5    1    3    3  502    0  0.62845826014E+03  0.40151413863E+03  0.26524507866E+04  0.27553022799E+04  0.46999998093E+01 0.  1.
       -5    1    3    3    0  502 -0.62845826014E+03 -0.40151413863E+03 -0.12742560000E+04  0.14764565120E+04  0.46999998093E+01 0. -1.
</event>
<event>
 5   0  0.2078125E-09  0.4001450E+04  0.7818609E-02  0.8004254E-01
        1   -1    0    0  501    0  0.00000000000E+00  0.00000000000E+00  0.17982038896E+04  0.17982038896E+04  0.50400001928E-02 0. -1.
       -1   -1    0    0    0  501  0.00000000000E+00  0.00000000000E+00 -0.22260546460E+04  0.22260546460E+04  0.50400001928E-02 0.  1.
    10030    2    1    2    0    0  0.00000000000E+00  0.00000000000E+00 -0.42785075641E+03  0.40242585357E+04  0.40014497988E+04 0.  0.
        2    1    3    3  502    0 -0.15229577119E+04  0.11031060667E+04 -0.90094218877E+03  0.20851714592E+04  0.25500000920E-02 0.  1.
       -2    1    3    3    0  502  0.15229577119E+04 -0.11031060667E+04  0.47309143236E+03  0.19390870765E+04  0.25500000920E-02 0. -1.
</event>
<event>
 5   0  0.6645526E-09  0.3999622E+04  0.7818609E-02  0.8004623E-01
        2   -1    0    0  501    0  0.00000000000E+00  0.00000000000E+00  0.13940866203E+04  0.13940866203E+04  0.25500000920E-02 0. -1.
       -2   -1    0    0    0  501  0.00000000000E+00  0.00000000000E+00 -0.28687198112E+04  0.28687198112E+04  0.25500000920E-02 0.  1.
    10030    2    1    2    0    0  0.00000000000E+00  0.00000000000E+00 -0.14746331909E+04  0.42628064315E+04  0.39996219353E+04 0.  0.
        3    1    3    3  502    0  0.18153152198E+04  0.83799103021E+03 -0.78055169420E+03  0.21463595392E+04  0.10100000352E+00 0.  1.
       -3    1    3    3    0  502 -0.18153152198E+04 -0.83799103021E+03 -0.69408149675E+03  0.21164468924E+04  0.10100000352E+00 0. -1.
</event>
<event>
 5   0  0.2078125E-09  0.3999583E+04  0.7818609E-02  0.8004631E-01
       -1   -1    0    0    0  501  0.00000000000E+00  0.00000000000E+00  0.20394649671E+04  0.20394649671E+04  0.50400001928E-02 0.  1.
        1   -1    0    0  501    0  0.00000000000E+00  0.00000000000E+00 -0.19608895907E+04  0.19608895907E+04  0.50400001928E-02 0. -1.
    10030    2    1    2    0    0  0.00000000000E+00  0.00000000000E+00  0.78575376442E+02  0.40003545578E+04  0.39995827906E+04 0.  0.
        4    1    3    3  502    0 -0.80083866372E+03  0.17153291349E+04  0.68397967651E+03  0.20128403854E+04  0.12699999809E+01 0. -1.
       -4    1    3    3    0  502  0.80083866372E+03 -0.17153291349E+04 -0.60540430006E+03  0.19875141724E+04  0.12699999809E+01 0.  1.
</event>
<event>
 5   0  0.2078125E-09  0.4002359E+04  0.7818609E-02  0.8004071E-01
        1   -1    0    0  501    0  0.00000000000E+00  0.00000000000E+00  0.14530841645E+04  0.14530841646E+04  0.50400001928E-02 0. -1.
       -1   -1    0    0    0  501  0.00000000000E+00  0.00000000000E+00 -0.27560140391E+04  0.27560140391E+04  0.50400001928E-02 0.  1.
    10030    2    1    2    0    0  0.00000000000E+00  0.00000000000E+00 -0.13029298746E+04  0.42090982037E+04  0.40023594829E+04 0.  0.
        3    1    3    3  502    0 -0.36856514455E+03  0.11055673611E+04 -0.23623356515E+04  0.26341505645E+04  0.10100000352E+00 0.  1.
       -3    1    3    3    0  502  0.36856514455E+03 -0.11055673611E+04  0.10594057770E+04  0.15749476392E+04  0.10100000352E+00 0. -1.
</event>
<event>
 5   0  0.6736335E-09  0.4000896E+04  0.7818609E-02  0.8004366E-01
       -2   -1    0    0    0  501  0.00000000000E+00  0.00000000000E+00  0.15290669066E+04  0.15290669066E+04  0.25500000920E-02 0. -1.
        2   -1    0    0  501    0  0.00000000000E+00  0.00000000000E+00 -0.26171471325E+04  0.26171471325E+04  0.25500000920E-02 0.  1.
    10030    2    1    2    0    0  0.00000000000E+00  0.00000000000E+00 -0.10880802259E+04  0.41462140391E+04  0.40008964345E+04 0.  0.
        1    1    3    3  502    0  0.93722845683E+03  0.49938028091E+03 -0.23009073358E+04  0.25341571406E+04  0.50400001928E-02 0.  1.
       -1    1    3    3    0  502 -0.93722845683E+03 -0.49938028091E+03  0.12128271099E+04  0.16120568984E+04  0.50400001928E-02 0. -1.
</event>
<event>
 5   0  0.2078125E-09  0.3995431E+04  0.7818609E-02  0.8005469E-01
        1   -1    0    0  501    0  0.00000000000E+00  0.00000000000E+00  0.18806647623E+04  0.18806647623E+04  0.50400001928E-02 0. -1.
       -1   -1    0    0    0  501  0.00000000000E+00  0.00000000000E+00 -0.21220512238E+04  0.21220512238E+04  0.50400001928E-02 0.  1.
    10030    2    1    2    0    0  0.00000000000E+00  0.00000000000E+00 -0.24138646153E+03  0.40027159862E+04  0.39954308706E+04 0.  0.
        1    1    3    3  502    0  0.88453879528E+03  0.35097428364E+03 -0.18803910840E+04  0.21074777477E+04  0.50400001928E-02 0.  1.
       -1    1    3    3    0  502 -0.88453879528E+03 -0.35097428364E+03  0.16390046225E+04  0.18952382385E+04  0.50400001928E-02 0. -1.
</event>
<event>
 5   0  0.6645526E-09  0.4000005E+04  0.7818609E-02  0.8004546E-01
        2   -1    0    0  501    0  0.00000000000E+00  0.00000000000E+00  0.31108171571E+04  0.31108171571E+04  0.25500000920E-02 0. -1.
       -2   -1    0    0    0  501  0.00000000000E+00  0.00000000000E+00 -0.12858387331E+04  0.12858387331E+04  0.25500000920E-02 0.  1.
    10030    2    1    2    0    0  0.00000000000E+00  0.00000000000E+00  0.18249784240E+04  0.43966558901E+04  0.40000045960E+04 0.  0.
        3    1    3    3  502    0  0.19062496398E+04 -0.34121998869E+03  0.36313827668E+03  0.19703015475E+04  0.10100000352E+00 0.  1.
       -3    1    3    3    0  502 -0.19062496398E+04  0.34121998869E+03  0.14618401473E+04  0.24263543427E+04  0.10100000352E+00 0. -1.
</event>
<event>
 5   0  0.6645526E-09  0.4000773E+04  0.7818609E-02  0.8004391E-01
       -2   -1    0    0    0  501  0.00000000000E+00  0.00000000000E+00  0.20198064047E+04  0.20198064047E+04  0.25500000920E-02 0.  1.
        2   -1    0    0  501    0  0.00000000000E+00  0.00000000000E+00 -0.19811528505E+04  0.19811528505E+04  0.25500000920E-02 0. -1.
    10030    2    1    2    0    0  0.00000000000E+00  0.00000000000E+00  0.38653554212E+02  0.40009592551E+04  0.40007725334E+04 0.  0.
        3    1    3    3  502    0 -0.50189394089E+03 -0.19070901095E+04  0.35498360758E+03  0.20037224323E+04  0.10100000352E+00 0. -1.
       -3    1    3    3    0  502  0.50189394089E+03  0.19070901095E+04 -0.31633005337E+03  0.19972368229E+04  0.10100000352E+00 0.  1.
</event>
<event>
 5   0  0.6538370E-09  0.3991239E+04  0.7818609E-02  0.8006316E-01
        2   -1    0    0  501    0  0.00000000000E+00  0.00000000000E+00  0.24561056779E+04  0.24561056779E+04  0.25500000920E-02 0. -1.
       -2   -1    0    0    0  501  0.00000000000E+00  0.00000000000E+00 -0.16214685001E+04  0.16214685001E+04  0.25500000920E-02 0.  1.
    10030    2    1    2    0    0  0.00000000000E+00  0.00000000000E+00  0.83463717773E+03  0.40775741780E+04  0.39912394013E+04 0.  0.
        4    1    3    3  502    0  0.16278155759E+04  0.11498531798E+04  0.52225602763E+03  0.20602666952E+04  0.12699999809E+01 0. -1.
       -4    1    3    3    0  502 -0.16278155759E+04 -0.11498531798E+04  0.31238115010E+03  0.20173074828E+04  0.12699999809E+01 0.  1.
</event>
<event>
 5   0  0.2078125E-09  0.3991172E+04  0.7818609E-02  0.8006330E-01
       -1   -1    0    0    0  501  0.00000000000E+00  0.00000000000E+00  0.15402798639E+04  0.15402798639E+04  0.50400001928E-02 0.  1.
        1   -1    0    0  501    0  0.00000000000E+00  0.00000000000E+00 -0.25854801778E+04  0.25854801778E+04  0.50400001928E-02 0. -1.
    10030    2    1    2    0    0  0.00000000000E+00  0.00000000000E+00 -0.10452003140E+04  0.41257600417E+04  0.39911717860E+04 0.  0.
        5    1    3    3  502    0  0.18940334793E+04 -0.61265689024E+03 -0.66743070011E+03  0.20995706979E+04  0.46999998093E+01 0.  1.
       -5    1    3    3    0  502 -0.18940334793E+04  0.61265689024E+03 -0.37776961385E+03  0.20261893438E+04  0.46999998093E+01 0. -1.
</event>
<event>
 5   0  0.6538370E-09  0.4002437E+04  0.7818609E-02  0.8004055E-01
       -2   -1    0    0    0  501  0.00000000000E+00  0.00000000000E+00  0.13110487802E+04  0.13110487802E+04  0.25500000920E-02 0.  1.
        2   -1    0    0  501    0  0.00000000000E+00  0.00000000000E+00 -0.30547115830E+04  0.30547115830E+04  0.25500000920E-02 0. -1.
    10030    2    1    2    0    0  0.00000000000E+00  0.00000000000E+00 -0.17436628028E+04  0.43657603632E+04  0.40024372049E+04 0.  0.
        4    1    3    3  502    0 -0.14950131738E+03 -0.18898585238E+04 -0.17257846847E+03  0.19036020657E+04  0.12699999809E+01 0.  1.
       -4    1    3    3    0  502  0.14950131738E+03  0.18898585238E+04 -0.15710843343E+04  0.24621582975E+04  0.12699999809E+01 0. -1.
</event>
<event>
 5   0  0.2078125E-09  0.3998801E+04  0.7818609E-02  0.8004788E-01
        1   -1    0    0  501    0  0.00000000000E+00  0.00000000000E+00  0.23513980276E+04  0.23513980277E+04  0.50400001928E-02 0.  1.
       -1   -1    0    0    0  501  0.00000000000E+00  0.00000000000E+00 -0.17000963987E+04  0.17000963988E+04  0.50400001928E-02 0. -1.
    10030    2    1    2    0    0  0.00000000000E+00  0.00000000000E+00  0.65130162890E+03  0.40514944264E+04  0.39988014799E+04 0.  0.
        5    1    3    3  502    0 -0.13977375300E+04 -0.29633919538E+03 -0.10913831963E+04  0.17979506369E+04  0.46999998093E+01 0. -1.
       -5    1    3    3    0  502  0.13977375300E+04  0.29633919538E+03  0.17426848252E+04  0.22535437895E+04  0.46999998093E+01 0.  1.
</event>
<event>
 5   0  0.6736335E-09  0.3999381E+04  0.7818609E-02  0.8004672E-01
        2   -1    0    0  501    0  0.00000000000E+00  0.00000000000E+00  0.13218025294E+04  0.13218025294E+04  0.25500000920E-02 0.  1.
       -2   -1    0    0    0  501  0.00000000000E+00  0.00000000000E+00 -0.30252335588E+04  0.30252335588E+04  0.25500000920E-02 0. -1.
    10030    2    1    2    0    0  0.00000000000E+00  0.00000000000E+00 -0.17034310295E+04  0.43470360882E+04  0.39993806371E+04 0.  0.
        1    1    3    3  502    0  0.58330381787E+03 -0.40847742355E+03 -0.28827474040E+04  0.29693988861E+04  0.50400001928E-02 0. -1.
       -1    1    3    3    0  502 -0.58330381787E+03  0.40847742355E+03  0.11793163745E+04  0.13776372021E+04  0.50400001928E-02 0.  1.
</event>
<event>
 5   0  0.2078125E-09  0.3999999E+04  0.7818609E-02  0.8004547E-01
        1   -1    0    0  501    0  0.00000000000E+00  0.00000000000E+00  0.14629695802E+04  0.14629695802E+04  0.50400001928E-02 0. -1.
       -1   -1    0    0    0  501  0.00000000000E+00  0.00000000000E+00 -0.27341639057E+04  0.27341639058E+04  0.50400001928E-02 0.  1.
    10030    2    1    2    0    0  0.00000000000E+00  0.00000000000E+00 -0.12711943256E+04  0.41971334859E+04  0.39999993107E+04 0.  0.
        2    1    3    3  502    0  0.65049198784E+03  0.13905392608E+04  0.70947604611E+03  0.16911816940E+04  0.25500000920E-02 0. -1.
       -2    1    3    3    0  502 -0.65049198784E+03 -0.13905392608E+04 -0.19806703717E+04  0.25059517919E+04  0.25500000920E-02 0.  1.
</event>
<event>
 5   0  0.6547327E-09  0.3999715E+04  0.7818609E-02  0.8004604E-01
        2   -1    0    0  501    0  0.00000000000E+00  0.00000000000E+00  0.33080492436E+04  0.33080492436E+04  0.25500000920E-02 0. -1.
       -2   -1    0    0    0  501  0.00000000000E+00  0.00000000000E+00 -0.12089998193E+04  0.12089998193E+04  0.25500000920E-02 0.  1.
    10030    2    1    2    0    0  0.00000000000E+00  0.00000000000E+00  0.20990494243E+04  0.45170490629E+04  0.39997154588E+04 0.  0.
        5    1    3    3  502    0  0.54789208608E+03  0.41578698388E+03  0.31702678351E+04  0.32440229330E+04  0.46999998093E+01 0. -1.
       -5    1    3    3    0  502 -0.54789208608E+03 -0.41578698388E+03 -0.10712184107E+04  0.12730261299E+04  0.46999998093E+01 0.  1.
</event>
<event>
 5   0  0.2078125E-09  0.3985638E+04  0.7818609E-02  0.8007450E-01
       -1   -1    0    0    0  501  0.00000000000E+00  0.00000000000E+00  0.26497098794E+04  0.26497098794E+04  0.50400001928E-02 0. -1.
        1   -1    0    0  501    0  0.00000000000E+00  0.00000000000E+00 -0.14987782110E+04  0.14987782110E+04  0.50400001928E-02 0.  1.
    10030    2    1    2    0    0  0.00000000000E+00  0.00000000000E+00  0.11509316684E+04  0.41484880904E+04  0.39856379327E+04 0.  0.
        3    1    3    3  502    0  0.10609158791E+04  0.12010922697E+04 -0.65748555631E+03  0.17321814021E+04  0.10100000352E+00 0.  1.
       -3    1    3    3    0  502 -0.10609158791E+04 -0.12010922697E+04  0.18084172247E+04  0.24163066883E+04  0.10100000352E+00 0. -1.
</event>
<event>
 5   0  0.2078125E-09  0.3994896E+04  0.7818609E-02  0.8005577E-01
       -1   -1    0    0    0  501  0.00000000000E+00  0.00000000000E+00  0.16837886371E+04  0.16837886371E+04  0.50400001928E-02 0. -1.
        1   -1    0    0  501    0  0.00000000000E+00  0.00000000000E+00 -0.23695364395E+04  0.23695364395E+04  0.50400001928E-02 0.  1.
    10030    2    1    2    0    0  0.00000000000E+00  0.00000000000E+00 -0.68574780243E+03  0.40533250766E+04  0.39948960097E+04 0.  0.
        3    1    3    3  502    0 -0.10383465096E+04  0.14085714402E+04  0.63431229750E+03  0.18613406666E+04  0.10100000352E+00 0. -1.
       -3    1    3    3    0  502  0.10383465096E+04 -0.14085714402E+04 -0.13200600999E+04  0.21919844100E+04  0.10100000352E+00 0.  1.
</event>
<event>
 5   0  0.2078125E-09  0.3996579E+04  0.7818609E-02  0.8005237E-01
       -1   -1    0    0    0  501  0.00000000000E+00  0.00000000000E+00  0.12853884262E+04  0.12853884262E+04  0.50400001928E-02 0. -1.
        1   -1    0    0  501    0  0.00000000000E+00  0.00000000000E+00 -0.31065799320E+04  0.31065799320E+04  0.50400001928E-02 0.  1.
    10030    2    1    2    0    0  0.00000000000E+00  0.00000000000E+00 -0.18211915058E+04  0.43919683582E+04  0.39965794823E+04 0.  0.
        3    1    3    3  502    0  0.72099894977E+03 -0.78870058992E+03 -0.27662207224E+04  0.29654451945E+04  0.10100000352E+00 0.  1.
       -3    1    3    3    0  502 -0.72099894977E+03  0.78870058992E+03  0.94502921661E+03  0.14265231637E+04  0.10100000352E+00 0. -1.
</event>
<event>
 5   0  0.2078125E-09  0.4002149E+04  0.7818609E-02  0.8004113E-01
       -1   -1    0    0    0  501  0.00000000000E+00  0.00000000000E+00  0.19669133773E+04  0.19669133773E+04  0.50400001928E-02 0. -1.
        1   -1    0    0  501    0  0.00000000000E+00  0.00000000000E+00 -0.20358287276E+04  0.20358287276E+04  0.50400001928E-02 0.  1.
    10030    2    1    2    0    0  0.00000000000E+00  0.00000000000E+00 -0.68915350275E+02  0.40027421049E+04  0.40021488020E+04 0.  0.
        2    1    3    3  502    0  0.17298885786E+04  0.88672396561E+03 -0.50940160675E+03  0.20095481787E+04  0.25500000920E-02 0.  1.
       -2    1    3    3    0  502 -0.17298885786E+04 -0.88672396561E+03  0.44048625648E+03  0.19931939262E+04  0.25500000920E-02 0. -1.
</event>
<event>
 5   0  0.2078125E-09  0.4000598E+04  0.7818609E-02  0.8004426E-01
        1   -1    0    0  501    0  0.00000000000E+00  0.00000000000E+00  0.25501209346E+04  0.25501209346E+04  0.50400001928E-02 0.  1.
       -1   -1    0    0    0  501  0.00000000000E+00  0.00000000000E+00 -0.15690219180E+04  0.15690219180E+04  0.50400001928E-02 0. -1.
    10030    2    1    2    0    0  0.00000000000E+00  0.00000000000E+00  0.98109901656E+03  0.41191428526E+04  0.40005977754E+04 0.  0.
        5    1    3    3  502    0  0.83730681422E+03  0.50383102177E+03 -0.13065179912E+04  0.16315452035E+04  0.46999998093E+01 0. -1.
       -5    1    3    3    0  502 -0.83730681422E+03 -0.50383102177E+03  0.22876170078E+04  0.24875976491E+04  0.46999998093E+01 0.  1.
</event>
<event>
 5   0  0.6547327E-09  0.3992261E+04  0.7818609E-02  0.8006110E-01
        2   -1    0    0  501    0  0.00000000000E+00  0.00000000000E+00  0.17953836527E+04  0.17953836527E+04  0.25500000920E-02 0.  1.
       -2   -1    0    0    0  501  0.00000000000E+00  0.00000000000E+00 -0.22193231156E+04  0.22193231156E+04  0.25500000920E-02 0. -1.
    10030    2    1    2    0    0  0.00000000000E+00  0.00000000000E+00 -0.42393946290E+03  0.40147067683E+04  0.39922607339E+04 0.  0.
        5    1    3    3  502    0  0.19153165525E+04 -0.55355680804E+03 -0.11317422478E+03  0.19969209126E+04  0.46999998093E+01 0. -1.
       -5    1    3    3    0  502 -0.19153165525E+04  0.55355680804E+03 -0.31076523812E+03  0.20177858557E+04  0.46999998093E+01 0.  1.
</event>
<event>
 5   0  0.6736335E-09  0.3999694E+04  0.7818609E-02  0.8004608E-01
        2   -1    0    0  501    0  0.00000000000E+00  0.00000000000E+00  0.14542920306E+04  0.14542920307E+04  0.25500000920E-02 0. -1.
       -2   -1    0    0    0  501  0.00000000000E+00  0.00000000000E+00 -0.27500587154E+04  0.27500587154E+04  0.25500000920E-02 0.  1.
    10030    2    1    2    0    0  0.00000000000E+00  0.00000000000E+00 -0.12957666847E+04  0.42043507460E+04  0.39996942251E+04 0.  0.
        1    1    3    3  502    0 -0.16607995393E+04 -0.97486746180E+03 -0.12147025440E+04  0.22768671345E+04  0.50400001928E-02 0.  1.
       -1    1    3    3    0  502  0.16607995393E+04  0.97486746180E+03 -0.81064140714E+02  0.19274836115E+04  0.50400001928E-02 0. -1.
</event>
<event>
 5   0  0.2078125E-09  0.3999746E+04  0.7818609E-02  0.8004598E-01
       -1   -1    0    0    0  501  0.00000000000E+00  0.00000000000E+00  0.19288279951E+04  0.19288279951E+04  0.50400001928E-02 0. -1.
        1   -1    0    0  501    0  0.00000000000E+00  0.00000000000E+00 -0.20735345464E+04  0.20735345464E+04  0.50400001928E-02 0.  1.
    10030    2    1    2    0    0  0.00000000000E+00  0.00000000000E+00 -0.14470655130E+03  0.40023625415E+04  0.39997457329E+04 0.  0.
        1    1    3    3  502    0 -0.17643556444E+04  0.91599435742E+03 -0.29042928503E+03  0.20090658706E+04  0.50400001928E-02 0.  1.
       -1    1    3    3    0  502  0.17643556444E+04 -0.91599435742E+03  0.14572273373E+03  0.19932966709E+04  0.50400001928E-02 0. -1.
</event>
<event>
 5   0  0.6538370E-09  0.4000756E+04  0.7818609E-02  0.8004394E-01
       -2   -1    0    0    0  501  0.00000000000E+00  0.00000000000E+00  0.21621743437E+04  0.21621743437E+04  0.25500000920E-02 0.  1.
        2   -1    0    0  501    0  0.00000000000E+00  0.00000000000E+00 -0.18506891666E+04  0.18506891666E+04  0.25500000920E-02 0. -1.
    10030    2    1    2    0    0  0.00000000000E+00  0.00000000000E+00  0.31148517710E+03  0.40128635102E+04  0.40007562455E+04 0.  0.
        4    1    3    3  502    0 -0.19700257313E+04 -0.34692278045E+03  0.16819884213E+03  0.20073986303E+04  0.12699999809E+01 0.  1.
       -4    1    3    3    0  502  0.19700257313E+04  0.34692278045E+03  0.14328633497E+03  0.20054648799E+04  0.12699999809E+01 0. -1.
</event>
<event>
 5   0  0.6645526E-09  0.3998862E+04  0.7818609E-02  0.8004776E-01
        2   -1    0    0  501    0  0.00000000000E+00  0.00000000000E+00  0.24374253661E+04  0.24374253661E+04  0.25500000920E-02 0.  1.
       -2   -1    0    0    0  501  0.00000000000E+00  0.00000000000E+00 -0.16401423713E+04  0.16401423713E+04  0.25500000920E-02 0. -1.
    10030    2    1    2    0    0  0.00000000000E+00  0.00000000000E+00  0.79728299479E+03  0.40775677374E+04  0.39988621480E+04 0.  0.
        3    1    3    3  502    0  0.97332098044E+03 -0.10854627638E+04  0.17938338358E+04  0.23115845179E+04  0.10100000352E+00 0.  1.
       -3    1    3    3    0  502 -0.97332098044E+03  0.10854627638E+04 -0.99655084104E+03  0.17659832195E+04  0.10100000352E+00 0. -1.
</event>
<event>
 5   0  0.2078125E-09  0.4003373E+04  0.7818609E-02  0.8003867E-01
       -1   -1    0    0    0  501  0.00000000000E+00  0.00000000000E+00  0.24135175267E+04  0.24135175267E+04  0.50400001928E-02 0.  1.
        1   -1    0    0  501    0  0.00000000000E+00  0.00000000000E+00 -0.16601281389E+04  0.16601281389E+04  0.50400001928E-02 0. -1.
    10030    2    1    2    0    0  0.00000000000E+00  0.00000000000E+00  0.75338938779E+03  0.40736456657E+04  0.40033727580E+04 0.  0.
        3    1    3    3  502    0 -0.14194427021E+04 -0.95223982028E+03  0.14366953361E+04  0.22328617867E+04  0.10100000352E+00 0.  1.
       -3    1    3    3    0  502  0.14194427021E+04  0.95223982028E+03 -0.68330594827E+03  0.18407838789E+04  0.10100000352E+00 0. -1.
</event>
<event>
 5   0  0.2078125E-09  0.4001734E+04  0.7818609E-02  0.8004197E-01
        3   -1    0    0  501    0  0.00000000000E+00  0.00000000000E+00  0.17561176884E+04  0.17561176913E+04  0.10100000352E+00 0. -1.
       -3   -1    0    0    0  501  0.00000000000E+00  0.00000000000E+00 -0.22797273030E+04  0.22797273052E+04  0.10100000352E+00 0.  1.
    10030    2    1    2    0    0  0.00000000000E+00  0.00000000000E+00 -0.52360961460E+03  0.40358449965E+04  0.40017343499E+04 0.  0.
        2    1    3    3  502    0 -0.22865717816E+03  0.16811784022E+04  0.80781296823E+03  0.18791505306E+04  0.25500000920E-02 0. -1.
       -2    1    3    3    0  502  0.22865717816E+03 -0.16811784022E+04 -0.13314225828E+04  0.21566944659E+04  0.25500000920E-02 0.  1.
</event>
<event>
 5   0  0.2078125E-09  0.3999651E+04  0.7818609E-02  0.8004617E-01
        1   -1    0    0  501    0  0.00000000000E+00  0.00000000000E+00  0.21261336281E+04  0.21261336281E+04  0.50400001928E-02 0.  1.
       -1   -1    0    0    0  501  0.00000000000E+00  0.00000000000E+00 -0.18810209856E+04  0.18810209856E+04  0.50400001928E-02 0. -1.
    10030    2    1    2    0    0  0.00000000000E+00  0.00000000000E+00  0.24511264246E+03  0.40071546137E+04  0.39996509711E+04 0.  0.
        4    1    3    3  502    0  0.77001741682E+02 -0.51469515800E+03 -0.18119882880E+04  0.18852436295E+04  0.12699999809E+01 0. -1.
       -4    1    3    3    0  502 -0.77001741682E+02  0.51469515800E+03  0.20571009305E+04  0.21219109842E+04  0.12699999809E+01 0.  1.
</event>
<event>
 5   0  0.6645526E-09  0.3999630E+04  0.7818609E-02  0.8004621E-01
       -2   -1    0    0    0  501  0.00000000000E+00  0.00000000000E+00  0.25658913846E+04  0.25658913846E+04  0.25500000920E-02 0.  1.
        2   -1    0    0  501    0  0.00000000000E+00  0.00000000000E+00 -0.15586243072E+04  0.15586243072E+04  0.25500000920E-02 0. -1.
    10030    2    1    2    0    0  0.00000000000E+00  0.00000000000E+00  0.10072670775E+04  0.41245156918E+04  0.39996303237E+04 0.  0.
        3    1    3    3  502    0 -0.13384069938E+04 -0.11492349832E+04 -0.46768243724E+03  0.18250482733E+04  0.10100000352E+00 0. -1.
       -3    1    3    3    0  502  0.13384069938E+04  0.11492349832E+04  0.14749495147E+04  0.22994674185E+04  0.10100000352E+00 0.  1.
</event>
<event>
 5   0  0.6599276E-09  0.4000139E+04  0.7818609E-02  0.8004519E-01
        2   -1    0    0  501    0  0.00000000000E+00  0.00000000000E+00  0.21267064746E+04  0.21267064746E+04  0.25500000920E-02 0.  1.
       -2   -1    0    0    0  501  0.00000000000E+00  0.00000000000E+00 -0.18809731662E+04  0.18809731662E+04  0.25500000920E-02 0. -1.
    10030    2    1    2    0    0  0.00000000000E+00  0.00000000000E+00  0.24573330841E+03  0.40076796408E+04  0.40001389031E+04 0.  0.
        2    1    3    3  502    0 -0.15463208299E+04  0.95611632378E+03  0.95811159156E+03  0.20550533704E+04  0.25500000920E-02 0.  1.
       -2    1    3    3    0  502  0.15463208299E+04 -0.95611632378E+03 -0.71237828315E+03  0.19526262704E+04  0.25500000920E-02 0. -1.
</event>
<event>
 5   0  0.6645526E-09  0.3998868E+04  0.7818609E-02  0.8004775E-01
        2   -1    0    0  501    0  0.00000000000E+00  0.00000000000E+00  0.17191681058E+04  0.17191681058E+04  0.25500000920E-02 0.  1.
       -2   -1    0    0    0  501  0.00000000000E+00  0.00000000000E+00 -0.23253897598E+04  0.23253897598E+04  0.25500000920E-02 0. -1.
    10030    2    1    2    0    0  0.00000000000E+00  0.00000000000E+00 -0.60622165399E+03  0.40445578656E+04  0.39988677940E+04 0.  0.
        3    1    3    3  502    0  0.17510421062E+03 -0.33352501453E+02  0.17111155676E+04  0.17203750666E+04  0.10100000352E+00 0.  1.
       -3    1    3    3    0  502 -0.17510421062E+03  0.33352501453E+02 -0.23173372216E+04  0.23241827989E+04  0.10100000352E+00 0. -1.
</event>
<event>
 5   0  0.6599276E-09  0.3997995E+04  0.7818609E-02  0.8004951E-01
        2   -1    0    0  501    0  0.00000000000E+00  0.00000000000E+00  0.20566696131E+04  0.20566696131E+04  0.25500000920E-02 0. -1.
       -2   -1    0    0    0  501  0.00000000000E+00  0.00000000000E+00 -0.19429426891E+04  0.19429426891E+04  0.25500000920E-02 0.  1.
    10030    2    1    2    0    0  0.00000000000E+00  0.00000000000E+00  0.11372692397E+03  0.39996123022E+04  0.39979950919E+04 0.  0.
        2    1    3    3  502    0 -0.16913336720E+04 -0.99664958734E+03 -0.32021233828E+03  0.19890841942E+04  0.25500000920E-02 0.  1.
       -2    1    3    3    0  502  0.16913336720E+04  0.99664958734E+03  0.43393926224E+03  0.20105281080E+04  0.25500000920E-02 0. -1.
</event>
<event>
 5   0  0.6645526E-09  0.4000723E+04  0.7818609E-02  0.8004401E-01
        2   -1    0    0  501    0  0.00000000000E+00  0.00000000000E+00  0.13259824900E+04  0.13259824900E+04  0.25500000920E-02 0. -1.
       -2   -1    0    0    0  501  0.00000000000E+00  0.00000000000E+00 -0.30177218334E+04  0.30177218334E+04  0.25500000920E-02 0.  1.
    10030    2    1    2    0    0  0.00000000000E+00  0.00000000000E+00 -0.16917393435E+04  0.43437043234E+04  0.40007230900E+04 0.  0.
        3    1    3    3  502    0  0.30467444705E+03 -0.75843756906E+03 -0.28281495480E+04  0.29438892542E+04  0.10100000352E+00 0.  1.
       -3    1    3    3    0  502 -0.30467444705E+03  0.75843756906E+03  0.11364102045E+04  0.13998150692E+04  0.10100000352E+00 0. -1.
</event>
<event>
 5   0  0.6547327E-09  0.3999787E+04  0.7818609E-02  0.8004590E-01
       -2   -1    0    0    0  501  0.00000000000E+00  0.00000000000E+00  0.14029841496E+04  0.14029841496E+04  0.25500000920E-02 0.  1.
        2   -1    0    0  501    0  0.00000000000E+00  0.00000000000E+00 -0.28507620040E+04  0.28507620040E+04  0.25500000920E-02 0. -1.
    10030    2    1    2    0    0  0.00000000000E+00  0.00000000000E+00 -0.14477778544E+04  0.42537461536E+04  0.39997869473E+04 0.  0.
        5    1    3    3  502    0  0.17942348082E+03  0.11360058773E+04  0.10161008723E+04  0.15346612693E+04  0.46999998093E+01 0.  1.
       -5    1    3    3    0  502 -0.17942348082E+03 -0.11360058773E+04 -0.24638787267E+04  0.27190848844E+04  0.46999998093E+01 0. -1.
</event>
<event>
 5   0  0.6538370E-09  0.3999052E+04  0.7818609E-02  0.8004738E-01
       -2   -1    0    0    0  501  0.00000000000E+00  0.00000000000E+00  0.24647581364E+04  0.24647581364E+04  0.25500000920E-02 0. -1.
        2   -1    0    0  501    0  0.00000000000E+00  0.00000000000E+00 -0.16221082363E+04  0.16221082363E+04  0.25500000920E-02 0.  1.
    10030    2    1    2    0    0  0.00000000000E+00  0.00000000000E+00  0.84264990014E+03  0.40868663727E+04  0.39990521245E+04 0.  0.
        4    1    3    3  502    0 -0.28792462558E+03 -0.16187979562E+04  0.15841575094E+04  0.22831916347E+04  0.12699999809E+01 0. -1.
       -4    1    3    3    0  502  0.28792462558E+03  0.16187979562E+04 -0.74150760925E+03  0.18036747380E+04  0.12699999809E+01 0.  1.
</event>
<event>
 5   0  0.6538370E-09  0.4000828E+04  0.7818609E-02  0.8004380E-01
        2   -1    0    0  501    0  0.00000000000E+00  0.00000000000E+00  0.28385172726E+04  0.28385172726E+04  0.25500000920E-02 0.  1.
       -2   -1    0    0    0  501  0.00000000000E+00  0.00000000000E+00 -0.14097697878E+04  0.14097697878E+04  0.25500000920E-02 0. -1.
    10030    2    1    2    0    0  0.00000000000E+00  0.00000000000E+00  0.14287474848E+04  0.42482870603E+04  0.40008278608E+04 0.  0.
        4    1    3    3  502    0 -0.18680167488E+04 -0.45782423101E+03  0.12984547751E+04  0.23205766559E+04  0.12699999809E+01 0.  1.
       -4    1    3    3    0  502  0.18680167488E+04  0.45782423101E+03  0.13029270963E+03  0.19277104044E+04  0.12699999809E+01 0. -1.
</event>
<event>
 5   0  0.2078125E-09  0.3999746E+04  0.7818609E-02  0.8004598E-01
       -1   -1    0    0    0  501  0.00000000000E+00  0.00000000000E+00  0.13955837479E+04  0.13955837479E+04  0.50400001928E-02 0.  1.
        1   -1    0    0  501    0  0.00000000000E+00  0.00000000000E+00 -0.28658200346E+04  0.28658200346E+04  0.50400001928E-02 0. -1.
    10030    2    1    2    0    0  0.00000000000E+00  0.00000000000E+00 -0.14702362867E+04  0.42614037825E+04  0.39997459243E+04 0.  0.
        1    1    3    3  502    0 -0.15785655124E+04  0.44759593508E+02  0.57218973583E+03  0.16796647261E+04  0.50400001928E-02 0.  1.
       -1    1    3    3    0  502  0.15785655124E+04 -0.44759593508E+02 -0.20424260225E+04  0.25817390564E+04  0.50400001928E-02 0. -1.
</event>
<event>
 5   0  0.6599276E-09  0.3986397E+04  0.7818609E-02  0.8007296E-01
       -2   -1    0    0    0  501  0.00000000000E+00  0.00000000000E+00  0.25870273920E+04  0.25870273920E+04  0.25500000920E-02 0.  1.
        2   -1    0    0  501    0  0.00000000000E+00  0.00000000000E+00 -0.15356780394E+04  0.15356780394E+04  0.25500000920E-02 0. -1.
    10030    2    1    2    0    0  0.00000000000E+00  0.00000000000E+00  0.10513493526E+04  0.41227054313E+04  0.39863974479E+04 0.  0.
        2    1    3    3  502    0 -0.50542518567E+02  0.51277388916E+03  0.25169599267E+04  0.25691591777E+04  0.25500000920E-02 0.  1.
       -2    1    3    3    0  502  0.50542518567E+02 -0.51277388916E+03 -0.14656105741E+04  0.15535462537E+04  0.25500000920E-02 0. -1.
</event>
<event>
 5   0  0.2078125E-09  0.4000710E+04  0.7818609E-02  0.8004403E-01
        3   -1    0    0  501    0  0.00000000000E+00  0.00000000000E+00  0.31991753266E+04  0.31991753282E+04  0.10100000352E+00 0.  1.
       -3   -1    0    0    0  501  0.00000000000E+00  0.00000000000E+00 -0.12507659985E+04  0.12507660025E+04  0.10100000352E+00 0. -1.
    10030    2    1    2    0    0  0.00000000000E+00  0.00000000000E+00  0.19484093281E+04  0.44499413307E+04  0.40007098041E+04 0.  0.
        2    1    3    3  502    0 -0.14709805933E+04 -0.95298163240E+03  0.20465459226E+04  0.26944958918E+04  0.25500000920E-02 0.  1.
       -2    1    3    3    0  502  0.14709805933E+04  0.95298163240E+03 -0.98136594533E+02  0.17554454389E+04  0.25500000920E-02 0. -1.
</event>
<event>
 5   0  0.2078125E-09  0.3999772E+04  0.7818609E-02  0.8004593E-01
        1   -1    0    0  501    0  0.00000000000E+00  0.00000000000E+00  0.18622061395E+04  0.18622061395E+04  0.50400001928E-02 0. -1.
       -1   -1    0    0    0  501  0.00000000000E+00  0.00000000000E+00 -0.21477449791E+04  0.21477449792E+04  0.50400001928E-02 0.  1.
    10030    2    1    2    0    0  0.00000000000E+00  0.00000000000E+00 -0.28553883962E+03  0.40099511187E+04  0.39997719367E+04 0.  0.
        1    1    3    3  502    0  0.73884954274E+03 -0.14681800697E+04 -0.12850076027E+04  0.20863115546E+04  0.50400001928E-02 0.  1.
       -1    1    3    3    0  502 -0.73884954274E+03  0.14681800697E+04  0.99946876311E+03  0.19236395640E+04  0.50400001928E-02 0. -1.
</event>
<event>
 5   0  0.2078125E-09  0.4002221E+04  0.7818609E-02  0.8004099E-01
        1   -1    0    0  501    0  0.00000000000E+00  0.00000000000E+00  0.17742674483E+04  0.17742674483E+04  0.50400001928E-02 0. -1.
       -1   -1    0    0    0  501  0.00000000000E+00  0.00000000000E+00 -0.22569562402E+04  0.22569562402E+04  0.50400001928E-02 0.  1.
    10030    2    1    2    0    0  0.00000000000E+00  0.00000000000E+00 -0.48268879191E+03  0.40312236884E+04  0.40022213777E+04 0.  0.
        5    1    3    3  502    0 -0.11092075910E+04  0.10479232414E+04  0.10626168171E+04  0.18594787414E+04  0.46999998093E+01 0. -1.
       -5    1    3    3    0  502  0.11092075910E+04 -0.10479232414E+04 -0.15453056090E+04  0.21717449470E+04  0.46999998093E+01 0.  1.
</event>
<event>
 5   0  0.6736335E-09  0.4000007E+04  0.7818609E-02  0.8004545E-01
        2   -1    0    0  501    0  0.00000000000E+00  0.00000000000E+00  0.12440506993E+04  0.12440506993E+04  0.25500000920E-02 0. -1.
       -2   -1    0    0    0  501  0.00000000000E+00  0.00000000000E+00 -0.32153149623E+04  0.32153149623E+04  0.25500000920E-02 0.  1.
    10030    2    1    2    0    0  0.00000000000E+00  0.00000000000E+00 -0.19712642629E+04  0.44593656616E+04  0.40000074137E+04 0.  0.
        1    1    3    3  502    0  0.19355496782E+04  0.32721289101E+01 -0.15471079553E+04  0.24778834293E+04  0.50400001928E-02 0.  1.
       -1    1    3    3    0  502 -0.19355496782E+04 -0.32721289101E+01 -0.42415630757E+03  0.19814822323E+04  0.50400001928E-02 0. -1.
</event>
<event>
 5   0  0.6645526E-09  0.4000533E+04  0.7818609E-02  0.8004439E-01
        2   -1    0    0  501    0  0.00000000000E+00  0.00000000000E+00  0.17322384979E+04  0.17322384979E+04  0.25500000920E-02 0.  1.
       -2   -1    0    0    0  501  0.00000000000E+00  0.00000000000E+00 -0.23097657615E+04  0.23097657615E+04  0.25500000920E-02 0. -1.
    10030    2    1    2    0    0  0.00000000000E+00  0.00000000000E+00 -0.57752726368E+03  0.40420042594E+04  0.40005325511E+04 0.  0.
        3    1    3    3  502    0 -0.10932581300E+04 -0.15021925172E+04 -0.10375737199E+04  0.21279931701E+04  0.10100000352E+00 0.  1.
       -3    1    3    3    0  502  0.10932581300E+04  0.15021925172E+04  0.46004645623E+03  0.19140110893E+04  0.10100000352E+00 0. -1.
</event>
<event>
 5   0  0.6547327E-09  0.4001934E+04  0.7818609E-02  0.8004156E-01
       -2   -1    0    0    0  501  0.00000000000E+00  0.00000000000E+00  0.13711911653E+04  0.13711911653E+04  0.25500000920E-02 0. -1.
        2   -1    0    0  501    0  0.00000000000E+00  0.00000000000E+00 -0.29199937775E+04  0.29199937775E+04  0.25500000920E-02 0.  1.
    10030    2    1    2    0    0  0.00000000000E+00  0.00000000000E+00 -0.15488026123E+04  0.42911849428E+04  0.40019343675E+04 0.  0.
        5    1    3    3  502    0  0.90836279580E+03 -0.77773027759E+03 -0.24946837210E+04  0.27664880826E+04  0.46999998093E+01 0.  1.
       -5    1    3    3    0  502 -0.90836279580E+03  0.77773027759E+03  0.94588110877E+03  0.15246968602E+04  0.46999998093E+01 0. -1.
</event>
<event>
 5   0  0.2078125E-09  0.3999707E+04  0.7818609E-02  0.8004606E-01
       -3   -1    0    0    0  501  0.00000000000E+00  0.00000000000E+00  0.17979676564E+04  0.17979676593E+04  0.10100000352E+00 0.  1.
        3   -1    0    0  501    0  0.00000000000E+00  0.00000000000E+00 -0.22244079001E+04  0.22244079024E+04  0.10100000352E+00 0. -1.
    10030    2    1    2    0    0  0.00000000000E+00  0.00000000000E+00 -0.42644024364E+03  0.40223755616E+04  0.39997067239E+04 0.  0.
        4    1    3    3  502    0 -0.13633585237E+04 -0.47979978224E+02 -0.16838223404E+04  0.21670966359E+04  0.12699999809E+01 0. -1.
       -4    1    3    3    0  502  0.13633585237E+04  0.47979978224E+02  0.12573820967E+04  0.18552789258E+04  0.12699999809E+01 0.  1.
</event>
<event>
 5   0  0.6645526E-09  0.3999820E+04  0.7818609E-02  0.8004583E-01
       -2   -1    0    0    0  501  0.00000000000E+00  0.00000000000E+00  0.18640034296E+04  0.18640034296E+04  0.25500000920E-02 0.  1.
        2   -1    0    0  501    0  0.00000000000E+00  0.00000000000E+00 -0.21457256757E+04  0.21457256757E+04  0.25500000920E-02 0. -1.
    10030    2    1    2    0    0  0.00000000000E+00  0.00000000000E+00 -0.28172224609E+03  0.40097291054E+04  0.39998200053E+04 0.  0.
        3    1    3    3  502    0 -0.68256356282E+03  0.73480495992E+03 -0.18754102514E+04  0.21267334031E+04  0.10100000352E+00 0. -1.
       -3    1    3    3    0  502  0.68256356282E+03 -0.73480495992E+03  0.15936880053E+04  0.18829957023E+04  0.10100000352E+00 0.  1.
</event>
<event>
 5   0  0.6538370E-09  0.4000138E+04  0.7818609E-02  0.8004519E-01
        2   -1    0    0  501    0  0.00000000000E+00  0.00000000000E+00  0.25566202884E+04  0.25566202884E+04  0.25500000920E-02 0. -1.
       -2   -1    0    0    0  501  0.00000000000E+00  0.00000000000E+00 -0.15646735160E+04  0.15646735160E+04  0.25500000920E-02 0.  1.
    10030    2    1    2    0    0  0.00000000000E+00  0.00000000000E+00  0.99194677238E+03  0.41212938045E+04  0.40001380256E+04 0.  0.
        4    1    3    3  502    0 -0.13475092309E+03 -0.17915411283E+04  0.14015120640E+04  0.22785993733E+04  0.12699999809E+01 0. -1.
       -4    1    3    3    0  502  0.13475092309E+03  0.17915411283E+04 -0.40956529158E+03  0.18426944312E+04  0.12699999809E+01 0.  1.
</event>
<event>
 5   0  0.6547327E-09  0.4001147E+04  0.7818609E-02  0.8004315E-01
       -2   -1    0    0    0  501  0.00000000000E+00  0.00000000000E+00  0.25355560614E+04  0.25355560614E+04  0.25500000920E-02 0. -1.
        2   -1    0    0  501    0  0.00000000000E+00  0.00000000000E+00 -0.15784678729E+04  0.15784678729E+04  0.25500000920E-02 0.  1.
    10030    2    1    2    0    0  0.00000000000E+00  0.00000000000E+00  0.95708818850E+03  0.41140239342E+04  0.40011467270E+04 0.  0.
        5    1    3    3  502    0 -0.25550149637E+02  0.65453292709E+03  0.24221639849E+04  0.25091764829E+04  0.46999998093E+01 0. -1.
       -5    1    3    3    0  502  0.25550149637E+02 -0.65453292709E+03 -0.14650757964E+04  0.16048474513E+04  0.46999998093E+01 0.  1.
</event>
<event>
 5   0  0.2078125E-09  0.3999955E+04  0.7818609E-02  0.8004556E-01
        1   -1    0    0  501    0  0.00000000000E+00  0.00000000000E+00  0.12984898494E+04  0.12984898494E+04  0.50400001928E-02 0. -1.
       -1   -1    0    0    0  501  0.00000000000E+00  0.00000000000E+00 -0.30804319512E+04  0.30804319512E+04  0.50400001928E-02 0.  1.
    10030    2    1    2    0    0  0.00000000000E+00  0.00000000000E+00 -0.17819421018E+04  0.43789218006E+04  0.39999548099E+04 0.  0.
        5    1    3    3  502    0 -0.35944909746E+03 -0.13430883156E+04 -0.24648128833E+04  0.28299142243E+04  0.46999998093E+01 0.  1.
       -5    1    3    3    0  502  0.35944909746E+03  0.13430883156E+04  0.68287078144E+03  0.15490075763E+04  0.46999998093E+01 0. -1.
</event>
<event>
 5   0  0.6645526E-09  0.3999896E+04  0.7818609E-02  0.8004568E-01
        2   -1    0    0  501    0  0.00000000000E+00  0.00000000000E+00  0.21274324658E+04  0.21274324658E+04  0.25500000920E-02 0. -1.
       -2   -1    0    0    0  501  0.00000000000E+00  0.00000000000E+00 -0.18801030055E+04  0.18801030055E+04  0.25500000920E-02 0.  1.
    10030    2    1    2    0    0  0.00000000000E+00  0.00000000000E+00  0.24732946028E+03  0.40075354713E+04  0.39998960852E+04 0.  0.
        3    1    3    3  502    0 -0.13204223506E+04 -0.86312335122E+03  0.13553600681E+04  0.20797831684E+04  0.10100000352E+00 0. -1.
       -3    1    3    3    0  502  0.13204223506E+04  0.86312335122E+03 -0.11080306078E+04  0.19277523029E+04  0.10100000352E+00 0.  1.
</event>
<event>
 5   0  0.6736335E-09  0.3998884E+04  0.7818609E-02  0.8004772E-01
        2   -1    0    0  501    0  0.00000000000E+00  0.00000000000E+00  0.25009104646E+04  0.25009104646E+04  0.25500000920E-02 0. -1.
       -2   -1    0    0    0  501  0.00000000000E+00  0.00000000000E+00 -0.15985253940E+04  0.15985253940E+04  0.25500000920E-02 0.  1.
    10030    2    1    2    0    0  0.00000000000E+00  0.00000000000E+00  0.90238507064E+03  0.40994358586E+04  0.39988842873E+04 0.  0.
        1    1    3    3  502    0 -0.45545692605E+03  0.11389329808E+04 -0.11674848282E+04  0.16934078570E+04  0.50400001928E-02 0.  1.
       -1    1    3    3    0  502  0.45545692605E+03 -0.11389329808E+04  0.20698698988E+04  0.24060280016E+04  0.50400001928E-02 0. -1.
</event>
<event>
 5   0  0.6538370E-09  0.4000134E+04  0.7818609E-02  0.8004519E-01
        2   -1    0    0  501    0  0.00000000000E+00  0.00000000000E+00  0.26704122306E+04  0.26704122306E+04  0.25500000920E-02 0.  1.
       -2   -1    0    0    0  501  0.00000000000E+00  0.00000000000E+00 -0.14979965616E+04  0.14979965616E+04  0.25500000920E-02 0. -1.
    10030    2    1    2    0    0  0.00000000000E+00  0.00000000000E+00  0.11724156690E+04  0.41684087923E+04  0.40001341676E+04 0.  0.
        4    1    3    3  502    0 -0.16890403664E+04  0.58387193143E+02 -0.52836592677E+03  0.17707169703E+04  0.12699999809E+01 0. -1.
       -4    1    3    3    0  502  0.16890403664E+04 -0.58387193143E+02  0.17007815958E+04  0.23976918219E+04  0.12699999809E+01 0.  1.
</event>
<event>
 5   0  0.6736335E-09  0.4003718E+04  0.7818609E-02  0.8003797E-01
        2   -1    0    0  501    0  0.00000000000E+00  0.00000000000E+00  0.20529068880E+04  0.20529068880E+04  0.25500000920E-02 0.  1.
       -2   -1    0    0    0  501  0.00000000000E+00  0.00000000000E+00 -0.19520808989E+04  0.19520808989E+04  0.25500000920E-02 0. -1.
    10030    2    1    2    0    0  0.00000000000E+00  0.00000000000E+00  0.10082598916E+03  0.40049877869E+04  0.40037184333E+04 0.  0.
        1    1    3    3  502    0  0.12985826449E+03  0.15365034024E+04  0.13274282672E+04  0.20346428874E+04  0.50400001928E-02 0.  1.
       -1    1    3    3    0  502 -0.12985826449E+03 -0.15365034024E+04 -0.12266022781E+04  0.19703448995E+04  0.50400001928E-02 0. -1.
</event>
<event>
 5   0  0.6645526E-09  0.3998638E+04  0.7818609E-02  0.8004821E-01
       -2   -1    0    0    0  501  0.00000000000E+00  0.00000000000E+00  0.22997591157E+04  0.22997591157E+04  0.25500000920E-02 0.  1.
        2   -1    0    0  501    0  0.00000000000E+00  0.00000000000E+00 -0.17381282109E+04  0.17381282109E+04  0.25500000920E-02 0. -1.
    10030    2    1    2    0    0  0.00000000000E+00  0.00000000000E+00  0.56163090477E+03  0.40378873267E+04  0.39986378668E+04 0.  0.
        3    1    3    3  502    0 -0.12756777833E+04 -0.10208250905E+03  0.18319599426E+04  0.22346927947E+04  0.10100000352E+00 0.  1.
       -3    1    3    3    0  502  0.12756777833E+04  0.10208250905E+03 -0.12703290378E+04  0.18031945319E+04  0.10100000352E+00 0. -1.
</event>
<event>
 5   0  0.6599276E-09  0.3999656E+04  0.7818609E-02  0.8004616E-01
       -2   -1    0    0    0  501  0.00000000000E+00  0.00000000000E+00  0.21474748861E+04  0.21474748861E+04  0.25500000920E-02 0. -1.
        2   -1    0    0  501    0  0.00000000000E+00  0.00000000000E+00 -0.18623321732E+04  0.18623321732E+04  0.25500000920E-02 0.  1.
    10030    2    1    2    0    0  0.00000000000E+00  0.00000000000E+00  0.28514271293E+03  0.40098070593E+04  0.39996557709E+04 0.  0.
        2    1    3    3  502    0 -0.73735191903E+03 -0.14924131592E+04 -0.96854055487E+03  0.19258908839E+04  0.25500000920E-02 0.  1.
       -2    1    3    3    0  502  0.73735191903E+03  0.14924131592E+04  0.12536832678E+04  0.20839161754E+04  0.25500000920E-02 0. -1.
</event>
<event>
 5   0  0.6736335E-09  0.4000064E+04  0.7818609E-02  0.8004534E-01
        2   -1    0    0  501    0  0.00000000000E+00  0.00000000000E+00  0.19791695630E+04  0.19791695630E+04  0.25500000920E-02 0. -1.
       -2   -1    0    0    0  501  0.00000000000E+00  0.00000000000E+00 -0.20211140050E+04  0.20211140050E+04  0.25500000920E-02 0.  1.
    10030    2    1    2    0    0  0.00000000000E+00  0.00000000000E+00 -0.41944441969E+02  0.40002835680E+04  0.40000636606E+04 0.  0.
        1    1    3    3  502    0  0.96124284509E+03  0.15521108951E+04 -0.83777368655E+03  0.20087062473E+04  0.50400001928E-02 0.  1.
       -1    1    3    3    0  502 -0.96124284509E+03 -0.15521108951E+04  0.79582924458E+03  0.19915773208E+04  0.50400001928E-02 0. -1.
</event>
<event>
 5   0  0.6599276E-09  0.4001191E+04  0.7818609E-02  0.8004306E-01
        2   -1    0    0  501    0  0.00000000000E+00  0.00000000000E+00  0.22682088089E+04  0.22682088089E+04  0.25500000920E-02 0.  1.
       -2   -1    0    0    0  501  0.00000000000E+00  0.00000000000E+00 -0.17645565138E+04  0.17645565138E+04  0.25500000920E-02 0. -1.
    10030    2    1    2    0    0  0.00000000000E+00  0.00000000000E+00  0.50365229509E+03  0.40327653227E+04  0.40011911369E+04 0.  0.
        2    1    3    3  502    0 -0.19352297715E+04 -0.36341672119E+03  0.60844968225E+03  0.20609213953E+04  0.25500000920E-02 0. -1.
       -2    1    3    3    0  502  0.19352297715E+04  0.36341672119E+03 -0.10479738716E+03  0.19718439274E+04  0.25500000920E-02 0.  1.
</event>
<event>
 5   0  0.2078125E-09  0.3999605E+04  0.7818609E-02  0.8004626E-01
       -1   -1    0    0    0  501  0.00000000000E+00  0.00000000000E+00  0.25451400043E+04  0.25451400043E+04  0.50400001928E-02 0. -1.
        1   -1    0    0  501    0  0.00000000000E+00  0.00000000000E+00 -0.15713123328E+04  0.15713123328E+04  0.50400001928E-02 0.  1.
    10030    2    1    2    0    0  0.00000000000E+00  0.00000000000E+00  0.97382767148E+03  0.41164523372E+04  0.39996049193E+04 0.  0.
        1    1    3    3  502    0  0.98448692445E+03  0.11752659486E+04 -0.83463368934E+03  0.17455881386E+04  0.50400001928E-02 0. -1.
       -1    1    3    3    0  502 -0.98448692445E+03 -0.11752659486E+04  0.18084613608E+04  0.23708641985E+04  0.50400001928E-02 0.  1.
</event>
<event>
 5   0  0.2078125E-09  0.4000941E+04  0.7818609E-02  0.8004357E-01
        1   -1    0    0  501    0  0.00000000000E+00  0.00000000000E+00  0.20273177693E+04  0.20273177693E+04  0.50400001928E-02 0. -1.
       -1   -1    0    0    0  501  0.00000000000E+00  0.00000000000E+00 -0.19739787813E+04  0.19739787813E+04  0.50400001928E-02 0.  1.
    10030    2    1    2    0    0  0.00000000000E+00  0.00000000000E+00  0.53338988057E+02  0.40012965506E+04  0.40009410191E+04 0.  0.
        2    1    3    3  502    0 -0.17148071039E+04 -0.89862963310E+03  0.53048368983E+03  0.20073643332E+04  0.25500000920E-02 0. -1.
       -2    1    3    3    0  502  0.17148071039E+04  0.89862963310E+03 -0.47714470177E+03  0.19939322174E+04  0.25500000920E-02 0.  1.
</event>
<event>
 5   0  0.2078125E-09  0.3999904E+04  0.7818609E-02  0.8004566E-01
        1   -1    0    0  501    0  0.00000000000E+00  0.00000000000E+00  0.23286547438E+04  0.23286547438E+04  0.50400001928E-02 0. -1.
       -1   -1    0    0    0  501  0.00000000000E+00  0.00000000000E+00 -0.17176471816E+04  0.17176471816E+04  0.50400001928E-02 0.  1.
    10030    2    1    2    0    0  0.00000000000E+00  0.00000000000E+00  0.61100756222E+03  0.40463019253E+04  0.39999036276E+04 0.  0.
        4    1    3    3  502    0 -0.26690602661E+03  0.17833838774E+04  0.11804696839E+04  0.21552742676E+04  0.12699999809E+01 0. -1.
       -4    1    3    3    0  502  0.26690602661E+03 -0.17833838774E+04 -0.56946212173E+03  0.18910276577E+04  0.12699999809E+01 0.  1.
</event>
<event>
 5   0  0.6645526E-09  0.3998924E+04  0.7818609E-02  0.8004764E-01
       -2   -1    0    0    0  501  0.00000000000E+00  0.00000000000E+00  0.23497669304E+04  0.23497669304E+04  0.25500000920E-02 0. -1.
        2   -1    0    0  501    0  0.00000000000E+00  0.00000000000E+00 -0.17013806090E+04  0.17013806090E+04  0.25500000920E-02 0.  1.
    10030    2    1    2    0    0  0.00000000000E+00  0.00000000000E+00  0.64838632136E+03  0.40511475393E+04  0.39989238007E+04 0.  0.
        3    1    3    3  502    0 -0.10430043026E+04  0.15299921711E+04 -0.44005519553E+03  0.19032557905E+04  0.10100000352E+00 0.  1.
       -3    1    3    3    0  502  0.10430043026E+04 -0.15299921711E+04  0.10884415169E+04  0.21478917488E+04  0.10100000352E+00 0. -1.
</event>
<event>
 5   0  0.6645526E-09  0.4001843E+04  0.7818609E-02  0.8004175E-01
       -2   -1    0    0    0  501  0.00000000000E+00  0.00000000000E+00  0.15632366009E+04  0.15632366009E+04  0.25500000920E-02 0.  1.
        2   -1    0    0  501    0  0.00000000000E+00  0.00000000000E+00 -0.25611527650E+04  0.25611527650E+04  0.25500000920E-02 0. -1.
    10030    2    1    2    0    0  0.00000000000E+00  0.00000000000E+00 -0.99791616410E+03  0.41243893660E+04  0.40018434467E+04 0.  0.
        3    1    3    3  502    0  0.19957567420E+04  0.11251750867E+03 -0.59103927129E+03  0.20844741767E+04  0.10100000352E+00 0.  1.
       -3    1    3    3    0  502 -0.19957567420E+04 -0.11251750867E+03 -0.40687689281E+03  0.20399151892E+04  0.10100000352E+00 0. -1.
</event>
<event>
 5   0  0.2078125E-09  0.4000407E+04  0.7818609E-02  0.8004464E-01
       -1   -1    0    0    0  501  0.00000000000E+00  0.00000000000E+00  0.16386267294E+04  0.16386267294E+04  0.50400001928E-02 0.  1.
        1   -1    0    0  501    0  0.00000000000E+00  0.00000000000E+00 -0.24415655408E+04  0.24415655408E+04  0.50400001928E-02 0. -1.
    10030    2    1    2    0    0  0.00000000000E+00  0.00000000000E+00 -0.80293881138E+03  0.40801922703E+04  0.40004072577E+04 0.  0.
        3    1    3    3  502    0 -0.12981428048E+04  0.52462876232E+03  0.10554467361E+04  0.17533904023E+04  0.10100000352E+00 0.  1.
       -3    1    3    3    0  502  0.12981428048E+04 -0.52462876232E+03 -0.18583855474E+04  0.23268018680E+04  0.10100000352E+00 0. -1.
</event>
<event>
 5   0  0.2078125E-09  0.4000106E+04  0.7818609E-02  0.8004525E-01
       -1   -1    0    0    0  501  0.00000000000E+00  0.00000000000E+00  0.19621656768E+04  0.19621656768E+04  0.50400001928E-02 0. -1.
        1   -1    0    0  501    0  0.00000000000E+00  0.00000000000E+00 -0.20386718221E+04  0.20386718221E+04  0.50400001928E-02 0.  1.
    10030    2    1    2    0    0  0.00000000000E+00  0.00000000000E+00 -0.76506145310E+02  0.40008374989E+04  0.40001059364E+04 0.  0.
        4    1    3    3  502    0 -0.80960863220E+03  0.11510264695E+04 -0.14597385896E+04  0.20276011525E+04  0.12699999809E+01 0.  1.
       -4    1    3    3    0  502  0.80960863220E+03 -0.11510264695E+04  0.13832324443E+04  0.19732363464E+04  0.12699999809E+01 0. -1.
</event>
<event>
 5   0  0.2078125E-09  0.3998776E+04  0.7818609E-02  0.8004794E-01
        3   -1    0    0  501    0  0.00000000000E+00  0.00000000000E+00  0.22283543246E+04  0.22283543269E+04  0.10100000352E+00 0. -1.
       -3   -1    0    0    0  501  0.00000000000E+00  0.00000000000E+00 -0.17939481424E+04  0.17939481453E+04  0.10100000352E+00 0.  1.
    10030    2    1    2    0    0  0.00000000000E+00  0.00000000000E+00  0.43440618213E+03  0.40223024722E+04  0.39987758685E+04 0.  0.
        5    1    3    3  502    0  0.10256592610E+04  0.11467187567E+04 -0.10672550135E+04  0.18724305543E+04  0.46999998093E+01 0.  1.
       -5    1    3    3    0  502 -0.10256592610E+04 -0.11467187567E+04  0.15016611956E+04  0.21498719179E+04  0.46999998093E+01 0. -1.
</event>
<event>
 5   0  0.6538370E-09  0.4001889E+04  0.7818609E-02  0.8004166E-01
        2   -1    0    0  501    0  0.00000000000E+00  0.00000000000E+00  0.13764758514E+04  0.13764758514E+04  0.25500000920E-02 0.  1.
       -2   -1    0    0    0  501  0.00000000000E+00  0.00000000000E+00 -0.29087174215E+04  0.29087174215E+04  0.25500000920E-02 0. -1.
    10030    2    1    2    0    0  0.00000000000E+00  0.00000000000E+00 -0.15322415700E+04  0.42851932729E+04  0.40018891985E+04 0.  0.
        4    1    3    3  502    0 -0.14206589417E+04  0.13252819529E+04 -0.25355485301E+03  0.19593202290E+04  0.12699999809E+01 0.  1.
       -4    1    3    3    0  502  0.14206589417E+04 -0.13252819529E+04 -0.12786867170E+04  0.23258730439E+04  0.12699999809E+01 0. -1.
</event>
<event>
 5   0  0.6538370E-09  0.3998871E+04  0.7818609E-02  0.8004774E-01
        2   -1    0    0  501    0  0.00000000000E+00  0.00000000000E+00  0.15825849231E+04  0.15825849231E+04  0.25500000920E-02 0. -1.
       -2   -1    0    0    0  501  0.00000000000E+00  0.00000000000E+00 -0.25260843759E+04  0.25260843759E+04  0.25500000920E-02 0.  1.
    10030    2    1    2    0    0  0.00000000000E+00  0.00000000000E+00 -0.94349945283E+03  0.41086692990E+04  0.39988713647E+04 0.  0.
        4    1    3    3  502    0  0.35971758648E+03  0.16558250752E+04 -0.15623015692E+04  0.23047648964E+04  0.12699999809E+01 0. -1.
       -4    1    3    3    0  502 -0.35971758648E+03 -0.16558250752E+04  0.61880211635E+03  0.18039044026E+04  0.12699999809E+01 0.  1.
</event>
<event>
 5   0  0.6645526E-09  0.4000237E+04  0.7818609E-02  0.8004499E-01
       -2   -1    0    0    0  501  0.00000000000E+00  0.00000000000E+00  0.12983990772E+04  0.12983990772E+04  0.25500000920E-02 0.  1.
        2   -1    0    0  501    0  0.00000000000E+00  0.00000000000E+00 -0.30810823605E+04  0.30810823605E+04  0.25500000920E-02 0. -1.
    10030    2    1    2    0    0  0.00000000000E+00  0.00000000000E+00 -0.17826832833E+04  0.43794814377E+04  0.40002372398E+04 0.  0.
        3    1    3    3  502    0  0.12560320247E+04  0.88841328908E+03 -0.22906296978E+04  0.27593258311E+04  0.10100000352E+00 0. -1.
       -3    1    3    3    0  502 -0.12560320247E+04 -0.88841328908E+03  0.50794641458E+03  0.16201556066E+04  0.10100000352E+00 0.  1.
</event>
<event>
 5   0  0.2078125E-09  0.3998898E+04  0.7818609E-02  0.8004769E-01
       -1   -1    0    0    0  501  0.00000000000E+00  0.00000000000E+00  0.26607091336E+04  0.26607091336E+04  0.50400001928E-02 0.  1.
        1   -1    0    0  501    0  0.00000000000E+00  0.00000000000E+00 -0.15025303977E+04  0.15025303977E+04  0.50400001928E-02 0. -1.
    10030    2    1    2    0    0  0.00000000000E+00  0.00000000000E+00  0.11581787359E+04  0.41632395313E+04  0.39988980245E+04 0.  0.
        1    1    3    3  502    0 -0.13748145851E+04 -0.85644863366E+03  0.17995180301E+04  0.24211329055E+04  0.50400001928E-02 0.  1.
       -1    1    3    3    0  502  0.13748145851E+04  0.85644863366E+03 -0.64133929414E+03  0.17421066258E+04  0.50400001928E-02 0. -1.
</event>
<event>
 5   0  0.6538370E-09  0.3999404E+04  0.7818609E-02  0.8004667E-01
        2   -1    0    0  501    0  0.00000000000E+00  0.00000000000E+00  0.15902550069E+04  0.15902550069E+04  0.25500000920E-02 0. -1.
       -2   -1    0    0    0  501  0.00000000000E+00  0.00000000000E+00 -0.25145702424E+04  0.25145702424E+04  0.25500000920E-02 0.  1.
    10030    2    1    2    0    0  0.00000000000E+00  0.00000000000E+00 -0.92431523557E+03  0.41048252493E+04  0.39994039147E+04 0.  0.
        4    1    3    3  502    0  0.32009225811E+03 -0.12891825980E+04  0.10720196395E+04  0.17069500710E+04  0.12699999809E+01 0. -1.
       -4    1    3    3    0  502 -0.32009225811E+03  0.12891825980E+04 -0.19963348750E+04  0.23978751783E+04  0.12699999809E+01 0.  1.
</event>
<event>
 5   0  0.2078125E-09  0.4006659E+04  0.7818609E-02  0.8003205E-01
       -1   -1    0    0    0  501  0.00000000000E+00  0.00000000000E+00  0.17322865494E+04  0.17322865494E+04  0.50400001928E-02 0.  1.
        1   -1    0    0  501    0  0.00000000000E+00  0.00000000000E+00 -0.23167816995E+04  0.23167816996E+04  0.50400001928E-02 0. -1.
    10030    2    1    2    0    0  0.00000000000E+00  0.00000000000E+00 -0.58449515013E+03  0.40490682490E+04  0.40066593447E+04 0.  0.
        4    1    3    3  502    0  0.23577249430E+03 -0.16830655021E+04 -0.13641487116E+04  0.21792662696E+04  0.12699999809E+01 0.  1.
       -4    1    3    3    0  502 -0.23577249430E+03  0.16830655021E+04  0.77965356149E+03  0.18698019794E+04  0.12699999809E+01 0. -1.
</event>
<event>
 5   0  0.6736335E-09  0.3998281E+04  0.7818609E-02  0.8004893E-01
       -2   -1    0    0    0  501  0.00000000000E+00  0.00000000000E+00  0.23223952491E+04  0.23223952491E+04  0.25500000920E-02 0.  1.
        2   -1    0    0  501    0  0.00000000000E+00  0.00000000000E+00 -0.17208798416E+04  0.17208798416E+04  0.25500000920E-02 0. -1.
    10030    2    1    2    0    0  0.00000000000E+00  0.00000000000E+00  0.60151540748E+03  0.40432750907E+04  0.39982812150E+04 0.  0.
        1    1    3    3  502    0  0.15820216797E+04 -0.34293401527E+03  0.14870603450E+04  0.21981230183E+04  0.50400001928E-02 0.  1.
       -1    1    3    3    0  502 -0.15820216797E+04  0.34293401527E+03 -0.88554493752E+03  0.18451520724E+04  0.50400001928E-02 0. -1.
</event>
<event>
 5   0  0.6547327E-09  0.3999568E+04  0.7818609E-02  0.8004634E-01
        2   -1    0    0  501    0  0.00000000000E+00  0.00000000000E+00  0.24199531531E+04  0.24199531531E+04  0.25500000920E-02 0. -1.
       -2   -1    0    0    0  501  0.00000000000E+00  0.00000000000E+00 -0.16525671919E+04  0.16525671919E+04  0.25500000920E-02 0.  1.
    10030    2    1    2    0    0  0.00000000000E+00  0.00000000000E+00  0.76738596118E+03  0.40725203450E+04  0.39995675700E+04 0.  0.
        5    1    3    3  502    0 -0.14493063742E+04  0.13776903819E+04  0.35889005520E+03  0.20315865515E+04  0.46999998093E+01 0.  1.
       -5    1    3    3    0  502  0.14493063742E+04 -0.13776903819E+04  0.40849590598E+03  0.20409337935E+04  0.46999998093E+01 0. -1.
</event>
<event>
 5   0  0.2078125E-09  0.4001980E+04  0.7818609E-02  0.8004147E-01
       -1   -1    0    0    0  501  0.00000000000E+00  0.00000000000E+00  0.31997901287E+04  0.31997901287E+04  0.50400001928E-02 0.  1.
        1   -1    0    0  501    0  0.00000000000E+00  0.00000000000E+00 -0.12513199279E+04  0.12513199280E+04  0.50400001928E-02 0. -1.
    10030    2    1    2    0    0  0.00000000000E+00  0.00000000000E+00  0.19484702007E+04  0.44511100566E+04  0.40019800866E+04 0.  0.
        1    1    3    3  502    0 -0.94251211601E+03 -0.14990369218E+04  0.20107687706E+04  0.26792968911E+04  0.50400001928E-02 0.  1.
       -1    1    3    3    0  502  0.94251211601E+03  0.14990369218E+04 -0.62298569880E+02  0.17718131655E+04  0.50400001928E-02 0. -1.
</event>
<event>
 5   0  0.2078125E-09  0.3999256E+04  0.7818609E-02  0.8004697E-01
        1   -1    0    0  501    0  0.00000000000E+00  0.00000000000E+00  0.31872040540E+04  0.31872040540E+04  0.50400001928E-02 0. -1.
       -1   -1    0    0    0  501  0.00000000000E+00  0.00000000000E+00 -0.12545519306E+04  0.12545519306E+04  0.50400001928E-02 0.  1.
    10030    2    1    2    0    0  0.00000000000E+00  0.00000000000E+00  0.19326521234E+04  0.44417559846E+04  0.39992564304E+04 0.  0.
        1    1    3    3  502    0  0.10455260512E+04 -0.47596784377E+03 -0.85148635660E+03  0.14299297632E+04  0.50400001928E-02 0.  1.
       -1    1    3    3    0  502 -0.10455260512E+04  0.47596784377E+03  0.27841384800E+04  0.30118262214E+04  0.50400001928E-02 0. -1.
</event>
<event>
 5   0  0.2078125E-09  0.4001964E+04  0.7818609E-02  0.8004150E-01
        1   -1    0    0  501    0  0.00000000000E+00  0.00000000000E+00  0.33223108999E+04  0.33223108999E+04  0.50400001928E-02 0. -1.
       -1   -1    0    0    0  501  0.00000000000E+00  0.00000000000E+00 -0.12051641371E+04  0.12051641371E+04  0.50400001928E-02 0.  1.
    10030    2    1    2    0    0  0.00000000000E+00  0.00000000000E+00  0.21171467628E+04  0.45274750370E+04  0.40019644920E+04 0.  0.
        4    1    3    3  502    0 -0.92981965228E+03  0.17214378348E+04  0.58393994614E+03  0.20417884999E+04  0.12699999809E+01 0.  1.
       -4    1    3    3    0  502  0.92981965228E+03 -0.17214378348E+04  0.15332068167E+04  0.24856865370E+04  0.12699999809E+01 0. -1.
</event>
<event>
 5   0  0.6538370E-09  0.4003725E+04  0.7818609E-02  0.8003795E-01
        2   -1    0    0  501    0  0.00000000000E+00  0.00000000000E+00  0.18756333380E+04  0.18756333380E+04  0.25500000920E-02 0.  1.
       -2   -1    0    0    0  501  0.00000000000E+00  0.00000000000E+00 -0.21365873418E+04  0.21365873418E+04  0.25500000920E-02 0. -1.
    10030    2    1    2    0    0  0.00000000000E+00  0.00000000000E+00 -0.26095400383E+03  0.40122206798E+04  0.40037254890E+04 0.  0.
        4    1    3    3  502    0 -0.35833280677E+03 -0.90576113155E+03  0.16221327049E+04  0.18921209668E+04  0.12699999809E+01 0.  1.
       -4    1    3    3    0  502  0.35833280677E+03  0.90576113155E+03 -0.18830867087E+04  0.21200997130E+04  0.12699999809E+01 0. -1.
</event>
<event>
 5   0  0.2078125E-09  0.3999504E+04  0.7818609E-02  0.8004647E-01
        1   -1    0    0  501    0  0.00000000000E+00  0.00000000000E+00  0.25022954743E+04  0.25022954743E+04  0.50400001928E-02 0. -1.
       -1   -1    0    0    0  501  0.00000000000E+00  0.00000000000E+00 -0.15981361111E+04  0.15981361111E+04  0.50400001928E-02 0.  1.
    10030    2    1    2    0    0  0.00000000000E+00  0.00000000000E+00  0.90415936319E+03  0.41004315853E+04  0.39995043483E+04 0.  0.
        1    1    3    3  502    0 -0.35123348978E+03  0.72209038448E+03 -0.14255924872E+04  0.16361825776E+04  0.50400001928E-02 0.  1.
       -1    1    3    3    0  502  0.35123348978E+03 -0.72209038448E+03  0.23297518504E+04  0.24642490077E+04  0.50400001928E-02 0. -1.
</event>
<event>
 5   0  0.6736335E-09  0.3998854E+04  0.7818609E-02  0.8004778E-01
        2   -1    0    0  501    0  0.00000000000E+00  0.00000000000E+00  0.14291670263E+04  0.14291670263E+04  0.25500000920E-02 0. -1.
       -2   -1    0    0    0  501  0.00000000000E+00  0.00000000000E+00 -0.27972291414E+04  0.27972291414E+04  0.25500000920E-02 0.  1.
    10030    2    1    2    0    0  0.00000000000E+00  0.00000000000E+00 -0.13680621151E+04  0.42263961677E+04  0.39988536627E+04 0.  0.
        1    1    3    3  502    0 -0.73563113205E+03  0.20097771614E+03 -0.26374884795E+04  0.27455219329E+04  0.50400001928E-02 0.  1.
       -1    1    3    3    0  502  0.73563113205E+03 -0.20097771614E+03  0.12694263643E+04  0.14808742348E+04  0.50400001928E-02 0. -1.
</event>
<event>
 5   0  0.6645526E-09  0.4011240E+04  0.7818609E-02  0.8002283E-01
       -2   -1    0    0    0  501  0.00000000000E+00  0.00000000000E+00  0.18097228573E+04  0.18097228573E+04  0.25500000920E-02 0. -1.
        2   -1    0    0  501    0  0.00000000000E+00  0.00000000000E+00 -0.22227226675E+04  0.22227226675E+04  0.25500000920E-02 0.  1.
    10030    2    1    2    0    0  0.00000000000E+00  0.00000000000E+00 -0.41299981020E+03  0.40324455247E+04  0.40112402155E+04 0.  0.
        3    1    3    3  502    0  0.72757260273E+03 -0.28395475294E+03  0.16505664810E+04  0.18260235246E+04  0.10100000352E+00 0. -1.
       -3    1    3    3    0  502 -0.72757260273E+03  0.28395475294E+03 -0.20635662912E+04  0.22064220001E+04  0.10100000352E+00 0.  1.
</event>
<event>
 5   0  0.2078125E-09  0.4002350E+04  0.7818609E-02  0.8004073E-01
       -1   -1    0    0    0  501  0.00000000000E+00  0.00000000000E+00  0.15436375647E+04  0.15436375647E+04  0.50400001928E-02 0.  1.
        1   -1    0    0  501    0  0.00000000000E+00  0.00000000000E+00 -0.25943273373E+04  0.25943273373E+04  0.50400001928E-02 0. -1.
    10030    2    1    2    0    0  0.00000000000E+00  0.00000000000E+00 -0.10506897726E+04  0.41379649021E+04  0.40023498763E+04 0.  0.
        1    1    3    3  502    0  0.11314745347E+04  0.14986703063E+03  0.11741307271E+04  0.16374607519E+04  0.50400001928E-02 0.  1.
       -1    1    3    3    0  502 -0.11314745347E+04 -0.14986703063E+03 -0.22248204997E+04  0.25005041502E+04  0.50400001928E-02 0. -1.
</event>
<event>
 5   0  0.6547327E-09  0.4006135E+04  0.7818609E-02  0.8003310E-01
       -2   -1    0    0    0  501  0.00000000000E+00  0.00000000000E+00  0.20736626326E+04  0.20736626326E+04  0.25500000920E-02 0. -1.
        2   -1    0    0  501    0  0.00000000000E+00  0.00000000000E+00 -0.19348757118E+04  0.19348757118E+04  0.25500000920E-02 0.  1.
    10030    2    1    2    0    0  0.00000000000E+00  0.00000000000E+00  0.13878692076E+03  0.40085383443E+04  0.40061350263E+04 0.  0.
        5    1    3    3  502    0 -0.48492579952E+03  0.46643878078E+03  0.19571994059E+04  0.20696303467E+04  0.46999998093E+01 0. -1.
       -5    1    3    3    0  502  0.48492579952E+03 -0.46643878078E+03 -0.18184124852E+04  0.19389079977E+04  0.46999998093E+01 0.  1.
</event>
<event>
 5   0  0.2078125E-09  0.4000133E+04  0.7818609E-02  0.8004520E-01
        1   -1    0    0  501    0  0.00000000000E+00  0.00000000000E+00  0.15191283672E+04  0.15191283672E+04  0.50400001928E-02 0. -1.
       -1   -1    0    0    0  501  0.00000000000E+00  0.00000000000E+00 -0.26332636483E+04  0.26332636483E+04  0.50400001928E-02 0.  1.
    10030    2    1    2    0    0  0.00000000000E+00  0.00000000000E+00 -0.11141352811E+04  0.41523920155E+04  0.40001327510E+04 0.  0.
        1    1    3    3  502    0  0.12846151381E+04  0.23082608524E+02 -0.21482184998E+04  0.25031203692E+04  0.50400001928E-02 0.  1.
       -1    1    3    3    0  502 -0.12846151381E+04 -0.23082608524E+02  0.10340832187E+04  0.16492716463E+04  0.50400001928E-02 0. -1.
</event>
<event>
 5   0  0.2078125E-09  0.3999232E+04  0.7818609E-02  0.8004702E-01
       -3   -1    0    0    0  501  0.00000000000E+00  0.00000000000E+00  0.28204906026E+04  0.28204906044E+04  0.10100000352E+00 0. -1.
        3   -1    0    0  501    0  0.00000000000E+00  0.00000000000E+00 -0.14176481249E+04  0.14176481285E+04  0.10100000352E+00 0.  1.
    10030    2    1    2    0    0  0.00000000000E+00  0.00000000000E+00  0.14028424777E+04  0.42381387328E+04  0.39992315389E+04 0.  0.
        3    1    3    3  502    0  0.61519606747E+03  0.13623163356E+04  0.21089560316E+04  0.25849695458E+04  0.10100000352E+00 0.  1.
       -3    1    3    3    0  502 -0.61519606747E+03 -0.13623163356E+04 -0.70611355387E+03  0.16531691870E+04  0.10100000352E+00 0. -1.
</event>
<event>
 5   0  0.2078125E-09  0.4000184E+04  0.7818609E-02  0.8004509E-01
        1   -1    0    0  501    0  0.00000000000E+00  0.00000000000E+00  0.28508591446E+04  0.28508591446E+04  0.50400001928E-02 0.  1.
       -1   -1    0    0    0  501  0.00000000000E+00  0.00000000000E+00 -0.14032148296E+04  0.14032148297E+04  0.50400001928E-02 0. -1.
    10030    2    1    2    0    0  0.00000000000E+00  0.00000000000E+00  0.14476443150E+04  0.42540739743E+04  0.40001839103E+04 0.  0.
        3    1    3    3  502    0 -0.39008356092E+03 -0.32478139686E+03 -0.13335778129E+04  0.14269120272E+04  0.10100000352E+00 0. -1.
       -3    1    3    3    0  502  0.39008356092E+03  0.32478139686E+03  0.27812221278E+04  0.28271619471E+04  0.10100000352E+00 0.  1.
</event>
<event>
 5   0  0.6538370E-09  0.4003300E+04  0.7818609E-02  0.8003881E-01
       -2   -1    0    0    0  501  0.00000000000E+00  0.00000000000E+00  0.21344012176E+04  0.21344012176E+04  0.25500000920E-02 0.  1.
        2   -1    0    0  501    0  0.00000000000E+00  0.00000000000E+00 -0.18771553490E+04  0.18771553490E+04  0.25500000920E-02 0. -1.
    10030    2    1    2    0    0  0.00000000000E+00  0.00000000000E+00  0.25724586857E+03  0.40115565666E+04  0.40032999700E+04 0.  0.
        4    1    3    3  502    0  0.16626298285E+04 -0.15222057610E+03 -0.97777925816E+03  0.19348289178E+04  0.12699999809E+01 0. -1.
       -4    1    3    3    0  502 -0.16626298285E+04  0.15222057610E+03  0.12350251267E+04  0.20767276488E+04  0.12699999809E+01 0.  1.
</event>
<event>
 5   0  0.2078125E-09  0.3996134E+04  0.7818609E-02  0.8005327E-01
       -1   -1    0    0    0  501  0.00000000000E+00  0.00000000000E+00  0.14782864510E+04  0.14782864510E+04  0.50400001928E-02 0. -1.
        1   -1    0    0  501    0  0.00000000000E+00  0.00000000000E+00 -0.27006077361E+04  0.27006077361E+04  0.50400001928E-02 0.  1.
    10030    2    1    2    0    0  0.00000000000E+00  0.00000000000E+00 -0.12223212851E+04  0.41788941871E+04  0.39961340447E+04 0.  0.
        2    1    3    3  502    0 -0.34672431025E+02 -0.12674876194E+04  0.10036591676E+04  0.16171143335E+04  0.25500000920E-02 0. -1.
       -2    1    3    3    0  502  0.34672431025E+02  0.12674876194E+04 -0.22259804527E+04  0.25617798537E+04  0.25500000920E-02 0.  1.
</event>
<event>
 5   0  0.6736335E-09  0.4000917E+04  0.7818609E-02  0.8004362E-01
        2   -1    0    0  501    0  0.00000000000E+00  0.00000000000E+00  0.25632705875E+04  0.25632705875E+04  0.25500000920E-02 0.  1.
       -2   -1    0    0    0  501  0.00000000000E+00  0.00000000000E+00 -0.15612218786E+04  0.15612218786E+04  0.25500000920E-02 0. -1.
    10030    2    1    2    0    0  0.00000000000E+00  0.00000000000E+00  0.10020487088E+04  0.41244924661E+04  0.40009169559E+04 0.  0.
        1    1    3    3  502    0 -0.91322365431E+02 -0.14209054832E+04 -0.94755389884E+03  0.17103130000E+04  0.50400001928E-02 0. -1.
       -1    1    3    3    0  502  0.91322365431E+02  0.14209054832E+04  0.19496026077E+04  0.24141794661E+04  0.50400001928E-02 0.  1.
</event>
<event>
 5   0  0.6538370E-09  0.3997858E+04  0.7818609E-02  0.8004979E-01
        2   -1    0    0  501    0  0.00000000000E+00  0.00000000000E+00  0.15445885171E+04  0.15445885171E+04  0.25500000920E-02 0.  1.
       -2   -1    0    0    0  501  0.00000000000E+00  0.00000000000E+00 -0.25869140990E+04  0.25869140990E+04  0.25500000920E-02 0. -1.
    10030    2    1    2    0    0  0.00000000000E+00  0.00000000000E+00 -0.10423255819E+04  0.41315026161E+04  0.39978583326E+04 0.  0.
        4    1    3    3  502    0 -0.18188314500E+04  0.36312458933E+03  0.24921597402E+03  0.18713945403E+04  0.12699999809E+01 0.  1.
       -4    1    3    3    0  502  0.18188314500E+04 -0.36312458933E+03 -0.12915415560E+04  0.22601080758E+04  0.12699999809E+01 0. -1.
</event>
<event>
 5   0  0.6538370E-09  0.3997896E+04  0.7818609E-02  0.8004971E-01
       -2   -1    0    0    0  501  0.00000000000E+00  0.00000000000E+00  0.22602686789E+04  0.22602686789E+04  0.25500000920E-02 0.  1.
        2   -1    0    0  501    0  0.00000000000E+00  0.00000000000E+00 -0.17678395918E+04  0.17678395918E+04  0.25500000920E-02 0. -1.
    10030    2    1    2    0    0  0.00000000000E+00  0.00000000000E+00  0.49242908707E+03  0.40281082707E+04  0.39978956758E+04 0.  0.
        4    1    3    3  502    0 -0.13732772855E+04  0.11104707032E+04  0.11896427216E+04  0.21293865557E+04  0.12699999809E+01 0.  1.
       -4    1    3    3    0  502  0.13732772855E+04 -0.11104707032E+04 -0.69721363456E+03  0.18987217149E+04  0.12699999809E+01 0. -1.
</event>
<event>
 5   0  0.6599276E-09  0.3999253E+04  0.7818609E-02  0.8004697E-01
       -2   -1    0    0    0  501  0.00000000000E+00  0.00000000000E+00  0.21668159832E+04  0.21668159832E+04  0.25500000920E-02 0.  1.
        2   -1    0    0  501    0  0.00000000000E+00  0.00000000000E+00 -0.18453376186E+04  0.18453376186E+04  0.25500000920E-02 0. -1.
    10030    2    1    2    0    0  0.00000000000E+00  0.00000000000E+00  0.32147836464E+03  0.40121536018E+04  0.39992534536E+04 0.  0.
        2    1    3    3  502    0 -0.13370751526E+04 -0.11315911630E+04  0.11283390112E+04  0.20836068363E+04  0.25500000920E-02 0.  1.
       -2    1    3    3    0  502  0.13370751526E+04  0.11315911630E+04 -0.80686064652E+03  0.19285467656E+04  0.25500000920E-02 0. -1.
</event>
<event>
 5   0  0.6645526E-09  0.4001997E+04  0.7818609E-02  0.8004144E-01
       -2   -1    0    0    0  501  0.00000000000E+00  0.00000000000E+00  0.12172281045E+04  0.12172281045E+04  0.25500000920E-02 0.  1.
        2   -1    0    0  501    0  0.00000000000E+00  0.00000000000E+00 -0.32894373934E+04  0.32894373934E+04  0.25500000920E-02 0. -1.
    10030    2    1    2    0    0  0.00000000000E+00  0.00000000000E+00 -0.20722092889E+04  0.45066654979E+04  0.40019973230E+04 0.  0.
        3    1    3    3  502    0  0.62856270696E+03 -0.25549702141E+03 -0.31559416033E+04  0.32280547112E+04  0.10100000352E+00 0. -1.
       -3    1    3    3    0  502 -0.62856270696E+03  0.25549702141E+03  0.10837323144E+04  0.12786107868E+04  0.10100000352E+00 0.  1.
</event>
<event>
 5   0  0.2078125E-09  0.3995368E+04  0.7818609E-02  0.8005482E-01
        1   -1    0    0  501    0  0.00000000000E+00  0.00000000000E+00  0.18075849516E+04  0.18075849516E+04  0.50400001928E-02 0. -1.
       -1   -1    0    0    0  501  0.00000000000E+00  0.00000000000E+00 -0.22077751373E+04  0.22077751373E+04  0.50400001928E-02 0.  1.
    10030    2    1    2    0    0  0.00000000000E+00  0.00000000000E+00 -0.40019018578E+03  0.40153600889E+04  0.39953678753E+04 0.  0.
        3    1    3    3  502    0  0.21696958093E+01 -0.19030556635E+04 -0.81068397005E+03  0.20685342819E+04  0.10100000352E+00 0.  1.
       -3    1    3    3    0  502 -0.21696958093E+01  0.19030556635E+04  0.41049378427E+03  0.19468258070E+04  0.10100000352E+00 0. -1.
</event>
<event>
 5   0  0.2078125E-09  0.4006403E+04  0.7818609E-02  0.8003256E-01
        1   -1    0    0  501    0  0.00000000000E+00  0.00000000000E+00  0.22241002073E+04  0.22241002074E+04  0.50400001928E-02 0. -1.
       -1   -1    0    0    0  501  0.00000000000E+00  0.00000000000E+00 -0.18042421678E+04  0.18042421678E+04  0.50400001928E-02 0.  1.
    10030    2    1    2    0    0  0.00000000000E+00  0.00000000000E+00  0.41985803953E+03  0.40283423752E+04  0.40064025657E+04 0.  0.
        4    1    3    3  502    0  0.55162329260E+02  0.10514421423E+03  0.22205585039E+04  0.22237310697E+04  0.12699999809E+01 0. -1.
       -4    1    3    3    0  502 -0.55162329260E+02 -0.10514421423E+03 -0.18007004644E+04  0.18046113054E+04  0.12699999809E+01 0.  1.
</event>
<event>
 5   0  0.6645526E-09  0.4000124E+04  0.7818609E-02  0.8004522E-01
        2   -1    0    0  501    0  0.00000000000E+00  0.00000000000E+00  0.13927933211E+04  0.13927933211E+04  0.25500000920E-02 0. -1.
       -2   -1    0    0    0  501  0.00000000000E+00  0.00000000000E+00 -0.28721043430E+04  0.28721043430E+04  0.25500000920E-02 0.  1.
    10030    2    1    2    0    0  0.00000000000E+00  0.00000000000E+00 -0.14793110218E+04  0.42648976641E+04  0.40001238713E+04 0.  0.
        3    1    3    3  502    0 -0.11831276829E+04  0.48231226867E+03 -0.23802852183E+04  0.27015132739E+04  0.10100000352E+00 0.  1.
       -3    1    3    3    0  502  0.11831276829E+04 -0.48231226867E+03  0.90097419648E+03  0.15633843902E+04  0.10100000352E+00 0. -1.
</event>
<event>
 5   0  0.6599276E-09  0.4000336E+04  0.7818609E-02  0.8004479E-01
        2   -1    0    0  501    0  0.00000000000E+00  0.00000000000E+00  0.23656724776E+04  0.23656724776E+04  0.25500000920E-02 0.  1.
       -2   -1    0    0    0  501  0.00000000000E+00  0.00000000000E+00 -0.16911354478E+04  0.16911354478E+04  0.25500000920E-02 0. -1.
    10030    2    1    2    0    0  0.00000000000E+00  0.00000000000E+00  0.67453702980E+03  0.40568079254E+04  0.40003362783E+04 0.  0.
        2    1    3    3  502    0  0.14198458341E+03  0.19350618247E+04 -0.15543850430E+03  0.19464801607E+04  0.25500000920E-02 0. -1.
       -2    1    3    3    0  502 -0.14198458341E+03 -0.19350618247E+04  0.82997553409E+03  0.21103277647E+04  0.25500000920E-02 0.  1.
</event>
<event>
 5   0  0.2078125E-09  0.3999462E+04  0.7818609E-02  0.8004655E-01
        1   -1    0    0  501    0  0.00000000000E+00  0.00000000000E+00  0.23607376764E+04  0.23607376764E+04  0.50400001928E-02 0. -1.
       -1   -1    0    0    0  501  0.00000000000E+00  0.00000000000E+00 -0.16939294519E+04  0.16939294519E+04  0.50400001928E-02 0.  1.
    10030    2    1    2    0    0  0.00000000000E+00  0.00000000000E+00  0.66680822454E+03  0.40546671283E+04  0.39994615029E+04 0.  0.
        1    1    3    3  502    0  0.17695250797E+04  0.93150310578E+03  0.33091365086E+03  0.20269239966E+04  0.50400001928E-02 0.  1.
       -1    1    3    3    0  502 -0.17695250797E+04 -0.93150310578E+03  0.33589457368E+03  0.20277431317E+04  0.50400001928E-02 0. -1.
</event>
<event>
 5   0  0.6736335E-09  0.3999308E+04  0.7818609E-02  0.8004686E-01
        2   -1    0    0  501    0  0.00000000000E+00  0.00000000000E+00  0.25373136859E+04  0.25373136859E+04  0.25500000920E-02 0. -1.
       -2   -1    0    0    0  501  0.00000000000E+00  0.00000000000E+00 -0.15759249112E+04  0.15759249112E+04  0.25500000920E-02 0.  1.
    10030    2    1    2    0    0  0.00000000000E+00  0.00000000000E+00  0.96138877477E+03  0.41132385971E+04  0.39993078627E+04 0.  0.
        1    1    3    3  502    0  0.54931381376E+03 -0.15378830596E+04  0.16676002294E+04  0.23340352389E+04  0.50400001928E-02 0. -1.
       -1    1    3    3    0  502 -0.54931381376E+03  0.15378830596E+04 -0.70621145466E+03  0.17792033582E+04  0.50400001928E-02 0.  1.
</event>
<event>
 5   0  0.2078125E-09  0.3998797E+04  0.7818609E-02  0.8004789E-01
        1   -1    0    0  501    0  0.00000000000E+00  0.00000000000E+00  0.17893118655E+04  0.17893118655E+04  0.50400001928E-02 0.  1.
       -1   -1    0    0    0  501  0.00000000000E+00  0.00000000000E+00 -0.22341515873E+04  0.22341515873E+04  0.50400001928E-02 0. -1.
    10030    2    1    2    0    0  0.00000000000E+00  0.00000000000E+00 -0.44483972178E+03  0.40234634528E+04  0.39987967912E+04 0.  0.
        2    1    3    3  502    0 -0.34781170654E+03  0.15918426291E+04  0.94345900166E+03  0.18828305359E+04  0.25500000920E-02 0.  1.
       -2    1    3    3    0  502  0.34781170654E+03 -0.15918426291E+04 -0.13882987234E+04  0.21406329168E+04  0.25500000920E-02 0. -1.
</event>
<event>
 5   0  0.6547327E-09  0.3999764E+04  0.7818609E-02  0.8004594E-01
        2   -1    0    0  501    0  0.00000000000E+00  0.00000000000E+00  0.18336289813E+04  0.18336289813E+04  0.25500000920E-02 0.  1.
       -2   -1    0    0    0  501  0.00000000000E+00  0.00000000000E+00 -0.21812085378E+04  0.21812085378E+04  0.25500000920E-02 0. -1.
    10030    2    1    2    0    0  0.00000000000E+00  0.00000000000E+00 -0.34757955646E+03  0.40148375191E+04  0.39997635876E+04 0.  0.
        5    1    3    3  502    0  0.69344942165E+03 -0.18465943631E+04  0.15718346180E+03  0.19787651636E+04  0.46999998093E+01 0. -1.
       -5    1    3    3    0  502 -0.69344942165E+03  0.18465943631E+04 -0.50476301826E+03  0.20360723555E+04  0.46999998093E+01 0.  1.
</event>
<event>
 5   0  0.2078125E-09  0.4000263E+04  0.7818609E-02  0.8004493E-01
        1   -1    0    0  501    0  0.00000000000E+00  0.00000000000E+00  0.13771977954E+04  0.13771977954E+04  0.50400001928E-02 0. -1.
       -1   -1    0    0    0  501  0.00000000000E+00  0.00000000000E+00 -0.29048309319E+04  0.29048309319E+04  0.50400001928E-02 0.  1.
    10030    2    1    2    0    0  0.00000000000E+00  0.00000000000E+00 -0.15276331365E+04  0.42820287273E+04  0.40002633691E+04 0.  0.
        2    1    3    3  502    0  0.19493317378E+04  0.43993458872E+03 -0.85395019456E+03  0.21731699430E+04  0.25500000920E-02 0.  1.
       -2    1    3    3    0  502 -0.19493317378E+04 -0.43993458872E+03 -0.67368294198E+03  0.21088587844E+04  0.25500000920E-02 0. -1.
</event>
<event>
 5   0  0.2078125E-09  0.3998739E+04  0.7818609E-02  0.8004801E-01
       -1   -1    0    0    0  501  0.00000000000E+00  0.00000000000E+00  0.15991062125E+04  0.15991062125E+04  0.50400001928E-02 0.  1.
        1   -1    0    0  501    0  0.00000000000E+00  0.00000000000E+00 -0.24998198205E+04  0.24998198205E+04  0.50400001928E-02 0. -1.
    10030    2    1    2    0    0  0.00000000000E+00  0.00000000000E+00 -0.90071360800E+03  0.40989260330E+04  0.39987385036E+04 0.  0.
        3    1    3    3  502    0  0.18097039316E+04  0.59661377994E+03 -0.10709181234E+04  0.21858275228E+04  0.10100000352E+00 0. -1.
       -3    1    3    3    0  502 -0.18097039316E+04 -0.59661377994E+03  0.17020451536E+03  0.19130985102E+04  0.10100000352E+00 0.  1.
</event>
<event>
 5   0  0.2078125E-09  0.4000916E+04  0.7818609E-02  0.8004362E-01
       -3   -1    0    0    0  501  0.00000000000E+00  0.00000000000E+00  0.15476422925E+04  0.15476422958E+04  0.10100000352E+00 0.  1.
        3   -1    0    0  501    0  0.00000000000E+00  0.00000000000E+00 -0.25857609731E+04  0.25857609751E+04  0.10100000352E+00 0. -1.
    10030    2    1    2    0    0  0.00000000000E+00  0.00000000000E+00 -0.10381186806E+04  0.41334032708E+04  0.40009164206E+04 0.  0.
        3    1    3    3  502    0  0.82381692902E+03  0.17174082125E+04  0.11246646649E+03  0.19080917214E+04  0.10100000352E+00 0.  1.
       -3    1    3    3    0  502 -0.82381692902E+03 -0.17174082125E+04 -0.11505851471E+04  0.22253115494E+04  0.10100000352E+00 0. -1.
</event>
<event>
 5   0  0.6736335E-09  0.3995915E+04  0.7818609E-02  0.8005371E-01
        2   -1    0    0  501    0  0.00000000000E+00  0.00000000000E+00  0.21628723260E+04  0.21628723260E+04  0.25500000920E-02 0. -1.
       -2   -1    0    0    0  501  0.00000000000E+00  0.00000000000E+00 -0.18456174288E+04  0.18456174288E+04  0.25500000920E-02 0.  1.
    10030    2    1    2    0    0  0.00000000000E+00  0.00000000000E+00  0.31725489719E+03  0.40084897547E+04  0.39959153450E+04 0.  0.
        1    1    3    3  502    0 -0.17029971823E+04  0.75884285001E+02 -0.88670594137E+03  0.19215111903E+04  0.50400001928E-02 0. -1.
       -1    1    3    3    0  502  0.17029971823E+04 -0.75884285001E+02  0.12039608386E+04  0.20869785645E+04  0.50400001928E-02 0.  1.
</event>
<event>
 5   0  0.2078125E-09  0.4000346E+04  0.7818609E-02  0.8004477E-01
       -1   -1    0    0    0  501  0.00000000000E+00  0.00000000000E+00  0.15054660734E+04  0.15054660734E+04  0.50400001928E-02 0.  1.
        1   -1    0    0  501    0  0.00000000000E+00  0.00000000000E+00 -0.26574443029E+04  0.26574443029E+04  0.50400001928E-02 0. -1.
    10030    2    1    2    0    0  0.00000000000E+00  0.00000000000E+00 -0.11519782295E+04  0.41629103763E+04  0.40003461051E+04 0.  0.
        3    1    3    3  502    0  0.65318170402E+03  0.17773376675E+04  0.94488989606E+02  0.18959176412E+04  0.10100000352E+00 0. -1.
       -3    1    3    3    0  502 -0.65318170402E+03 -0.17773376675E+04 -0.12464672191E+04  0.22669927352E+04  0.10100000352E+00 0.  1.
</event>
<event>
 5   0  0.6599276E-09  0.4000141E+04  0.7818609E-02  0.8004518E-01
       -2   -1    0    0    0  501  0.00000000000E+00  0.00000000000E+00  0.24612953384E+04  0.24612953384E+04  0.25500000920E-02 0.  1.
        2   -1    0    0  501    0  0.00000000000E+00  0.00000000000E+00 -0.16252747472E+04  0.16252747472E+04  0.25500000920E-02 0. -1.
    10030    2    1    2    0    0  0.00000000000E+00  0.00000000000E+00  0.83602059112E+03  0.40865700856E+04  0.40001405770E+04 0.  0.
        2    1    3    3  502    0 -0.72354502253E+03  0.26867922369E+03 -0.14670062449E+04  0.16576529334E+04  0.25500000920E-02 0. -1.
       -2    1    3    3    0  502  0.72354502253E+03 -0.26867922369E+03  0.23030268360E+04  0.24289171522E+04  0.25500000920E-02 0.  1.
</event>
<event>
 5   0  0.2078125E-09  0.4000501E+04  0.7818609E-02  0.8004446E-01
       -1   -1    0    0    0  501  0.00000000000E+00  0.00000000000E+00  0.21277938507E+04  0.21277938507E+04  0.50400001928E-02 0. -1.
        1   -1    0    0  501    0  0.00000000000E+00  0.00000000000E+00 -0.18803520585E+04  0.18803520585E+04  0.50400001928E-02 0.  1.
    10030    2    1    2    0    0  0.00000000000E+00  0.00000000000E+00  0.24744179224E+03  0.40081459092E+04  0.40005007423E+04 0.  0.
        4    1    3    3  502    0 -0.86253118902E+03  0.78306836081E+03 -0.15053765623E+04  0.19035010683E+04  0.12699999809E+01 0.  1.
       -4    1    3    3    0  502  0.86253118902E+03 -0.78306836081E+03  0.17528183545E+04  0.21046448409E+04  0.12699999809E+01 0. -1.
</event>
<event>
 5   0  0.2078125E-09  0.3999609E+04  0.7818609E-02  0.8004626E-01
        1   -1    0    0  501    0  0.00000000000E+00  0.00000000000E+00  0.13970619183E+04  0.13970619183E+04  0.50400001928E-02 0.  1.
       -1   -1    0    0    0  501  0.00000000000E+00  0.00000000000E+00 -0.28625912259E+04  0.28625912259E+04  0.50400001928E-02 0. -1.
    10030    2    1    2    0    0  0.00000000000E+00  0.00000000000E+00 -0.14655293076E+04  0.42596531442E+04  0.39996085755E+04 0.  0.
        5    1    3    3  502    0  0.16310280247E+04 -0.18193093468E+03  0.48426837439E+03  0.17111076035E+04  0.46999998093E+01 0.  1.
       -5    1    3    3    0  502 -0.16310280247E+04  0.18193093468E+03 -0.19497976820E+04  0.25485455407E+04  0.46999998093E+01 0. -1.
</event>
<event>
 5   0  0.6547327E-09  0.3996786E+04  0.7818609E-02  0.8005195E-01
       -2   -1    0    0    0  501  0.00000000000E+00  0.00000000000E+00  0.19440390762E+04  0.19440390762E+04  0.25500000920E-02 0.  1.
        2   -1    0    0  501    0  0.00000000000E+00  0.00000000000E+00 -0.20542661425E+04  0.20542661425E+04  0.25500000920E-02 0. -1.
    10030    2    1    2    0    0  0.00000000000E+00  0.00000000000E+00 -0.11022706624E+03  0.39983052187E+04  0.39967855354E+04 0.  0.
        5    1    3    3  502    0 -0.77086296110E+03 -0.10933733577E+04 -0.15402171683E+04  0.20400946105E+04  0.46999998093E+01 0. -1.
       -5    1    3    3    0  502  0.77086296110E+03  0.10933733577E+04  0.14299901021E+04  0.19582106082E+04  0.46999998093E+01 0.  1.
</event>
<event>
 5   0  0.2078125E-09  0.3999466E+04  0.7818609E-02  0.8004654E-01
       -3   -1    0    0    0  501  0.00000000000E+00  0.00000000000E+00  0.18012497607E+04  0.18012497635E+04  0.10100000352E+00 0. -1.
        3   -1    0    0  501    0  0.00000000000E+00  0.00000000000E+00 -0.22200874454E+04  0.22200874477E+04  0.10100000352E+00 0.  1.
    10030    2    1    2    0    0  0.00000000000E+00  0.00000000000E+00 -0.41883768476E+03  0.40213372112E+04  0.39994659594E+04 0.  0.
        1    1    3    3  502    0 -0.72733434843E+03 -0.72620957461E+03  0.15153440862E+04  0.18310279354E+04  0.50400001928E-02 0. -1.
       -1    1    3    3    0  502  0.72733434843E+03  0.72620957461E+03 -0.19341817709E+04  0.21903092758E+04  0.50400001928E-02 0.  1.
</event>
<event>
 5   0  0.2078125E-09  0.3998960E+04  0.7818609E-02  0.8004756E-01
        1   -1    0    0  501    0  0.00000000000E+00  0.00000000000E+00  0.22786170271E+04  0.22786170271E+04  0.50400001928E-02 0. -1.
       -1   -1    0    0    0  501  0.00000000000E+00  0.00000000000E+00 -0.17545376116E+04  0.17545376116E+04  0.50400001928E-02 0.  1.
    10030    2    1    2    0    0  0.00000000000E+00  0.00000000000E+00  0.52407941555E+03  0.40331546387E+04  0.39989595030E+04 0.  0.
        2    1    3    3  502    0 -0.57511665533E+02  0.54692893827E+03  0.22008410904E+04  0.22685106040E+04  0.25500000920E-02 0. -1.
       -2    1    3    3    0  502  0.57511665533E+02 -0.54692893827E+03 -0.16767616748E+04  0.17646440348E+04  0.25500000920E-02 0.  1.
</event>
<event>
 5   0  0.6736335E-09  0.3998329E+04  0.7818609E-02  0.8004884E-01
       -2   -1    0    0    0  501  0.00000000000E+00  0.00000000000E+00  0.19868383942E+04  0.19868383942E+04  0.25500000920E-02 0.  1.
        2   -1    0    0  501    0  0.00000000000E+00  0.00000000000E+00 -0.20115667111E+04  0.20115667111E+04  0.25500000920E-02 0. -1.
    10030    2    1    2    0    0  0.00000000000E+00  0.00000000000E+00 -0.24728316835E+02  0.39984051053E+04  0.39983286379E+04 0.  0.
        1    1    3    3  502    0  0.96956472919E+03  0.15931887780E+04  0.70761608756E+03  0.19947498023E+04  0.50400001928E-02 0. -1.
       -1    1    3    3    0  502 -0.96956472919E+03 -0.15931887780E+04 -0.73234440439E+03  0.20036553030E+04  0.50400001928E-02 0.  1.
</event>
<event>
 5   0  0.2078125E-09  0.3999780E+04  0.7818609E-02  0.8004591E-01
       -1   -1    0    0    0  501  0.00000000000E+00  0.00000000000E+00  0.32365091056E+04  0.32365091056E+04  0.50400001928E-02 0. -1.
        1   -1    0    0  501    0  0.00000000000E+00  0.00000000000E+00 -0.12357635410E+04  0.12357635410E+04  0.50400001928E-02 0.  1.
    10030    2    1    2    0    0  0.00000000000E+00  0.00000000000E+00  0.20007455646E+04  0.44722726466E+04  0.39997799704E+04 0.  0.
        1    1    3    3  502    0 -0.70632424486E+03 -0.17663228068E+04  0.16903319564E+04  0.25448010373E+04  0.50400001928E-02 0.  1.
       -1    1    3    3    0  502  0.70632424486E+03  0.17663228068E+04  0.31041360815E+03  0.19274716093E+04  0.50400001928E-02 0. -1.
</event>
<event>
 5   0  0.6736335E-09  0.3999282E+04  0.7818609E-02  0.8004691E-01
       -2   -1    0    0    0  501  0.00000000000E+00  0.00000000000E+00  0.16291410624E+04  0.16291410625E+04  0.25500000920E-02 0.  1.
        2   -1    0    0  501    0  0.00000000000E+00  0.00000000000E+00 -0.24544003707E+04  0.24544003707E+04  0.25500000920E-02 0. -1.
    10030    2    1    2    0    0  0.00000000000E+00  0.00000000000E+00 -0.82525930823E+03  0.40835414331E+04  0.39992821494E+04 0.  0.
        1    1    3    3  502    0  0.13705441662E+04 -0.14420080848E+04 -0.20641980219E+03  0.20000969384E+04  0.50400001928E-02 0.  1.
       -1    1    3    3    0  502 -0.13705441662E+04  0.14420080848E+04 -0.61883950604E+03  0.20834444947E+04  0.50400001928E-02 0. -1.
</event>
<event>
 5   0  0.6736335E-09  0.3999307E+04  0.7818609E-02  0.8004686E-01
       -2   -1    0    0    0  501  0.00000000000E+00  0.00000000000E+00  0.19118339335E+04  0.19118339335E+04  0.25500000920E-02 0.  1.
        2   -1    0    0  501    0  0.00000000000E+00  0.00000000000E+00 -0.20915069533E+04  0.20915069533E+04  0.25500000920E-02 0. -1.
    10030    2    1    2    0    0  0.00000000000E+00  0.00000000000E+00 -0.17967301979E+03  0.40033408868E+04  0.39993069227E+04 0.  0.
        1    1    3    3  502    0  0.24168550712E+03  0.79914749095E+03  0.17290172720E+04  0.19200388860E+04  0.50400001928E-02 0.  1.
       -1    1    3    3    0  502 -0.24168550712E+03 -0.79914749095E+03 -0.19086902918E+04  0.20833020008E+04  0.50400001928E-02 0. -1.
</event>
<event>
 5   0  0.2078125E-09  0.3999961E+04  0.7818609E-02  0.8004554E-01
       -1   -1    0    0    0  501  0.00000000000E+00  0.00000000000E+00  0.25360876825E+04  0.25360876825E+04  0.50400001928E-02 0. -1.
        1   -1    0    0  501    0  0.00000000000E+00  0.00000000000E+00 -0.15772018950E+04  0.15772018950E+04  0.50400001928E-02 0.  1.
    10030    2    1    2    0    0  0.00000000000E+00  0.00000000000E+00  0.95888578747E+03  0.41132895775E+04  0.39999611492E+04 0.  0.
        4    1    3    3  502    0 -0.15228834142E+04 -0.12602606129E+04  0.16670474921E+03  0.19837395978E+04  0.12699999809E+01 0.  1.
       -4    1    3    3    0  502  0.15228834142E+04  0.12602606129E+04  0.79218103826E+03  0.21295499797E+04  0.12699999809E+01 0. -1.
</event>
<event>
 5   0  0.2078125E-09  0.4003435E+04  0.7818609E-02  0.8003854E-01
        1   -1    0    0  501    0  0.00000000000E+00  0.00000000000E+00  0.24174093006E+04  0.24174093006E+04  0.50400001928E-02 0. -1.
       -1   -1    0    0    0  501  0.00000000000E+00  0.00000000000E+00 -0.16575066927E+04  0.16575066927E+04  0.50400001928E-02 0.  1.
    10030    2    1    2    0    0  0.00000000000E+00  0.00000000000E+00  0.75990260786E+03  0.40749159933E+04  0.40034345729E+04 0.  0.
        5    1    3    3  502    0 -0.43447082128E+03 -0.18795493196E+04  0.92369881811E+03  0.21388576708E+04  0.46999998093E+01 0. -1.
       -5    1    3    3    0  502  0.43447082128E+03  0.18795493196E+04 -0.16379621025E+03  0.19360583225E+04  0.46999998093E+01 0.  1.
</event>
<event>
 5   0  0.6538370E-09  0.4002797E+04  0.7818609E-02  0.8003983E-01
        2   -1    0    0  501    0  0.00000000000E+00  0.00000000000E+00  0.15498108446E+04  0.15498108446E+04  0.25500000920E-02 0.  1.
       -2   -1    0    0    0  501  0.00000000000E+00  0.00000000000E+00 -0.25845705635E+04  0.25845705635E+04  0.25500000920E-02 0. -1.
    10030    2    1    2    0    0  0.00000000000E+00  0.00000000000E+00 -0.10347597189E+04  0.41343814082E+04  0.40027967663E+04 0.  0.
        4    1    3    3  502    0 -0.66212463657E+03 -0.82799661989E+03 -0.22707125558E+04  0.25060176697E+04  0.12699999809E+01 0. -1.
       -4    1    3    3    0  502  0.66212463657E+03  0.82799661989E+03  0.12359528369E+04  0.16283637385E+04  0.12699999809E+01 0.  1.
</event>
<event>
 5   0  0.2078125E-09  0.4000234E+04  0.7818609E-02  0.8004499E-01
       -1   -1    0    0    0  501  0.00000000000E+00  0.00000000000E+00  0.30665805822E+04  0.30665805822E+04  0.50400001928E-02 0.  1.
        1   -1    0    0  501    0  0.00000000000E+00  0.00000000000E+00 -0.13045367887E+04  0.13045367887E+04  0.50400001928E-02 0. -1.
    10030    2    1    2    0    0  0.00000000000E+00  0.00000000000E+00  0.17620437935E+04  0.43711173709E+04  0.40002335857E+04 0.  0.
        4    1    3    3  502    0  0.17319757202E+04 -0.24039205453E+03  0.19421028834E+04  0.26132916902E+04  0.12699999809E+01 0.  1.
       -4    1    3    3    0  502 -0.17319757202E+04  0.24039205453E+03 -0.18005908989E+03  0.17578256808E+04  0.12699999809E+01 0. -1.
</event>
<event>
 5   0  0.2078125E-09  0.4000402E+04  0.7818609E-02  0.8004465E-01
       -1   -1    0    0    0  501  0.00000000000E+00  0.00000000000E+00  0.27469135336E+04  0.27469135336E+04  0.50400001928E-02 0. -1.
        1   -1    0    0  501    0  0.00000000000E+00  0.00000000000E+00 -0.14564726210E+04  0.14564726210E+04  0.50400001928E-02 0.  1.
    10030    2    1    2    0    0  0.00000000000E+00  0.00000000000E+00  0.12904409126E+04  0.42033861545E+04  0.40004021567E+04 0.  0.
        1    1    3    3  502    0  0.68365120250E+02  0.99685788740E+03  0.24658863970E+04  0.26606381115E+04  0.50400001928E-02 0. -1.
       -1    1    3    3    0  502 -0.68365120250E+02 -0.99685788740E+03 -0.11754454844E+04  0.15427480430E+04  0.50400001928E-02 0.  1.
</event>
<event>
 5   0  0.2078125E-09  0.3999974E+04  0.7818609E-02  0.8004552E-01
        3   -1    0    0  501    0  0.00000000000E+00  0.00000000000E+00  0.18351503475E+04  0.18351503503E+04  0.10100000352E+00 0. -1.
       -3   -1    0    0    0  501  0.00000000000E+00  0.00000000000E+00 -0.21796297382E+04  0.21796297406E+04  0.10100000352E+00 0.  1.
    10030    2    1    2    0    0  0.00000000000E+00  0.00000000000E+00 -0.34447939069E+03  0.40147800909E+04  0.39999741409E+04 0.  0.
        1    1    3    3  502    0  0.12495126201E+03  0.64921039111E+03 -0.20667808249E+04  0.21699469873E+04  0.50400001928E-02 0.  1.
       -1    1    3    3    0  502 -0.12495126201E+03 -0.64921039111E+03  0.17223014342E+04  0.18448331035E+04  0.50400001928E-02 0. -1.
</event>
<event>
 5   0  0.6538370E-09  0.4003336E+04  0.7818609E-02  0.8003874E-01
        2   -1    0    0  501    0  0.00000000000E+00  0.00000000000E+00  0.14233897435E+04  0.14233897435E+04  0.25500000920E-02 0. -1.
       -2   -1    0    0    0  501  0.00000000000E+00  0.00000000000E+00 -0.28148825536E+04  0.28148825536E+04  0.25500000920E-02 0.  1.
    10030    2    1    2    0    0  0.00000000000E+00  0.00000000000E+00 -0.13914928101E+04  0.42382722971E+04  0.40033360868E+04 0.  0.
        4    1    3    3  502    0 -0.22204670242E+03 -0.78410555419E+03 -0.26313016472E+04  0.27546099960E+04  0.12699999809E+01 0.  1.
       -4    1    3    3    0  502  0.22204670242E+03  0.78410555419E+03  0.12398088371E+04  0.14836623011E+04  0.12699999809E+01 0. -1.
</event>
<event>
 5   0  0.6599276E-09  0.3998226E+04  0.7818609E-02  0.8004905E-01
       -2   -1    0    0    0  501  0.00000000000E+00  0.00000000000E+00  0.12690369054E+04  0.12690369054E+04  0.25500000920E-02 0.  1.
        2   -1    0    0  501    0  0.00000000000E+00  0.00000000000E+00 -0.31492014136E+04  0.31492014136E+04  0.25500000920E-02 0. -1.
    10030    2    1    2    0    0  0.00000000000E+00  0.00000000000E+00 -0.18801645082E+04  0.44182383190E+04  0.39982260148E+04 0.  0.
        2    1    3    3  502    0  0.27640177077E+02  0.19764759053E+04 -0.12701793502E+04  0.23495907230E+04  0.25500000920E-02 0. -1.
       -2    1    3    3    0  502 -0.27640177077E+02 -0.19764759053E+04 -0.60998515797E+03  0.20686475960E+04  0.25500000920E-02 0.  1.
</event>
<event>
 5   0  0.2078125E-09  0.3999242E+04  0.7818609E-02  0.8004699E-01
       -1   -1    0    0    0  501  0.00000000000E+00  0.00000000000E+00  0.16021662568E+04  0.16021662568E+04  0.50400001928E-02 0. -1.
        1   -1    0    0  501    0  0.00000000000E+00  0.00000000000E+00 -0.24956735727E+04  0.24956735727E+04  0.50400001928E-02 0.  1.
    10030    2    1    2    0    0  0.00000000000E+00  0.00000000000E+00 -0.89350731592E+03  0.40978398295E+04  0.39992419213E+04 0.  0.
        5    1    3    3  502    0  0.16656583319E+04  0.10352786284E+04 -0.84655577009E+03  0.21360941644E+04  0.46999998093E+01 0.  1.
       -5    1    3    3    0  502 -0.16656583319E+04 -0.10352786284E+04 -0.46951545828E+02  0.19617456652E+04  0.46999998093E+01 0. -1.
</event>
<event>
 5   0  0.2078125E-09  0.3999760E+04  0.7818609E-02  0.8004595E-01
        1   -1    0    0  501    0  0.00000000000E+00  0.00000000000E+00  0.22764922763E+04  0.22764922764E+04  0.50400001928E-02 0.  1.
       -1   -1    0    0    0  501  0.00000000000E+00  0.00000000000E+00 -0.17568781729E+04  0.17568781729E+04  0.50400001928E-02 0. -1.
    10030    2    1    2    0    0  0.00000000000E+00  0.00000000000E+00  0.51961410342E+03  0.40333704493E+04  0.39997597884E+04 0.  0.
        1    1    3    3  502    0 -0.38053890466E+02 -0.16347233083E+04  0.14208952647E+04  0.21662667764E+04  0.50400001928E-02 0.  1.
       -1    1    3    3    0  502  0.38053890466E+02  0.16347233083E+04 -0.90128116133E+03  0.18671036728E+04  0.50400001928E-02 0. -1.
</event>
<event>
 5   0  0.6645526E-09  0.3996861E+04  0.7818609E-02  0.8005180E-01
        2   -1    0    0  501    0  0.00000000000E+00  0.00000000000E+00  0.21653757382E+04  0.21653757382E+04  0.25500000920E-02 0.  1.
       -2   -1    0    0    0  501  0.00000000000E+00  0.00000000000E+00 -0.18443567581E+04  0.18443567581E+04  0.25500000920E-02 0. -1.
    10030    2    1    2    0    0  0.00000000000E+00  0.00000000000E+00  0.32101898009E+03  0.40097324963E+04  0.39968614570E+04 0.  0.
        3    1    3    3  502    0 -0.77157753841E+03  0.81877671393E+03  0.18174935947E+04  0.21375243114E+04  0.10100000352E+00 0.  1.
       -3    1    3    3    0  502  0.77157753841E+03 -0.81877671393E+03 -0.14964746146E+04  0.18722081848E+04  0.10100000352E+00 0. -1.
</event>
<event>
 5   0  0.6538370E-09  0.3999359E+04  0.7818609E-02  0.8004676E-01
        2   -1    0    0  501    0  0.00000000000E+00  0.00000000000E+00  0.28206725391E+04  0.28206725391E+04  0.25500000920E-02 0.  1.
       -2   -1    0    0    0  501  0.00000000000E+00  0.00000000000E+00 -0.14176468468E+04  0.14176468468E+04  0.25500000920E-02 0. -1.
    10030    2    1    2    0    0  0.00000000000E+00  0.00000000000E+00  0.14030256922E+04  0.42383193859E+04  0.39993587141E+04 0.  0.
        4    1    3    3  502    0 -0.11471101077E+04 -0.10307975588E+04 -0.64745771833E+03  0.16726052482E+04  0.12699999809E+01 0. -1.
       -4    1    3    3    0  502  0.11471101077E+04  0.10307975588E+04  0.20504834106E+04  0.25657141377E+04  0.12699999809E+01 0.  1.
</event>
<event>
 5   0  0.6538370E-09  0.4000801E+04  0.7818609E-02  0.8004385E-01
       -2   -1    0    0    0  501  0.00000000000E+00  0.00000000000E+00  0.12803711782E+04  0.12803711782E+04  0.25500000920E-02 0. -1.
        2   -1    0    0  501    0  0.00000000000E+00  0.00000000000E+00 -0.31253450242E+04  0.31253450242E+04  0.25500000920E-02 0.  1.
    10030    2    1    2    0    0  0.00000000000E+00  0.00000000000E+00 -0.18449738460E+04  0.44057162025E+04  0.40008007654E+04 0.  0.
        4    1    3    3  502    0 -0.21360712167E+03 -0.16668108815E+04  0.27257231015E+03  0.17024052967E+04  0.12699999809E+01 0. -1.
       -4    1    3    3    0  502  0.21360712167E+03  0.16668108815E+04 -0.21175461561E+04  0.27033109058E+04  0.12699999809E+01 0.  1.
</event>
<event>
 5   0  0.2078125E-09  0.4000285E+04  0.7818609E-02  0.8004489E-01
       -1   -1    0    0    0  501  0.00000000000E+00  0.00000000000E+00  0.16207398285E+04  0.16207398285E+04  0.50400001928E-02 0. -1.
        1   -1    0    0  501    0  0.00000000000E+00  0.00000000000E+00 -0.24683601101E+04  0.24683601101E+04  0.50400001928E-02 0.  1.
    10030    2    1    2    0    0  0.00000000000E+00  0.00000000000E+00 -0.84762028161E+03  0.40890999386E+04  0.40002847606E+04 0.  0.
        3    1    3    3  502    0  0.47096405174E+03  0.18740312376E+03 -0.24016175502E+04  0.24545251958E+04  0.10100000352E+00 0.  1.
       -3    1    3    3    0  502 -0.47096405174E+03 -0.18740312376E+03  0.15539972686E+04  0.16345747428E+04  0.10100000352E+00 0. -1.
</event>
<event>
 5   0  0.2078125E-09  0.3997607E+04  0.7818609E-02  0.8005029E-01
        1   -1    0    0  501    0  0.00000000000E+00  0.00000000000E+00  0.19232410618E+04  0.19232410618E+04  0.50400001928E-02 0.  1.
       -1   -1    0    0    0  501  0.00000000000E+00  0.00000000000E+00 -0.20773351100E+04  0.20773351100E+04  0.50400001928E-02 0. -1.
    10030    2    1    2    0    0  0.00000000000E+00  0.00000000000E+00 -0.15409404822E+03  0.40005761718E+04  0.39976073757E+04 0.  0.
        5    1    3    3  502    0 -0.42399943146E+03  0.38471469827E+03 -0.19935183538E+04  0.20741066592E+04  0.46999998093E+01 0. -1.
       -5    1    3    3    0  502  0.42399943146E+03 -0.38471469827E+03  0.18394243056E+04  0.19264695126E+04  0.46999998093E+01 0.  1.
</event>
<event>
 5   0  0.2078125E-09  0.4000846E+04  0.7818609E-02  0.8004376E-01
       -1   -1    0    0    0  501  0.00000000000E+00  0.00000000000E+00  0.14821859625E+04  0.14821859625E+04  0.50400001928E-02 0.  1.
        1   -1    0    0  501    0  0.00000000000E+00  0.00000000000E+00 -0.26998589654E+04  0.26998589654E+04  0.50400001928E-02 0. -1.
    10030    2    1    2    0    0  0.00000000000E+00  0.00000000000E+00 -0.12176730029E+04  0.41820449279E+04  0.40008464401E+04 0.  0.
        3    1    3    3  502    0 -0.10375448259E+03  0.19837890157E+04 -0.36256209175E+03  0.20193155107E+04  0.10100000352E+00 0.  1.
       -3    1    3    3    0  502  0.10375448259E+03 -0.19837890157E+04 -0.85511091113E+03  0.21627294172E+04  0.10100000352E+00 0. -1.
</event>
<event>
 5   0  0.2078125E-09  0.3996893E+04  0.7818609E-02  0.8005174E-01
       -1   -1    0    0    0  501  0.00000000000E+00  0.00000000000E+00  0.14088469133E+04  0.14088469133E+04  0.50400001928E-02 0.  1.
        1   -1    0    0  501    0  0.00000000000E+00  0.00000000000E+00 -0.28347928538E+04  0.28347928538E+04  0.50400001928E-02 0. -1.
    10030    2    1    2    0    0  0.00000000000E+00  0.00000000000E+00 -0.14259459405E+04  0.42436397672E+04  0.39968933746E+04 0.  0.
        2    1    3    3  502    0 -0.77628505538E+03  0.17321442130E+04 -0.13767456831E+04  0.23448604943E+04  0.25500000920E-02 0. -1.
       -2    1    3    3    0  502  0.77628505538E+03 -0.17321442130E+04 -0.49200257381E+02  0.18987792729E+04  0.25500000920E-02 0.  1.
</event>
<event>
 5   0  0.6645526E-09  0.4000426E+04  0.7818609E-02  0.8004461E-01
       -2   -1    0    0    0  501  0.00000000000E+00  0.00000000000E+00  0.14100373925E+04  0.14100373925E+04  0.25500000920E-02 0.  1.
        2   -1    0    0  501    0  0.00000000000E+00  0.00000000000E+00 -0.28374079750E+04  0.28374079750E+04  0.25500000920E-02 0. -1.
    10030    2    1    2    0    0  0.00000000000E+00  0.00000000000E+00 -0.14273705825E+04  0.42474453675E+04  0.40004256486E+04 0.  0.
        3    1    3    3  502    0 -0.17560859484E+03  0.19578094220E+04 -0.32070179954E+03  0.19916590486E+04  0.10100000352E+00 0.  1.
       -3    1    3    3    0  502  0.17560859484E+03 -0.19578094220E+04 -0.11066687830E+04  0.22557863189E+04  0.10100000352E+00 0. -1.
</event>
<event>
 5   0  0.6645526E-09  0.4000441E+04  0.7818609E-02  0.8004458E-01
       -2   -1    0    0    0  501  0.00000000000E+00  0.00000000000E+00  0.14565234065E+04  0.14565234065E+04  0.25500000920E-02 0. -1.
        2   -1    0    0  501    0  0.00000000000E+00  0.00000000000E+00 -0.27468710654E+04  0.27468710654E+04  0.25500000920E-02 0.  1.
    10030    2    1    2    0    0  0.00000000000E+00  0.00000000000E+00 -0.12903476589E+04  0.42033944720E+04  0.40004409765E+04 0.  0.
        3    1    3    3  502    0  0.14598328638E+04  0.13598346700E+04 -0.49429331596E+03  0.20553803084E+04  0.10100000352E+00 0.  1.
       -3    1    3    3    0  502 -0.14598328638E+04 -0.13598346700E+04 -0.79605434293E+03  0.21480141636E+04  0.10100000352E+00 0. -1.
</event>
<event>
 5   0  0.2078125E-09  0.4000672E+04  0.7818609E-02  0.8004411E-01
        1   -1    0    0  501    0  0.00000000000E+00  0.00000000000E+00  0.25090137206E+04  0.25090137207E+04  0.50400001928E-02 0. -1.
       -1   -1    0    0    0  501  0.00000000000E+00  0.00000000000E+00 -0.15947880417E+04  0.15947880417E+04  0.50400001928E-02 0.  1.
    10030    2    1    2    0    0  0.00000000000E+00  0.00000000000E+00  0.91422567898E+03  0.41038017623E+04  0.40006724825E+04 0.  0.
        5    1    3    3  502    0  0.99791534099E+02 -0.19300897464E+04 -0.72051622960E+02  0.19340161080E+04  0.46999998093E+01 0.  1.
       -5    1    3    3    0  502 -0.99791534099E+02  0.19300897464E+04  0.98627730194E+03  0.21697856544E+04  0.46999998093E+01 0. -1.
</event>
<event>
 5   0  0.6599276E-09  0.4017949E+04  0.7818609E-02  0.8000935E-01
       -2   -1    0    0    0  501  0.00000000000E+00  0.00000000000E+00  0.18700342742E+04  0.18700342742E+04  0.25500000920E-02 0. -1.
        2   -1    0    0  501    0  0.00000000000E+00  0.00000000000E+00 -0.21582376937E+04  0.21582376937E+04  0.25500000920E-02 0.  1.
    10030    2    1    2    0    0  0.00000000000E+00  0.00000000000E+00 -0.28820341950E+03  0.40282719680E+04  0.40179489590E+04 0.  0.
        2    1    3    3  502    0 -0.89590971935E+03  0.17731288881E+04 -0.44376456945E+03  0.20355754155E+04  0.25500000920E-02 0.  1.
       -2    1    3    3    0  502  0.89590971935E+03 -0.17731288881E+04  0.15556114995E+03  0.19926965525E+04  0.25500000920E-02 0. -1.
</event>
<event>
 5   0  0.6736335E-09  0.4000540E+04  0.7818609E-02  0.8004438E-01
        2   -1    0    0  501    0  0.00000000000E+00  0.00000000000E+00  0.18210839250E+04  0.18210839250E+04  0.25500000920E-02 0.  1.
       -2   -1    0    0    0  501  0.00000000000E+00  0.00000000000E+00 -0.21970867284E+04  0.21970867284E+04  0.25500000920E-02 0. -1.
    10030    2    1    2    0    0  0.00000000000E+00  0.00000000000E+00 -0.37600280336E+03  0.40181706534E+04  0.40005396251E+04 0.  0.
        1    1    3    3  502    0 -0.12281742695E+04 -0.13526773259E+04 -0.10057956956E+04  0.20856109334E+04  0.50400001928E-02 0. -1.
       -1    1    3    3    0  502  0.12281742695E+04  0.13526773259E+04  0.62979289221E+03  0.19325597200E+04  0.50400001928E-02 0.  1.
</event>
<event>
 5   0  0.6538370E-09  0.3990027E+04  0.7818609E-02  0.8006561E-01
        2   -1    0    0  501    0  0.00000000000E+00  0.00000000000E+00  0.27106256496E+04  0.27106256496E+04  0.25500000920E-02 0.  1.
       -2   -1    0    0    0  501  0.00000000000E+00  0.00000000000E+00 -0.14683248597E+04  0.14683248597E+04  0.25500000920E-02 0. -1.
    10030    2    1    2    0    0  0.00000000000E+00  0.00000000000E+00  0.12423007900E+04  0.41789505093E+04  0.39900270809E+04 0.  0.
        4    1    3    3  502    0  0.98021257882E+03  0.15334245819E+04 -0.23477768892E+03  0.18350285622E+04  0.12699999809E+01 0.  1.
       -4    1    3    3    0  502 -0.98021257882E+03 -0.15334245819E+04  0.14770784789E+04  0.23439219470E+04  0.12699999809E+01 0. -1.
</event>
<event>
 5   0  0.2078125E-09  0.3998649E+04  0.7818609E-02  0.8004819E-01
       -1   -1    0    0    0  501  0.00000000000E+00  0.00000000000E+00  0.30302538608E+04  0.30302538608E+04  0.50400001928E-02 0.  1.
        1   -1    0    0  501    0  0.00000000000E+00  0.00000000000E+00 -0.13191296720E+04  0.13191296720E+04  0.50400001928E-02 0. -1.
    10030    2    1    2    0    0  0.00000000000E+00  0.00000000000E+00  0.17111241888E+04  0.43493835328E+04  0.39986486625E+04 0.  0.
        5    1    3    3  502    0 -0.16563170236E+04  0.92382227859E+03  0.15438724020E+04  0.24454851807E+04  0.46999998093E+01 0. -1.
       -5    1    3    3    0  502  0.16563170236E+04 -0.92382227859E+03  0.16725178676E+03  0.19038983522E+04  0.46999998093E+01 0.  1.
</event>
<event>
 5   0  0.6736335E-09  0.3998940E+04  0.7818609E-02  0.8004760E-01
        2   -1    0    0  501    0  0.00000000000E+00  0.00000000000E+00  0.21183055734E+04  0.21183055734E+04  0.25500000920E-02 0. -1.
       -2   -1    0    0    0  501  0.00000000000E+00  0.00000000000E+00 -0.18873012528E+04  0.18873012528E+04  0.25500000920E-02 0.  1.
    10030    2    1    2    0    0  0.00000000000E+00  0.00000000000E+00  0.23100432050E+03  0.40056068262E+04  0.39989402409E+04 0.  0.
        1    1    3    3  502    0  0.10284576471E+03 -0.15806390959E+04 -0.11067301816E+04  0.19323169765E+04  0.50400001928E-02 0.  1.
       -1    1    3    3    0  502 -0.10284576471E+03  0.15806390959E+04  0.13377345021E+04  0.20732898497E+04  0.50400001928E-02 0. -1.
</event>
<event>
 5   0  0.6645526E-09  0.4002536E+04  0.7818609E-02  0.8004035E-01
       -2   -1    0    0    0  501  0.00000000000E+00  0.00000000000E+00  0.13611581285E+04  0.13611581285E+04  0.25500000920E-02 0.  1.
        2   -1    0    0  501    0  0.00000000000E+00  0.00000000000E+00 -0.29424019412E+04  0.29424019412E+04  0.25500000920E-02 0. -1.
    10030    2    1    2    0    0  0.00000000000E+00  0.00000000000E+00 -0.15812438127E+04  0.43035600697E+04  0.40025363556E+04 0.  0.
        3    1    3    3  502    0 -0.19632752441E+03  0.12749121275E+04 -0.24357709340E+04  0.27562520717E+04  0.10100000352E+00 0. -1.
       -3    1    3    3    0  502  0.19632752441E+03 -0.12749121275E+04  0.85452712123E+03  0.15473079980E+04  0.10100000352E+00 0.  1.
</event>
<event>
 5   0  0.2078125E-09  0.3997539E+04  0.7818609E-02  0.8005043E-01
       -1   -1    0    0    0  501  0.00000000000E+00  0.00000000000E+00  0.14289618488E+04  0.14289618488E+04  0.50400001928E-02 0. -1.
        1   -1    0    0  501    0  0.00000000000E+00  0.00000000000E+00 -0.27957915617E+04  0.27957915617E+04  0.50400001928E-02 0.  1.
    10030    2    1    2    0    0  0.00000000000E+00  0.00000000000E+00 -0.13668297128E+04  0.42247534105E+04  0.39975389824E+04 0.  0.
        4    1    3    3  502    0 -0.32806352610E+02 -0.46415983219E+02 -0.27949368547E+04  0.27955150393E+04  0.12699999809E+01 0.  1.
       -4    1    3    3    0  502  0.32806352610E+02  0.46415983219E+02  0.14281071418E+04  0.14292383712E+04  0.12699999809E+01 0. -1.
</event>
<event>
 5   0  0.6547327E-09  0.4000177E+04  0.7818609E-02  0.8004511E-01
       -2   -1    0    0    0  501  0.00000000000E+00  0.00000000000E+00  0.20270914390E+04  0.20270914390E+04  0.25500000920E-02 0. -1.
        2   -1    0    0  501    0  0.00000000000E+00  0.00000000000E+00 -0.19734448693E+04  0.19734448693E+04  0.25500000920E-02 0.  1.
    10030    2    1    2    0    0  0.00000000000E+00  0.00000000000E+00  0.53646569686E+02  0.40005363083E+04  0.40001765961E+04 0.  0.
        5    1    3    3  502    0 -0.23585303717E+03  0.19852032670E+04 -0.33782854257E+02  0.19994554353E+04  0.46999998093E+01 0. -1.
       -5    1    3    3    0  502  0.23585303717E+03 -0.19852032670E+04  0.87429423943E+02  0.20010808731E+04  0.46999998093E+01 0.  1.
</event>
<event>
 5   0  0.6599276E-09  0.3999310E+04  0.7818609E-02  0.8004686E-01
        2   -1    0    0  501    0  0.00000000000E+00  0.00000000000E+00  0.16185388893E+04  0.16185388894E+04  0.25500000920E-02 0. -1.
       -2   -1    0    0    0  501  0.00000000000E+00  0.00000000000E+00 -0.24705127847E+04  0.24705127847E+04  0.25500000920E-02 0.  1.
    10030    2    1    2    0    0  0.00000000000E+00  0.00000000000E+00 -0.85197389539E+03  0.40890516741E+04  0.39993104499E+04 0.  0.
        2    1    3    3  502    0  0.17899691371E+04  0.47083966898E+02  0.48416461097E+03  0.18548913128E+04  0.25500000920E-02 0. -1.
       -2    1    3    3    0  502 -0.17899691371E+04 -0.47083966898E+02 -0.13361385064E+04  0.22341603613E+04  0.25500000920E-02 0.  1.
</event>
<event>
 5   0  0.6599276E-09  0.4001363E+04  0.7818609E-02  0.8004272E-01
       -2   -1    0    0    0  501  0.00000000000E+00  0.00000000000E+00  0.16179626080E+04  0.16179626080E+04  0.25500000920E-02 0. -1.
        2   -1    0    0  501    0  0.00000000000E+00  0.00000000000E+00 -0.24739306427E+04  0.24739306427E+04  0.25500000920E-02 0.  1.
    10030    2    1    2    0    0  0.00000000000E+00  0.00000000000E+00 -0.85596803475E+03  0.40918932507E+04  0.40013634050E+04 0.  0.
        2    1    3    3  502    0 -0.12113010227E+04 -0.30218562616E+03  0.11707683492E+04  0.17115095231E+04  0.25500000920E-02 0. -1.
       -2    1    3    3    0  502  0.12113010227E+04  0.30218562616E+03 -0.20267363840E+04  0.23803837276E+04  0.25500000920E-02 0.  1.
</event>
<event>
 5   0  0.2078125E-09  0.4000070E+04  0.7818609E-02  0.8004532E-01
        1   -1    0    0  501    0  0.00000000000E+00  0.00000000000E+00  0.16896935735E+04  0.16896935735E+04  0.50400001928E-02 0.  1.
       -1   -1    0    0    0  501  0.00000000000E+00  0.00000000000E+00 -0.23673761203E+04  0.23673761203E+04  0.50400001928E-02 0. -1.
    10030    2    1    2    0    0  0.00000000000E+00  0.00000000000E+00 -0.67768254677E+03  0.40570696938E+04  0.40000701076E+04 0.  0.
        3    1    3    3  502    0  0.11856076539E+04  0.12691054290E+04 -0.13448655270E+04  0.21965785656E+04  0.10100000352E+00 0. -1.
       -3    1    3    3    0  502 -0.11856076539E+04 -0.12691054290E+04  0.66718298019E+03  0.18604911282E+04  0.10100000352E+00 0.  1.
</event>
<event>
 5   0  0.2078125E-09  0.3999775E+04  0.7818609E-02  0.8004592E-01
       -1   -1    0    0    0  501  0.00000000000E+00  0.00000000000E+00  0.29521709192E+04  0.29521709192E+04  0.50400001928E-02 0. -1.
        1   -1    0    0  501    0  0.00000000000E+00  0.00000000000E+00 -0.13547828093E+04  0.13547828093E+04  0.50400001928E-02 0.  1.
    10030    2    1    2    0    0  0.00000000000E+00  0.00000000000E+00  0.15973881099E+04  0.43069537285E+04  0.39997751994E+04 0.  0.
        2    1    3    3  502    0  0.10744263960E+04  0.16432755424E+03 -0.10089671777E+04  0.14830409270E+04  0.25500000920E-02 0.  1.
       -2    1    3    3    0  502 -0.10744263960E+04 -0.16432755424E+03  0.26063552876E+04  0.28239128015E+04  0.25500000920E-02 0. -1.
</event>
<event>
 5   0  0.6736335E-09  0.3998321E+04  0.7818609E-02  0.8004885E-01
        2   -1    0    0  501    0  0.00000000000E+00  0.00000000000E+00  0.20062894569E+04  0.20062894569E+04  0.25500000920E-02 0. -1.
       -2   -1    0    0    0  501  0.00000000000E+00  0.00000000000E+00 -0.19920573179E+04  0.19920573179E+04  0.25500000920E-02 0.  1.
    10030    2    1    2    0    0  0.00000000000E+00  0.00000000000E+00  0.14232139009E+02  0.39983467748E+04  0.39983214450E+04 0.  0.
        1    1    3    3  502    0 -0.17122243268E+04 -0.48384977688E+03  0.91861558630E+03  0.20024178753E+04  0.50400001928E-02 0. -1.
       -1    1    3    3    0  502  0.17122243268E+04  0.48384977688E+03 -0.90438344729E+03  0.19959288995E+04  0.50400001928E-02 0.  1.
</event>
<event>
 5   0  0.2078125E-09  0.4000307E+04  0.7818609E-02  0.8004485E-01
        1   -1    0    0  501    0  0.00000000000E+00  0.00000000000E+00  0.22901333792E+04  0.22901333792E+04  0.50400001928E-02 0.  1.
       -1   -1    0    0    0  501  0.00000000000E+00  0.00000000000E+00 -0.17468914670E+04  0.17468914671E+04  0.50400001928E-02 0. -1.
    10030    2    1    2    0    0  0.00000000000E+00  0.00000000000E+00  0.54324191210E+03  0.40370248462E+04  0.40003072174E+04 0.  0.
        2    1    3    3  502    0 -0.19284230650E+04  0.27558346977E+03  0.72949534480E+03  0.20801262521E+04  0.25500000920E-02 0. -1.
       -2    1    3    3    0  502  0.19284230650E+04 -0.27558346977E+03 -0.18625343270E+03  0.19568985941E+04  0.25500000920E-02 0.  1.
</event>
<event>
 5   0  0.2078125E-09  0.4000626E+04  0.7818609E-02  0.8004420E-01
       -1   -1    0    0    0  501  0.00000000000E+00  0.00000000000E+00  0.15416542766E+04  0.15416542766E+04  0.50400001928E-02 0.  1.
        1   -1    0    0  501    0  0.00000000000E+00  0.00000000000E+00 -0.25954275783E+04  0.25954275783E+04  0.50400001928E-02 0. -1.
    10030    2    1    2    0    0  0.00000000000E+00  0.00000000000E+00 -0.10537733017E+04  0.41370818549E+04  0.40006259638E+04 0.  0.
        5    1    3    3  502    0  0.45771217896E+03  0.15913281772E+04 -0.16873962073E+04  0.23641391365E+04  0.46999998093E+01 0. -1.
       -5    1    3    3    0  502 -0.45771217896E+03 -0.15913281772E+04  0.63362290555E+03  0.17729427184E+04  0.46999998093E+01 0.  1.
</event>
<event>
 5   0  0.6547327E-09  0.4000125E+04  0.7818609E-02  0.8004521E-01
        2   -1    0    0  501    0  0.00000000000E+00  0.00000000000E+00  0.27336578745E+04  0.27336578745E+04  0.25500000920E-02 0. -1.
       -2   -1    0    0    0  501  0.00000000000E+00  0.00000000000E+00 -0.14633326450E+04  0.14633326450E+04  0.25500000920E-02 0.  1.
    10030    2    1    2    0    0  0.00000000000E+00  0.00000000000E+00  0.12703252295E+04  0.41969905195E+04  0.40001254021E+04 0.  0.
        5    1    3    3  502    0  0.13454788366E+04  0.22724448846E+03 -0.89908761694E+03  0.16341156600E+04  0.46999998093E+01 0.  1.
       -5    1    3    3    0  502 -0.13454788366E+04 -0.22724448846E+03  0.21694128464E+04  0.25628748595E+04  0.46999998093E+01 0. -1.
</event>
<event>
 5   0  0.2078125E-09  0.3999325E+04  0.7818609E-02  0.8004683E-01
        1   -1    0    0  501    0  0.00000000000E+00  0.00000000000E+00  0.27677619145E+04  0.27677619145E+04  0.50400001928E-02 0. -1.
       -1   -1    0    0    0  501  0.00000000000E+00  0.00000000000E+00 -0.14447233243E+04  0.14447233243E+04  0.50400001928E-02 0.  1.
    10030    2    1    2    0    0  0.00000000000E+00  0.00000000000E+00  0.13230385902E+04  0.42124852389E+04  0.39993250401E+04 0.  0.
        2    1    3    3  502    0 -0.37896316388E+03 -0.14241967322E+04  0.20851108309E+04  0.25533579045E+04  0.25500000920E-02 0. -1.
       -2    1    3    3    0  502  0.37896316388E+03  0.14241967322E+04 -0.76207224072E+03  0.16591273343E+04  0.25500000920E-02 0.  1.
</event>
<event>
 5   0  0.2078125E-09  0.4000144E+04  0.7818609E-02  0.8004517E-01
        1   -1    0    0  501    0  0.00000000000E+00  0.00000000000E+00  0.25093204437E+04  0.25093204437E+04  0.50400001928E-02 0.  1.
       -1   -1    0    0    0  501  0.00000000000E+00  0.00000000000E+00 -0.15941720900E+04  0.15941720900E+04  0.50400001928E-02 0. -1.
    10030    2    1    2    0    0  0.00000000000E+00  0.00000000000E+00  0.91514835367E+03  0.41034925337E+04  0.40001443055E+04 0.  0.
        3    1    3    3  502    0 -0.17846911599E+04  0.66121260539E+03  0.10882456455E+04  0.21923966888E+04  0.10100000352E+00 0.  1.
       -3    1    3    3    0  502  0.17846911599E+04 -0.66121260539E+03 -0.17309729187E+03  0.19110958449E+04  0.10100000352E+00 0. -1.
</event>
<event>
 5   0  0.2078125E-09  0.4000383E+04  0.7818609E-02  0.8004469E-01
        1   -1    0    0  501    0  0.00000000000E+00  0.00000000000E+00  0.15253604522E+04  0.15253604522E+04  0.50400001928E-02 0.  1.
       -1   -1    0    0    0  501  0.00000000000E+00  0.00000000000E+00 -0.26228330248E+04  0.26228330248E+04  0.50400001928E-02 0. -1.
    10030    2    1    2    0    0  0.00000000000E+00  0.00000000000E+00 -0.10974725725E+04  0.41481934770E+04  0.40003828661E+04 0.  0.
        5    1    3    3  502    0  0.12417488894E+04 -0.11267692041E+04 -0.16795313348E+04  0.23732671021E+04  0.46999998093E+01 0. -1.
       -5    1    3    3    0  502 -0.12417488894E+04  0.11267692041E+04  0.58205876227E+03  0.17749263749E+04  0.46999998093E+01 0.  1.
</event>
<event>
 5   0  0.6599276E-09  0.3999878E+04  0.7818609E-02  0.8004571E-01
       -2   -1    0    0    0  501  0.00000000000E+00  0.00000000000E+00  0.17554688331E+04  0.17554688331E+04  0.25500000920E-02 0.  1.
        2   -1    0    0  501    0  0.00000000000E+00  0.00000000000E+00 -0.22784541951E+04  0.22784541951E+04  0.25500000920E-02 0. -1.
    10030    2    1    2    0    0  0.00000000000E+00  0.00000000000E+00 -0.52298536200E+03  0.40339230283E+04  0.39998776618E+04 0.  0.
        2    1    3    3  502    0  0.10941863024E+04 -0.29270090046E+03 -0.19238055150E+04  0.22324751155E+04  0.25500000920E-02 0. -1.
       -2    1    3    3    0  502 -0.10941863024E+04  0.29270090046E+03  0.14008201530E+04  0.18014479128E+04  0.25500000920E-02 0.  1.
</event>
<event>
 5   0  0.6736335E-09  0.3997231E+04  0.7818609E-02  0.8005105E-01
       -2   -1    0    0    0  501  0.00000000000E+00  0.00000000000E+00  0.26031210283E+04  0.26031210283E+04  0.25500000920E-02 0. -1.
        2   -1    0    0  501    0  0.00000000000E+00  0.00000000000E+00 -0.15344900908E+04  0.15344900908E+04  0.25500000920E-02 0.  1.
    10030    2    1    2    0    0  0.00000000000E+00  0.00000000000E+00  0.10686309374E+04  0.41376111191E+04  0.39972307530E+04 0.  0.
        1    1    3    3  502    0 -0.48079130948E+03  0.46365451605E+03 -0.14155394876E+04  0.15652117539E+04  0.50400001928E-02 0.  1.
       -1    1    3    3    0  502  0.48079130948E+03 -0.46365451605E+03  0.24841704250E+04  0.25723993652E+04  0.50400001928E-02 0. -1.
</event>
<event>
 5   0  0.2078125E-09  0.4006021E+04  0.7818609E-02  0.8003333E-01
       -1   -1    0    0    0  501  0.00000000000E+00  0.00000000000E+00  0.25467125013E+04  0.25467125013E+04  0.50400001928E-02 0.  1.
        1   -1    0    0  501    0  0.00000000000E+00  0.00000000000E+00 -0.15753840287E+04  0.15753840287E+04  0.50400001928E-02 0. -1.
    10030    2    1    2    0    0  0.00000000000E+00  0.00000000000E+00  0.97132847259E+03  0.41220965300E+04  0.40060205692E+04 0.  0.
        3    1    3    3  502    0 -0.12754701919E+04 -0.12075405930E+04  0.14764086765E+04  0.22945067191E+04  0.10100000352E+00 0.  1.
       -3    1    3    3    0  502  0.12754701919E+04  0.12075405930E+04 -0.50508020388E+03  0.18275898108E+04  0.10100000352E+00 0. -1.
</event>
<event>
 5   0  0.6736335E-09  0.3999088E+04  0.7818609E-02  0.8004731E-01
        2   -1    0    0  501    0  0.00000000000E+00  0.00000000000E+00  0.23919022508E+04  0.23919022508E+04  0.25500000920E-02 0. -1.
       -2   -1    0    0    0  501  0.00000000000E+00  0.00000000000E+00 -0.16715465055E+04  0.16715465055E+04  0.25500000920E-02 0.  1.
    10030    2    1    2    0    0  0.00000000000E+00  0.00000000000E+00  0.72035574529E+03  0.40634487564E+04  0.39990878205E+04 0.  0.
        1    1    3    3  502    0 -0.76014416811E+03  0.11516792125E+04  0.18305298915E+04  0.22923838790E+04  0.50400001928E-02 0. -1.
       -1    1    3    3    0  502  0.76014416811E+03 -0.11516792125E+04 -0.11101741462E+04  0.17710648774E+04  0.50400001928E-02 0.  1.
</event>
<event>
 5   0  0.6736335E-09  0.4001970E+04  0.7818609E-02  0.8004149E-01
        2   -1    0    0  501    0  0.00000000000E+00  0.00000000000E+00  0.18511952206E+04  0.18511952206E+04  0.25500000920E-02 0.  1.
       -2   -1    0    0    0  501  0.00000000000E+00  0.00000000000E+00 -0.21628950878E+04  0.21628950878E+04  0.25500000920E-02 0. -1.
    10030    2    1    2    0    0  0.00000000000E+00  0.00000000000E+00 -0.31169986725E+03  0.40140903084E+04  0.40019700394E+04 0.  0.
        1    1    3    3  502    0  0.15183864232E+04 -0.43277531055E+03 -0.13888610325E+04  0.21027902337E+04  0.50400001928E-02 0. -1.
       -1    1    3    3    0  502 -0.15183864232E+04  0.43277531055E+03  0.10771611652E+04  0.19113000747E+04  0.50400001928E-02 0.  1.
</event>
<event>
 5   0  0.6547327E-09  0.3999405E+04  0.7818609E-02  0.8004667E-01
       -2   -1    0    0    0  501  0.00000000000E+00  0.00000000000E+00  0.24446142568E+04  0.24446142568E+04  0.25500000920E-02 0.  1.
        2   -1    0    0  501    0  0.00000000000E+00  0.00000000000E+00 -0.16357630534E+04  0.16357630534E+04  0.25500000920E-02 0. -1.
    10030    2    1    2    0    0  0.00000000000E+00  0.00000000000E+00  0.80885120336E+03  0.40803773102E+04  0.39994047963E+04 0.  0.
        5    1    3    3  502    0 -0.13175878362E+04  0.72584409809E+02 -0.11284857845E+04  0.17363203790E+04  0.46999998093E+01 0. -1.
       -5    1    3    3    0  502  0.13175878362E+04 -0.72584409809E+02  0.19373369878E+04  0.23440569313E+04  0.46999998093E+01 0.  1.
</event>
<event>
 5   0  0.6645526E-09  0.4002819E+04  0.7818609E-02  0.8003978E-01
       -2   -1    0    0    0  501  0.00000000000E+00  0.00000000000E+00  0.18174604308E+04  0.18174604308E+04  0.25500000920E-02 0. -1.
        2   -1    0    0  501    0  0.00000000000E+00  0.00000000000E+00 -0.22039763527E+04  0.22039763527E+04  0.25500000920E-02 0.  1.
    10030    2    1    2    0    0  0.00000000000E+00  0.00000000000E+00 -0.38651592188E+03  0.40214367835E+04  0.40028189124E+04 0.  0.
        3    1    3    3  502    0  0.18496487896E+04  0.49750753920E+03  0.38989459341E+03  0.19546693328E+04  0.10100000352E+00 0. -1.
       -3    1    3    3    0  502 -0.18496487896E+04 -0.49750753920E+03 -0.77641051529E+03  0.20667674506E+04  0.10100000352E+00 0.  1.
</event>
<event>
 5   0  0.2078125E-09  0.4000632E+04  0.7818609E-02  0.8004419E-01
        1   -1    0    0  501    0  0.00000000000E+00  0.00000000000E+00  0.15597898675E+04  0.15597898676E+04  0.50400001928E-02 0.  1.
       -1   -1    0    0    0  501  0.00000000000E+00  0.00000000000E+00 -0.25652587679E+04  0.25652587680E+04  0.50400001928E-02 0. -1.
    10030    2    1    2    0    0  0.00000000000E+00  0.00000000000E+00 -0.10054689004E+04  0.41250486355E+04  0.40006322670E+04 0.  0.
        1    1    3    3  502    0  0.62202870479E+03  0.29595439305E+03 -0.24391035430E+04  0.25345087898E+04  0.50400001928E-02 0. -1.
       -1    1    3    3    0  502 -0.62202870479E+03 -0.29595439305E+03  0.14336346426E+04  0.15905398457E+04  0.50400001928E-02 0.  1.
</event>
<event>
 5   0  0.2078125E-09  0.4001586E+04  0.7818609E-02  0.8004227E-01
        1   -1    0    0  501    0  0.00000000000E+00  0.00000000000E+00  0.23415848348E+04  0.23415848348E+04  0.50400001928E-02 0. -1.
       -1   -1    0    0    0  501  0.00000000000E+00  0.00000000000E+00 -0.17095997168E+04  0.17095997169E+04  0.50400001928E-02 0.  1.
    10030    2    1    2    0    0  0.00000000000E+00  0.00000000000E+00  0.63198511793E+03  0.40511845516E+04  0.40015860708E+04 0.  0.
        3    1    3    3  502    0 -0.15043877814E+04 -0.23600600040E+03 -0.99789582166E+03  0.18206255821E+04  0.10100000352E+00 0.  1.
       -3    1    3    3    0  502  0.15043877814E+04  0.23600600040E+03  0.16298809396E+04  0.22305589695E+04  0.10100000352E+00 0. -1.
</event>
<event>
 5   0  0.2078125E-09  0.3996259E+04  0.7818609E-02  0.8005302E-01
       -1   -1    0    0    0  501  0.00000000000E+00  0.00000000000E+00  0.15578684235E+04  0.15578684236E+04  0.50400001928E-02 0.  1.
        1   -1    0    0  501    0  0.00000000000E+00  0.00000000000E+00 -0.25628109914E+04  0.25628109914E+04  0.50400001928E-02 0. -1.
    10030    2    1    2    0    0  0.00000000000E+00  0.00000000000E+00 -0.10049425678E+04  0.41206794149E+04  0.39962594105E+04 0.  0.
        3    1    3    3  502    0  0.46092313933E+03  0.16331801458E+04 -0.15902052644E+04  0.23256139667E+04  0.10100000352E+00 0.  1.
       -3    1    3    3    0  502 -0.46092313933E+03 -0.16331801458E+04  0.58526269656E+03  0.17950654482E+04  0.10100000352E+00 0. -1.
</event>
<event>
 5   0  0.6547327E-09  0.4003607E+04  0.7818609E-02  0.8003819E-01
       -2   -1    0    0    0  501  0.00000000000E+00  0.00000000000E+00  0.14451810315E+04  0.14451810315E+04  0.25500000920E-02 0. -1.
        2   -1    0    0  501    0  0.00000000000E+00  0.00000000000E+00 -0.27728140327E+04  0.27728140327E+04  0.25500000920E-02 0.  1.
    10030    2    1    2    0    0  0.00000000000E+00  0.00000000000E+00 -0.13276330013E+04  0.42179950642E+04  0.40036074952E+04 0.  0.
        5    1    3    3  502    0 -0.17347904071E+04 -0.99016271148E+03 -0.80229384076E+03  0.21525839005E+04  0.46999998093E+01 0.  1.
       -5    1    3    3    0  502  0.17347904071E+04  0.99016271148E+03 -0.52533916049E+03  0.20654111637E+04  0.46999998093E+01 0. -1.
</event>
<event>
 5   0  0.6736335E-09  0.3999123E+04  0.7818609E-02  0.8004723E-01
        2   -1    0    0  501    0  0.00000000000E+00  0.00000000000E+00  0.25133917158E+04  0.25133917158E+04  0.25500000920E-02 0.  1.
       -2   -1    0    0    0  501  0.00000000000E+00  0.00000000000E+00 -0.15907771705E+04  0.15907771705E+04  0.25500000920E-02 0. -1.
    10030    2    1    2    0    0  0.00000000000E+00  0.00000000000E+00  0.92261454526E+03  0.41041688863E+04  0.39991229849E+04 0.  0.
        1    1    3    3  502    0  0.15890545954E+03  0.70360757844E+03  0.23752149356E+04  0.24823296638E+04  0.50400001928E-02 0.  1.
       -1    1    3    3    0  502 -0.15890545954E+03 -0.70360757844E+03 -0.14526003904E+04  0.16218392225E+04  0.50400001928E-02 0. -1.
</event>
<event>
 5   0  0.2078125E-09  0.4001416E+04  0.7818609E-02  0.8004261E-01
        1   -1    0    0  501    0  0.00000000000E+00  0.00000000000E+00  0.13145962166E+04  0.13145962166E+04  0.50400001928E-02 0.  1.
       -1   -1    0    0    0  501  0.00000000000E+00  0.00000000000E+00 -0.30449144749E+04  0.30449144749E+04  0.50400001928E-02 0. -1.
    10030    2    1    2    0    0  0.00000000000E+00  0.00000000000E+00 -0.17303182583E+04  0.43595106915E+04  0.40014162735E+04 0.  0.
        5    1    3    3  502    0  0.76623239358E+03  0.18391818103E+04 -0.10634021942E+04  0.22584393127E+04  0.46999998093E+01 0. -1.
       -5    1    3    3    0  502 -0.76623239358E+03 -0.18391818103E+04 -0.66691606410E+03  0.21010713788E+04  0.46999998093E+01 0.  1.
</event>
<event>
 5   0  0.2078125E-09  0.4000867E+04  0.7818609E-02  0.8004372E-01
       -1   -1    0    0    0  501  0.00000000000E+00  0.00000000000E+00  0.12122419446E+04  0.12122419446E+04  0.50400001928E-02 0. -1.
        1   -1    0    0  501    0  0.00000000000E+00  0.00000000000E+00 -0.33011016148E+04  0.33011016148E+04  0.50400001928E-02 0.  1.
    10030    2    1    2    0    0  0.00000000000E+00  0.00000000000E+00 -0.20888596702E+04  0.45133435594E+04  0.40008668265E+04 0.  0.
        5    1    3    3  502    0  0.74371082361E+03  0.18327729860E+04 -0.13820085195E+04  0.24129094980E+04  0.46999998093E+01 0.  1.
       -5    1    3    3    0  502 -0.74371082361E+03 -0.18327729860E+04 -0.70685115067E+03  0.21004340614E+04  0.46999998093E+01 0. -1.
</event>
<event>
 5   0  0.6736335E-09  0.3999859E+04  0.7818609E-02  0.8004575E-01
       -2   -1    0    0    0  501  0.00000000000E+00  0.00000000000E+00  0.18497839102E+04  0.18497839102E+04  0.25500000920E-02 0.  1.
        2   -1    0    0  501    0  0.00000000000E+00  0.00000000000E+00 -0.21622627687E+04  0.21622627687E+04  0.25500000920E-02 0. -1.
    10030    2    1    2    0    0  0.00000000000E+00  0.00000000000E+00 -0.31247885845E+03  0.40120466789E+04  0.39998594371E+04 0.  0.
        1    1    3    3  502    0  0.10740905768E+04 -0.13934051865E+04 -0.11101735925E+04  0.20803206451E+04  0.50400001928E-02 0.  1.
       -1    1    3    3    0  502 -0.10740905768E+04  0.13934051865E+04  0.79769473402E+03  0.19317260338E+04  0.50400001928E-02 0. -1.
</event>
<event>
 5   0  0.2078125E-09  0.4000966E+04  0.7818609E-02  0.8004352E-01
        1   -1    0    0  501    0  0.00000000000E+00  0.00000000000E+00  0.26682386103E+04  0.26682386103E+04  0.50400001928E-02 0.  1.
       -1   -1    0    0    0  501  0.00000000000E+00  0.00000000000E+00 -0.14998406963E+04  0.14998406963E+04  0.50400001928E-02 0. -1.
    10030    2    1    2    0    0  0.00000000000E+00  0.00000000000E+00  0.11683979140E+04  0.41680793066E+04  0.40009663109E+04 0.  0.
        3    1    3    3  502    0  0.41187227087E+03 -0.17082305893E+04  0.15802962098E+04  0.23632660947E+04  0.10100000352E+00 0.  1.
       -3    1    3    3    0  502 -0.41187227087E+03  0.17082305893E+04 -0.41189829574E+03  0.18048132119E+04  0.10100000352E+00 0. -1.
</event>
<event>
 5   0  0.2078125E-09  0.3999852E+04  0.7818609E-02  0.8004576E-01
        1   -1    0    0  501    0  0.00000000000E+00  0.00000000000E+00  0.17258588411E+04  0.17258588411E+04  0.50400001928E-02 0.  1.
       -1   -1    0    0    0  501  0.00000000000E+00  0.00000000000E+00 -0.23175150323E+04  0.23175150323E+04  0.50400001928E-02 0. -1.
    10030    2    1    2    0    0  0.00000000000E+00  0.00000000000E+00 -0.59165619114E+03  0.40433738734E+04  0.39998519012E+04 0.  0.
        2    1    3    3  502    0 -0.78706174958E+03  0.10174559504E+04  0.12521804620E+04  0.17951709440E+04  0.25500000920E-02 0.  1.
       -2    1    3    3    0  502  0.78706174958E+03 -0.10174559504E+04 -0.18438366531E+04  0.22482029295E+04  0.25500000920E-02 0. -1.
</event>
<event>
 5   0  0.2078125E-09  0.4002239E+04  0.7818609E-02  0.8004095E-01
        1   -1    0    0  501    0  0.00000000000E+00  0.00000000000E+00  0.28916738150E+04  0.28916738151E+04  0.50400001928E-02 0. -1.
       -1   -1    0    0    0  501  0.00000000000E+00  0.00000000000E+00 -0.13848310103E+04  0.13848310103E+04  0.50400001928E-02 0.  1.
    10030    2    1    2    0    0  0.00000000000E+00  0.00000000000E+00  0.15068428048E+04  0.42765048253E+04  0.40022391586E+04 0.  0.
        4    1    3    3  502    0 -0.39335519914E+03 -0.49174763748E+03 -0.12762008515E+04  0.14231072615E+04  0.12699999809E+01 0.  1.
       -4    1    3    3    0  502  0.39335519914E+03  0.49174763748E+03  0.27830436562E+04  0.28533975638E+04  0.12699999809E+01 0. -1.
</event>
<event>
 5   0  0.2078125E-09  0.4002255E+04  0.7818609E-02  0.8004092E-01
       -1   -1    0    0    0  501  0.00000000000E+00  0.00000000000E+00  0.22584558056E+04  0.22584558056E+04  0.50400001928E-02 0. -1.
        1   -1    0    0  501    0  0.00000000000E+00  0.00000000000E+00 -0.17731195995E+04  0.17731195995E+04  0.50400001928E-02 0.  1.
    10030    2    1    2    0    0  0.00000000000E+00  0.00000000000E+00  0.48533620609E+03  0.40315754051E+04  0.40022554909E+04 0.  0.
        4    1    3    3  502    0  0.10925030191E+04  0.62606827570E+03  0.18093711320E+04  0.22043933040E+04  0.12699999809E+01 0. -1.
       -4    1    3    3    0  502 -0.10925030191E+04 -0.62606827570E+03 -0.13240349259E+04  0.18271821011E+04  0.12699999809E+01 0.  1.
</event>
<event>
 5   0  0.2078125E-09  0.4001519E+04  0.7818609E-02  0.8004240E-01
       -1   -1    0    0    0  501  0.00000000000E+00  0.00000000000E+00  0.18090270297E+04  0.18090270297E+04  0.50400001928E-02 0.  1.
        1   -1    0    0  501    0  0.00000000000E+00  0.00000000000E+00 -0.22128131495E+04  0.22128131496E+04  0.50400001928E-02 0. -1.
    10030    2    1    2    0    0  0.00000000000E+00  0.00000000000E+00 -0.40378611989E+03  0.40218401792E+04  0.40015191111E+04 0.  0.
        1    1    3    3  502    0  0.71212417044E+03  0.58166289592E+03 -0.19878768941E+04  0.21902299205E+04  0.50400001928E-02 0. -1.
       -1    1    3    3    0  502 -0.71212417044E+03 -0.58166289592E+03  0.15840907742E+04  0.18316102587E+04  0.50400001928E-02 0.  1.
</event>
<event>
 5   0  0.2078125E-09  0.3997515E+04  0.7818609E-02  0.8005048E-01
       -1   -1    0    0    0  501  0.00000000000E+00  0.00000000000E+00  0.16743965805E+04  0.16743965805E+04  0.50400001928E-02 0. -1.
        1   -1    0    0  501    0  0.00000000000E+00  0.00000000000E+00 -0.23859529970E+04  0.23859529970E+04  0.50400001928E-02 0.  1.
    10030    2    1    2    0    0  0.00000000000E+00  0.00000000000E+00 -0.71155641649E+03  0.40603495775E+04  0.39975149979E+04 0.  0.
        3    1    3    3  502    0  0.16477530004E+04 -0.11199258710E+04 -0.51863440255E+03  0.20587145408E+04  0.10100000352E+00 0. -1.
       -3    1    3    3    0  502 -0.16477530004E+04  0.11199258710E+04 -0.19292201394E+03  0.20016350368E+04  0.10100000352E+00 0.  1.
</event>
<event>
 5   0  0.2078125E-09  0.3997946E+04  0.7818609E-02  0.8004961E-01
       -1   -1    0    0    0  501  0.00000000000E+00  0.00000000000E+00  0.15042777161E+04  0.15042777161E+04  0.50400001928E-02 0.  1.
        1   -1    0    0  501    0  0.00000000000E+00  0.00000000000E+00 -0.26563530200E+04  0.26563530200E+04  0.50400001928E-02 0. -1.
    10030    2    1    2    0    0  0.00000000000E+00  0.00000000000E+00 -0.11520753039E+04  0.41606307361E+04  0.39979457996E+04 0.  0.
        4    1    3    3  502    0 -0.14767811828E+04 -0.92784651929E+03 -0.15925702647E+04  0.23617924308E+04  0.12699999809E+01 0. -1.
       -4    1    3    3    0  502  0.14767811828E+04  0.92784651929E+03  0.44049496076E+03  0.17988383053E+04  0.12699999809E+01 0.  1.
</event>
<event>
 5   0  0.6645526E-09  0.3999181E+04  0.7818609E-02  0.8004712E-01
       -2   -1    0    0    0  501  0.00000000000E+00  0.00000000000E+00  0.24800547344E+04  0.24800547344E+04  0.25500000920E-02 0.  1.
        2   -1    0    0  501    0  0.00000000000E+00  0.00000000000E+00 -0.16122073963E+04  0.16122073963E+04  0.25500000920E-02 0. -1.
    10030    2    1    2    0    0  0.00000000000E+00  0.00000000000E+00  0.86784733809E+03  0.40922621307E+04  0.39991812092E+04 0.  0.
        3    1    3    3  502    0 -0.41343419702E+03  0.29183632904E+03 -0.15455954733E+04  0.16263338081E+04  0.10100000352E+00 0. -1.
       -3    1    3    3    0  502  0.41343419702E+03 -0.29183632904E+03  0.24134428114E+04  0.24659283226E+04  0.10100000352E+00 0.  1.
</event>
<event>
 5   0  0.2078125E-09  0.3999447E+04  0.7818609E-02  0.8004658E-01
        1   -1    0    0  501    0  0.00000000000E+00  0.00000000000E+00  0.15216159852E+04  0.15216159852E+04  0.50400001928E-02 0. -1.
       -1   -1    0    0    0  501  0.00000000000E+00  0.00000000000E+00 -0.26280572116E+04  0.26280572116E+04  0.50400001928E-02 0.  1.
    10030    2    1    2    0    0  0.00000000000E+00  0.00000000000E+00 -0.11064412264E+04  0.41496731967E+04  0.39994468933E+04 0.  0.
        2    1    3    3  502    0 -0.69764194368E+03 -0.18249932617E+04 -0.11108149520E+03  0.19569475684E+04  0.25500000920E-02 0.  1.
       -2    1    3    3    0  502  0.69764194368E+03  0.18249932617E+04 -0.99535973118E+03  0.21927256284E+04  0.25500000920E-02 0. -1.
</event>
<event>
 5   0  0.2078125E-09  0.3998011E+04  0.7818609E-02  0.8004948E-01
        1   -1    0    0  501    0  0.00000000000E+00  0.00000000000E+00  0.17638960400E+04  0.17638960401E+04  0.50400001928E-02 0.  1.
       -1   -1    0    0    0  501  0.00000000000E+00  0.00000000000E+00 -0.22654530563E+04  0.22654530563E+04  0.50400001928E-02 0. -1.
    10030    2    1    2    0    0  0.00000000000E+00  0.00000000000E+00 -0.50155701625E+03  0.40293490963E+04  0.39980113431E+04 0.  0.
        3    1    3    3  502    0  0.97066031913E+03  0.73295691208E+03 -0.18495978100E+04  0.22136890836E+04  0.10100000352E+00 0. -1.
       -3    1    3    3    0  502 -0.97066031913E+03 -0.73295691208E+03  0.13480407937E+04  0.18156600127E+04  0.10100000352E+00 0.  1.
</event>
<event>
 5   0  0.2078125E-09  0.3998667E+04  0.7818609E-02  0.8004815E-01
        1   -1    0    0  501    0  0.00000000000E+00  0.00000000000E+00  0.15556477429E+04  0.15556477429E+04  0.50400001928E-02 0.  1.
       -1   -1    0    0    0  501  0.00000000000E+00  0.00000000000E+00 -0.25695633263E+04  0.25695633263E+04  0.50400001928E-02 0. -1.
    10030    2    1    2    0    0  0.00000000000E+00  0.00000000000E+00 -0.10139155834E+04  0.41252110693E+04  0.39986674725E+04 0.  0.
        2    1    3    3  502    0  0.43693147613E+03  0.17896699348E+03  0.14973050683E+04  0.15699875054E+04  0.25500000920E-02 0.  1.
       -2    1    3    3    0  502 -0.43693147613E+03 -0.17896699348E+03 -0.25112206517E+04  0.25552235638E+04  0.25500000920E-02 0. -1.
</event>
<event>
 5   0  0.6736335E-09  0.4000505E+04  0.7818609E-02  0.8004445E-01
        2   -1    0    0  501    0  0.00000000000E+00  0.00000000000E+00  0.12672437362E+04  0.12672437362E+04  0.25500000920E-02 0.  1.
       -2   -1    0    0    0  501  0.00000000000E+00  0.00000000000E+00 -0.31572543396E+04  0.31572543396E+04  0.25500000920E-02 0. -1.
    10030    2    1    2    0    0  0.00000000000E+00  0.00000000000E+00 -0.18900106034E+04  0.44244980758E+04  0.40005053608E+04 0.  0.
        1    1    3    3  502    0 -0.45657162563E+03 -0.52739307073E+03 -0.30183683174E+04  0.30979264678E+04  0.50400001928E-02 0. -1.
       -1    1    3    3    0  502  0.45657162563E+03  0.52739307073E+03  0.11283577140E+04  0.13265716080E+04  0.50400001928E-02 0.  1.
</event>
<event>
 5   0  0.2078125E-09  0.3995481E+04  0.7818609E-02  0.8005459E-01
        1   -1    0    0  501    0  0.00000000000E+00  0.00000000000E+00  0.19599459031E+04  0.19599459031E+04  0.50400001928E-02 0.  1.
       -1   -1    0    0    0  501  0.00000000000E+00  0.00000000000E+00 -0.20362640183E+04  0.20362640183E+04  0.50400001928E-02 0. -1.
    10030    2    1    2    0    0  0.00000000000E+00  0.00000000000E+00 -0.76318115245E+02  0.39962099214E+04  0.39954811076E+04 0.  0.
        1    1    3    3  502    0  0.14684574332E+04 -0.80795965018E+03 -0.11254642005E+04  0.20188699057E+04  0.50400001928E-02 0. -1.
       -1    1    3    3    0  502 -0.14684574332E+04  0.80795965018E+03  0.10491460853E+04  0.19773400157E+04  0.50400001928E-02 0.  1.
</event>
<event>
 5   0  0.6599276E-09  0.4000122E+04  0.7818609E-02  0.8004522E-01
       -2   -1    0    0    0  501  0.00000000000E+00  0.00000000000E+00  0.21256711395E+04  0.21256711395E+04  0.25500000920E-02 0. -1.
        2   -1    0    0  501    0  0.00000000000E+00  0.00000000000E+00 -0.18818731628E+04  0.18818731628E+04  0.25500000920E-02 0.  1.
    10030    2    1    2    0    0  0.00000000000E+00  0.00000000000E+00  0.24379797675E+03  0.40075443023E+04  0.40001217333E+04 0.  0.
        2    1    3    3  502    0 -0.55642913483E+03 -0.13368024579E+04 -0.12603674033E+04  0.19196823135E+04  0.25500000920E-02 0.  1.
       -2    1    3    3    0  502  0.55642913483E+03  0.13368024579E+04  0.15041653800E+04  0.20878619888E+04  0.25500000920E-02 0. -1.
</event>
<event>
 5   0  0.2078125E-09  0.4003931E+04  0.7818609E-02  0.8003754E-01
       -1   -1    0    0    0  501  0.00000000000E+00  0.00000000000E+00  0.17961433118E+04  0.17961433118E+04  0.50400001928E-02 0. -1.
        1   -1    0    0  501    0  0.00000000000E+00  0.00000000000E+00 -0.22313729433E+04  0.22313729433E+04  0.50400001928E-02 0.  1.
    10030    2    1    2    0    0  0.00000000000E+00  0.00000000000E+00 -0.43522963142E+03  0.40275162551E+04  0.40039308627E+04 0.  0.
        1    1    3    3  502    0  0.15032512720E+04  0.10974527441E+04  0.52408790114E+03  0.19336067440E+04  0.50400001928E-02 0.  1.
       -1    1    3    3    0  502 -0.15032512720E+04 -0.10974527441E+04 -0.95931753257E+03  0.20939095111E+04  0.50400001928E-02 0. -1.
</event>
<event>
 5   0  0.2078125E-09  0.4000595E+04  0.7818609E-02  0.8004427E-01
        1   -1    0    0  501    0  0.00000000000E+00  0.00000000000E+00  0.27202511104E+04  0.27202511104E+04  0.50400001928E-02 0. -1.
       -1   -1    0    0    0  501  0.00000000000E+00  0.00000000000E+00 -0.14708900234E+04  0.14708900234E+04  0.50400001928E-02 0.  1.
    10030    2    1    2    0    0  0.00000000000E+00  0.00000000000E+00  0.12493610869E+04  0.41911411338E+04  0.40005950655E+04 0.  0.
        3    1    3    3  502    0  0.42165509992E+03 -0.17236001796E+04 -0.34266192509E+03  0.18072099512E+04  0.10100000352E+00 0.  1.
       -3    1    3    3    0  502 -0.42165509992E+03  0.17236001796E+04  0.15920230120E+04  0.23839311826E+04  0.10100000352E+00 0. -1.
</event>
<event>
 5   0  0.6645526E-09  0.3997198E+04  0.7818609E-02  0.8005112E-01
        2   -1    0    0  501    0  0.00000000000E+00  0.00000000000E+00  0.22766157408E+04  0.22766157408E+04  0.25500000920E-02 0. -1.
       -2   -1    0    0    0  501  0.00000000000E+00  0.00000000000E+00 -0.17545334804E+04  0.17545334804E+04  0.25500000920E-02 0.  1.
    10030    2    1    2    0    0  0.00000000000E+00  0.00000000000E+00  0.52208226041E+03  0.40311492213E+04  0.39971982885E+04 0.  0.
        3    1    3    3  502    0  0.48096915634E+03  0.16367322572E+04 -0.78903991662E+03  0.18795764978E+04  0.10100000352E+00 0.  1.
       -3    1    3    3    0  502 -0.48096915634E+03 -0.16367322572E+04  0.13111221770E+04  0.21515727235E+04  0.10100000352E+00 0. -1.
</event>
<event>
 5   0  0.6538370E-09  0.4003465E+04  0.7818609E-02  0.8003848E-01
       -2   -1    0    0    0  501  0.00000000000E+00  0.00000000000E+00  0.16773921951E+04  0.16773921951E+04  0.25500000920E-02 0. -1.
        2   -1    0    0  501    0  0.00000000000E+00  0.00000000000E+00 -0.23887869744E+04  0.23887869744E+04  0.25500000920E-02 0.  1.
    10030    2    1    2    0    0  0.00000000000E+00  0.00000000000E+00 -0.71139477933E+03  0.40661791694E+04  0.40034648126E+04 0.  0.
        4    1    3    3  502    0 -0.21622189419E+03 -0.82893035619E+03  0.14818013599E+04  0.17116116166E+04  0.12699999809E+01 0. -1.
       -4    1    3    3    0  502  0.21622189419E+03  0.82893035619E+03 -0.21931961392E+04  0.23545675529E+04  0.12699999809E+01 0.  1.
</event>
<event>
 5   0  0.2078125E-09  0.3992157E+04  0.7818609E-02  0.8006131E-01
       -1   -1    0    0    0  501  0.00000000000E+00  0.00000000000E+00  0.15202406351E+04  0.15202406351E+04  0.50400001928E-02 0.  1.
        1   -1    0    0  501    0  0.00000000000E+00  0.00000000000E+00 -0.26208542432E+04  0.26208542432E+04  0.50400001928E-02 0. -1.
    10030    2    1    2    0    0  0.00000000000E+00  0.00000000000E+00 -0.11006136081E+04  0.41410948783E+04  0.39921568702E+04 0.  0.
        1    1    3    3  502    0  0.78631405747E+03 -0.72954538864E+03  0.11958868225E+04  0.16064468753E+04  0.50400001928E-02 0.  1.
       -1    1    3    3    0  502 -0.78631405747E+03  0.72954538864E+03 -0.22965004306E+04  0.25346480029E+04  0.50400001928E-02 0. -1.
</event>
<event>
 5   0  0.2078125E-09  0.4003726E+04  0.7818609E-02  0.8003795E-01
        1   -1    0    0  501    0  0.00000000000E+00  0.00000000000E+00  0.24759564672E+04  0.24759564672E+04  0.50400001928E-02 0.  1.
       -1   -1    0    0    0  501  0.00000000000E+00  0.00000000000E+00 -0.16185482801E+04  0.16185482802E+04  0.50400001928E-02 0. -1.
    10030    2    1    2    0    0  0.00000000000E+00  0.00000000000E+00  0.85740818709E+03  0.40945047474E+04  0.40037258057E+04 0.  0.
        5    1    3    3  502    0 -0.16303009153E+04  0.17127039652E+03  0.16037638078E+04  0.22933152999E+04  0.46999998093E+01 0.  1.
       -5    1    3    3    0  502  0.16303009153E+04 -0.17127039652E+03 -0.74635562075E+03  0.18011894475E+04  0.46999998093E+01 0. -1.
</event>
<event>
 5   0  0.6645526E-09  0.3999456E+04  0.7818609E-02  0.8004656E-01
        2   -1    0    0  501    0  0.00000000000E+00  0.00000000000E+00  0.30353319708E+04  0.30353319708E+04  0.25500000920E-02 0.  1.
       -2   -1    0    0    0  501  0.00000000000E+00  0.00000000000E+00 -0.13174548197E+04  0.13174548197E+04  0.25500000920E-02 0. -1.
    10030    2    1    2    0    0  0.00000000000E+00  0.00000000000E+00  0.17178771511E+04  0.43527867905E+04  0.39994563302E+04 0.  0.
        3    1    3    3  502    0  0.43574668398E+03 -0.16286165706E+04 -0.31154842329E+03  0.17144472978E+04  0.10100000352E+00 0. -1.
       -3    1    3    3    0  502 -0.43574668398E+03  0.16286165706E+04  0.20294255744E+04  0.26383394927E+04  0.10100000352E+00 0.  1.
</event>
<event>
 5   0  0.2078125E-09  0.3999946E+04  0.7818609E-02  0.8004558E-01
       -1   -1    0    0    0  501  0.00000000000E+00  0.00000000000E+00  0.14778568939E+04  0.14778568939E+04  0.50400001928E-02 0.  1.
        1   -1    0    0  501    0  0.00000000000E+00  0.00000000000E+00 -0.27065485407E+04  0.27065485407E+04  0.50400001928E-02 0. -1.
    10030    2    1    2    0    0  0.00000000000E+00  0.00000000000E+00 -0.12286916469E+04  0.41844054346E+04  0.39999457094E+04 0.  0.
        4    1    3    3  502    0  0.14533474662E+04 -0.11665019070E+04  0.14503914397E+03  0.18692200306E+04  0.12699999809E+01 0.  1.
       -4    1    3    3    0  502 -0.14533474662E+04  0.11665019070E+04 -0.13737307908E+04  0.23151854040E+04  0.12699999809E+01 0. -1.
</event>
<event>
 5   0  0.6645526E-09  0.3999341E+04  0.7818609E-02  0.8004680E-01
       -2   -1    0    0    0  501  0.00000000000E+00  0.00000000000E+00  0.16635172283E+04  0.16635172283E+04  0.25500000920E-02 0. -1.
        2   -1    0    0  501    0  0.00000000000E+00  0.00000000000E+00 -0.24037510664E+04  0.24037510664E+04  0.25500000920E-02 0.  1.
    10030    2    1    2    0    0  0.00000000000E+00  0.00000000000E+00 -0.74023383812E+03  0.40672682948E+04  0.39993406015E+04 0.  0.
        3    1    3    3  502    0  0.36026308065E+03  0.21509532505E+03  0.16182444798E+04  0.16717567685E+04  0.10100000352E+00 0. -1.
       -3    1    3    3    0  502 -0.36026308065E+03 -0.21509532505E+03 -0.23584783180E+04  0.23955115263E+04  0.10100000352E+00 0.  1.
</event>
<event>
 5   0  0.2078125E-09  0.3998578E+04  0.7818609E-02  0.8004834E-01
       -1   -1    0    0    0  501  0.00000000000E+00  0.00000000000E+00  0.13862376804E+04  0.13862376804E+04  0.50400001928E-02 0.  1.
        1   -1    0    0  501    0  0.00000000000E+00  0.00000000000E+00 -0.28834563613E+04  0.28834563613E+04  0.50400001928E-02 0. -1.
    10030    2    1    2    0    0  0.00000000000E+00  0.00000000000E+00 -0.14972186808E+04  0.42696940417E+04  0.39985776761E+04 0.  0.
        2    1    3    3  502    0  0.78498288045E+03  0.89924446986E+03 -0.24611996109E+04  0.27353870409E+04  0.25500000920E-02 0. -1.
       -2    1    3    3    0  502 -0.78498288045E+03 -0.89924446986E+03  0.96398093002E+03  0.15343070008E+04  0.25500000920E-02 0.  1.
</event>
<event>
 5   0  0.6547327E-09  0.4000808E+04  0.7818609E-02  0.8004383E-01
       -2   -1    0    0    0  501  0.00000000000E+00  0.00000000000E+00  0.31292835570E+04  0.31292835570E+04  0.25500000920E-02 0. -1.
        2   -1    0    0  501    0  0.00000000000E+00  0.00000000000E+00 -0.12787646267E+04  0.12787646267E+04  0.25500000920E-02 0.  1.
    10030    2    1    2    0    0  0.00000000000E+00  0.00000000000E+00  0.18505189303E+04  0.44080481836E+04  0.40008084780E+04 0.  0.
        5    1    3    3  502    0  0.35019386352E+02  0.97261919143E+03  0.28508331676E+04  0.30123888010E+04  0.46999998093E+01 0. -1.
       -5    1    3    3    0  502 -0.35019386352E+02 -0.97261919143E+03 -0.10003142373E+04  0.13956593826E+04  0.46999998093E+01 0.  1.
</event>
<event>
 5   0  0.2078125E-09  0.3986027E+04  0.7818609E-02  0.8007371E-01
       -1   -1    0    0    0  501  0.00000000000E+00  0.00000000000E+00  0.33708511566E+04  0.33708511566E+04  0.50400001928E-02 0.  1.
        1   -1    0    0  501    0  0.00000000000E+00  0.00000000000E+00 -0.11783681115E+04  0.11783681116E+04  0.50400001928E-02 0. -1.
    10030    2    1    2    0    0  0.00000000000E+00  0.00000000000E+00  0.21924830450E+04  0.45492192681E+04  0.39860273515E+04 0.  0.
        1    1    3    3  502    0 -0.99858564799E+03 -0.17087020171E+04  0.82793450965E+03  0.21452998466E+04  0.50400001928E-02 0. -1.
       -1    1    3    3    0  502  0.99858564799E+03  0.17087020171E+04  0.13645485354E+04  0.24039194215E+04  0.50400001928E-02 0.  1.
</event>
<event>
 5   0  0.2078125E-09  0.3993537E+04  0.7818609E-02  0.8005852E-01
        1   -1    0    0  501    0  0.00000000000E+00  0.00000000000E+00  0.20878501026E+04  0.20878501026E+04  0.50400001928E-02 0. -1.
       -1   -1    0    0    0  501  0.00000000000E+00  0.00000000000E+00 -0.19096604002E+04  0.19096604002E+04  0.50400001928E-02 0.  1.
    10030    2    1    2    0    0  0.00000000000E+00  0.00000000000E+00  0.17818970235E+03  0.39975105028E+04  0.39935371102E+04 0.  0.
        1    1    3    3  502    0  0.50734248416E+03 -0.17997367729E+04  0.79024577785E+03  0.20300091718E+04  0.50400001928E-02 0. -1.
       -1    1    3    3    0  502 -0.50734248416E+03  0.17997367729E+04 -0.61205607550E+03  0.19675013311E+04  0.50400001928E-02 0.  1.
</event>
<event>
 5   0  0.6645526E-09  0.3999354E+04  0.7818609E-02  0.8004677E-01
       -2   -1    0    0    0  501  0.00000000000E+00  0.00000000000E+00  0.29934021031E+04  0.29934021032E+04  0.25500000920E-02 0. -1.
        2   -1    0    0  501    0  0.00000000000E+00  0.00000000000E+00 -0.13358404420E+04  0.13358404420E+04  0.25500000920E-02 0.  1.
    10030    2    1    2    0    0  0.00000000000E+00  0.00000000000E+00  0.16575616612E+04  0.43292425451E+04  0.39993537420E+04 0.  0.
        3    1    3    3  502    0 -0.65368002722E+03 -0.29378192334E+03  0.28496111849E+04  0.29383480583E+04  0.10100000352E+00 0. -1.
       -3    1    3    3    0  502  0.65368002722E+03  0.29378192334E+03 -0.11920495237E+04  0.13908944868E+04  0.10100000352E+00 0.  1.
</event>
<event>
 5   0  0.2078125E-09  0.4003219E+04  0.7818609E-02  0.8003897E-01
        1   -1    0    0  501    0  0.00000000000E+00  0.00000000000E+00  0.22690571588E+04  0.22690571588E+04  0.50400001928E-02 0.  1.
       -1   -1    0    0    0  501  0.00000000000E+00  0.00000000000E+00 -0.17656852067E+04  0.17656852067E+04  0.50400001928E-02 0. -1.
    10030    2    1    2    0    0  0.00000000000E+00  0.00000000000E+00  0.50337195213E+03  0.40347423655E+04  0.40032190339E+04 0.  0.
        4    1    3    3  502    0  0.31207667529E+03  0.18691173626E+04  0.90131365324E+03  0.20984183284E+04  0.12699999809E+01 0. -1.
       -4    1    3    3    0  502 -0.31207667529E+03 -0.18691173626E+04 -0.39794170111E+03  0.19363240371E+04  0.12699999809E+01 0.  1.
</event>
<event>
 5   0  0.2078125E-09  0.4005181E+04  0.7818609E-02  0.8003502E-01
        1   -1    0    0  501    0  0.00000000000E+00  0.00000000000E+00  0.22103703673E+04  0.22103703673E+04  0.50400001928E-02 0. -1.
       -1   -1    0    0    0  501  0.00000000000E+00  0.00000000000E+00 -0.18143422467E+04  0.18143422467E+04  0.50400001928E-02 0.  1.
    10030    2    1    2    0    0  0.00000000000E+00  0.00000000000E+00  0.39602812065E+03  0.40247126141E+04  0.40051808141E+04 0.  0.
        1    1    3    3  502    0  0.93559340445E+03  0.10722188821E+04  0.16139205355E+04  0.21516802375E+04  0.50400001928E-02 0. -1.
       -1    1    3    3    0  502 -0.93559340445E+03 -0.10722188821E+04 -0.12178924148E+04  0.18730323766E+04  0.50400001928E-02 0.  1.
</event>
<event>
 5   0  0.6547327E-09  0.3995047E+04  0.7818609E-02  0.8005546E-01
        2   -1    0    0  501    0  0.00000000000E+00  0.00000000000E+00  0.24532876422E+04  0.24532876422E+04  0.25500000920E-02 0.  1.
       -2   -1    0    0    0  501  0.00000000000E+00  0.00000000000E+00 -0.16264301315E+04  0.16264301315E+04  0.25500000920E-02 0. -1.
    10030    2    1    2    0    0  0.00000000000E+00  0.00000000000E+00  0.82685751075E+03  0.40797177737E+04  0.39950474052E+04 0.  0.
        5    1    3    3  502    0 -0.42727868587E+03  0.15751028679E+04  0.15896041227E+04  0.22782404344E+04  0.46999998093E+01 0.  1.
       -5    1    3    3    0  502  0.42727868587E+03 -0.15751028679E+04 -0.76274661197E+03  0.18014773393E+04  0.46999998093E+01 0. -1.
</event>
<event>
 5   0  0.2078125E-09  0.4000708E+04  0.7818609E-02  0.8004404E-01
        1   -1    0    0  501    0  0.00000000000E+00  0.00000000000E+00  0.15370009058E+04  0.15370009058E+04  0.50400001928E-02 0. -1.
       -1   -1    0    0    0  501  0.00000000000E+00  0.00000000000E+00 -0.26033921216E+04  0.26033921216E+04  0.50400001928E-02 0.  1.
    10030    2    1    2    0    0  0.00000000000E+00  0.00000000000E+00 -0.10663912158E+04  0.41403930274E+04  0.40007079618E+04 0.  0.
        5    1    3    3  502    0  0.77479629502E+03  0.12772542343E+02  0.13753521124E+04  0.15786348405E+04  0.46999998093E+01 0. -1.
       -5    1    3    3    0  502 -0.77479629502E+03 -0.12772542343E+02 -0.24417433283E+04  0.25617581868E+04  0.46999998093E+01 0.  1.
</event>
<event>
 5   0  0.6645526E-09  0.3999961E+04  0.7818609E-02  0.8004554E-01
        2   -1    0    0  501    0  0.00000000000E+00  0.00000000000E+00  0.27131470506E+04  0.27131470506E+04  0.25500000920E-02 0. -1.
       -2   -1    0    0    0  501  0.00000000000E+00  0.00000000000E+00 -0.14742742582E+04  0.14742742582E+04  0.25500000920E-02 0.  1.
    10030    2    1    2    0    0  0.00000000000E+00  0.00000000000E+00  0.12388727924E+04  0.41874213088E+04  0.39999614275E+04 0.  0.
        3    1    3    3  502    0 -0.61794616614E+03 -0.11660346936E+03 -0.13680835851E+04  0.15056913825E+04  0.10100000352E+00 0.  1.
       -3    1    3    3    0  502  0.61794616614E+03  0.11660346936E+03  0.26069563775E+04  0.26817299263E+04  0.10100000352E+00 0. -1.
</event>
<event>
 5   0  0.2078125E-09  0.3998905E+04  0.7818609E-02  0.8004767E-01
        1   -1    0    0  501    0  0.00000000000E+00  0.00000000000E+00  0.20113977780E+04  0.20113977780E+04  0.50400001928E-02 0. -1.
       -1   -1    0    0    0  501  0.00000000000E+00  0.00000000000E+00 -0.19875782422E+04  0.19875782422E+04  0.50400001928E-02 0.  1.
    10030    2    1    2    0    0  0.00000000000E+00  0.00000000000E+00  0.23819535792E+02  0.39989760202E+04  0.39989050801E+04 0.  0.
        2    1    3    3  502    0  0.10853461022E+04  0.18336685755E+03 -0.16573145276E+04  0.19895454279E+04  0.25500000920E-02 0.  1.
       -2    1    3    3    0  502 -0.10853461022E+04 -0.18336685755E+03  0.16811340634E+04  0.20094305923E+04  0.25500000920E-02 0. -1.
</event>
<event>
 5   0  0.2078125E-09  0.4002215E+04  0.7818609E-02  0.8004100E-01
        1   -1    0    0  501    0  0.00000000000E+00  0.00000000000E+00  0.21674097505E+04  0.21674097505E+04  0.50400001928E-02 0.  1.
       -1   -1    0    0    0  501  0.00000000000E+00  0.00000000000E+00 -0.18475654090E+04  0.18475654090E+04  0.50400001928E-02 0. -1.
    10030    2    1    2    0    0  0.00000000000E+00  0.00000000000E+00  0.31984434149E+03  0.40149751595E+04  0.40022150278E+04 0.  0.
        4    1    3    3  502    0  0.19985680855E+04  0.60144897072E+02  0.24103704908E+03  0.20139494217E+04  0.12699999809E+01 0.  1.
       -4    1    3    3    0  502 -0.19985680855E+04 -0.60144897072E+02  0.78807292409E+02  0.20010257378E+04  0.12699999809E+01 0. -1.
</event>
<event>
 5   0  0.2078125E-09  0.4001456E+04  0.7818609E-02  0.8004253E-01
       -1   -1    0    0    0  501  0.00000000000E+00  0.00000000000E+00  0.25918909113E+04  0.25918909113E+04  0.50400001928E-02 0. -1.
        1   -1    0    0  501    0  0.00000000000E+00  0.00000000000E+00 -0.15443983494E+04  0.15443983494E+04  0.50400001928E-02 0.  1.
    10030    2    1    2    0    0  0.00000000000E+00  0.00000000000E+00  0.10474925619E+04  0.41362892607E+04  0.40014557577E+04 0.  0.
        1    1    3    3  502    0 -0.18294730839E+04 -0.63929287966E+02 -0.31083343679E+03  0.18567918957E+04  0.50400001928E-02 0.  1.
       -1    1    3    3    0  502  0.18294730839E+04  0.63929287966E+02  0.13583259987E+04  0.22794973650E+04  0.50400001928E-02 0. -1.
</event>
<event>
 5   0  0.2078125E-09  0.3996795E+04  0.7818609E-02  0.8005193E-01
       -1   -1    0    0    0  501  0.00000000000E+00  0.00000000000E+00  0.14942598061E+04  0.14942598061E+04  0.50400001928E-02 0.  1.
        1   -1    0    0  501    0  0.00000000000E+00  0.00000000000E+00 -0.26726227181E+04  0.26726227181E+04  0.50400001928E-02 0. -1.
    10030    2    1    2    0    0  0.00000000000E+00  0.00000000000E+00 -0.11783629120E+04  0.41668825243E+04  0.39967950684E+04 0.  0.
        4    1    3    3  502    0  0.13537337819E+04 -0.11127109187E+04 -0.15907247391E+04  0.23666701395E+04  0.12699999809E+01 0. -1.
       -4    1    3    3    0  502 -0.13537337819E+04  0.11127109187E+04  0.41236182715E+03  0.18002123847E+04  0.12699999809E+01 0.  1.
</event>
<event>
 5   0  0.6599276E-09  0.4000934E+04  0.7818609E-02  0.8004358E-01
       -2   -1    0    0    0  501  0.00000000000E+00  0.00000000000E+00  0.22627663909E+04  0.22627663909E+04  0.25500000920E-02 0. -1.
        2   -1    0    0  501    0  0.00000000000E+00  0.00000000000E+00 -0.17685730200E+04  0.17685730200E+04  0.25500000920E-02 0.  1.
    10030    2    1    2    0    0  0.00000000000E+00  0.00000000000E+00  0.49419337093E+03  0.40313394108E+04  0.40009336857E+04 0.  0.
        2    1    3    3  502    0 -0.67588636659E+03 -0.15503869535E+04  0.13235534152E+04  0.21476302589E+04  0.25500000920E-02 0. -1.
       -2    1    3    3    0  502  0.67588636659E+03  0.15503869535E+04 -0.82936004424E+03  0.18837091519E+04  0.25500000920E-02 0.  1.
</event>
<event>
 5   0  0.6736335E-09  0.4001399E+04  0.7818609E-02  0.8004264E-01
        2   -1    0    0  501    0  0.00000000000E+00  0.00000000000E+00  0.22594362651E+04  0.22594362651E+04  0.25500000920E-02 0.  1.
       -2   -1    0    0    0  501  0.00000000000E+00  0.00000000000E+00 -0.17715916918E+04  0.17715916918E+04  0.25500000920E-02 0. -1.
    10030    2    1    2    0    0  0.00000000000E+00  0.00000000000E+00  0.48784457332E+03  0.40310279568E+04  0.40013990130E+04 0.  0.
        1    1    3    3  502    0  0.19909576016E+04 -0.91549978982E+02  0.41987220666E+03  0.20368078555E+04  0.50400001928E-02 0.  1.
       -1    1    3    3    0  502 -0.19909576016E+04  0.91549978982E+02  0.67972366661E+02  0.19942201014E+04  0.50400001928E-02 0. -1.
</event>
<event>
 5   0  0.6645526E-09  0.3999956E+04  0.7818609E-02  0.8004555E-01
        2   -1    0    0  501    0  0.00000000000E+00  0.00000000000E+00  0.29405852471E+04  0.29405852471E+04  0.25500000920E-02 0. -1.
       -2   -1    0    0    0  501  0.00000000000E+00  0.00000000000E+00 -0.13602436996E+04  0.13602436996E+04  0.25500000920E-02 0.  1.
    10030    2    1    2    0    0  0.00000000000E+00  0.00000000000E+00  0.15803415475E+04  0.43008289467E+04  0.39999562775E+04 0.  0.
        3    1    3    3  502    0 -0.16552444720E+04 -0.11116678751E+04  0.62265448938E+03  0.20888605387E+04  0.10100000352E+00 0. -1.
       -3    1    3    3    0  502  0.16552444720E+04  0.11116678751E+04  0.95768705815E+03  0.22119684081E+04  0.10100000352E+00 0.  1.
</event>
<event>
 5   0  0.6736335E-09  0.3997125E+04  0.7818609E-02  0.8005127E-01
       -2   -1    0    0    0  501  0.00000000000E+00  0.00000000000E+00  0.13397305987E+04  0.13397305987E+04  0.25500000920E-02 0.  1.
        2   -1    0    0  501    0  0.00000000000E+00  0.00000000000E+00 -0.29813847352E+04  0.29813847352E+04  0.25500000920E-02 0. -1.
    10030    2    1    2    0    0  0.00000000000E+00  0.00000000000E+00 -0.16416541365E+04  0.43211153339E+04  0.39971251450E+04 0.  0.
        1    1    3    3  502    0  0.26144719700E+03 -0.47006148343E+03  0.12600129781E+04  0.13700164744E+04  0.50400001928E-02 0.  1.
       -1    1    3    3    0  502 -0.26144719700E+03  0.47006148343E+03 -0.29016671146E+04  0.29510988596E+04  0.50400001928E-02 0. -1.
</event>
<event>
 5   0  0.6538370E-09  0.4000488E+04  0.7818609E-02  0.8004448E-01
       -2   -1    0    0    0  501  0.00000000000E+00  0.00000000000E+00  0.19941380369E+04  0.19941380369E+04  0.25500000920E-02 0.  1.
        2   -1    0    0  501    0  0.00000000000E+00  0.00000000000E+00 -0.20063689967E+04  0.20063689967E+04  0.25500000920E-02 0. -1.
    10030    2    1    2    0    0  0.00000000000E+00  0.00000000000E+00 -0.12230959746E+02  0.40005070336E+04  0.40004883364E+04 0.  0.
        4    1    3    3  502    0 -0.18552013141E+04 -0.54934394268E+03  0.50125700931E+03  0.19987023003E+04  0.12699999809E+01 0.  1.
       -4    1    3    3    0  502  0.18552013141E+04  0.54934394268E+03 -0.51348796906E+03  0.20018047333E+04  0.12699999809E+01 0. -1.
</event>
<event>
 5   0  0.2078125E-09  0.3998219E+04  0.7818609E-02  0.8004906E-01
       -1   -1    0    0    0  501  0.00000000000E+00  0.00000000000E+00  0.18945808042E+04  0.18945808042E+04  0.50400001928E-02 0.  1.
        1   -1    0    0  501    0  0.00000000000E+00  0.00000000000E+00 -0.21094051015E+04  0.21094051015E+04  0.50400001928E-02 0. -1.
    10030    2    1    2    0    0  0.00000000000E+00  0.00000000000E+00 -0.21482429733E+03  0.40039859056E+04  0.39982188102E+04 0.  0.
        3    1    3    3  502    0 -0.13918140390E+04  0.43675298738E+03  0.12615046571E+04  0.19285469923E+04  0.10100000352E+00 0.  1.
       -3    1    3    3    0  502  0.13918140390E+04 -0.43675298738E+03 -0.14763289544E+04  0.20754389134E+04  0.10100000352E+00 0. -1.
</event>
<event>
 5   0  0.2078125E-09  0.3997075E+04  0.7818609E-02  0.8005137E-01
        1   -1    0    0  501    0  0.00000000000E+00  0.00000000000E+00  0.16810520130E+04  0.16810520130E+04  0.50400001928E-02 0.  1.
       -1   -1    0    0    0  501  0.00000000000E+00  0.00000000000E+00 -0.23759833342E+04  0.23759833342E+04  0.50400001928E-02 0. -1.
    10030    2    1    2    0    0  0.00000000000E+00  0.00000000000E+00 -0.69493132118E+03  0.40570353472E+04  0.39970747137E+04 0.  0.
        1    1    3    3  502    0  0.15884178471E+04 -0.82711856936E+03  0.55294685936E+03  0.18742856276E+04  0.50400001928E-02 0.  1.
       -1    1    3    3    0  502 -0.15884178471E+04  0.82711856936E+03 -0.12478781805E+04  0.21827497195E+04  0.50400001928E-02 0. -1.
</event>
<event>
 5   0  0.2078125E-09  0.4001116E+04  0.7818609E-02  0.8004321E-01
       -1   -1    0    0    0  501  0.00000000000E+00  0.00000000000E+00  0.14692767132E+04  0.14692767132E+04  0.50400001928E-02 0. -1.
        1   -1    0    0  501    0  0.00000000000E+00  0.00000000000E+00 -0.27239479265E+04  0.27239479265E+04  0.50400001928E-02 0.  1.
    10030    2    1    2    0    0  0.00000000000E+00  0.00000000000E+00 -0.12546712134E+04  0.41932246397E+04  0.40011164724E+04 0.  0.
        1    1    3    3  502    0  0.14725935535E+04  0.10908023219E+04  0.21359446780E+03  0.18449943295E+04  0.50400001928E-02 0. -1.
       -1    1    3    3    0  502 -0.14725935535E+04 -0.10908023219E+04 -0.14682656812E+04  0.23482303102E+04  0.50400001928E-02 0.  1.
</event>
<event>
 5   0  0.2078125E-09  0.4000527E+04  0.7818609E-02  0.8004440E-01
        1   -1    0    0  501    0  0.00000000000E+00  0.00000000000E+00  0.23322447376E+04  0.23322447376E+04  0.50400001928E-02 0. -1.
       -1   -1    0    0    0  501  0.00000000000E+00  0.00000000000E+00 -0.17155375782E+04  0.17155375782E+04  0.50400001928E-02 0.  1.
    10030    2    1    2    0    0  0.00000000000E+00  0.00000000000E+00  0.61670715939E+03  0.40477823157E+04  0.40005267097E+04 0.  0.
        4    1    3    3  502    0 -0.38001844186E+03  0.48953651677E+03 -0.16159506743E+04  0.17307103201E+04  0.12699999809E+01 0.  1.
       -4    1    3    3    0  502  0.38001844186E+03 -0.48953651677E+03  0.22326578337E+04  0.23170719956E+04  0.12699999809E+01 0. -1.
</event>
<event>
 5   0  0.2078125E-09  0.3999312E+04  0.7818609E-02  0.8004685E-01
        1   -1    0    0  501    0  0.00000000000E+00  0.00000000000E+00  0.19073161692E+04  0.19073161692E+04  0.50400001928E-02 0. -1.
       -1   -1    0    0    0  501  0.00000000000E+00  0.00000000000E+00 -0.20964659133E+04  0.20964659133E+04  0.50400001928E-02 0.  1.
    10030    2    1    2    0    0  0.00000000000E+00  0.00000000000E+00 -0.18914974413E+03  0.40037820825E+04  0.39993116080E+04 0.  0.
        3    1    3    3  502    0  0.64434822256E+03 -0.13317943145E+03 -0.19849922726E+04  0.20911995901E+04  0.10100000352E+00 0.  1.
       -3    1    3    3    0  502 -0.64434822256E+03  0.13317943145E+03  0.17958425285E+04  0.19125824924E+04  0.10100000352E+00 0. -1.
</event>
<event>
 5   0  0.6538370E-09  0.3999748E+04  0.7818609E-02  0.8004597E-01
       -2   -1    0    0    0  501  0.00000000000E+00  0.00000000000E+00  0.34280607702E+04  0.34280607702E+04  0.25500000920E-02 0. -1.
        2   -1    0    0  501    0  0.00000000000E+00  0.00000000000E+00 -0.11666934323E+04  0.11666934323E+04  0.25500000920E-02 0.  1.
    10030    2    1    2    0    0  0.00000000000E+00  0.00000000000E+00  0.22613673379E+04  0.45947542025E+04  0.39997479851E+04 0.  0.
        4    1    3    3  502    0  0.11003044726E+04  0.16642135197E+04  0.97143291116E+03  0.22189997939E+04  0.12699999809E+01 0. -1.
       -4    1    3    3    0  502 -0.11003044726E+04 -0.16642135197E+04  0.12899344267E+04  0.23757544086E+04  0.12699999809E+01 0.  1.
</event>
<event>
 5   0  0.2078125E-09  0.4000269E+04  0.7818609E-02  0.8004492E-01
       -1   -1    0    0    0  501  0.00000000000E+00  0.00000000000E+00  0.20292332621E+04  0.20292332621E+04  0.50400001928E-02 0.  1.
        1   -1    0    0  501    0  0.00000000000E+00  0.00000000000E+00 -0.19714529482E+04  0.19714529482E+04  0.50400001928E-02 0. -1.
    10030    2    1    2    0    0  0.00000000000E+00  0.00000000000E+00  0.57780313890E+02  0.40006862103E+04  0.40002689395E+04 0.  0.
        2    1    3    3  502    0  0.38086865646E+03  0.18300463775E+04 -0.68280702060E+03  0.19900643469E+04  0.25500000920E-02 0.  1.
       -2    1    3    3    0  502 -0.38086865646E+03 -0.18300463775E+04  0.74058733449E+03  0.20106218634E+04  0.25500000920E-02 0. -1.
</event>
<event>
 5   0  0.2078125E-09  0.4004325E+04  0.7818609E-02  0.8003675E-01
        1   -1    0    0  501    0  0.00000000000E+00  0.00000000000E+00  0.17910223262E+04  0.17910223262E+04  0.50400001928E-02 0. -1.
       -1   -1    0    0    0  501  0.00000000000E+00  0.00000000000E+00 -0.22381930911E+04  0.22381930911E+04  0.50400001928E-02 0.  1.
    10030    2    1    2    0    0  0.00000000000E+00  0.00000000000E+00 -0.44717076492E+03  0.40292154173E+04  0.40043245605E+04 0.  0.
        3    1    3    3  502    0 -0.17264730944E+04  0.97035913381E+03  0.72090792643E+02  0.19817929475E+04  0.10100000352E+00 0.  1.
       -3    1    3    3    0  502  0.17264730944E+04 -0.97035913381E+03 -0.51926155756E+03  0.20474224698E+04  0.10100000352E+00 0. -1.
</event>
<event>
 5   0  0.6547327E-09  0.3995233E+04  0.7818609E-02  0.8005509E-01
        2   -1    0    0  501    0  0.00000000000E+00  0.00000000000E+00  0.25759776657E+04  0.25759776657E+04  0.25500000920E-02 0.  1.
       -2   -1    0    0    0  501  0.00000000000E+00  0.00000000000E+00 -0.15491092311E+04  0.15491092311E+04  0.25500000920E-02 0. -1.
    10030    2    1    2    0    0  0.00000000000E+00  0.00000000000E+00  0.10268684345E+04  0.41250868968E+04  0.39952325495E+04 0.  0.
        5    1    3    3  502    0  0.96874839585E+02 -0.13638986436E+04 -0.99021123983E+03  0.16882371380E+04  0.46999998093E+01 0. -1.
       -5    1    3    3    0  502 -0.96874839585E+02  0.13638986436E+04  0.20170796744E+04  0.24368497589E+04  0.46999998093E+01 0.  1.
</event>
<event>
 5   0  0.2078125E-09  0.4008601E+04  0.7818609E-02  0.8002814E-01
        1   -1    0    0  501    0  0.00000000000E+00  0.00000000000E+00  0.21662425130E+04  0.21662425130E+04  0.50400001928E-02 0. -1.
       -1   -1    0    0    0  501  0.00000000000E+00  0.00000000000E+00 -0.18544646847E+04  0.18544646847E+04  0.50400001928E-02 0.  1.
    10030    2    1    2    0    0  0.00000000000E+00  0.00000000000E+00  0.31177782836E+03  0.40207071977E+04  0.40086008726E+04 0.  0.
        2    1    3    3  502    0 -0.36267037489E+03  0.18835348468E+01  0.21330567269E+04  0.21636691866E+04  0.25500000920E-02 0. -1.
       -2    1    3    3    0  502  0.36267037489E+03 -0.18835348468E+01 -0.18212788986E+04  0.18570380112E+04  0.25500000920E-02 0.  1.
</event>
<event>
 5   0  0.2078125E-09  0.4001499E+04  0.7818609E-02  0.8004244E-01
        1   -1    0    0  501    0  0.00000000000E+00  0.00000000000E+00  0.23285555859E+04  0.23285555859E+04  0.50400001928E-02 0.  1.
       -1   -1    0    0    0  501  0.00000000000E+00  0.00000000000E+00 -0.17190907174E+04  0.17190907174E+04  0.50400001928E-02 0. -1.
    10030    2    1    2    0    0  0.00000000000E+00  0.00000000000E+00  0.60946486854E+03  0.40476463033E+04  0.40014988655E+04 0.  0.
        5    1    3    3  502    0  0.56756401874E+03 -0.15733012296E+04 -0.80591487438E+03  0.18565900326E+04  0.46999998093E+01 0. -1.
       -5    1    3    3    0  502 -0.56756401874E+03  0.15733012296E+04  0.14153797429E+04  0.21910562706E+04  0.46999998093E+01 0.  1.
</event>
<event>
 5   0  0.2078125E-09  0.4000521E+04  0.7818609E-02  0.8004441E-01
        1   -1    0    0  501    0  0.00000000000E+00  0.00000000000E+00  0.23889723959E+04  0.23889723959E+04  0.50400001928E-02 0.  1.
       -1   -1    0    0    0  501  0.00000000000E+00  0.00000000000E+00 -0.16747966056E+04  0.16747966056E+04  0.50400001928E-02 0. -1.
    10030    2    1    2    0    0  0.00000000000E+00  0.00000000000E+00  0.71417579025E+03  0.40637690015E+04  0.40005213958E+04 0.  0.
        5    1    3    3  502    0  0.36008994614E+03 -0.15646446219E+04 -0.85477077865E+03  0.18189097658E+04  0.46999998093E+01 0. -1.
       -5    1    3    3    0  502 -0.36008994614E+03  0.15646446219E+04  0.15689465689E+04  0.22448592357E+04  0.46999998093E+01 0.  1.
</event>
<event>
 5   0  0.6599276E-09  0.3999548E+04  0.7818609E-02  0.8004638E-01
       -2   -1    0    0    0  501  0.00000000000E+00  0.00000000000E+00  0.13037765671E+04  0.13037765671E+04  0.25500000920E-02 0. -1.
        2   -1    0    0  501    0  0.00000000000E+00  0.00000000000E+00 -0.30673168803E+04  0.30673168803E+04  0.25500000920E-02 0.  1.
    10030    2    1    2    0    0  0.00000000000E+00  0.00000000000E+00 -0.17635403131E+04  0.43710934474E+04  0.39995479107E+04 0.  0.
        2    1    3    3  502    0  0.52656807928E+03 -0.26483431867E+03  0.12066882212E+04  0.13429473637E+04  0.25500000920E-02 0. -1.
       -2    1    3    3    0  502 -0.52656807928E+03  0.26483431867E+03 -0.29702285343E+04  0.30281460837E+04  0.25500000920E-02 0.  1.
</event>
<event>
 5   0  0.6599276E-09  0.4000201E+04  0.7818609E-02  0.8004506E-01
        2   -1    0    0  501    0  0.00000000000E+00  0.00000000000E+00  0.19078167951E+04  0.19078167951E+04  0.25500000920E-02 0.  1.
       -2   -1    0    0    0  501  0.00000000000E+00  0.00000000000E+00 -0.20968479206E+04  0.20968479206E+04  0.25500000920E-02 0. -1.
    10030    2    1    2    0    0  0.00000000000E+00  0.00000000000E+00 -0.18903112544E+03  0.40046647157E+04  0.40002008348E+04 0.  0.
        2    1    3    3  502    0  0.80591342771E+03 -0.57339075994E+03 -0.18348824488E+04  0.20844824339E+04  0.25500000920E-02 0. -1.
       -2    1    3    3    0  502 -0.80591342771E+03  0.57339075994E+03  0.16458513233E+04  0.19201822817E+04  0.25500000920E-02 0.  1.
</event>
<event>
 5   0  0.6645526E-09  0.4000274E+04  0.7818609E-02  0.8004491E-01
       -2   -1    0    0    0  501  0.00000000000E+00  0.00000000000E+00  0.15920735818E+04  0.15920735818E+04  0.25500000920E-02 0.  1.
        2   -1    0    0  501    0  0.00000000000E+00  0.00000000000E+00 -0.25127907533E+04  0.25127907533E+04  0.25500000920E-02 0. -1.
    10030    2    1    2    0    0  0.00000000000E+00  0.00000000000E+00 -0.92071717148E+03  0.41048643351E+04  0.40002738780E+04 0.  0.
        3    1    3    3  502    0  0.19730267637E+04  0.14398934295E+03 -0.76299371727E+03  0.21203129401E+04  0.10100000352E+00 0. -1.
       -3    1    3    3    0  502 -0.19730267637E+04 -0.14398934295E+03 -0.15772345421E+03  0.19845513950E+04  0.10100000352E+00 0.  1.
</event>
<event>
 5   0  0.6538370E-09  0.4002320E+04  0.7818609E-02  0.8004079E-01
       -2   -1    0    0    0  501  0.00000000000E+00  0.00000000000E+00  0.12834652546E+04  0.12834652546E+04  0.25500000920E-02 0. -1.
        2   -1    0    0  501    0  0.00000000000E+00  0.00000000000E+00 -0.31201786880E+04  0.31201786880E+04  0.25500000920E-02 0.  1.
    10030    2    1    2    0    0  0.00000000000E+00  0.00000000000E+00 -0.18367134335E+04  0.44036439426E+04  0.40023197944E+04 0.  0.
        4    1    3    3  502    0  0.17180570316E+04 -0.97559477240E+03 -0.12682611352E+04  0.23477634130E+04  0.12699999809E+01 0. -1.
       -4    1    3    3    0  502 -0.17180570316E+04  0.97559477240E+03 -0.56845229831E+03  0.20558805296E+04  0.12699999809E+01 0.  1.
</event>
<event>
 5   0  0.2078125E-09  0.4003388E+04  0.7818609E-02  0.8003863E-01
       -1   -1    0    0    0  501  0.00000000000E+00  0.00000000000E+00  0.26104140509E+04  0.26104140509E+04  0.50400001928E-02 0. -1.
        1   -1    0    0  501    0  0.00000000000E+00  0.00000000000E+00 -0.15349208254E+04  0.15349208254E+04  0.50400001928E-02 0.  1.
    10030    2    1    2    0    0  0.00000000000E+00  0.00000000000E+00  0.10754932255E+04  0.41453348763E+04  0.40033880100E+04 0.  0.
        3    1    3    3  502    0  0.15028389511E+04 -0.80590074545E+03 -0.54764610862E+03  0.17910659382E+04  0.10100000352E+00 0.  1.
       -3    1    3    3    0  502 -0.15028389511E+04  0.80590074545E+03  0.16231393341E+04  0.23542689381E+04  0.10100000352E+00 0. -1.
</event>
<event>
 5   0  0.6538370E-09  0.4001084E+04  0.7818609E-02  0.8004328E-01
       -2   -1    0    0    0  501  0.00000000000E+00  0.00000000000E+00  0.17629839030E+04  0.17629839030E+04  0.25500000920E-02 0. -1.
        2   -1    0    0  501    0  0.00000000000E+00  0.00000000000E+00 -0.22701106478E+04  0.22701106478E+04  0.25500000920E-02 0.  1.
    10030    2    1    2    0    0  0.00000000000E+00  0.00000000000E+00 -0.50712674481E+03  0.40330945508E+04  0.40010841181E+04 0.  0.
        4    1    3    3  502    0  0.32344035852E+03 -0.17420747685E+04  0.68269962065E+03  0.18988203047E+04  0.12699999809E+01 0. -1.
       -4    1    3    3    0  502 -0.32344035852E+03  0.17420747685E+04 -0.11898263655E+04  0.21342742461E+04  0.12699999809E+01 0.  1.
</event>
<event>
 5   0  0.2078125E-09  0.4000011E+04  0.7818609E-02  0.8004544E-01
        1   -1    0    0  501    0  0.00000000000E+00  0.00000000000E+00  0.24270730548E+04  0.24270730548E+04  0.50400001928E-02 0. -1.
       -1   -1    0    0    0  501  0.00000000000E+00  0.00000000000E+00 -0.16480846335E+04  0.16480846335E+04  0.50400001928E-02 0.  1.
    10030    2    1    2    0    0  0.00000000000E+00  0.00000000000E+00  0.77898842131E+03  0.40751576882E+04  0.40000109029E+04 0.  0.
        4    1    3    3  502    0  0.51711903166E+03 -0.18761149852E+04  0.85946377239E+03  0.21274160664E+04  0.12699999809E+01 0. -1.
       -4    1    3    3    0  502 -0.51711903166E+03  0.18761149852E+04 -0.80475351085E+02  0.19477416219E+04  0.12699999809E+01 0.  1.
</event>
<event>
 5   0  0.6736335E-09  0.4025743E+04  0.7818609E-02  0.7999373E-01
       -2   -1    0    0    0  501  0.00000000000E+00  0.00000000000E+00  0.18937908025E+04  0.18937908025E+04  0.25500000920E-02 0.  1.
        2   -1    0    0  501    0  0.00000000000E+00  0.00000000000E+00 -0.21394397102E+04  0.21394397102E+04  0.25500000920E-02 0. -1.
    10030    2    1    2    0    0  0.00000000000E+00  0.00000000000E+00 -0.24564890773E+03  0.40332305127E+04  0.40257427865E+04 0.  0.
        1    1    3    3  502    0 -0.15207405762E+04  0.12645627816E+04  0.25187695359E+03  0.19937936023E+04  0.50400001928E-02 0.  1.
       -1    1    3    3    0  502  0.15207405762E+04 -0.12645627816E+04 -0.49752586132E+03  0.20394369104E+04  0.50400001928E-02 0. -1.
</event>
<event>
 5   0  0.2078125E-09  0.3999273E+04  0.7818609E-02  0.8004693E-01
        1   -1    0    0  501    0  0.00000000000E+00  0.00000000000E+00  0.14103055771E+04  0.14103055771E+04  0.50400001928E-02 0. -1.
       -1   -1    0    0    0  501  0.00000000000E+00  0.00000000000E+00 -0.28352343752E+04  0.28352343752E+04  0.50400001928E-02 0.  1.
    10030    2    1    2    0    0  0.00000000000E+00  0.00000000000E+00 -0.14249287981E+04  0.42455399523E+04  0.39992733599E+04 0.  0.
        5    1    3    3  502    0  0.43926829986E+03 -0.16827843169E+04  0.33511718830E+03  0.17711706062E+04  0.46999998093E+01 0. -1.
       -5    1    3    3    0  502 -0.43926829986E+03  0.16827843169E+04 -0.17600459864E+04  0.24743693460E+04  0.46999998093E+01 0.  1.
</event>
<event>
 5   0  0.6645526E-09  0.4001013E+04  0.7818609E-02  0.8004342E-01
       -2   -1    0    0    0  501  0.00000000000E+00  0.00000000000E+00  0.15808484886E+04  0.15808484886E+04  0.25500000920E-02 0.  1.
        2   -1    0    0  501    0  0.00000000000E+00  0.00000000000E+00 -0.25315688948E+04  0.25315688948E+04  0.25500000920E-02 0. -1.
    10030    2    1    2    0    0  0.00000000000E+00  0.00000000000E+00 -0.95072040614E+03  0.41124173834E+04  0.40010133023E+04 0.  0.
        3    1    3    3  502    0 -0.97278312034E+03 -0.19002800876E+03  0.13107265995E+04  0.16432960391E+04  0.10100000352E+00 0.  1.
       -3    1    3    3    0  502  0.97278312034E+03  0.19002800876E+03 -0.22614470057E+04  0.24691213443E+04  0.10100000352E+00 0. -1.
</event>
<event>
 5   0  0.2078125E-09  0.4007934E+04  0.7818609E-02  0.8002948E-01
       -1   -1    0    0    0  501  0.00000000000E+00  0.00000000000E+00  0.18570182445E+04  0.18570182445E+04  0.50400001928E-02 0.  1.
        1   -1    0    0  501    0  0.00000000000E+00  0.00000000000E+00 -0.21625442972E+04  0.21625442972E+04  0.50400001928E-02 0. -1.
    10030    2    1    2    0    0  0.00000000000E+00  0.00000000000E+00 -0.30552605272E+03  0.40195625417E+04  0.40079342382E+04 0.  0.
        5    1    3    3  502    0 -0.18949209130E+04  0.41482148260E+03 -0.65727322653E+03  0.20481289787E+04  0.46999998093E+01 0. -1.
       -5    1    3    3    0  502  0.18949209130E+04 -0.41482148260E+03  0.35174717381E+03  0.19714335630E+04  0.46999998093E+01 0.  1.
</event>
<event>
 5   0  0.6736335E-09  0.4000535E+04  0.7818609E-02  0.8004439E-01
        2   -1    0    0  501    0  0.00000000000E+00  0.00000000000E+00  0.23867148940E+04  0.23867148940E+04  0.25500000920E-02 0. -1.
       -2   -1    0    0    0  501  0.00000000000E+00  0.00000000000E+00 -0.16763925138E+04  0.16763925138E+04  0.25500000920E-02 0.  1.
    10030    2    1    2    0    0  0.00000000000E+00  0.00000000000E+00  0.71032238022E+03  0.40631074077E+04  0.40005354545E+04 0.  0.
        1    1    3    3  502    0  0.15787396370E+04 -0.71603674814E+03 -0.65841764486E+03  0.18543573715E+04  0.50400001928E-02 0.  1.
       -1    1    3    3    0  502 -0.15787396370E+04  0.71603674814E+03  0.13687400251E+04  0.22087500362E+04  0.50400001928E-02 0. -1.
</event>
<event>
 5   0  0.6645526E-09  0.3998754E+04  0.7818609E-02  0.8004798E-01
       -2   -1    0    0    0  501  0.00000000000E+00  0.00000000000E+00  0.20821051753E+04  0.20821051753E+04  0.25500000920E-02 0.  1.
        2   -1    0    0  501    0  0.00000000000E+00  0.00000000000E+00 -0.19199362144E+04  0.19199362144E+04  0.25500000920E-02 0. -1.
    10030    2    1    2    0    0  0.00000000000E+00  0.00000000000E+00  0.16216896084E+03  0.40020413897E+04  0.39987543702E+04 0.  0.
        3    1    3    3  502    0  0.17001443037E+04  0.10254575750E+04 -0.15459842820E+03  0.19914704557E+04  0.10100000352E+00 0. -1.
       -3    1    3    3    0  502 -0.17001443037E+04 -0.10254575750E+04  0.31676738904E+03  0.20105709340E+04  0.10100000352E+00 0.  1.
</event>
<event>
 5   0  0.2078125E-09  0.4000021E+04  0.7818609E-02  0.8004542E-01
        1   -1    0    0  501    0  0.00000000000E+00  0.00000000000E+00  0.18260943067E+04  0.18260943067E+04  0.50400001928E-02 0. -1.
       -1   -1    0    0    0  501  0.00000000000E+00  0.00000000000E+00 -0.21904902302E+04  0.21904902302E+04  0.50400001928E-02 0.  1.
    10030    2    1    2    0    0  0.00000000000E+00  0.00000000000E+00 -0.36439592349E+03  0.40165845369E+04  0.40000208691E+04 0.  0.
        4    1    3    3  502    0  0.25140359860E+03  0.70865019521E+03  0.16787574955E+04  0.18394611195E+04  0.12699999809E+01 0. -1.
       -4    1    3    3    0  502 -0.25140359860E+03 -0.70865019521E+03 -0.20431534190E+04  0.21771234175E+04  0.12699999809E+01 0.  1.
</event>
<event>
 5   0  0.2078125E-09  0.4002316E+04  0.7818609E-02  0.8004080E-01
       -1   -1    0    0    0  501  0.00000000000E+00  0.00000000000E+00  0.18752672983E+04  0.18752672983E+04  0.50400001928E-02 0. -1.
        1   -1    0    0  501    0  0.00000000000E+00  0.00000000000E+00 -0.21354996153E+04  0.21354996153E+04  0.50400001928E-02 0.  1.
    10030    2    1    2    0    0  0.00000000000E+00  0.00000000000E+00 -0.26023231701E+03  0.40107669137E+04  0.40023156269E+04 0.  0.
        2    1    3    3  502    0 -0.12250400935E+04  0.11349060565E+04  0.97488972612E+03  0.19336868841E+04  0.25500000920E-02 0. -1.
       -2    1    3    3    0  502  0.12250400935E+04 -0.11349060565E+04 -0.12351220431E+04  0.20770800295E+04  0.25500000920E-02 0.  1.
</event>
<event>
 5   0  0.6538370E-09  0.4001751E+04  0.7818609E-02  0.8004193E-01
        2   -1    0    0  501    0  0.00000000000E+00  0.00000000000E+00  0.14594924030E+04  0.14594924030E+04  0.25500000920E-02 0. -1.
       -2   -1    0    0    0  501  0.00000000000E+00  0.00000000000E+00 -0.27430783379E+04  0.27430783379E+04  0.25500000920E-02 0.  1.
    10030    2    1    2    0    0  0.00000000000E+00  0.00000000000E+00 -0.12835859349E+04  0.42025707409E+04  0.40017506144E+04 0.  0.
        4    1    3    3  502    0  0.24222283370E+03  0.15537564183E+04 -0.19410818512E+04  0.24981255522E+04  0.12699999809E+01 0.  1.
       -4    1    3    3    0  502 -0.24222283370E+03 -0.15537564183E+04  0.65749591622E+03  0.17044451887E+04  0.12699999809E+01 0. -1.
</event>
<event>
 5   0  0.6736335E-09  0.4000945E+04  0.7818609E-02  0.8004356E-01
        2   -1    0    0  501    0  0.00000000000E+00  0.00000000000E+00  0.27951309730E+04  0.27951309730E+04  0.25500000920E-02 0. -1.
       -2   -1    0    0    0  501  0.00000000000E+00  0.00000000000E+00 -0.14317363252E+04  0.14317363252E+04  0.25500000920E-02 0.  1.
    10030    2    1    2    0    0  0.00000000000E+00  0.00000000000E+00  0.13633946477E+04  0.42268672982E+04  0.40009451622E+04 0.  0.
        1    1    3    3  502    0  0.15415480106E+04  0.12043973151E+04  0.23981183124E+03  0.19709015389E+04  0.50400001928E-02 0. -1.
       -1    1    3    3    0  502 -0.15415480106E+04 -0.12043973151E+04  0.11235828165E+04  0.22559657593E+04  0.50400001928E-02 0.  1.
</event>
<event>
 5   0  0.2078125E-09  0.3998607E+04  0.7818609E-02  0.8004828E-01
       -1   -1    0    0    0  501  0.00000000000E+00  0.00000000000E+00  0.28596215775E+04  0.28596215775E+04  0.50400001928E-02 0. -1.
        1   -1    0    0  501    0  0.00000000000E+00  0.00000000000E+00 -0.13978124843E+04  0.13978124843E+04  0.50400001928E-02 0.  1.
    10030    2    1    2    0    0  0.00000000000E+00  0.00000000000E+00  0.14618090932E+04  0.42574340619E+04  0.39986071282E+04 0.  0.
        1    1    3    3  502    0 -0.35096684483E+03 -0.68530620094E+03  0.26954360718E+04  0.28032477473E+04  0.50400001928E-02 0. -1.
       -1    1    3    3    0  502  0.35096684483E+03  0.68530620094E+03 -0.12336269786E+04  0.14541863146E+04  0.50400001928E-02 0.  1.
</event>
<event>
 5   0  0.6547327E-09  0.3997740E+04  0.7818609E-02  0.8005003E-01
       -2   -1    0    0    0  501  0.00000000000E+00  0.00000000000E+00  0.14665290461E+04  0.14665290461E+04  0.25500000920E-02 0.  1.
        2   -1    0    0  501    0  0.00000000000E+00  0.00000000000E+00 -0.27244470762E+04  0.27244470762E+04  0.25500000920E-02 0. -1.
    10030    2    1    2    0    0  0.00000000000E+00  0.00000000000E+00 -0.12579180301E+04  0.41909761223E+04  0.39977397473E+04 0.  0.
        5    1    3    3  502    0 -0.47868050938E+03 -0.10901758407E+04 -0.23121316887E+04  0.26006909524E+04  0.46999998093E+01 0. -1.
       -5    1    3    3    0  502  0.47868050938E+03  0.10901758407E+04  0.10542136587E+04  0.15902851700E+04  0.46999998093E+01 0.  1.
</event>
<event>
 5   0  0.2078125E-09  0.4000297E+04  0.7818609E-02  0.8004487E-01
        1   -1    0    0  501    0  0.00000000000E+00  0.00000000000E+00  0.26670069011E+04  0.26670069011E+04  0.50400001928E-02 0.  1.
       -1   -1    0    0    0  501  0.00000000000E+00  0.00000000000E+00 -0.15000314041E+04  0.15000314041E+04  0.50400001928E-02 0. -1.
    10030    2    1    2    0    0  0.00000000000E+00  0.00000000000E+00  0.11669754970E+04  0.41670383053E+04  0.40002970423E+04 0.  0.
        4    1    3    3  502    0  0.87340607125E+03  0.17536341064E+04  0.10034313764E+04  0.22011240048E+04  0.12699999809E+01 0. -1.
       -4    1    3    3    0  502 -0.87340607125E+03 -0.17536341064E+04  0.16354412064E+03  0.19659143005E+04  0.12699999809E+01 0.  1.
</event>
<event>
 5   0  0.2078125E-09  0.4000074E+04  0.7818609E-02  0.8004532E-01
       -1   -1    0    0    0  501  0.00000000000E+00  0.00000000000E+00  0.13250551821E+04  0.13250551821E+04  0.50400001928E-02 0. -1.
        1   -1    0    0  501    0  0.00000000000E+00  0.00000000000E+00 -0.30188537643E+04  0.30188537643E+04  0.50400001928E-02 0.  1.
    10030    2    1    2    0    0  0.00000000000E+00  0.00000000000E+00 -0.16937985822E+04  0.43439089464E+04  0.40000739114E+04 0.  0.
        5    1    3    3  502    0 -0.10526787879E+04  0.67017952015E+03  0.85041129932E+03  0.15101306856E+04  0.46999998093E+01 0. -1.
       -5    1    3    3    0  502  0.10526787879E+04 -0.67017952015E+03 -0.25442098816E+04  0.28337782607E+04  0.46999998093E+01 0.  1.
</event>
<event>
 5   0  0.2078125E-09  0.3999055E+04  0.7818609E-02  0.8004737E-01
       -1   -1    0    0    0  501  0.00000000000E+00  0.00000000000E+00  0.14088545048E+04  0.14088545048E+04  0.50400001928E-02 0. -1.
        1   -1    0    0  501    0  0.00000000000E+00  0.00000000000E+00 -0.28378448038E+04  0.28378448038E+04  0.50400001928E-02 0.  1.
    10030    2    1    2    0    0  0.00000000000E+00  0.00000000000E+00 -0.14289902990E+04  0.42466993086E+04  0.39990551063E+04 0.  0.
        2    1    3    3  502    0  0.19851620865E+04  0.33770129796E+01 -0.96853858416E+03  0.22088338333E+04  0.25500000920E-02 0.  1.
       -2    1    3    3    0  502 -0.19851620865E+04 -0.33770129796E+01 -0.46045171488E+03  0.20378654754E+04  0.25500000920E-02 0. -1.
</event>
<event>
 5   0  0.6538370E-09  0.3999445E+04  0.7818609E-02  0.8004659E-01
       -2   -1    0    0    0  501  0.00000000000E+00  0.00000000000E+00  0.18362405115E+04  0.18362405115E+04  0.25500000920E-02 0. -1.
        2   -1    0    0  501    0  0.00000000000E+00  0.00000000000E+00 -0.21777590402E+04  0.21777590402E+04  0.25500000920E-02 0.  1.
    10030    2    1    2    0    0  0.00000000000E+00  0.00000000000E+00 -0.34151852867E+03  0.40139995517E+04  0.39994446484E+04 0.  0.
        4    1    3    3  502    0  0.15327711117E+04 -0.10795116368E+04  0.52758550949E+03  0.19475833069E+04  0.12699999809E+01 0.  1.
       -4    1    3    3    0  502 -0.15327711117E+04  0.10795116368E+04 -0.86910403817E+03  0.20664162448E+04  0.12699999809E+01 0. -1.
</event>
<event>
 5   0  0.2078125E-09  0.4002062E+04  0.7818609E-02  0.8004131E-01
       -1   -1    0    0    0  501  0.00000000000E+00  0.00000000000E+00  0.17172728089E+04  0.17172728089E+04  0.50400001928E-02 0. -1.
        1   -1    0    0  501    0  0.00000000000E+00  0.00000000000E+00 -0.23316761725E+04  0.23316761725E+04  0.50400001928E-02 0.  1.
    10030    2    1    2    0    0  0.00000000000E+00  0.00000000000E+00 -0.61440336359E+03  0.40489489814E+04  0.40020615139E+04 0.  0.
        1    1    3    3  502    0  0.21025555625E+03 -0.16080159632E+04 -0.14931990649E+04  0.22044423749E+04  0.50400001928E-02 0.  1.
       -1    1    3    3    0  502 -0.21025555625E+03  0.16080159632E+04  0.87879570127E+03  0.18445066065E+04  0.50400001928E-02 0. -1.
</event>
<event>
 5   0  0.2078125E-09  0.3999833E+04  0.7818609E-02  0.8004580E-01
        1   -1    0    0  501    0  0.00000000000E+00  0.00000000000E+00  0.22148606064E+04  0.22148606064E+04  0.50400001928E-02 0.  1.
       -1   -1    0    0    0  501  0.00000000000E+00  0.00000000000E+00 -0.18058316548E+04  0.18058316548E+04  0.50400001928E-02 0. -1.
    10030    2    1    2    0    0  0.00000000000E+00  0.00000000000E+00  0.40902895156E+03  0.40206922612E+04  0.39998326935E+04 0.  0.
        5    1    3    3  502    0 -0.43252113348E+03  0.11319340674E+04  0.18038158353E+04  0.21730446203E+04  0.46999998093E+01 0.  1.
       -5    1    3    3    0  502  0.43252113348E+03 -0.11319340674E+04 -0.13947868838E+04  0.18476476409E+04  0.46999998093E+01 0. -1.
</event>
<event>
 5   0  0.6599276E-09  0.4002078E+04  0.7818609E-02  0.8004127E-01
       -2   -1    0    0    0  501  0.00000000000E+00  0.00000000000E+00  0.26142777872E+04  0.26142777872E+04  0.25500000920E-02 0. -1.
        2   -1    0    0  501    0  0.00000000000E+00  0.00000000000E+00 -0.15316495794E+04  0.15316495794E+04  0.25500000920E-02 0.  1.
    10030    2    1    2    0    0  0.00000000000E+00  0.00000000000E+00  0.10826282078E+04  0.41459273665E+04  0.40020781966E+04 0.  0.
        2    1    3    3  502    0  0.13828429176E+04 -0.14463300512E+04  0.54720363188E+03  0.20745016188E+04  0.25500000920E-02 0. -1.
       -2    1    3    3    0  502 -0.13828429176E+04  0.14463300512E+04  0.53542457593E+03  0.20714257477E+04  0.25500000920E-02 0.  1.
</event>
<event>
 5   0  0.6538370E-09  0.4001591E+04  0.7818609E-02  0.8004226E-01
        2   -1    0    0  501    0  0.00000000000E+00  0.00000000000E+00  0.15036827861E+04  0.15036827861E+04  0.25500000920E-02 0.  1.
       -2   -1    0    0    0  501  0.00000000000E+00  0.00000000000E+00 -0.26622519756E+04  0.26622519756E+04  0.25500000920E-02 0. -1.
    10030    2    1    2    0    0  0.00000000000E+00  0.00000000000E+00 -0.11585691896E+04  0.41659347617E+04  0.40015909175E+04 0.  0.
        4    1    3    3  502    0  0.17973786902E+04  0.21658800338E+03  0.30758228834E+03  0.18363248612E+04  0.12699999809E+01 0.  1.
       -4    1    3    3    0  502 -0.17973786902E+04 -0.21658800338E+03 -0.14661514779E+04  0.23296099004E+04  0.12699999809E+01 0. -1.
</event>
<event>
 5   0  0.2078125E-09  0.3973727E+04  0.7818609E-02  0.8009868E-01
       -1   -1    0    0    0  501  0.00000000000E+00  0.00000000000E+00  0.19461490330E+04  0.19461490330E+04  0.50400001928E-02 0. -1.
        1   -1    0    0  501    0  0.00000000000E+00  0.00000000000E+00 -0.20284300754E+04  0.20284300755E+04  0.50400001928E-02 0.  1.
    10030    2    1    2    0    0  0.00000000000E+00  0.00000000000E+00 -0.82281042416E+02  0.39745791085E+04  0.39737273333E+04 0.  0.
        5    1    3    3  502    0 -0.12235772492E+04  0.12453973350E+04 -0.98973683759E+03  0.20069272295E+04  0.46999998093E+01 0.  1.
       -5    1    3    3    0  502  0.12235772492E+04 -0.12453973350E+04  0.90745579517E+03  0.19676518790E+04  0.46999998093E+01 0. -1.
</event>
<event>
 5   0  0.6538370E-09  0.3997787E+04  0.7818609E-02  0.8004993E-01
        2   -1    0    0  501    0  0.00000000000E+00  0.00000000000E+00  0.18590895176E+04  0.18590895176E+04  0.25500000920E-02 0. -1.
       -2   -1    0    0    0  501  0.00000000000E+00  0.00000000000E+00 -0.21492103809E+04  0.21492103809E+04  0.25500000920E-02 0.  1.
    10030    2    1    2    0    0  0.00000000000E+00  0.00000000000E+00 -0.29012086332E+03  0.40082998985E+04  0.39977866328E+04 0.  0.
        4    1    3    3  502    0 -0.14324649419E+04 -0.42020587970E+03 -0.14778582976E+04  0.21006178976E+04  0.12699999809E+01 0.  1.
       -4    1    3    3    0  502  0.14324649419E+04  0.42020587970E+03  0.11877374343E+04  0.19076820009E+04  0.12699999809E+01 0. -1.
</event>
<event>
 5   0  0.2078125E-09  0.4003120E+04  0.7818609E-02  0.8003917E-01
        1   -1    0    0  501    0  0.00000000000E+00  0.00000000000E+00  0.25702275822E+04  0.25702275822E+04  0.50400001928E-02 0. -1.
       -1   -1    0    0    0  501  0.00000000000E+00  0.00000000000E+00 -0.15587115556E+04  0.15587115556E+04  0.50400001928E-02 0.  1.
    10030    2    1    2    0    0  0.00000000000E+00  0.00000000000E+00  0.10115160267E+04  0.41289391378E+04  0.40031204992E+04 0.  0.
        2    1    3    3  502    0 -0.46754585254E+03 -0.12139592714E+04 -0.10632188529E+04  0.16800983799E+04  0.25500000920E-02 0.  1.
       -2    1    3    3    0  502  0.46754585254E+03  0.12139592714E+04  0.20747348796E+04  0.24488407579E+04  0.25500000920E-02 0. -1.
</event>
<event>
 5   0  0.6547327E-09  0.4007505E+04  0.7818609E-02  0.8003034E-01
       -2   -1    0    0    0  501  0.00000000000E+00  0.00000000000E+00  0.21695332758E+04  0.21695332758E+04  0.25500000920E-02 0. -1.
        2   -1    0    0  501    0  0.00000000000E+00  0.00000000000E+00 -0.18506396563E+04  0.18506396563E+04  0.25500000920E-02 0.  1.
    10030    2    1    2    0    0  0.00000000000E+00  0.00000000000E+00  0.31889361951E+03  0.40201729321E+04  0.40075051171E+04 0.  0.
        5    1    3    3  502    0  0.81543504794E+03 -0.53615245479E+03  0.19150096841E+04  0.21493436097E+04  0.46999998093E+01 0. -1.
       -5    1    3    3    0  502 -0.81543504794E+03  0.53615245479E+03 -0.15961160646E+04  0.18708293225E+04  0.46999998093E+01 0.  1.
</event>
<event>
 5   0  0.2078125E-09  0.4000830E+04  0.7818609E-02  0.8004379E-01
       -1   -1    0    0    0  501  0.00000000000E+00  0.00000000000E+00  0.16961749585E+04  0.16961749585E+04  0.50400001928E-02 0.  1.
        1   -1    0    0  501    0  0.00000000000E+00  0.00000000000E+00 -0.23592263689E+04  0.23592263689E+04  0.50400001928E-02 0. -1.
    10030    2    1    2    0    0  0.00000000000E+00  0.00000000000E+00 -0.66305141041E+03  0.40554013274E+04  0.40008302580E+04 0.  0.
        4    1    3    3  502    0 -0.67208342000E+03  0.45785166940E+03 -0.21841131309E+04  0.23305956441E+04  0.12699999809E+01 0. -1.
       -4    1    3    3    0  502  0.67208342000E+03 -0.45785166940E+03  0.15210617205E+04  0.17248056833E+04  0.12699999809E+01 0.  1.
</event>
<event>
 5   0  0.6645526E-09  0.3998675E+04  0.7818609E-02  0.8004814E-01
        2   -1    0    0  501    0  0.00000000000E+00  0.00000000000E+00  0.19253437269E+04  0.19253437269E+04  0.25500000920E-02 0. -1.
       -2   -1    0    0    0  501  0.00000000000E+00  0.00000000000E+00 -0.20761745996E+04  0.20761745996E+04  0.25500000920E-02 0.  1.
    10030    2    1    2    0    0  0.00000000000E+00  0.00000000000E+00 -0.15083087268E+03  0.40015183265E+04  0.39986746510E+04 0.  0.
        3    1    3    3  502    0  0.19001389096E+04  0.60686914538E+03  0.60812544085E+02  0.19956242660E+04  0.10100000352E+00 0.  1.
       -3    1    3    3    0  502 -0.19001389096E+04 -0.60686914538E+03 -0.21164341677E+03  0.20058940604E+04  0.10100000352E+00 0. -1.
</event>
<event>
 5   0  0.2078125E-09  0.3999692E+04  0.7818609E-02  0.8004609E-01
        1   -1    0    0  501    0  0.00000000000E+00  0.00000000000E+00  0.24431271295E+04  0.24431271295E+04  0.50400001928E-02 0. -1.
       -1   -1    0    0    0  501  0.00000000000E+00  0.00000000000E+00 -0.16369937707E+04  0.16369937707E+04  0.50400001928E-02 0.  1.
    10030    2    1    2    0    0  0.00000000000E+00  0.00000000000E+00  0.80613335879E+03  0.40801209003E+04  0.39996919342E+04 0.  0.
        2    1    3    3  502    0 -0.15742338764E+04  0.62823925848E+03  0.14857702960E+04  0.22539765385E+04  0.25500000920E-02 0. -1.
       -2    1    3    3    0  502  0.15742338764E+04 -0.62823925848E+03 -0.67963693725E+03  0.18261443618E+04  0.25500000920E-02 0.  1.
</event>
<event>
 5   0  0.6599276E-09  0.4001346E+04  0.7818609E-02  0.8004275E-01
        2   -1    0    0  501    0  0.00000000000E+00  0.00000000000E+00  0.20971115905E+04  0.20971115905E+04  0.25500000920E-02 0.  1.
       -2   -1    0    0    0  501  0.00000000000E+00  0.00000000000E+00 -0.19086697330E+04  0.19086697330E+04  0.25500000920E-02 0. -1.
    10030    2    1    2    0    0  0.00000000000E+00  0.00000000000E+00  0.18844185754E+03  0.40057813236E+04  0.40013464832E+04 0.  0.
        2    1    3    3  502    0  0.37466590804E+03  0.18457541277E+04 -0.58144234176E+03  0.19711057910E+04  0.25500000920E-02 0. -1.
       -2    1    3    3    0  502 -0.37466590804E+03 -0.18457541277E+04  0.76988419930E+03  0.20346755326E+04  0.25500000920E-02 0.  1.
</event>
<event>
 5   0  0.6538370E-09  0.4001251E+04  0.7818609E-02  0.8004294E-01
        2   -1    0    0  501    0  0.00000000000E+00  0.00000000000E+00  0.22877827969E+04  0.22877827969E+04  0.25500000920E-02 0.  1.
       -2   -1    0    0    0  501  0.00000000000E+00  0.00000000000E+00 -0.17495111930E+04  0.17495111930E+04  0.25500000920E-02 0. -1.
    10030    2    1    2    0    0  0.00000000000E+00  0.00000000000E+00  0.53827160390E+03  0.40372939898E+04  0.40012506096E+04 0.  0.
        4    1    3    3  502    0  0.31160477360E+03 -0.15421531920E+04  0.15160533718E+04  0.21848920893E+04  0.12699999809E+01 0.  1.
       -4    1    3    3    0  502 -0.31160477360E+03  0.15421531920E+04 -0.97778176792E+03  0.18524019006E+04  0.12699999809E+01 0. -1.
</event>
<event>
 5   0  0.6547327E-09  0.4001708E+04  0.7818609E-02  0.8004202E-01
       -2   -1    0    0    0  501  0.00000000000E+00  0.00000000000E+00  0.19060450037E+04  0.19060450037E+04  0.25500000920E-02 0. -1.
        2   -1    0    0  501    0  0.00000000000E+00  0.00000000000E+00 -0.21003787704E+04  0.21003787704E+04  0.25500000920E-02 0.  1.
    10030    2    1    2    0    0  0.00000000000E+00  0.00000000000E+00 -0.19433376677E+03  0.40064237741E+04  0.40017078660E+04 0.  0.
        5    1    3    3  502    0 -0.41629450921E+03  0.22015359140E+03 -0.20440988275E+04  0.20976488811E+04  0.46999998093E+01 0.  1.
       -5    1    3    3    0  502  0.41629450921E+03 -0.22015359140E+03  0.18497650607E+04  0.19087748929E+04  0.46999998093E+01 0. -1.
</event>
<event>
 5   0  0.2078125E-09  0.3999113E+04  0.7818609E-02  0.8004726E-01
        1   -1    0    0  501    0  0.00000000000E+00  0.00000000000E+00  0.12863094713E+04  0.12863094713E+04  0.50400001928E-02 0.  1.
       -1   -1    0    0    0  501  0.00000000000E+00  0.00000000000E+00 -0.31082925141E+04  0.31082925141E+04  0.50400001928E-02 0. -1.
    10030    2    1    2    0    0  0.00000000000E+00  0.00000000000E+00 -0.18219830429E+04  0.43946019854E+04  0.39991129518E+04 0.  0.
        1    1    3    3  502    0 -0.17772878820E+04 -0.20848870888E+03 -0.18914159894E+04  0.26037807516E+04  0.50400001928E-02 0.  1.
       -1    1    3    3    0  502  0.17772878820E+04  0.20848870888E+03  0.69432946568E+02  0.17908212338E+04  0.50400001928E-02 0. -1.
</event>
<event>
 5   0  0.2078125E-09  0.4000369E+04  0.7818609E-02  0.8004472E-01
        1   -1    0    0  501    0  0.00000000000E+00  0.00000000000E+00  0.24139237290E+04  0.24139237291E+04  0.50400001928E-02 0. -1.
       -1   -1    0    0    0  501  0.00000000000E+00  0.00000000000E+00 -0.16573585339E+04  0.16573585339E+04  0.50400001928E-02 0.  1.
    10030    2    1    2    0    0  0.00000000000E+00  0.00000000000E+00  0.75656519511E+03  0.40712822630E+04  0.40003685293E+04 0.  0.
        2    1    3    3  502    0 -0.12920127199E+04 -0.53514160269E+03  0.18336901693E+04  0.23060990959E+04  0.25500000920E-02 0. -1.
       -2    1    3    3    0  502  0.12920127199E+04  0.53514160269E+03 -0.10771249741E+04  0.17651831671E+04  0.25500000920E-02 0.  1.
</event>
<event>
 5   0  0.6547327E-09  0.3996642E+04  0.7818609E-02  0.8005224E-01
        2   -1    0    0  501    0  0.00000000000E+00  0.00000000000E+00  0.24300672843E+04  0.24300672843E+04  0.25500000920E-02 0.  1.
       -2   -1    0    0    0  501  0.00000000000E+00  0.00000000000E+00 -0.16432822195E+04  0.16432822195E+04  0.25500000920E-02 0. -1.
    10030    2    1    2    0    0  0.00000000000E+00  0.00000000000E+00  0.78678506485E+03  0.40733495038E+04  0.39966417705E+04 0.  0.
        5    1    3    3  502    0 -0.16853488488E+04 -0.10666476310E+04  0.26804272816E+03  0.20124628954E+04  0.46999998093E+01 0. -1.
       -5    1    3    3    0  502  0.16853488488E+04  0.10666476310E+04  0.51874233669E+03  0.20608866085E+04  0.46999998093E+01 0.  1.
</event>
<event>
 5   0  0.2078125E-09  0.4000481E+04  0.7818609E-02  0.8004450E-01
       -1   -1    0    0    0  501  0.00000000000E+00  0.00000000000E+00  0.25100516096E+04  0.25100516096E+04  0.50400001928E-02 0. -1.
        1   -1    0    0  501    0  0.00000000000E+00  0.00000000000E+00 -0.15939758376E+04  0.15939758376E+04  0.50400001928E-02 0.  1.
    10030    2    1    2    0    0  0.00000000000E+00  0.00000000000E+00  0.91607577197E+03  0.41040274472E+04  0.40004807795E+04 0.  0.
        3    1    3    3  502    0 -0.13905804214E+04 -0.85521753680E+03 -0.72766813062E+03  0.17873477172E+04  0.10100000352E+00 0.  1.
       -3    1    3    3    0  502  0.13905804214E+04  0.85521753680E+03  0.16437439026E+04  0.23166797300E+04  0.10100000352E+00 0. -1.
</event>
<event>
 5   0  0.6736335E-09  0.4000382E+04  0.7818609E-02  0.8004469E-01
       -2   -1    0    0    0  501  0.00000000000E+00  0.00000000000E+00  0.30545459557E+04  0.30545459557E+04  0.25500000920E-02 0. -1.
        2   -1    0    0  501    0  0.00000000000E+00  0.00000000000E+00 -0.13097738656E+04  0.13097738656E+04  0.25500000920E-02 0.  1.
    10030    2    1    2    0    0  0.00000000000E+00  0.00000000000E+00  0.17447720901E+04  0.43643198214E+04  0.40003822139E+04 0.  0.
        1    1    3    3  502    0 -0.64338543019E+03 -0.15432463490E+04 -0.32530970576E+03  0.17033439201E+04  0.50400001928E-02 0.  1.
       -1    1    3    3    0  502  0.64338543019E+03  0.15432463490E+04  0.20700817959E+04  0.26609759013E+04  0.50400001928E-02 0. -1.
</event>
<event>
 5   0  0.2078125E-09  0.3988818E+04  0.7818609E-02  0.8006806E-01
       -1   -1    0    0    0  501  0.00000000000E+00  0.00000000000E+00  0.25379197966E+04  0.25379197966E+04  0.50400001928E-02 0. -1.
        1   -1    0    0  501    0  0.00000000000E+00  0.00000000000E+00 -0.15672942790E+04  0.15672942790E+04  0.50400001928E-02 0.  1.
    10030    2    1    2    0    0  0.00000000000E+00  0.00000000000E+00  0.97062551753E+03  0.41052140756E+04  0.39888179592E+04 0.  0.
        1    1    3    3  502    0 -0.19099749043E+04 -0.42327180027E+03  0.86043704111E+02  0.19582049614E+04  0.50400001928E-02 0.  1.
       -1    1    3    3    0  502  0.19099749043E+04  0.42327180027E+03  0.88458181342E+03  0.21470091142E+04  0.50400001928E-02 0. -1.
</event>
<event>
 5   0  0.6736335E-09  0.4000563E+04  0.7818609E-02  0.8004433E-01
        2   -1    0    0  501    0  0.00000000000E+00  0.00000000000E+00  0.25649485772E+04  0.25649485772E+04  0.25500000920E-02 0.  1.
       -2   -1    0    0    0  501  0.00000000000E+00  0.00000000000E+00 -0.15599247783E+04  0.15599247783E+04  0.25500000920E-02 0. -1.
    10030    2    1    2    0    0  0.00000000000E+00  0.00000000000E+00  0.10050237989E+04  0.41248733555E+04  0.40005633807E+04 0.  0.
        1    1    3    3  502    0  0.12773219818E+03 -0.75465295624E+03  0.24079925545E+04  0.25267063029E+04  0.50400001928E-02 0.  1.
       -1    1    3    3    0  502 -0.12773219818E+03  0.75465295624E+03 -0.14029687556E+04  0.15981670526E+04  0.50400001928E-02 0. -1.
</event>
<event>
 5   0  0.6736335E-09  0.3998927E+04  0.7818609E-02  0.8004763E-01
        2   -1    0    0  501    0  0.00000000000E+00  0.00000000000E+00  0.28115642427E+04  0.28115642427E+04  0.25500000920E-02 0. -1.
       -2   -1    0    0    0  501  0.00000000000E+00  0.00000000000E+00 -0.14219322069E+04  0.14219322069E+04  0.25500000920E-02 0.  1.
    10030    2    1    2    0    0  0.00000000000E+00  0.00000000000E+00  0.13896320358E+04  0.42334964497E+04  0.39989267303E+04 0.  0.
        1    1    3    3  502    0 -0.75552384009E+03 -0.92542822924E+03 -0.10025468603E+04  0.15595941419E+04  0.50400001928E-02 0.  1.
       -1    1    3    3    0  502  0.75552384009E+03  0.92542822924E+03  0.23921788961E+04  0.26739023077E+04  0.50400001928E-02 0. -1.
</event>
<event>
 5   0  0.6547327E-09  0.3995817E+04  0.7818609E-02  0.8005391E-01
       -2   -1    0    0    0  501  0.00000000000E+00  0.00000000000E+00  0.20710533210E+04  0.20710533210E+04  0.25500000920E-02 0.  1.
        2   -1    0    0  501    0  0.00000000000E+00  0.00000000000E+00 -0.19273472275E+04  0.19273472275E+04  0.25500000920E-02 0. -1.
    10030    2    1    2    0    0  0.00000000000E+00  0.00000000000E+00  0.14370609348E+03  0.39984005485E+04  0.39958172512E+04 0.  0.
        5    1    3    3  502    0 -0.15986265368E+03  0.18690555235E+04  0.75982365449E+03  0.20239265535E+04  0.46999998093E+01 0.  1.
       -5    1    3    3    0  502  0.15986265368E+03 -0.18690555235E+04 -0.61611756101E+03  0.19744739950E+04  0.46999998093E+01 0. -1.
</event>
<event>
 5   0  0.6645526E-09  0.4000213E+04  0.7818609E-02  0.8004504E-01
        2   -1    0    0  501    0  0.00000000000E+00  0.00000000000E+00  0.14438630761E+04  0.14438630761E+04  0.25500000920E-02 0.  1.
       -2   -1    0    0    0  501  0.00000000000E+00  0.00000000000E+00 -0.27706407282E+04  0.27706407282E+04  0.25500000920E-02 0. -1.
    10030    2    1    2    0    0  0.00000000000E+00  0.00000000000E+00 -0.13267776521E+04  0.42145038043E+04  0.40002129166E+04 0.  0.
        3    1    3    3  502    0 -0.35965643677E+03 -0.84874053982E+03 -0.25335013373E+04  0.26959863302E+04  0.10100000352E+00 0. -1.
       -3    1    3    3    0  502  0.35965643677E+03  0.84874053982E+03  0.12067236852E+04  0.15185174741E+04  0.10100000352E+00 0.  1.
</event>
<event>
 5   0  0.2078125E-09  0.3999121E+04  0.7818609E-02  0.8004724E-01
        1   -1    0    0  501    0  0.00000000000E+00  0.00000000000E+00  0.20436761227E+04  0.20436761227E+04  0.50400001928E-02 0.  1.
       -1   -1    0    0    0  501  0.00000000000E+00  0.00000000000E+00 -0.19563972730E+04  0.19563972730E+04  0.50400001928E-02 0. -1.
    10030    2    1    2    0    0  0.00000000000E+00  0.00000000000E+00  0.87278849699E+02  0.40000733956E+04  0.39991211001E+04 0.  0.
        2    1    3    3  502    0 -0.88167788868E+03  0.15798605959E+04 -0.80798976721E+03  0.19814547347E+04  0.25500000920E-02 0. -1.
       -2    1    3    3    0  502  0.88167788868E+03 -0.15798605959E+04  0.89526861690E+03  0.20186186609E+04  0.25500000920E-02 0.  1.
</event>
<event>
 5   0  0.2078125E-09  0.4001745E+04  0.7818609E-02  0.8004195E-01
       -1   -1    0    0    0  501  0.00000000000E+00  0.00000000000E+00  0.17833844244E+04  0.17833844244E+04  0.50400001928E-02 0. -1.
        1   -1    0    0  501    0  0.00000000000E+00  0.00000000000E+00 -0.22448833630E+04  0.22448833630E+04  0.50400001928E-02 0.  1.
    10030    2    1    2    0    0  0.00000000000E+00  0.00000000000E+00 -0.46149893862E+03  0.40282677874E+04  0.40017446316E+04 0.  0.
        3    1    3    3  502    0 -0.13182300200E+04  0.10865302138E+04 -0.12793889404E+04  0.21342713891E+04  0.10100000352E+00 0.  1.
       -3    1    3    3    0  502  0.13182300200E+04 -0.10865302138E+04  0.81789000180E+03  0.18939963982E+04  0.10100000352E+00 0. -1.
</event>
<event>
 5   0  0.2078125E-09  0.4002197E+04  0.7818609E-02  0.8004103E-01
        1   -1    0    0  501    0  0.00000000000E+00  0.00000000000E+00  0.20837724024E+04  0.20837724024E+04  0.50400001928E-02 0. -1.
       -1   -1    0    0    0  501  0.00000000000E+00  0.00000000000E+00 -0.19217051588E+04  0.19217051588E+04  0.50400001928E-02 0.  1.
    10030    2    1    2    0    0  0.00000000000E+00  0.00000000000E+00  0.16206724351E+03  0.40054775612E+04  0.40021974841E+04 0.  0.
        2    1    3    3  502    0 -0.89268904421E+03 -0.83314090457E+03  0.16676968317E+04  0.20669374008E+04  0.25500000920E-02 0. -1.
       -2    1    3    3    0  502  0.89268904421E+03  0.83314090457E+03 -0.15056295882E+04  0.19385401604E+04  0.25500000920E-02 0.  1.
</event>
<event>
 5   0  0.2078125E-09  0.4000954E+04  0.7818609E-02  0.8004354E-01
        1   -1    0    0  501    0  0.00000000000E+00  0.00000000000E+00  0.16332352282E+04  0.16332352282E+04  0.50400001928E-02 0.  1.
       -1   -1    0    0    0  501  0.00000000000E+00  0.00000000000E+00 -0.24502952005E+04  0.24502952005E+04  0.50400001928E-02 0. -1.
    10030    2    1    2    0    0  0.00000000000E+00  0.00000000000E+00 -0.81705997234E+03  0.40835304287E+04  0.40009541067E+04 0.  0.
        1    1    3    3  502    0  0.60910490537E+03 -0.15807280809E+03 -0.23466462542E+04  0.24295564288E+04  0.50400001928E-02 0. -1.
       -1    1    3    3    0  502 -0.60910490537E+03  0.15807280809E+03  0.15295862819E+04  0.16539739998E+04  0.50400001928E-02 0.  1.
</event>
<event>
 5   0  0.6538370E-09  0.4000540E+04  0.7818609E-02  0.8004438E-01
       -2   -1    0    0    0  501  0.00000000000E+00  0.00000000000E+00  0.35300429531E+04  0.35300429531E+04  0.25500000920E-02 0. -1.
        2   -1    0    0  501    0  0.00000000000E+00  0.00000000000E+00 -0.11334368505E+04  0.11334368505E+04  0.25500000920E-02 0.  1.
    10030    2    1    2    0    0  0.00000000000E+00  0.00000000000E+00  0.23966061025E+04  0.46634798036E+04  0.40005403470E+04 0.  0.
        4    1    3    3  502    0  0.10900694419E+04  0.70756402256E+03  0.29708687952E+04  0.32426780978E+04  0.12699999809E+01 0. -1.
       -4    1    3    3    0  502 -0.10900694419E+04 -0.70756402256E+03 -0.57426269271E+03  0.14208017058E+04  0.12699999809E+01 0.  1.
</event>
<event>
 5   0  0.2078125E-09  0.4000463E+04  0.7818609E-02  0.8004453E-01
       -1   -1    0    0    0  501  0.00000000000E+00  0.00000000000E+00  0.20893455412E+04  0.20893455412E+04  0.50400001928E-02 0. -1.
        1   -1    0    0  501    0  0.00000000000E+00  0.00000000000E+00 -0.19149185496E+04  0.19149185496E+04  0.50400001928E-02 0.  1.
    10030    2    1    2    0    0  0.00000000000E+00  0.00000000000E+00  0.17442699158E+03  0.40042640909E+04  0.40004632399E+04 0.  0.
        3    1    3    3  502    0  0.62846471018E+03  0.16181638249E+04  0.10818902371E+04  0.20454604742E+04  0.10100000352E+00 0. -1.
       -3    1    3    3    0  502 -0.62846471018E+03 -0.16181638249E+04 -0.90746324554E+03  0.19588036166E+04  0.10100000352E+00 0.  1.
</event>
<event>
 5   0  0.6599276E-09  0.3999080E+04  0.7818609E-02  0.8004732E-01
       -2   -1    0    0    0  501  0.00000000000E+00  0.00000000000E+00  0.16799532814E+04  0.16799532814E+04  0.25500000920E-02 0. -1.
        2   -1    0    0  501    0  0.00000000000E+00  0.00000000000E+00 -0.23799235104E+04  0.23799235104E+04  0.25500000920E-02 0.  1.
    10030    2    1    2    0    0  0.00000000000E+00  0.00000000000E+00 -0.69997022906E+03  0.40598767918E+04  0.39990800496E+04 0.  0.
        2    1    3    3  502    0 -0.15119226849E+04 -0.12886764843E+04 -0.58051219367E+03  0.20696839598E+04  0.25500000920E-02 0.  1.
       -2    1    3    3    0  502  0.15119226849E+04  0.12886764843E+04 -0.11945803539E+03  0.19901928320E+04  0.25500000920E-02 0. -1.
</event>
<event>
 5   0  0.2078125E-09  0.3999205E+04  0.7818609E-02  0.8004707E-01
        1   -1    0    0  501    0  0.00000000000E+00  0.00000000000E+00  0.27394193121E+04  0.27394193121E+04  0.50400001928E-02 0.  1.
       -1   -1    0    0    0  501  0.00000000000E+00  0.00000000000E+00 -0.14595832074E+04  0.14595832074E+04  0.50400001928E-02 0. -1.
    10030    2    1    2    0    0  0.00000000000E+00  0.00000000000E+00  0.12798361047E+04  0.41990025195E+04  0.39992051340E+04 0.  0.
        5    1    3    3  502    0 -0.13143549106E+04  0.12202675146E+04  0.15682902956E+04  0.23824647278E+04  0.46999998093E+01 0. -1.
       -5    1    3    3    0  502  0.13143549106E+04 -0.12202675146E+04 -0.28845419093E+03  0.18165377916E+04  0.46999998093E+01 0.  1.
</event>
<event>
 5   0  0.6538370E-09  0.3999671E+04  0.7818609E-02  0.8004613E-01
       -2   -1    0    0    0  501  0.00000000000E+00  0.00000000000E+00  0.14461755976E+04  0.14461755976E+04  0.25500000920E-02 0. -1.
        2   -1    0    0  501    0  0.00000000000E+00  0.00000000000E+00 -0.27654605938E+04  0.27654605938E+04  0.25500000920E-02 0.  1.
    10030    2    1    2    0    0  0.00000000000E+00  0.00000000000E+00 -0.13192849962E+04  0.42116361914E+04  0.39996708000E+04 0.  0.
        4    1    3    3  502    0 -0.16385232397E+03  0.12958066072E+04 -0.22542888773E+04  0.26053372723E+04  0.12699999809E+01 0.  1.
       -4    1    3    3    0  502  0.16385232397E+03 -0.12958066072E+04  0.93500388109E+03  0.16062989192E+04  0.12699999809E+01 0. -1.
</event>
<event>
 5   0  0.6736335E-09  0.3997911E+04  0.7818609E-02  0.8004968E-01
        2   -1    0    0  501    0  0.00000000000E+00  0.00000000000E+00  0.20956717270E+04  0.20956717270E+04  0.25500000920E-02 0. -1.
       -2   -1    0    0    0  501  0.00000000000E+00  0.00000000000E+00 -0.19067027110E+04  0.19067027110E+04  0.25500000920E-02 0.  1.
    10030    2    1    2    0    0  0.00000000000E+00  0.00000000000E+00  0.18896901602E+03  0.40023744380E+04  0.39979109360E+04 0.  0.
        1    1    3    3  502    0 -0.15776783215E+04  0.72155822342E+03 -0.89965377880E+03  0.19542497480E+04  0.50400001928E-02 0.  1.
       -1    1    3    3    0  502  0.15776783215E+04 -0.72155822342E+03  0.10886227948E+04  0.20481246899E+04  0.50400001928E-02 0. -1.
</event>
<event>
 5   0  0.6736335E-09  0.3999455E+04  0.7818609E-02  0.8004656E-01
        2   -1    0    0  501    0  0.00000000000E+00  0.00000000000E+00  0.20951013547E+04  0.20951013547E+04  0.25500000920E-02 0.  1.
       -2   -1    0    0    0  501  0.00000000000E+00  0.00000000000E+00 -0.19086954345E+04  0.19086954345E+04  0.25500000920E-02 0. -1.
    10030    2    1    2    0    0  0.00000000000E+00  0.00000000000E+00  0.18640592024E+03  0.40037967892E+04  0.39994551582E+04 0.  0.
        1    1    3    3  502    0  0.93079409219E+03 -0.17654375581E+04 -0.32484026383E+02  0.19960467494E+04  0.50400001928E-02 0. -1.
       -1    1    3    3    0  502 -0.93079409219E+03  0.17654375581E+04  0.21888994663E+03  0.20077500398E+04  0.50400001928E-02 0.  1.
</event>
<event>
 5   0  0.2078125E-09  0.4002004E+04  0.7818609E-02  0.8004142E-01
        1   -1    0    0  501    0  0.00000000000E+00  0.00000000000E+00  0.24318993056E+04  0.24318993056E+04  0.50400001928E-02 0. -1.
       -1   -1    0    0    0  501  0.00000000000E+00  0.00000000000E+00 -0.16464536978E+04  0.16464536978E+04  0.50400001928E-02 0.  1.
    10030    2    1    2    0    0  0.00000000000E+00  0.00000000000E+00  0.78544560786E+03  0.40783530034E+04  0.40020043000E+04 0.  0.
        4    1    3    3  502    0 -0.11639411631E+04  0.13928812772E+04 -0.46544142695E+03  0.18739035777E+04  0.12699999809E+01 0.  1.
       -4    1    3    3    0  502  0.11639411631E+04 -0.13928812772E+04  0.12508870348E+04  0.22044494257E+04  0.12699999809E+01 0. -1.
</event>
<event>
 5   0  0.6538370E-09  0.4002391E+04  0.7818609E-02  0.8004064E-01
       -2   -1    0    0    0  501  0.00000000000E+00  0.00000000000E+00  0.12752822419E+04  0.12752822419E+04  0.25500000920E-02 0. -1.
        2   -1    0    0  501    0  0.00000000000E+00  0.00000000000E+00 -0.31403109572E+04  0.31403109572E+04  0.25500000920E-02 0.  1.
    10030    2    1    2    0    0  0.00000000000E+00  0.00000000000E+00 -0.18650287153E+04  0.44155931990E+04  0.40023906844E+04 0.  0.
        4    1    3    3  502    0  0.41954089668E+03  0.37020531532E+03  0.11872307370E+04  0.13124728474E+04  0.12699999809E+01 0. -1.
       -4    1    3    3    0  502 -0.41954089668E+03 -0.37020531532E+03 -0.30522594523E+04  0.31031203516E+04  0.12699999809E+01 0.  1.
</event>
<event>
 5   0  0.6538370E-09  0.3999050E+04  0.7818609E-02  0.8004738E-01
        2   -1    0    0  501    0  0.00000000000E+00  0.00000000000E+00  0.26221720739E+04  0.26221720739E+04  0.25500000920E-02 0.  1.
       -2   -1    0    0    0  501  0.00000000000E+00  0.00000000000E+00 -0.15247285955E+04  0.15247285955E+04  0.25500000920E-02 0. -1.
    10030    2    1    2    0    0  0.00000000000E+00  0.00000000000E+00  0.10974434785E+04  0.41469006694E+04  0.39990502589E+04 0.  0.
        4    1    3    3  502    0 -0.16905188700E+03  0.16909205488E+04  0.16413905867E+04  0.23626162435E+04  0.12699999809E+01 0. -1.
       -4    1    3    3    0  502  0.16905188700E+03 -0.16909205488E+04 -0.54394710827E+03  0.17842844259E+04  0.12699999809E+01 0.  1.
</event>
<event>
 5   0  0.2078125E-09  0.4002210E+04  0.7818609E-02  0.8004101E-01
        1   -1    0    0  501    0  0.00000000000E+00  0.00000000000E+00  0.26514610822E+04  0.26514610822E+04  0.50400001928E-02 0. -1.
       -1   -1    0    0    0  501  0.00000000000E+00  0.00000000000E+00 -0.15102695600E+04  0.15102695600E+04  0.50400001928E-02 0.  1.
    10030    2    1    2    0    0  0.00000000000E+00  0.00000000000E+00  0.11411915222E+04  0.41617306422E+04  0.40022098706E+04 0.  0.
        2    1    3    3  502    0 -0.13829331489E+04 -0.13130726237E+04  0.12011967878E+04  0.22537829382E+04  0.25500000920E-02 0. -1.
       -2    1    3    3    0  502  0.13829331489E+04  0.13130726237E+04 -0.60005265665E+02  0.19079477040E+04  0.25500000920E-02 0.  1.
</event>
<event>
 5   0  0.6538370E-09  0.4000068E+04  0.7818609E-02  0.8004533E-01
        2   -1    0    0  501    0  0.00000000000E+00  0.00000000000E+00  0.30643471884E+04  0.30643471884E+04  0.25500000920E-02 0.  1.
       -2   -1    0    0    0  501  0.00000000000E+00  0.00000000000E+00 -0.13053797816E+04  0.13053797816E+04  0.25500000920E-02 0. -1.
    10030    2    1    2    0    0  0.00000000000E+00  0.00000000000E+00  0.17589674068E+04  0.43697269700E+04  0.40000684311E+04 0.  0.
        4    1    3    3  502    0  0.48257742814E+03 -0.17188580076E+04 -0.10537463511E+03  0.17884236777E+04  0.12699999809E+01 0. -1.
       -4    1    3    3    0  502 -0.48257742814E+03  0.17188580076E+04  0.18643420420E+04  0.25813032923E+04  0.12699999809E+01 0.  1.
</event>
<event>
 5   0  0.2078125E-09  0.4000460E+04  0.7818609E-02  0.8004454E-01
       -1   -1    0    0    0  501  0.00000000000E+00  0.00000000000E+00  0.20495003675E+04  0.20495003676E+04  0.50400001928E-02 0. -1.
        1   -1    0    0  501    0  0.00000000000E+00  0.00000000000E+00 -0.19521441340E+04  0.19521441340E+04  0.50400001928E-02 0.  1.
    10030    2    1    2    0    0  0.00000000000E+00  0.00000000000E+00  0.97356233550E+02  0.40016445016E+04  0.40004600336E+04 0.  0.
        5    1    3    3  502    0 -0.19786044422E+03 -0.27702382647E+03 -0.19229476042E+04  0.19528544580E+04  0.46999998093E+01 0.  1.
       -5    1    3    3    0  502  0.19786044422E+03  0.27702382647E+03  0.20203038377E+04  0.20487900435E+04  0.46999998093E+01 0. -1.
</event>
<event>
 5   0  0.2078125E-09  0.3995656E+04  0.7818609E-02  0.8005423E-01
       -1   -1    0    0    0  501  0.00000000000E+00  0.00000000000E+00  0.19750290828E+04  0.19750290828E+04  0.50400001928E-02 0.  1.
        1   -1    0    0  501    0  0.00000000000E+00  0.00000000000E+00 -0.20208899317E+04  0.20208899317E+04  0.50400001928E-02 0. -1.
    10030    2    1    2    0    0  0.00000000000E+00  0.00000000000E+00 -0.45860848888E+02  0.39959190145E+04  0.39956558351E+04 0.  0.
        5    1    3    3  502    0 -0.11799019333E+04  0.14211495034E+04 -0.78420314255E+03  0.20066965745E+04  0.46999998093E+01 0. -1.
       -5    1    3    3    0  502  0.11799019333E+04 -0.14211495034E+04  0.73834229366E+03  0.19892224400E+04  0.46999998093E+01 0.  1.
</event>
<event>
 5   0  0.2078125E-09  0.4000083E+04  0.7818609E-02  0.8004530E-01
        1   -1    0    0  501    0  0.00000000000E+00  0.00000000000E+00  0.12466265253E+04  0.12466265253E+04  0.50400001928E-02 0.  1.
       -1   -1    0    0    0  501  0.00000000000E+00  0.00000000000E+00 -0.32087924944E+04  0.32087924944E+04  0.50400001928E-02 0. -1.
    10030    2    1    2    0    0  0.00000000000E+00  0.00000000000E+00 -0.19621659692E+04  0.44554190197E+04  0.40000829180E+04 0.  0.
        5    1    3    3  502    0 -0.43372173759E+03 -0.12119552273E+04 -0.26860801399E+04  0.29785900400E+04  0.46999998093E+01 0. -1.
       -5    1    3    3    0  502  0.43372173759E+03  0.12119552273E+04  0.72391417074E+03  0.14768289797E+04  0.46999998093E+01 0.  1.
</event>
<event>
 5   0  0.2078125E-09  0.4000039E+04  0.7818609E-02  0.8004539E-01
       -1   -1    0    0    0  501  0.00000000000E+00  0.00000000000E+00  0.28441934008E+04  0.28441934009E+04  0.50400001928E-02 0.  1.
        1   -1    0    0  501    0  0.00000000000E+00  0.00000000000E+00 -0.14064015728E+04  0.14064015728E+04  0.50400001928E-02 0. -1.
    10030    2    1    2    0    0  0.00000000000E+00  0.00000000000E+00  0.14377918280E+04  0.42505949737E+04  0.40000390360E+04 0.  0.
        2    1    3    3  502    0 -0.18385928571E+04  0.52444464989E+03  0.13427037286E+04  0.23363046008E+04  0.25500000920E-02 0.  1.
       -2    1    3    3    0  502  0.18385928571E+04 -0.52444464989E+03  0.95088099440E+02  0.19142903729E+04  0.25500000920E-02 0. -1.
</event>
<event>
 5   0  0.6645526E-09  0.3999708E+04  0.7818609E-02  0.8004605E-01
       -2   -1    0    0    0  501  0.00000000000E+00  0.00000000000E+00  0.27344487837E+04  0.27344487837E+04  0.25500000920E-02 0. -1.
        2   -1    0    0  501    0  0.00000000000E+00  0.00000000000E+00 -0.14626044067E+04  0.14626044067E+04  0.25500000920E-02 0.  1.
    10030    2    1    2    0    0  0.00000000000E+00  0.00000000000E+00  0.12718443770E+04  0.41970531904E+04  0.39997084099E+04 0.  0.
        3    1    3    3  502    0 -0.14219468997E+04 -0.13363297863E+04  0.17647604025E+03  0.19592993866E+04  0.10100000352E+00 0.  1.
       -3    1    3    3    0  502  0.14219468997E+04  0.13363297863E+04  0.10953683367E+04  0.22377538038E+04  0.10100000352E+00 0. -1.
</event>
<event>
 5   0  0.6547327E-09  0.3988176E+04  0.7818609E-02  0.8006936E-01
       -2   -1    0    0    0  501  0.00000000000E+00  0.00000000000E+00  0.19459637278E+04  0.19459637278E+04  0.25500000920E-02 0. -1.
        2   -1    0    0  501    0  0.00000000000E+00  0.00000000000E+00 -0.20434024941E+04  0.20434024941E+04  0.25500000920E-02 0.  1.
    10030    2    1    2    0    0  0.00000000000E+00  0.00000000000E+00 -0.97438766254E+02  0.39893662219E+04  0.39881760918E+04 0.  0.
        5    1    3    3  502    0 -0.14307308778E+04  0.20965708213E+03 -0.14222344172E+04  0.20282306979E+04  0.46999998093E+01 0.  1.
       -5    1    3    3    0  502  0.14307308778E+04 -0.20965708213E+03  0.13247956509E+04  0.19611355240E+04  0.46999998093E+01 0. -1.
</event>
<event>
 5   0  0.6599276E-09  0.3999747E+04  0.7818609E-02  0.8004598E-01
       -2   -1    0    0    0  501  0.00000000000E+00  0.00000000000E+00  0.15565732002E+04  0.15565732002E+04  0.25500000920E-02 0.  1.
        2   -1    0    0  501    0  0.00000000000E+00  0.00000000000E+00 -0.25694228479E+04  0.25694228479E+04  0.25500000920E-02 0. -1.
    10030    2    1    2    0    0  0.00000000000E+00  0.00000000000E+00 -0.10128496478E+04  0.41259960481E+04  0.39997473645E+04 0.  0.
        2    1    3    3  502    0 -0.44656841037E+03  0.17816249558E+04 -0.13225243819E+04  0.22633341708E+04  0.25500000920E-02 0. -1.
       -2    1    3    3    0  502  0.44656841037E+03 -0.17816249558E+04  0.30967473410E+03  0.18626618773E+04  0.25500000920E-02 0.  1.
</event>
<event>
 5   0  0.2078125E-09  0.3998098E+04  0.7818609E-02  0.8004930E-01
       -1   -1    0    0    0  501  0.00000000000E+00  0.00000000000E+00  0.15857986038E+04  0.15857986038E+04  0.50400001928E-02 0.  1.
        1   -1    0    0  501    0  0.00000000000E+00  0.00000000000E+00 -0.25199906729E+04  0.25199906729E+04  0.50400001928E-02 0. -1.
    10030    2    1    2    0    0  0.00000000000E+00  0.00000000000E+00 -0.93419206907E+03  0.41057892767E+04  0.39980983933E+04 0.  0.
        4    1    3    3  502    0  0.22567999363E+02  0.19187989472E+04  0.10826044985E+03  0.19219835203E+04  0.12699999809E+01 0.  1.
       -4    1    3    3    0  502 -0.22567999363E+02 -0.19187989472E+04 -0.10424525189E+04  0.21838057564E+04  0.12699999809E+01 0. -1.
</event>
<event>
 5   0  0.6736335E-09  0.4000218E+04  0.7818609E-02  0.8004503E-01
        2   -1    0    0  501    0  0.00000000000E+00  0.00000000000E+00  0.13728445064E+04  0.13728445064E+04  0.25500000920E-02 0.  1.
       -2   -1    0    0    0  501  0.00000000000E+00  0.00000000000E+00 -0.29139759228E+04  0.29139759228E+04  0.25500000920E-02 0. -1.
    10030    2    1    2    0    0  0.00000000000E+00  0.00000000000E+00 -0.15411314164E+04  0.42868204291E+04  0.40002179127E+04 0.  0.
        1    1    3    3  502    0 -0.36853628748E+03  0.96524592566E+03  0.10647109395E+04  0.14836199233E+04  0.50400001928E-02 0.  1.
       -1    1    3    3    0  502  0.36853628748E+03 -0.96524592566E+03 -0.26058423559E+04  0.28032005058E+04  0.50400001928E-02 0. -1.
</event>
<event>
 5   0  0.2078125E-09  0.3998656E+04  0.7818609E-02  0.8004818E-01
        1   -1    0    0  501    0  0.00000000000E+00  0.00000000000E+00  0.19810963421E+04  0.19810963421E+04  0.50400001928E-02 0.  1.
       -1   -1    0    0    0  501  0.00000000000E+00  0.00000000000E+00 -0.20177276243E+04  0.20177276243E+04  0.50400001928E-02 0. -1.
    10030    2    1    2    0    0  0.00000000000E+00  0.00000000000E+00 -0.36631282241E+02  0.39988239664E+04  0.39986561822E+04 0.  0.
        2    1    3    3  502    0  0.57072146039E+03  0.15028262203E+04  0.11704744045E+04  0.19885220555E+04  0.25500000920E-02 0.  1.
       -2    1    3    3    0  502 -0.57072146039E+03 -0.15028262203E+04 -0.12071056867E+04  0.20103019108E+04  0.25500000920E-02 0. -1.
</event>
<event>
 5   0  0.2078125E-09  0.4000726E+04  0.7818609E-02  0.8004400E-01
        1   -1    0    0  501    0  0.00000000000E+00  0.00000000000E+00  0.27556068763E+04  0.27556068763E+04  0.50400001928E-02 0.  1.
       -1   -1    0    0    0  501  0.00000000000E+00  0.00000000000E+00 -0.14521125154E+04  0.14521125154E+04  0.50400001928E-02 0. -1.
    10030    2    1    2    0    0  0.00000000000E+00  0.00000000000E+00  0.13034943608E+04  0.42077193917E+04  0.40007255505E+04 0.  0.
        1    1    3    3  502    0  0.17531065980E+04  0.35318144663E+03  0.15944078091E+04  0.23958831649E+04  0.50400001928E-02 0.  1.
       -1    1    3    3    0  502 -0.17531065980E+04 -0.35318144663E+03 -0.29091344824E+03  0.18118362268E+04  0.50400001928E-02 0. -1.
</event>
<event>
 5   0  0.2078125E-09  0.3983720E+04  0.7818609E-02  0.8007839E-01
        1   -1    0    0  501    0  0.00000000000E+00  0.00000000000E+00  0.21495092404E+04  0.21495092405E+04  0.50400001928E-02 0. -1.
       -1   -1    0    0    0  501  0.00000000000E+00  0.00000000000E+00 -0.18457729980E+04  0.18457729981E+04  0.50400001928E-02 0.  1.
    10030    2    1    2    0    0  0.00000000000E+00  0.00000000000E+00  0.30373624240E+03  0.39952822385E+04  0.39837199275E+04 0.  0.
        3    1    3    3  502    0  0.25942786925E+03 -0.18816185977E+04 -0.44963485793E+03  0.19519126215E+04  0.10100000352E+00 0.  1.
       -3    1    3    3    0  502 -0.25942786925E+03  0.18816185977E+04  0.75337110033E+03  0.20433696170E+04  0.10100000352E+00 0. -1.
</event>
<event>
 5   0  0.2078125E-09  0.4000459E+04  0.7818609E-02  0.8004454E-01
        1   -1    0    0  501    0  0.00000000000E+00  0.00000000000E+00  0.15034454826E+04  0.15034454827E+04  0.50400001928E-02 0. -1.
       -1   -1    0    0    0  501  0.00000000000E+00  0.00000000000E+00 -0.26611655636E+04  0.26611655636E+04  0.50400001928E-02 0.  1.
    10030    2    1    2    0    0  0.00000000000E+00  0.00000000000E+00 -0.11577200809E+04  0.41646110462E+04  0.40004586463E+04 0.  0.
        2    1    3    3  502    0  0.72460297993E+03 -0.71970297030E+02 -0.25182826640E+04  0.26214455513E+04  0.25500000920E-02 0.  1.
       -2    1    3    3    0  502 -0.72460297993E+03  0.71970297030E+02  0.13605625831E+04  0.15431654950E+04  0.25500000920E-02 0. -1.
</event>
<event>
 5   0  0.2078125E-09  0.3999384E+04  0.7818609E-02  0.8004671E-01
       -1   -1    0    0    0  501  0.00000000000E+00  0.00000000000E+00  0.28990740445E+04  0.28990740445E+04  0.50400001928E-02 0.  1.
        1   -1    0    0  501    0  0.00000000000E+00  0.00000000000E+00 -0.13793257432E+04  0.13793257432E+04  0.50400001928E-02 0. -1.
    10030    2    1    2    0    0  0.00000000000E+00  0.00000000000E+00  0.15197483012E+04  0.42783997877E+04  0.39993836830E+04 0.  0.
        3    1    3    3  502    0  0.28412701202E+03 -0.12802361032E+04 -0.85509329813E+03  0.15655405449E+04  0.10100000352E+00 0. -1.
       -3    1    3    3    0  502 -0.28412701202E+03  0.12802361032E+04  0.23748415994E+04  0.27128592428E+04  0.10100000352E+00 0.  1.
</event>
<event>
 5   0  0.2078125E-09  0.4000219E+04  0.7818609E-02  0.8004502E-01
       -1   -1    0    0    0  501  0.00000000000E+00  0.00000000000E+00  0.28759051991E+04  0.28759051991E+04  0.50400001928E-02 0.  1.
        1   -1    0    0  501    0  0.00000000000E+00  0.00000000000E+00 -0.13910190004E+04  0.13910190004E+04  0.50400001928E-02 0. -1.
    10030    2    1    2    0    0  0.00000000000E+00  0.00000000000E+00  0.14848861987E+04  0.42669241995E+04  0.40002193816E+04 0.  0.
        1    1    3    3  502    0  0.16200213628E+04  0.20546710686E+03 -0.48943800761E+03  0.17047684627E+04  0.50400001928E-02 0. -1.
       -1    1    3    3    0  502 -0.16200213628E+04 -0.20546710686E+03  0.19743242063E+04  0.25621557368E+04  0.50400001928E-02 0.  1.
</event>
<event>
 5   0  0.2078125E-09  0.4000365E+04  0.7818609E-02  0.8004473E-01
        1   -1    0    0  501    0  0.00000000000E+00  0.00000000000E+00  0.24634500839E+04  0.24634500839E+04  0.50400001928E-02 0. -1.
       -1   -1    0    0    0  501  0.00000000000E+00  0.00000000000E+00 -0.16240352921E+04  0.16240352921E+04  0.50400001928E-02 0.  1.
    10030    2    1    2    0    0  0.00000000000E+00  0.00000000000E+00  0.83941479180E+03  0.40874853760E+04  0.40003649217E+04 0.  0.
        2    1    3    3  502    0 -0.25387905314E+03  0.38695275750E+03 -0.15685748765E+04  0.16354247624E+04  0.25500000920E-02 0.  1.
       -2    1    3    3    0  502  0.25387905314E+03 -0.38695275750E+03  0.24079896683E+04  0.24520606136E+04  0.25500000920E-02 0. -1.
</event>
<event>
 5   0  0.6599276E-09  0.3999953E+04  0.7818609E-02  0.8004556E-01
        2   -1    0    0  501    0  0.00000000000E+00  0.00000000000E+00  0.35275400620E+04  0.35275400620E+04  0.25500000920E-02 0. -1.
       -2   -1    0    0    0  501  0.00000000000E+00  0.00000000000E+00 -0.11339080152E+04  0.11339080152E+04  0.25500000920E-02 0.  1.
    10030    2    1    2    0    0  0.00000000000E+00  0.00000000000E+00  0.23936320468E+04  0.46614480772E+04  0.39999529748E+04 0.  0.
        2    1    3    3  502    0  0.78476976628E+02 -0.13594496137E+04  0.29038603755E+04  0.32072834251E+04  0.25500000920E-02 0. -1.
       -2    1    3    3    0  502 -0.78476976628E+02  0.13594496137E+04 -0.51022832868E+03  0.14541646521E+04  0.25500000920E-02 0.  1.
</event>
<event>
 5   0  0.2078125E-09  0.3998776E+04  0.7818609E-02  0.8004793E-01
        1   -1    0    0  501    0  0.00000000000E+00  0.00000000000E+00  0.19994256629E+04  0.19994256629E+04  0.50400001928E-02 0.  1.
       -1   -1    0    0    0  501  0.00000000000E+00  0.00000000000E+00 -0.19993506690E+04  0.19993506690E+04  0.50400001928E-02 0. -1.
    10030    2    1    2    0    0  0.00000000000E+00  0.00000000000E+00  0.74993865839E-01  0.39987763319E+04  0.39987763312E+04 0.  0.
        2    1    3    3  502    0  0.13938321075E+04 -0.11517778423E+04  0.85337968801E+03  0.19994041697E+04  0.25500000920E-02 0.  1.
       -2    1    3    3    0  502 -0.13938321075E+04  0.11517778423E+04 -0.85330469415E+03  0.19993721622E+04  0.25500000920E-02 0. -1.
</event>
<event>
 5   0  0.2078125E-09  0.3999635E+04  0.7818609E-02  0.8004620E-01
       -1   -1    0    0    0  501  0.00000000000E+00  0.00000000000E+00  0.25805055154E+04  0.25805055154E+04  0.50400001928E-02 0. -1.
        1   -1    0    0  501    0  0.00000000000E+00  0.00000000000E+00 -0.15498006651E+04  0.15498006651E+04  0.50400001928E-02 0.  1.
    10030    2    1    2    0    0  0.00000000000E+00  0.00000000000E+00  0.10307048503E+04  0.41303061805E+04  0.39996345654E+04 0.  0.
        5    1    3    3  502    0  0.16514889064E+04  0.75458355059E+00  0.16799519801E+04  0.23557752276E+04  0.46999998093E+01 0.  1.
       -5    1    3    3    0  502 -0.16514889064E+04 -0.75458355059E+00 -0.64924712984E+03  0.17745309529E+04  0.46999998093E+01 0. -1.
</event>
<event>
 5   0  0.6645526E-09  0.3999823E+04  0.7818609E-02  0.8004582E-01
        2   -1    0    0  501    0  0.00000000000E+00  0.00000000000E+00  0.22553551599E+04  0.22553551599E+04  0.25500000920E-02 0.  1.
       -2   -1    0    0    0  501  0.00000000000E+00  0.00000000000E+00 -0.17733997626E+04  0.17733997626E+04  0.25500000920E-02 0. -1.
    10030    2    1    2    0    0  0.00000000000E+00  0.00000000000E+00  0.48195539737E+03  0.40287549225E+04  0.39998231487E+04 0.  0.
        3    1    3    3  502    0  0.12390867225E+04  0.11076484723E+04  0.13614201284E+04  0.21484147226E+04  0.10100000352E+00 0.  1.
       -3    1    3    3    0  502 -0.12390867225E+04 -0.11076484723E+04 -0.87946473102E+03  0.18803401999E+04  0.10100000352E+00 0. -1.
</event>
<event>
 5   0  0.6645526E-09  0.4002247E+04  0.7818609E-02  0.8004093E-01
        2   -1    0    0  501    0  0.00000000000E+00  0.00000000000E+00  0.13915092742E+04  0.13915092742E+04  0.25500000920E-02 0.  1.
       -2   -1    0    0    0  501  0.00000000000E+00  0.00000000000E+00 -0.28778074554E+04  0.28778074554E+04  0.25500000920E-02 0. -1.
    10030    2    1    2    0    0  0.00000000000E+00  0.00000000000E+00 -0.14862981812E+04  0.42693167296E+04  0.40022472505E+04 0.  0.
        3    1    3    3  502    0 -0.84260636742E+03 -0.59247253237E+03  0.10869958641E+04  0.14975210218E+04  0.10100000352E+00 0.  1.
       -3    1    3    3    0  502  0.84260636742E+03  0.59247253237E+03 -0.25732940453E+04  0.27717957078E+04  0.10100000352E+00 0. -1.
</event>
<event>
 5   0  0.6538370E-09  0.3997797E+04  0.7818609E-02  0.8004991E-01
       -2   -1    0    0    0  501  0.00000000000E+00  0.00000000000E+00  0.15850143286E+04  0.15850143286E+04  0.25500000920E-02 0. -1.
        2   -1    0    0  501    0  0.00000000000E+00  0.00000000000E+00 -0.25208576023E+04  0.25208576023E+04  0.25500000920E-02 0.  1.
    10030    2    1    2    0    0  0.00000000000E+00  0.00000000000E+00 -0.93584327369E+03  0.41058719309E+04  0.39977971034E+04 0.  0.
        4    1    3    3  502    0 -0.99020043149E+03  0.17174014213E+04 -0.73102926469E+03  0.21129055670E+04  0.12699999809E+01 0.  1.
       -4    1    3    3    0  502  0.99020043149E+03 -0.17174014213E+04 -0.20481400900E+03  0.19929663639E+04  0.12699999809E+01 0. -1.
</event>
<event>
 5   0  0.6645526E-09  0.3998285E+04  0.7818609E-02  0.8004893E-01
       -2   -1    0    0    0  501  0.00000000000E+00  0.00000000000E+00  0.28275490796E+04  0.28275490796E+04  0.25500000920E-02 0. -1.
        2   -1    0    0  501    0  0.00000000000E+00  0.00000000000E+00 -0.14134396123E+04  0.14134396123E+04  0.25500000920E-02 0.  1.
    10030    2    1    2    0    0  0.00000000000E+00  0.00000000000E+00  0.14141094673E+04  0.42409886919E+04  0.39982845696E+04 0.  0.
        3    1    3    3  502    0 -0.35104406515E+03 -0.19621411340E+04  0.86910313881E+03  0.21745275445E+04  0.10100000352E+00 0.  1.
       -3    1    3    3    0  502  0.35104406515E+03  0.19621411340E+04  0.54500632846E+03  0.20664611474E+04  0.10100000352E+00 0. -1.
</event>
<event>
 5   0  0.6736335E-09  0.3998019E+04  0.7818609E-02  0.8004946E-01
        2   -1    0    0  501    0  0.00000000000E+00  0.00000000000E+00  0.21564730415E+04  0.21564730415E+04  0.25500000920E-02 0.  1.
       -2   -1    0    0    0  501  0.00000000000E+00  0.00000000000E+00 -0.18530439595E+04  0.18530439595E+04  0.25500000920E-02 0. -1.
    10030    2    1    2    0    0  0.00000000000E+00  0.00000000000E+00  0.30342908198E+03  0.40095170010E+04  0.39980191812E+04 0.  0.
        1    1    3    3  502    0  0.14115825290E+04 -0.68167980625E+03 -0.10923313605E+04  0.19106125708E+04  0.50400001928E-02 0. -1.
       -1    1    3    3    0  502 -0.14115825290E+04  0.68167980625E+03  0.13957604425E+04  0.20989044302E+04  0.50400001928E-02 0.  1.
</event>
<event>
 5   0  0.6645526E-09  0.3998325E+04  0.7818609E-02  0.8004885E-01
       -2   -1    0    0    0  501  0.00000000000E+00  0.00000000000E+00  0.15929441951E+04  0.15929441951E+04  0.25500000920E-02 0. -1.
        2   -1    0    0  501    0  0.00000000000E+00  0.00000000000E+00 -0.25089710314E+04  0.25089710314E+04  0.25500000920E-02 0.  1.
    10030    2    1    2    0    0  0.00000000000E+00  0.00000000000E+00 -0.91602683626E+03  0.41019152265E+04  0.39983250694E+04 0.  0.
        3    1    3    3  502    0  0.15505798322E+04  0.76431263989E+02 -0.17502146843E+04  0.23395279450E+04  0.10100000352E+00 0.  1.
       -3    1    3    3    0  502 -0.15505798322E+04 -0.76431263989E+02  0.83418784800E+03  0.17623872815E+04  0.10100000352E+00 0. -1.
</event>
<event>
 5   0  0.6547327E-09  0.4001162E+04  0.7818609E-02  0.8004312E-01
       -2   -1    0    0    0  501  0.00000000000E+00  0.00000000000E+00  0.16126525045E+04  0.16126525045E+04  0.25500000920E-02 0. -1.
        2   -1    0    0  501    0  0.00000000000E+00  0.00000000000E+00 -0.24818268376E+04  0.24818268376E+04  0.25500000920E-02 0.  1.
    10030    2    1    2    0    0  0.00000000000E+00  0.00000000000E+00 -0.86917433309E+03  0.40944793421E+04  0.40011619639E+04 0.  0.
        5    1    3    3  502    0 -0.55990395080E+03  0.35643489283E+03 -0.23658666065E+04  0.24572108491E+04  0.46999998093E+01 0.  1.
       -5    1    3    3    0  502  0.55990395080E+03 -0.35643489283E+03  0.14966922734E+04  0.16372684930E+04  0.46999998093E+01 0. -1.
</event>
<event>
 5   0  0.2078125E-09  0.3995961E+04  0.7818609E-02  0.8005362E-01
       -1   -1    0    0    0  501  0.00000000000E+00  0.00000000000E+00  0.20064535413E+04  0.20064535413E+04  0.50400001928E-02 0. -1.
        1   -1    0    0  501    0  0.00000000000E+00  0.00000000000E+00 -0.19895436822E+04  0.19895436822E+04  0.50400001928E-02 0.  1.
    10030    2    1    2    0    0  0.00000000000E+00  0.00000000000E+00  0.16909859110E+02  0.39959972235E+04  0.39959614447E+04 0.  0.
        5    1    3    3  502    0 -0.24072165472E+03  0.14422689273E+04 -0.13531072249E+04  0.19922368900E+04  0.46999998093E+01 0.  1.
       -5    1    3    3    0  502  0.24072165472E+03 -0.14422689273E+04  0.13700170840E+04  0.20037603335E+04  0.46999998093E+01 0. -1.
</event>
<event>
 5   0  0.2078125E-09  0.3999458E+04  0.7818609E-02  0.8004656E-01
        1   -1    0    0  501    0  0.00000000000E+00  0.00000000000E+00  0.24746118981E+04  0.24746118981E+04  0.50400001928E-02 0. -1.
       -1   -1    0    0    0  501  0.00000000000E+00  0.00000000000E+00 -0.16159767170E+04  0.16159767170E+04  0.50400001928E-02 0.  1.
    10030    2    1    2    0    0  0.00000000000E+00  0.00000000000E+00  0.85863518109E+03  0.40905886152E+04  0.39994575688E+04 0.  0.
        1    1    3    3  502    0 -0.19904023733E+04 -0.19086060156E+02  0.62565338564E+03  0.20865061812E+04  0.50400001928E-02 0.  1.
       -1    1    3    3    0  502  0.19904023733E+04  0.19086060156E+02  0.23298179545E+03  0.20040824340E+04  0.50400001928E-02 0. -1.
</event>
<event>
 5   0  0.2078125E-09  0.4000227E+04  0.7818609E-02  0.8004501E-01
       -1   -1    0    0    0  501  0.00000000000E+00  0.00000000000E+00  0.22339645476E+04  0.22339645476E+04  0.50400001928E-02 0. -1.
        1   -1    0    0  501    0  0.00000000000E+00  0.00000000000E+00 -0.17907418859E+04  0.17907418859E+04  0.50400001928E-02 0.  1.
    10030    2    1    2    0    0  0.00000000000E+00  0.00000000000E+00  0.44322266167E+03  0.40247064335E+04  0.40002269370E+04 0.  0.
        3    1    3    3  502    0  0.59999834670E+03 -0.50237409716E+03  0.20735481149E+04  0.22162986136E+04  0.10100000352E+00 0. -1.
       -3    1    3    3    0  502 -0.59999834670E+03  0.50237409716E+03 -0.16303254532E+04  0.18084078199E+04  0.10100000352E+00 0.  1.
</event>
<event>
 5   0  0.2078125E-09  0.3995240E+04  0.7818609E-02  0.8005508E-01
       -1   -1    0    0    0  501  0.00000000000E+00  0.00000000000E+00  0.33157375980E+04  0.33157375980E+04  0.50400001928E-02 0. -1.
        1   -1    0    0  501    0  0.00000000000E+00  0.00000000000E+00 -0.12034984258E+04  0.12034984258E+04  0.50400001928E-02 0.  1.
    10030    2    1    2    0    0  0.00000000000E+00  0.00000000000E+00  0.21122391722E+04  0.45192360239E+04  0.39952396572E+04 0.  0.
        1    1    3    3  502    0 -0.10759681055E+03  0.80849306128E+03 -0.10065712292E+04  0.12955399427E+04  0.50400001928E-02 0.  1.
       -1    1    3    3    0  502  0.10759681055E+03 -0.80849306128E+03  0.31188104014E+04  0.32236960811E+04  0.50400001928E-02 0. -1.
</event>
<event>
 5   0  0.2078125E-09  0.3981726E+04  0.7818609E-02  0.8008243E-01
        1   -1    0    0  501    0  0.00000000000E+00  0.00000000000E+00  0.26752063437E+04  0.26752063437E+04  0.50400001928E-02 0.  1.
       -1   -1    0    0    0  501  0.00000000000E+00  0.00000000000E+00 -0.14815813602E+04  0.14815813602E+04  0.50400001928E-02 0. -1.
    10030    2    1    2    0    0  0.00000000000E+00  0.00000000000E+00  0.11936249835E+04  0.41567877040E+04  0.39817261853E+04 0.  0.
        4    1    3    3  502    0  0.65301298118E+03  0.18032516744E+03 -0.13575500569E+04  0.15171970503E+04  0.12699999809E+01 0. -1.
       -4    1    3    3    0  502 -0.65301298118E+03 -0.18032516744E+03  0.25511750403E+04  0.26395906537E+04  0.12699999809E+01 0.  1.
</event>
<event>
 5   0  0.6538370E-09  0.3997445E+04  0.7818609E-02  0.8005062E-01
       -2   -1    0    0    0  501  0.00000000000E+00  0.00000000000E+00  0.19878970384E+04  0.19878970384E+04  0.25500000920E-02 0.  1.
        2   -1    0    0  501    0  0.00000000000E+00  0.00000000000E+00 -0.20096073458E+04  0.20096073458E+04  0.25500000920E-02 0. -1.
    10030    2    1    2    0    0  0.00000000000E+00  0.00000000000E+00 -0.21710307408E+02  0.39975043841E+04  0.39974454297E+04 0.  0.
        4    1    3    3  502    0 -0.31956668897E+03 -0.92057895456E+03 -0.17559603719E+04  0.20082297979E+04  0.12699999809E+01 0. -1.
       -4    1    3    3    0  502  0.31956668897E+03  0.92057895456E+03  0.17342500645E+04  0.19892745863E+04  0.12699999809E+01 0.  1.
</event>
<event>
 5   0  0.6547327E-09  0.4002092E+04  0.7818609E-02  0.8004125E-01
        2   -1    0    0  501    0  0.00000000000E+00  0.00000000000E+00  0.15557004089E+04  0.15557004089E+04  0.25500000920E-02 0.  1.
       -2   -1    0    0    0  501  0.00000000000E+00  0.00000000000E+00 -0.25738795823E+04  0.25738795823E+04  0.25500000920E-02 0. -1.
    10030    2    1    2    0    0  0.00000000000E+00  0.00000000000E+00 -0.10181791734E+04  0.41295799912E+04  0.40020922122E+04 0.  0.
        5    1    3    3  502    0 -0.20003043750E+04 -0.26955209953E+02 -0.46047997323E+03  0.20528049278E+04  0.46999998093E+01 0. -1.
       -5    1    3    3    0  502  0.20003043750E+04  0.26955209953E+02 -0.55769920015E+03  0.20767750634E+04  0.46999998093E+01 0.  1.
</event>
<event>
 5   0  0.2078125E-09  0.3996446E+04  0.7818609E-02  0.8005264E-01
       -1   -1    0    0    0  501  0.00000000000E+00  0.00000000000E+00  0.27151433551E+04  0.27151433551E+04  0.50400001928E-02 0. -1.
        1   -1    0    0  501    0  0.00000000000E+00  0.00000000000E+00 -0.14706020952E+04  0.14706020952E+04  0.50400001928E-02 0.  1.
    10030    2    1    2    0    0  0.00000000000E+00  0.00000000000E+00  0.12445412599E+04  0.41857454503E+04  0.39964461747E+04 0.  0.
        1    1    3    3  502    0 -0.69552875376E+03 -0.44366644242E+03 -0.12839070195E+04  0.15261118551E+04  0.50400001928E-02 0.  1.
       -1    1    3    3    0  502  0.69552875376E+03  0.44366644242E+03  0.25284482794E+04  0.26596335953E+04  0.50400001928E-02 0. -1.
</event>
<event>
 5   0  0.6645526E-09  0.3998534E+04  0.7818609E-02  0.8004842E-01
        2   -1    0    0  501    0  0.00000000000E+00  0.00000000000E+00  0.24964150588E+04  0.24964150588E+04  0.25500000920E-02 0.  1.
       -2   -1    0    0    0  501  0.00000000000E+00  0.00000000000E+00 -0.16011237682E+04  0.16011237682E+04  0.25500000920E-02 0. -1.
    10030    2    1    2    0    0  0.00000000000E+00  0.00000000000E+00  0.89529129059E+03  0.40975388270E+04  0.39985344745E+04 0.  0.
        3    1    3    3  502    0 -0.74916891320E+03 -0.99003506890E+03  0.20534961437E+04  0.23996395397E+04  0.10100000352E+00 0.  1.
       -3    1    3    3    0  502  0.74916891320E+03  0.99003506890E+03 -0.11582048531E+04  0.16978992874E+04  0.10100000352E+00 0. -1.
</event>
<event>
 5   0  0.6736335E-09  0.3999427E+04  0.7818609E-02  0.8004662E-01
       -2   -1    0    0    0  501  0.00000000000E+00  0.00000000000E+00  0.20850043048E+04  0.20850043048E+04  0.25500000920E-02 0. -1.
        2   -1    0    0  501    0  0.00000000000E+00  0.00000000000E+00 -0.19179116609E+04  0.19179116609E+04  0.25500000920E-02 0.  1.
    10030    2    1    2    0    0  0.00000000000E+00  0.00000000000E+00  0.16709264390E+03  0.40029159657E+04  0.39994269935E+04 0.  0.
        1    1    3    3  502    0 -0.13102116039E+04  0.10912113274E+04  0.11291861246E+04  0.20451058437E+04  0.50400001928E-02 0. -1.
       -1    1    3    3    0  502  0.13102116039E+04 -0.10912113274E+04 -0.96209348074E+03  0.19578101220E+04  0.50400001928E-02 0.  1.
</event>
<event>
 5   0  0.6599276E-09  0.3999968E+04  0.7818609E-02  0.8004553E-01
        2   -1    0    0  501    0  0.00000000000E+00  0.00000000000E+00  0.22690092495E+04  0.22690092495E+04  0.25500000920E-02 0.  1.
       -2   -1    0    0    0  501  0.00000000000E+00  0.00000000000E+00 -0.17628557385E+04  0.17628557385E+04  0.25500000920E-02 0. -1.
    10030    2    1    2    0    0  0.00000000000E+00  0.00000000000E+00  0.50615351095E+03  0.40318649880E+04  0.39999679880E+04 0.  0.
        2    1    3    3  502    0  0.11658729632E+04  0.71553464115E+03  0.17237131403E+04  0.22005536983E+04  0.25500000920E-02 0.  1.
       -2    1    3    3    0  502 -0.11658729632E+04 -0.71553464115E+03 -0.12175596293E+04  0.18313112898E+04  0.25500000920E-02 0. -1.
</event>
<event>
 5   0  0.2078125E-09  0.3999245E+04  0.7818609E-02  0.8004699E-01
        1   -1    0    0  501    0  0.00000000000E+00  0.00000000000E+00  0.14579142051E+04  0.14579142051E+04  0.50400001928E-02 0. -1.
       -1   -1    0    0    0  501  0.00000000000E+00  0.00000000000E+00 -0.27426099521E+04  0.27426099521E+04  0.50400001928E-02 0.  1.
    10030    2    1    2    0    0  0.00000000000E+00  0.00000000000E+00 -0.12846957470E+04  0.42005241572E+04  0.39992449329E+04 0.  0.
        2    1    3    3  502    0  0.62248770254E+03  0.62644449429E+01 -0.26382388364E+04  0.27106889053E+04  0.25500000920E-02 0.  1.
       -2    1    3    3    0  502 -0.62248770254E+03 -0.62644449429E+01  0.13535430894E+04  0.14898352520E+04  0.25500000920E-02 0. -1.
</event>
<event>
 5   0  0.2078125E-09  0.3999622E+04  0.7818609E-02  0.8004623E-01
       -1   -1    0    0    0  501  0.00000000000E+00  0.00000000000E+00  0.20483386746E+04  0.20483386746E+04  0.50400001928E-02 0. -1.
        1   -1    0    0  501    0  0.00000000000E+00  0.00000000000E+00 -0.19524334315E+04  0.19524334316E+04  0.50400001928E-02 0.  1.
    10030    2    1    2    0    0  0.00000000000E+00  0.00000000000E+00  0.95905243057E+02  0.40007721062E+04  0.39996224359E+04 0.  0.
        4    1    3    3  502    0  0.70239934152E+03 -0.13086430078E+04 -0.12915857518E+04  0.19682750630E+04  0.12699999809E+01 0.  1.
       -4    1    3    3    0  502 -0.70239934152E+03  0.13086430078E+04  0.13874909948E+04  0.20324970431E+04  0.12699999809E+01 0. -1.
</event>
<event>
 5   0  0.6547327E-09  0.3995609E+04  0.7818609E-02  0.8005433E-01
        2   -1    0    0  501    0  0.00000000000E+00  0.00000000000E+00  0.24470762308E+04  0.24470762308E+04  0.25500000920E-02 0. -1.
       -2   -1    0    0    0  501  0.00000000000E+00  0.00000000000E+00 -0.16310170355E+04  0.16310170355E+04  0.25500000920E-02 0.  1.
    10030    2    1    2    0    0  0.00000000000E+00  0.00000000000E+00  0.81605919538E+03  0.40780932663E+04  0.39956090998E+04 0.  0.
        5    1    3    3  502    0 -0.18600400004E+03  0.12079886111E+04  0.20209589338E+04  0.23618067395E+04  0.46999998093E+01 0. -1.
       -5    1    3    3    0  502  0.18600400004E+03 -0.12079886111E+04 -0.12048997384E+04  0.17162865268E+04  0.46999998093E+01 0.  1.
</event>
<event>
 5   0  0.2078125E-09  0.3997160E+04  0.7818609E-02  0.8005120E-01
       -1   -1    0    0    0  501  0.00000000000E+00  0.00000000000E+00  0.20806717004E+04  0.20806717004E+04  0.50400001928E-02 0. -1.
        1   -1    0    0  501    0  0.00000000000E+00  0.00000000000E+00 -0.19197271044E+04  0.19197271044E+04  0.50400001928E-02 0.  1.
    10030    2    1    2    0    0  0.00000000000E+00  0.00000000000E+00  0.16094459598E+03  0.40003988048E+04  0.39971599211E+04 0.  0.
        2    1    3    3  502    0 -0.29475228601E+03 -0.58722099392E+03  0.19694906511E+04  0.20761986491E+04  0.25500000920E-02 0. -1.
       -2    1    3    3    0  502  0.29475228601E+03  0.58722099392E+03 -0.18085460551E+04  0.19242001557E+04  0.25500000920E-02 0.  1.
</event>
<event>
 5   0  0.2078125E-09  0.3997282E+04  0.7818609E-02  0.8005095E-01
       -1   -1    0    0    0  501  0.00000000000E+00  0.00000000000E+00  0.16149499717E+04  0.16149499717E+04  0.50400001928E-02 0. -1.
        1   -1    0    0  501    0  0.00000000000E+00  0.00000000000E+00 -0.24734926130E+04  0.24734926130E+04  0.50400001928E-02 0.  1.
    10030    2    1    2    0    0  0.00000000000E+00  0.00000000000E+00 -0.85854264127E+03  0.40884425847E+04  0.39972824896E+04 0.  0.
        5    1    3    3  502    0 -0.27208427435E+03 -0.42318844313E+03  0.15491175793E+04  0.16287742862E+04  0.46999998093E+01 0. -1.
       -5    1    3    3    0  502  0.27208427435E+03  0.42318844313E+03 -0.24076602206E+04  0.24596682985E+04  0.46999998093E+01 0.  1.
</event>
<event>
 5   0  0.2078125E-09  0.3999612E+04  0.7818609E-02  0.8004625E-01
       -1   -1    0    0    0  501  0.00000000000E+00  0.00000000000E+00  0.17165986760E+04  0.17165986760E+04  0.50400001928E-02 0.  1.
        1   -1    0    0  501    0  0.00000000000E+00  0.00000000000E+00 -0.23297370165E+04  0.23297370165E+04  0.50400001928E-02 0. -1.
    10030    2    1    2    0    0  0.00000000000E+00  0.00000000000E+00 -0.61313834047E+03  0.40463356925E+04  0.39996117201E+04 0.  0.
        4    1    3    3  502    0 -0.16659994882E+04 -0.11014503203E+04 -0.41011107813E+03  0.20388574772E+04  0.12699999809E+01 0.  1.
       -4    1    3    3    0  502  0.16659994882E+04  0.11014503203E+04 -0.20302726234E+03  0.20074782153E+04  0.12699999809E+01 0. -1.
</event>
<event>
 5   0  0.2078125E-09  0.3998940E+04  0.7818609E-02  0.8004760E-01
       -1   -1    0    0    0  501  0.00000000000E+00  0.00000000000E+00  0.25724011999E+04  0.25724011999E+04  0.50400001928E-02 0.  1.
        1   -1    0    0  501    0  0.00000000000E+00  0.00000000000E+00 -0.15541437125E+04  0.15541437125E+04  0.50400001928E-02 0. -1.
    10030    2    1    2    0    0  0.00000000000E+00  0.00000000000E+00  0.10182574874E+04  0.41265449124E+04  0.39989404351E+04 0.  0.
        3    1    3    3  502    0  0.13672954969E+04 -0.72795190881E+03 -0.79552093238E+03  0.17413398638E+04  0.10100000352E+00 0. -1.
       -3    1    3    3    0  502 -0.13672954969E+04  0.72795190881E+03  0.18137784198E+04  0.23852050486E+04  0.10100000352E+00 0.  1.
</event>
<event>
 5   0  0.2078125E-09  0.3999509E+04  0.7818609E-02  0.8004646E-01
       -1   -1    0    0    0  501  0.00000000000E+00  0.00000000000E+00  0.14336011470E+04  0.14336011470E+04  0.50400001928E-02 0. -1.
        1   -1    0    0  501    0  0.00000000000E+00  0.00000000000E+00 -0.27894915008E+04  0.27894915008E+04  0.50400001928E-02 0.  1.
    10030    2    1    2    0    0  0.00000000000E+00  0.00000000000E+00 -0.13558903538E+04  0.42230926478E+04  0.39995090775E+04 0.  0.
        5    1    3    3  502    0  0.88785439025E+03  0.74251308876E+03  0.10439810127E+04  0.15586948226E+04  0.46999998093E+01 0. -1.
       -5    1    3    3    0  502 -0.88785439025E+03 -0.74251308876E+03 -0.23998713665E+04  0.26643978252E+04  0.46999998093E+01 0.  1.
</event>
<event>
 5   0  0.2078125E-09  0.4005678E+04  0.7818609E-02  0.8003402E-01
        1   -1    0    0  501    0  0.00000000000E+00  0.00000000000E+00  0.13574547092E+04  0.13574547092E+04  0.50400001928E-02 0. -1.
       -1   -1    0    0    0  501  0.00000000000E+00  0.00000000000E+00 -0.29550629337E+04  0.29550629337E+04  0.50400001928E-02 0.  1.
    10030    2    1    2    0    0  0.00000000000E+00  0.00000000000E+00 -0.15976082245E+04  0.43125176429E+04  0.40056780176E+04 0.  0.
        1    1    3    3  502    0  0.12784122035E+04 -0.15990754245E+03 -0.24497136168E+04  0.27678520532E+04  0.50400001928E-02 0.  1.
       -1    1    3    3    0  502 -0.12784122035E+04  0.15990754245E+03  0.85210539225E+03  0.15446655896E+04  0.50400001928E-02 0. -1.
</event>
<event>
 5   0  0.6736335E-09  0.4002166E+04  0.7818609E-02  0.8004110E-01
       -2   -1    0    0    0  501  0.00000000000E+00  0.00000000000E+00  0.20408163045E+04  0.20408163045E+04  0.25500000920E-02 0. -1.
        2   -1    0    0  501    0  0.00000000000E+00  0.00000000000E+00 -0.19621232249E+04  0.19621232249E+04  0.25500000920E-02 0.  1.
    10030    2    1    2    0    0  0.00000000000E+00  0.00000000000E+00  0.78693079616E+02  0.40029395294E+04  0.40021659480E+04 0.  0.
        1    1    3    3  502    0 -0.65287905821E+03  0.42150511500E+03  0.18837245126E+04  0.20377280648E+04  0.50400001928E-02 0. -1.
       -1    1    3    3    0  502  0.65287905821E+03 -0.42150511500E+03 -0.18050314330E+04  0.19652114646E+04  0.50400001928E-02 0.  1.
</event>
<event>
 5   0  0.2078125E-09  0.3996622E+04  0.7818609E-02  0.8005228E-01
        1   -1    0    0  501    0  0.00000000000E+00  0.00000000000E+00  0.18584081502E+04  0.18584081502E+04  0.50400001928E-02 0.  1.
       -1   -1    0    0    0  501  0.00000000000E+00  0.00000000000E+00 -0.21487458014E+04  0.21487458014E+04  0.50400001928E-02 0. -1.
    10030    2    1    2    0    0  0.00000000000E+00  0.00000000000E+00 -0.29033765122E+03  0.40071539516E+04  0.39966219286E+04 0.  0.
        1    1    3    3  502    0 -0.75079028238E+02  0.22279365253E+03  0.18444932369E+04  0.18594163529E+04  0.50400001928E-02 0.  1.
       -1    1    3    3    0  502  0.75079028238E+02 -0.22279365253E+03 -0.21348308882E+04  0.21477375988E+04  0.50400001928E-02 0. -1.
</event>
<event>
 5   0  0.6538370E-09  0.3998298E+04  0.7818609E-02  0.8004890E-01
       -2   -1    0    0    0  501  0.00000000000E+00  0.00000000000E+00  0.17619033062E+04  0.17619033062E+04  0.25500000920E-02 0. -1.
        2   -1    0    0  501    0  0.00000000000E+00  0.00000000000E+00 -0.22683399884E+04  0.22683399884E+04  0.25500000920E-02 0.  1.
    10030    2    1    2    0    0  0.00000000000E+00  0.00000000000E+00 -0.50643668217E+03  0.40302432946E+04  0.39982975003E+04 0.  0.
        4    1    3    3  502    0  0.60922528388E+03 -0.18162447959E+04 -0.82935619471E+03  0.20875186025E+04  0.12699999809E+01 0.  1.
       -4    1    3    3    0  502 -0.60922528388E+03  0.18162447959E+04  0.32291951254E+03  0.19427246922E+04  0.12699999809E+01 0. -1.
</event>
<event>
 5   0  0.6547327E-09  0.3997634E+04  0.7818609E-02  0.8005024E-01
       -2   -1    0    0    0  501  0.00000000000E+00  0.00000000000E+00  0.25449317962E+04  0.25449317962E+04  0.25500000920E-02 0.  1.
        2   -1    0    0  501    0  0.00000000000E+00  0.00000000000E+00 -0.15698928900E+04  0.15698928900E+04  0.25500000920E-02 0. -1.
    10030    2    1    2    0    0  0.00000000000E+00  0.00000000000E+00  0.97503890617E+03  0.41148246862E+04  0.39976344668E+04 0.  0.
        5    1    3    3  502    0 -0.17094540360E+03 -0.19854407385E+04  0.32788938694E+03  0.20195867887E+04  0.46999998093E+01 0. -1.
       -5    1    3    3    0  502  0.17094540360E+03  0.19854407385E+04  0.64714951923E+03  0.20952378975E+04  0.46999998093E+01 0.  1.
</event>
<event>
 5   0  0.2078125E-09  0.3999836E+04  0.7818609E-02  0.8004580E-01
        1   -1    0    0  501    0  0.00000000000E+00  0.00000000000E+00  0.22595466870E+04  0.22595466870E+04  0.50400001928E-02 0. -1.
       -1   -1    0    0    0  501  0.00000000000E+00  0.00000000000E+00 -0.17701213526E+04  0.17701213526E+04  0.50400001928E-02 0.  1.
    10030    2    1    2    0    0  0.00000000000E+00  0.00000000000E+00  0.48942533439E+03  0.40296680396E+04  0.39998359155E+04 0.  0.
        2    1    3    3  502    0 -0.15154190909E+03 -0.11472492259E+04 -0.13985646369E+04  0.18152489582E+04  0.25500000920E-02 0.  1.
       -2    1    3    3    0  502  0.15154190909E+03  0.11472492259E+04  0.18879899713E+04  0.22144190814E+04  0.25500000920E-02 0. -1.
</event>
<event>
 5   0  0.2078125E-09  0.4001125E+04  0.7818609E-02  0.8004320E-01
       -1   -1    0    0    0  501  0.00000000000E+00  0.00000000000E+00  0.21307757926E+04  0.21307757926E+04  0.50400001928E-02 0.  1.
        1   -1    0    0  501    0  0.00000000000E+00  0.00000000000E+00 -0.18783067188E+04  0.18783067188E+04  0.50400001928E-02 0. -1.
    10030    2    1    2    0    0  0.00000000000E+00  0.00000000000E+00  0.25246907374E+03  0.40090825114E+04  0.40011250855E+04 0.  0.
        1    1    3    3  502    0  0.81845847624E+03 -0.44237994344E+03  0.19008232293E+04  0.21162946961E+04  0.50400001928E-02 0.  1.
       -1    1    3    3    0  502 -0.81845847624E+03  0.44237994344E+03 -0.16483541555E+04  0.18927878153E+04  0.50400001928E-02 0. -1.
</event>
<event>
 5   0  0.6599276E-09  0.4000185E+04  0.7818609E-02  0.8004509E-01
       -2   -1    0    0    0  501  0.00000000000E+00  0.00000000000E+00  0.14719854164E+04  0.14719854164E+04  0.25500000920E-02 0. -1.
        2   -1    0    0  501    0  0.00000000000E+00  0.00000000000E+00 -0.27176690515E+04  0.27176690515E+04  0.25500000920E-02 0.  1.
    10030    2    1    2    0    0  0.00000000000E+00  0.00000000000E+00 -0.12456836351E+04  0.41896544679E+04  0.40001846010E+04 0.  0.
        2    1    3    3  502    0  0.19506547053E+04 -0.22264002399E+03 -0.22299120736E+03  0.19759421647E+04  0.25500000920E-02 0. -1.
       -2    1    3    3    0  502 -0.19506547053E+04  0.22264002399E+03 -0.10226924278E+04  0.22137123032E+04  0.25500000920E-02 0.  1.
</event>
<event>
 5   0  0.2078125E-09  0.4000387E+04  0.7818609E-02  0.8004468E-01
        1   -1    0    0  501    0  0.00000000000E+00  0.00000000000E+00  0.21046618064E+04  0.21046618064E+04  0.50400001928E-02 0.  1.
       -1   -1    0    0    0  501  0.00000000000E+00  0.00000000000E+00 -0.19009111226E+04  0.19009111226E+04  0.50400001928E-02 0. -1.
    10030    2    1    2    0    0  0.00000000000E+00  0.00000000000E+00  0.20375068375E+03  0.40055729291E+04  0.40003874998E+04 0.  0.
        3    1    3    3  502    0 -0.13896061539E+04  0.11785385857E+04  0.92806097594E+03  0.20448118853E+04  0.10100000352E+00 0.  1.
       -3    1    3    3    0  502  0.13896061539E+04 -0.11785385857E+04 -0.72431029218E+03  0.19607610437E+04  0.10100000352E+00 0. -1.
</event>
<event>
 5   0  0.2078125E-09  0.3998610E+04  0.7818609E-02  0.8004827E-01
       -1   -1    0    0    0  501  0.00000000000E+00  0.00000000000E+00  0.12238541601E+04  0.12238541601E+04  0.50400001928E-02 0.  1.
        1   -1    0    0  501    0  0.00000000000E+00  0.00000000000E+00 -0.32660919304E+04  0.32660919304E+04  0.50400001928E-02 0. -1.
    10030    2    1    2    0    0  0.00000000000E+00  0.00000000000E+00 -0.20422377703E+04  0.44899460905E+04  0.39986098566E+04 0.  0.
        3    1    3    3  502    0  0.14343308954E+03  0.13630769310E+04  0.61330082317E+03  0.15015624132E+04  0.10100000352E+00 0.  1.
       -3    1    3    3    0  502 -0.14343308954E+03 -0.13630769310E+04 -0.26555385935E+04  0.29883836773E+04  0.10100000352E+00 0. -1.
</event>
<event>
 5   0  0.6599276E-09  0.4000604E+04  0.7818609E-02  0.8004425E-01
        2   -1    0    0  501    0  0.00000000000E+00  0.00000000000E+00  0.22907863411E+04  0.22907863411E+04  0.25500000920E-02 0. -1.
       -2   -1    0    0    0  501  0.00000000000E+00  0.00000000000E+00 -0.17466524242E+04  0.17466524242E+04  0.25500000920E-02 0.  1.
    10030    2    1    2    0    0  0.00000000000E+00  0.00000000000E+00  0.54413391691E+03  0.40374387652E+04  0.40006037124E+04 0.  0.
        2    1    3    3  502    0 -0.23651323040E+03  0.50284581714E+03 -0.16671914073E+04  0.17573615486E+04  0.25500000920E-02 0.  1.
       -2    1    3    3    0  502  0.23651323040E+03 -0.50284581714E+03  0.22113253242E+04  0.22800772166E+04  0.25500000920E-02 0. -1.
</event>
<event>
 5   0  0.2078125E-09  0.4000025E+04  0.7818609E-02  0.8004542E-01
       -1   -1    0    0    0  501  0.00000000000E+00  0.00000000000E+00  0.32556805079E+04  0.32556805079E+04  0.50400001928E-02 0. -1.
        1   -1    0    0  501    0  0.00000000000E+00  0.00000000000E+00 -0.12286369198E+04  0.12286369198E+04  0.50400001928E-02 0.  1.
    10030    2    1    2    0    0  0.00000000000E+00  0.00000000000E+00  0.20270435881E+04  0.44843174277E+04  0.40000246354E+04 0.  0.
        5    1    3    3  502    0  0.13421641007E+04  0.14536629529E+04  0.13413022280E+04  0.23903251266E+04  0.46999998093E+01 0. -1.
       -5    1    3    3    0  502 -0.13421641007E+04 -0.14536629529E+04  0.68574136008E+03  0.20939923011E+04  0.46999998093E+01 0.  1.
</event>
<event>
 5   0  0.6645526E-09  0.3999570E+04  0.7818609E-02  0.8004633E-01
       -2   -1    0    0    0  501  0.00000000000E+00  0.00000000000E+00  0.17015798170E+04  0.17015798170E+04  0.25500000920E-02 0. -1.
        2   -1    0    0  501    0  0.00000000000E+00  0.00000000000E+00 -0.23502513480E+04  0.23502513480E+04  0.25500000920E-02 0.  1.
    10030    2    1    2    0    0  0.00000000000E+00  0.00000000000E+00 -0.64867153101E+03  0.40518311650E+04  0.39995701062E+04 0.  0.
        3    1    3    3  502    0  0.18425672936E+04 -0.70070614401E+03 -0.66502892133E+03  0.20804583169E+04  0.10100000352E+00 0.  1.
       -3    1    3    3    0  502 -0.18425672936E+04  0.70070614401E+03  0.16357390319E+02  0.19713728481E+04  0.10100000352E+00 0. -1.
</event>
<event>
 5   0  0.6645526E-09  0.4000086E+04  0.7818609E-02  0.8004529E-01
       -2   -1    0    0    0  501  0.00000000000E+00  0.00000000000E+00  0.17138681408E+04  0.17138681408E+04  0.25500000920E-02 0.  1.
        2   -1    0    0  501    0  0.00000000000E+00  0.00000000000E+00 -0.23340026899E+04  0.23340026899E+04  0.25500000920E-02 0. -1.
    10030    2    1    2    0    0  0.00000000000E+00  0.00000000000E+00 -0.62013454904E+03  0.40478708307E+04  0.40000864244E+04 0.  0.
        3    1    3    3  502    0  0.63693500082E+03 -0.17039166168E+04 -0.11513557462E+04  0.21528209625E+04  0.10100000352E+00 0. -1.
       -3    1    3    3    0  502 -0.63693500082E+03  0.17039166168E+04  0.53122119713E+03  0.18950498681E+04  0.10100000352E+00 0.  1.
</event>
<event>
 5   0  0.6599276E-09  0.4003750E+04  0.7818609E-02  0.8003790E-01
       -2   -1    0    0    0  501  0.00000000000E+00  0.00000000000E+00  0.17962049359E+04  0.17962049359E+04  0.25500000920E-02 0. -1.
        2   -1    0    0  501    0  0.00000000000E+00  0.00000000000E+00 -0.22310947672E+04  0.22310947672E+04  0.25500000920E-02 0.  1.
    10030    2    1    2    0    0  0.00000000000E+00  0.00000000000E+00 -0.43488983125E+03  0.40272997031E+04  0.40037499589E+04 0.  0.
        2    1    3    3  502    0  0.82142845408E+03 -0.64865239716E+03  0.14990532518E+04  0.18282929987E+04  0.25500000920E-02 0. -1.
       -2    1    3    3    0  502 -0.82142845408E+03  0.64865239716E+03 -0.19339430830E+04  0.21990067044E+04  0.25500000920E-02 0.  1.
</event>
<event>
 5   0  0.2078125E-09  0.3997535E+04  0.7818609E-02  0.8005044E-01
        1   -1    0    0  501    0  0.00000000000E+00  0.00000000000E+00  0.20558511369E+04  0.20558511369E+04  0.50400001928E-02 0.  1.
       -1   -1    0    0    0  501  0.00000000000E+00  0.00000000000E+00 -0.19432689570E+04  0.19432689570E+04  0.50400001928E-02 0. -1.
    10030    2    1    2    0    0  0.00000000000E+00  0.00000000000E+00  0.11258217984E+03  0.39991200939E+04  0.39975350878E+04 0.  0.
        4    1    3    3  502    0 -0.78937869020E+03  0.18267999599E+04  0.24278729885E+03  0.20048102393E+04  0.12699999809E+01 0. -1.
       -4    1    3    3    0  502  0.78937869020E+03 -0.18267999599E+04 -0.13020511902E+03  0.19943098546E+04  0.12699999809E+01 0.  1.
</event>
<event>
 5   0  0.6736335E-09  0.3975616E+04  0.7818609E-02  0.8009484E-01
        2   -1    0    0  501    0  0.00000000000E+00  0.00000000000E+00  0.20756905542E+04  0.20756905542E+04  0.25500000920E-02 0. -1.
       -2   -1    0    0    0  501  0.00000000000E+00  0.00000000000E+00 -0.19036466990E+04  0.19036466990E+04  0.25500000920E-02 0.  1.
    10030    2    1    2    0    0  0.00000000000E+00  0.00000000000E+00  0.17204385518E+03  0.39793372532E+04  0.39756164159E+04 0.  0.
        1    1    3    3  502    0 -0.40408308901E+03 -0.10936870401E+04  0.16974811853E+04  0.20593389374E+04  0.50400001928E-02 0. -1.
       -1    1    3    3    0  502  0.40408308901E+03  0.10936870401E+04 -0.15254373301E+04  0.19199983158E+04  0.50400001928E-02 0.  1.
</event>
<event>
 5   0  0.6599276E-09  0.4001580E+04  0.7818609E-02  0.8004228E-01
       -2   -1    0    0    0  501  0.00000000000E+00  0.00000000000E+00  0.20764719462E+04  0.20764719462E+04  0.25500000920E-02 0. -1.
        2   -1    0    0  501    0  0.00000000000E+00  0.00000000000E+00 -0.19278665246E+04  0.19278665246E+04  0.25500000920E-02 0.  1.
    10030    2    1    2    0    0  0.00000000000E+00  0.00000000000E+00  0.14860542161E+03  0.40043384707E+04  0.40015800650E+04 0.  0.
        2    1    3    3  502    0  0.97956366789E+03 -0.13023525932E+04 -0.10873133492E+04  0.19590603809E+04  0.25500000920E-02 0.  1.
       -2    1    3    3    0  502 -0.97956366789E+03  0.13023525932E+04  0.12359187708E+04  0.20452780898E+04  0.25500000920E-02 0. -1.
</event>
<event>
 5   0  0.6538370E-09  0.4000194E+04  0.7818609E-02  0.8004507E-01
       -2   -1    0    0    0  501  0.00000000000E+00  0.00000000000E+00  0.20058064771E+04  0.20058064771E+04  0.25500000920E-02 0.  1.
        2   -1    0    0  501    0  0.00000000000E+00  0.00000000000E+00 -0.19944038999E+04  0.19944038999E+04  0.25500000920E-02 0. -1.
    10030    2    1    2    0    0  0.00000000000E+00  0.00000000000E+00  0.11402577277E+02  0.40002103770E+04  0.40001941255E+04 0.  0.
        4    1    3    3  502    0  0.10630610300E+04 -0.16230187398E+04  0.49160249524E+03  0.20014902472E+04  0.12699999809E+01 0.  1.
       -4    1    3    3    0  502 -0.10630610300E+04  0.16230187398E+04 -0.48019991796E+03  0.19987201298E+04  0.12699999809E+01 0. -1.
</event>
<event>
 5   0  0.6645526E-09  0.3999755E+04  0.7818609E-02  0.8004596E-01
       -2   -1    0    0    0  501  0.00000000000E+00  0.00000000000E+00  0.15863050720E+04  0.15863050720E+04  0.25500000920E-02 0.  1.
        2   -1    0    0  501    0  0.00000000000E+00  0.00000000000E+00 -0.25212740791E+04  0.25212740791E+04  0.25500000920E-02 0. -1.
    10030    2    1    2    0    0  0.00000000000E+00  0.00000000000E+00 -0.93496900708E+03  0.41075791511E+04  0.39997549222E+04 0.  0.
        3    1    3    3  502    0 -0.88362080012E+03  0.48154443022E+03 -0.22423214989E+04  0.24577787678E+04  0.10100000352E+00 0. -1.
       -3    1    3    3    0  502  0.88362080012E+03 -0.48154443022E+03  0.13073524918E+04  0.16498003833E+04  0.10100000352E+00 0.  1.
</event>
<event>
 5   0  0.2078125E-09  0.4001051E+04  0.7818609E-02  0.8004335E-01
        1   -1    0    0  501    0  0.00000000000E+00  0.00000000000E+00  0.30763855087E+04  0.30763855087E+04  0.50400001928E-02 0. -1.
       -1   -1    0    0    0  501  0.00000000000E+00  0.00000000000E+00 -0.13009106020E+04  0.13009106020E+04  0.50400001928E-02 0.  1.
    10030    2    1    2    0    0  0.00000000000E+00  0.00000000000E+00  0.17754749067E+04  0.43772961106E+04  0.40010511239E+04 0.  0.
        2    1    3    3  502    0  0.73149231585E+03 -0.76503599733E+03 -0.96946535379E+03  0.14353480963E+04  0.25500000920E-02 0.  1.
       -2    1    3    3    0  502 -0.73149231585E+03  0.76503599733E+03  0.27449402605E+04  0.29419480143E+04  0.25500000920E-02 0. -1.
</event>
<event>
 5   0  0.6736335E-09  0.3999708E+04  0.7818609E-02  0.8004605E-01
       -2   -1    0    0    0  501  0.00000000000E+00  0.00000000000E+00  0.15976505851E+04  0.15976505851E+04  0.25500000920E-02 0. -1.
        2   -1    0    0  501    0  0.00000000000E+00  0.00000000000E+00 -0.25033111573E+04  0.25033111573E+04  0.25500000920E-02 0.  1.
    10030    2    1    2    0    0  0.00000000000E+00  0.00000000000E+00 -0.90566057221E+03  0.41009617424E+04  0.39997082569E+04 0.  0.
        1    1    3    3  502    0  0.93102200216E+03  0.15867229726E+04 -0.12568531495E+04  0.22280421001E+04  0.50400001928E-02 0. -1.
       -1    1    3    3    0  502 -0.93102200216E+03 -0.15867229726E+04  0.35119257731E+03  0.18729196423E+04  0.50400001928E-02 0.  1.
</event>
<event>
 5   0  0.6538370E-09  0.3999488E+04  0.7818609E-02  0.8004650E-01
        2   -1    0    0  501    0  0.00000000000E+00  0.00000000000E+00  0.15491925400E+04  0.15491925400E+04  0.25500000920E-02 0.  1.
       -2   -1    0    0    0  501  0.00000000000E+00  0.00000000000E+00 -0.25813292417E+04  0.25813292417E+04  0.25500000920E-02 0. -1.
    10030    2    1    2    0    0  0.00000000000E+00  0.00000000000E+00 -0.10321367017E+04  0.41305217817E+04  0.39994879695E+04 0.  0.
        4    1    3    3  502    0  0.54214793540E+03 -0.14518160907E+04  0.78917369446E+03  0.17391064022E+04  0.12699999809E+01 0.  1.
       -4    1    3    3    0  502 -0.54214793540E+03  0.14518160907E+04 -0.18213103962E+04  0.23914153795E+04  0.12699999809E+01 0. -1.
</event>
<event>
 5   0  0.2078125E-09  0.3999746E+04  0.7818609E-02  0.8004598E-01
       -1   -1    0    0    0  501  0.00000000000E+00  0.00000000000E+00  0.15804296553E+04  0.15804296553E+04  0.50400001928E-02 0.  1.
        1   -1    0    0  501    0  0.00000000000E+00  0.00000000000E+00 -0.25306362239E+04  0.25306362239E+04  0.50400001928E-02 0. -1.
    10030    2    1    2    0    0  0.00000000000E+00  0.00000000000E+00 -0.95020656867E+03  0.41110658792E+04  0.39997462595E+04 0.  0.
        1    1    3    3  502    0  0.18106926467E+04  0.61024180995E+03 -0.10818632401E+04  0.21957757167E+04  0.50400001928E-02 0. -1.
       -1    1    3    3    0  502 -0.18106926467E+04 -0.61024180995E+03  0.13165667146E+03  0.19152901625E+04  0.50400001928E-02 0.  1.
</event>
<event>
 5   0  0.2078125E-09  0.4011242E+04  0.7818609E-02  0.8002282E-01
       -1   -1    0    0    0  501  0.00000000000E+00  0.00000000000E+00  0.17666383841E+04  0.17666383841E+04  0.50400001928E-02 0. -1.
        1   -1    0    0  501    0  0.00000000000E+00  0.00000000000E+00 -0.22769324368E+04  0.22769324368E+04  0.50400001928E-02 0.  1.
    10030    2    1    2    0    0  0.00000000000E+00  0.00000000000E+00 -0.51029405274E+03  0.40435708209E+04  0.40112423217E+04 0.  0.
        2    1    3    3  502    0 -0.98390449500E+03  0.99545509532E+03  0.11929251746E+04  0.18390403406E+04  0.25500000920E-02 0. -1.
       -2    1    3    3    0  502  0.98390449500E+03 -0.99545509532E+03 -0.17032192274E+04  0.22045304803E+04  0.25500000920E-02 0.  1.
</event>
<event>
 5   0  0.2078125E-09  0.4006386E+04  0.7818609E-02  0.8003259E-01
       -1   -1    0    0    0  501  0.00000000000E+00  0.00000000000E+00  0.28578209272E+04  0.28578209272E+04  0.50400001928E-02 0. -1.
        1   -1    0    0  501    0  0.00000000000E+00  0.00000000000E+00 -0.14041406710E+04  0.14041406710E+04  0.50400001928E-02 0.  1.
    10030    2    1    2    0    0  0.00000000000E+00  0.00000000000E+00  0.14536802562E+04  0.42619615982E+04  0.40063861992E+04 0.  0.
        5    1    3    3  502    0 -0.65512904166E+03  0.18917962803E+04  0.79956240672E+03  0.21557850913E+04  0.46999998093E+01 0. -1.
       -5    1    3    3    0  502  0.65512904166E+03 -0.18917962803E+04  0.65411784950E+03  0.21061765070E+04  0.46999998093E+01 0.  1.
</event>
<event>
 5   0  0.2078125E-09  0.4003503E+04  0.7818609E-02  0.8003840E-01
       -1   -1    0    0    0  501  0.00000000000E+00  0.00000000000E+00  0.21330226852E+04  0.21330226852E+04  0.50400001928E-02 0. -1.
        1   -1    0    0  501    0  0.00000000000E+00  0.00000000000E+00 -0.18785590591E+04  0.18785590591E+04  0.50400001928E-02 0.  1.
    10030    2    1    2    0    0  0.00000000000E+00  0.00000000000E+00  0.25446362610E+03  0.40115817443E+04  0.40035030103E+04 0.  0.
        3    1    3    3  502    0  0.19310173666E+03  0.19155127817E+03 -0.18599566447E+04  0.18797390519E+04  0.10100000352E+00 0.  1.
       -3    1    3    3    0  502 -0.19310173666E+03 -0.19155127817E+03  0.21144202708E+04  0.21318426923E+04  0.10100000352E+00 0. -1.
</event>
<event>
 5   0  0.6538370E-09  0.3995266E+04  0.7818609E-02  0.8005502E-01
        2   -1    0    0  501    0  0.00000000000E+00  0.00000000000E+00  0.27741935605E+04  0.27741935605E+04  0.25500000920E-02 0. -1.
       -2   -1    0    0    0  501  0.00000000000E+00  0.00000000000E+00 -0.14384495667E+04  0.14384495667E+04  0.25500000920E-02 0.  1.
    10030    2    1    2    0    0  0.00000000000E+00  0.00000000000E+00  0.13357439938E+04  0.42126431272E+04  0.39952659612E+04 0.  0.
        4    1    3    3  502    0 -0.12845883443E+04 -0.44612143610E+03 -0.87507934883E+03  0.16170828765E+04  0.12699999809E+01 0.  1.
       -4    1    3    3    0  502  0.12845883443E+04  0.44612143610E+03  0.22108233426E+04  0.25955602507E+04  0.12699999809E+01 0. -1.
</event>
<event>
 5   0  0.2078125E-09  0.3997238E+04  0.7818609E-02  0.8005104E-01
       -1   -1    0    0    0  501  0.00000000000E+00  0.00000000000E+00  0.20021619565E+04  0.20021619565E+04  0.50400001928E-02 0. -1.
        1   -1    0    0  501    0  0.00000000000E+00  0.00000000000E+00 -0.19950819450E+04  0.19950819451E+04  0.50400001928E-02 0.  1.
    10030    2    1    2    0    0  0.00000000000E+00  0.00000000000E+00  0.70800114151E+01  0.39972439015E+04  0.39972376314E+04 0.  0.
        1    1    3    3  502    0 -0.80637379409E+03 -0.59172285787E+03  0.17338902383E+04  0.20016867874E+04  0.50400001928E-02 0. -1.
       -1    1    3    3    0  502  0.80637379409E+03  0.59172285787E+03 -0.17268102268E+04  0.19955571142E+04  0.50400001928E-02 0.  1.
</event>
<event>
 5   0  0.6547327E-09  0.4002414E+04  0.7818609E-02  0.8004060E-01
       -2   -1    0    0    0  501  0.00000000000E+00  0.00000000000E+00  0.24771818645E+04  0.24771818645E+04  0.25500000920E-02 0.  1.
        2   -1    0    0  501    0  0.00000000000E+00  0.00000000000E+00 -0.16166873356E+04  0.16166873356E+04  0.25500000920E-02 0. -1.
    10030    2    1    2    0    0  0.00000000000E+00  0.00000000000E+00  0.86049452889E+03  0.40938692001E+04  0.40024135460E+04 0.  0.
        5    1    3    3  502    0 -0.27498950814E+03 -0.13084121612E+04  0.19533136385E+04  0.23670694695E+04  0.46999998093E+01 0.  1.
       -5    1    3    3    0  502  0.27498950814E+03  0.13084121612E+04 -0.10928191096E+04  0.17267997306E+04  0.46999998093E+01 0. -1.
</event>
<event>
 5   0  0.6547327E-09  0.4001531E+04  0.7818609E-02  0.8004238E-01
       -2   -1    0    0    0  501  0.00000000000E+00  0.00000000000E+00  0.32127778730E+04  0.32127778730E+04  0.25500000920E-02 0. -1.
        2   -1    0    0  501    0  0.00000000000E+00  0.00000000000E+00 -0.12459816701E+04  0.12459816701E+04  0.25500000920E-02 0.  1.
    10030    2    1    2    0    0  0.00000000000E+00  0.00000000000E+00  0.19667962029E+04  0.44587595431E+04  0.40015308770E+04 0.  0.
        5    1    3    3  502    0 -0.60956999060E+03 -0.12670493545E+04 -0.60263783842E+03  0.15297660261E+04  0.46999998093E+01 0.  1.
       -5    1    3    3    0  502  0.60956999060E+03  0.12670493545E+04  0.25694340413E+04  0.29289935171E+04  0.46999998093E+01 0. -1.
</event>
<event>
 5   0  0.6547327E-09  0.4004742E+04  0.7818609E-02  0.8003591E-01
        2   -1    0    0  501    0  0.00000000000E+00  0.00000000000E+00  0.26447321307E+04  0.26447321308E+04  0.25500000920E-02 0.  1.
       -2   -1    0    0    0  501  0.00000000000E+00  0.00000000000E+00 -0.15160287926E+04  0.15160287926E+04  0.25500000920E-02 0. -1.
    10030    2    1    2    0    0  0.00000000000E+00  0.00000000000E+00  0.11287033382E+04  0.41607609233E+04  0.40047422183E+04 0.  0.
        5    1    3    3  502    0  0.24524408755E+03 -0.86054765145E+03  0.24254453634E+04  0.25852454861E+04  0.46999998093E+01 0.  1.
       -5    1    3    3    0  502 -0.24524408755E+03  0.86054765145E+03 -0.12967420252E+04  0.15755154372E+04  0.46999998093E+01 0. -1.
</event>
<event>
 5   0  0.6599276E-09  0.4002505E+04  0.7818609E-02  0.8004041E-01
        2   -1    0    0  501    0  0.00000000000E+00  0.00000000000E+00  0.24305834282E+04  0.24305834282E+04  0.25500000920E-02 0.  1.
       -2   -1    0    0    0  501  0.00000000000E+00  0.00000000000E+00 -0.16477573610E+04  0.16477573610E+04  0.25500000920E-02 0. -1.
    10030    2    1    2    0    0  0.00000000000E+00  0.00000000000E+00  0.78282606724E+03  0.40783407892E+04  0.40025050832E+04 0.  0.
        2    1    3    3  502    0 -0.38705070666E+03  0.16861464704E+04 -0.63368699071E+03  0.18424053222E+04  0.25500000920E-02 0. -1.
       -2    1    3    3    0  502  0.38705070666E+03 -0.16861464704E+04  0.14165130580E+04  0.22359354670E+04  0.25500000920E-02 0.  1.
</event>
<event>
 5   0  0.2078125E-09  0.4000409E+04  0.7818609E-02  0.8004464E-01
       -1   -1    0    0    0  501  0.00000000000E+00  0.00000000000E+00  0.19545850563E+04  0.19545850563E+04  0.50400001928E-02 0. -1.
        1   -1    0    0  501    0  0.00000000000E+00  0.00000000000E+00 -0.20468883614E+04  0.20468883614E+04  0.50400001928E-02 0.  1.
    10030    2    1    2    0    0  0.00000000000E+00  0.00000000000E+00 -0.92303305138E+02  0.40014734177E+04  0.40004086806E+04 0.  0.
        4    1    3    3  502    0 -0.16286502480E+04  0.27735788294E+03 -0.11740096364E+04  0.20267533804E+04  0.12699999809E+01 0.  1.
       -4    1    3    3    0  502  0.16286502480E+04 -0.27735788294E+03  0.10817063313E+04  0.19747200373E+04  0.12699999809E+01 0. -1.
</event>
<event>
 5   0  0.6736335E-09  0.4006124E+04  0.7818609E-02  0.8003312E-01
        2   -1    0    0  501    0  0.00000000000E+00  0.00000000000E+00  0.21872460985E+04  0.21872460985E+04  0.25500000920E-02 0.  1.
       -2   -1    0    0    0  501  0.00000000000E+00  0.00000000000E+00 -0.18343876657E+04  0.18343876657E+04  0.25500000920E-02 0. -1.
    10030    2    1    2    0    0  0.00000000000E+00  0.00000000000E+00  0.35285843282E+03  0.40216337642E+04  0.40061239447E+04 0.  0.
        1    1    3    3  502    0 -0.57010317027E+03  0.17807869652E+04 -0.54470937349E+03  0.19475441309E+04  0.50400001928E-02 0. -1.
       -1    1    3    3    0  502  0.57010317027E+03 -0.17807869652E+04  0.89756780631E+03  0.20740896333E+04  0.50400001928E-02 0.  1.
</event>
<event>
 5   0  0.6547327E-09  0.4003167E+04  0.7818609E-02  0.8003908E-01
        2   -1    0    0  501    0  0.00000000000E+00  0.00000000000E+00  0.21031897096E+04  0.21031897096E+04  0.25500000920E-02 0. -1.
       -2   -1    0    0    0  501  0.00000000000E+00  0.00000000000E+00 -0.19048864001E+04  0.19048864001E+04  0.25500000920E-02 0.  1.
    10030    2    1    2    0    0  0.00000000000E+00  0.00000000000E+00  0.19830330950E+03  0.40080761097E+04  0.40031674832E+04 0.  0.
        5    1    3    3  502    0 -0.18786028070E+04 -0.59338889260E+03  0.45321855977E+03  0.20215558457E+04  0.46999998093E+01 0.  1.
       -5    1    3    3    0  502  0.18786028070E+04  0.59338889260E+03 -0.25491525027E+03  0.19865202640E+04  0.46999998093E+01 0. -1.
</event>
<event>
 5   0  0.6538370E-09  0.4002210E+04  0.7818609E-02  0.8004101E-01
       -2   -1    0    0    0  501  0.00000000000E+00  0.00000000000E+00  0.20963384144E+04  0.20963384144E+04  0.25500000920E-02 0. -1.
        2   -1    0    0  501    0  0.00000000000E+00  0.00000000000E+00 -0.19101978410E+04  0.19101978410E+04  0.25500000920E-02 0.  1.
    10030    2    1    2    0    0  0.00000000000E+00  0.00000000000E+00  0.18614057339E+03  0.40065362554E+04  0.40022099461E+04 0.  0.
        4    1    3    3  502    0  0.71562835062E+03 -0.75358747129E+03 -0.16188664364E+04  0.19237328726E+04  0.12699999809E+01 0.  1.
       -4    1    3    3    0  502 -0.71562835062E+03  0.75358747129E+03  0.18050070098E+04  0.20828033828E+04  0.12699999809E+01 0. -1.
</event>
<event>
 5   0  0.6645526E-09  0.3999794E+04  0.7818609E-02  0.8004588E-01
       -2   -1    0    0    0  501  0.00000000000E+00  0.00000000000E+00  0.18603253900E+04  0.18603253900E+04  0.25500000920E-02 0.  1.
        2   -1    0    0  501    0  0.00000000000E+00  0.00000000000E+00 -0.21499402305E+04  0.21499402305E+04  0.25500000920E-02 0. -1.
    10030    2    1    2    0    0  0.00000000000E+00  0.00000000000E+00 -0.28961484053E+03  0.40102656205E+04  0.39997941936E+04 0.  0.
        3    1    3    3  502    0  0.36820669168E+03 -0.23395560702E+03 -0.21016539679E+04  0.21464530754E+04  0.10100000352E+00 0. -1.
       -3    1    3    3    0  502 -0.36820669168E+03  0.23395560702E+03  0.18120391274E+04  0.18638125451E+04  0.10100000352E+00 0.  1.
</event>
<event>
 5   0  0.6547327E-09  0.4001369E+04  0.7818609E-02  0.8004270E-01
        2   -1    0    0  501    0  0.00000000000E+00  0.00000000000E+00  0.13624299579E+04  0.13624299579E+04  0.25500000920E-02 0.  1.
       -2   -1    0    0    0  501  0.00000000000E+00  0.00000000000E+00 -0.29379408986E+04  0.29379408986E+04  0.25500000920E-02 0. -1.
    10030    2    1    2    0    0  0.00000000000E+00  0.00000000000E+00 -0.15755109407E+04  0.43003708565E+04  0.40013691131E+04 0.  0.
        5    1    3    3  502    0 -0.15031838118E+03 -0.14466041512E+04 -0.22642637134E+04  0.26911282838E+04  0.46999998093E+01 0. -1.
       -5    1    3    3    0  502  0.15031838118E+03  0.14466041512E+04  0.68875277268E+03  0.16092425727E+04  0.46999998093E+01 0.  1.
</event>
<event>
 5   0  0.2078125E-09  0.3997856E+04  0.7818609E-02  0.8004979E-01
        1   -1    0    0  501    0  0.00000000000E+00  0.00000000000E+00  0.22478156818E+04  0.22478156818E+04  0.50400001928E-02 0. -1.
       -1   -1    0    0    0  501  0.00000000000E+00  0.00000000000E+00 -0.17775984631E+04  0.17775984631E+04  0.50400001928E-02 0.  1.
    10030    2    1    2    0    0  0.00000000000E+00  0.00000000000E+00  0.47021721869E+03  0.40254141449E+04  0.39978562762E+04 0.  0.
        4    1    3    3  502    0  0.37309399576E+03  0.13486815775E+03 -0.17375602140E+04  0.17822754164E+04  0.12699999809E+01 0.  1.
       -4    1    3    3    0  502 -0.37309399576E+03 -0.13486815775E+03  0.22077774327E+04  0.22431387284E+04  0.12699999809E+01 0. -1.
</event>
<event>
 5   0  0.2078125E-09  0.4000717E+04  0.7818609E-02  0.8004402E-01
       -1   -1    0    0    0  501  0.00000000000E+00  0.00000000000E+00  0.13712872900E+04  0.13712872900E+04  0.50400001928E-02 0.  1.
        1   -1    0    0  501    0  0.00000000000E+00  0.00000000000E+00 -0.29180128542E+04  0.29180128542E+04  0.50400001928E-02 0. -1.
    10030    2    1    2    0    0  0.00000000000E+00  0.00000000000E+00 -0.15467255642E+04  0.42893001443E+04  0.40007169053E+04 0.  0.
        3    1    3    3  502    0 -0.13931350320E+04 -0.92590061912E+03 -0.19494474755E+04  0.25687472907E+04  0.10100000352E+00 0. -1.
       -3    1    3    3    0  502  0.13931350320E+04  0.92590061912E+03  0.40272191128E+03  0.17205528535E+04  0.10100000352E+00 0.  1.
</event>
<event>
 5   0  0.2078125E-09  0.3994896E+04  0.7818609E-02  0.8005577E-01
        3   -1    0    0  501    0  0.00000000000E+00  0.00000000000E+00  0.25770926298E+04  0.25770926318E+04  0.10100000352E+00 0.  1.
       -3   -1    0    0    0  501  0.00000000000E+00  0.00000000000E+00 -0.15481779415E+04  0.15481779448E+04  0.10100000352E+00 0. -1.
    10030    2    1    2    0    0  0.00000000000E+00  0.00000000000E+00  0.10289146883E+04  0.41252705765E+04  0.39948957300E+04 0.  0.
        1    1    3    3  502    0 -0.14682314191E+04  0.16129530418E+03  0.19029884319E+04  0.24089592457E+04  0.50400001928E-02 0.  1.
       -1    1    3    3    0  502  0.14682314191E+04 -0.16129530418E+03 -0.87407374357E+03  0.17163113309E+04  0.50400001928E-02 0. -1.
</event>
<event>
 5   0  0.6736335E-09  0.4001503E+04  0.7818609E-02  0.8004243E-01
       -2   -1    0    0    0  501  0.00000000000E+00  0.00000000000E+00  0.14223199409E+04  0.14223199409E+04  0.25500000920E-02 0. -1.
        2   -1    0    0  501    0  0.00000000000E+00  0.00000000000E+00 -0.28144202954E+04  0.28144202954E+04  0.25500000920E-02 0.  1.
    10030    2    1    2    0    0  0.00000000000E+00  0.00000000000E+00 -0.13921003545E+04  0.42367402363E+04  0.40015027718E+04 0.  0.
        1    1    3    3  502    0 -0.15418480566E+04 -0.10301562586E+04  0.99442827733E+02  0.18569884822E+04  0.50400001928E-02 0.  1.
       -1    1    3    3    0  502  0.15418480566E+04  0.10301562586E+04 -0.14915431822E+04  0.23797517541E+04  0.50400001928E-02 0. -1.
</event>
<event>
 5   0  0.6547327E-09  0.3998463E+04  0.7818609E-02  0.8004857E-01
       -2   -1    0    0    0  501  0.00000000000E+00  0.00000000000E+00  0.18535260417E+04  0.18535260417E+04  0.25500000920E-02 0. -1.
        2   -1    0    0  501    0  0.00000000000E+00  0.00000000000E+00 -0.21563905889E+04  0.21563905889E+04  0.25500000920E-02 0.  1.
    10030    2    1    2    0    0  0.00000000000E+00  0.00000000000E+00 -0.30286454718E+03  0.40099166306E+04  0.39984627609E+04 0.  0.
        5    1    3    3  502    0 -0.96500959311E+03 -0.16052426562E+04 -0.85261788371E+03  0.20579180853E+04  0.46999998093E+01 0.  1.
       -5    1    3    3    0  502  0.96500959311E+03  0.16052426562E+04  0.54975333653E+03  0.19519985454E+04  0.46999998093E+01 0. -1.
</event>
<event>
 5   0  0.2078125E-09  0.3998397E+04  0.7818609E-02  0.8004870E-01
       -3   -1    0    0    0  501  0.00000000000E+00  0.00000000000E+00  0.17967333962E+04  0.17967333990E+04  0.10100000352E+00 0. -1.
        3   -1    0    0  501    0  0.00000000000E+00  0.00000000000E+00 -0.22244784772E+04  0.22244784795E+04  0.10100000352E+00 0.  1.
    10030    2    1    2    0    0  0.00000000000E+00  0.00000000000E+00 -0.42774508098E+03  0.40212118785E+04  0.39983970685E+04 0.  0.
        3    1    3    3  502    0 -0.21627640926E+03  0.10122487910E+04  0.15062586149E+04  0.18276318353E+04  0.10100000352E+00 0. -1.
       -3    1    3    3    0  502  0.21627640926E+03 -0.10122487910E+04 -0.19340036959E+04  0.21935800432E+04  0.10100000352E+00 0.  1.
</event>
<event>
 5   0  0.2078125E-09  0.4000055E+04  0.7818609E-02  0.8004535E-01
        1   -1    0    0  501    0  0.00000000000E+00  0.00000000000E+00  0.25245715092E+04  0.25245715092E+04  0.50400001928E-02 0.  1.
       -1   -1    0    0    0  501  0.00000000000E+00  0.00000000000E+00 -0.15844711589E+04  0.15844711589E+04  0.50400001928E-02 0. -1.
    10030    2    1    2    0    0  0.00000000000E+00  0.00000000000E+00  0.94010035029E+03  0.41090426680E+04  0.40000553720E+04 0.  0.
        1    1    3    3  502    0 -0.57405714474E+03 -0.12350244916E+04 -0.10345357977E+04  0.17102898635E+04  0.50400001928E-02 0. -1.
       -1    1    3    3    0  502  0.57405714474E+03  0.12350244916E+04  0.19746361480E+04  0.23987528046E+04  0.50400001928E-02 0.  1.
</event>
<event>
 5   0  0.6599276E-09  0.4000745E+04  0.7818609E-02  0.8004396E-01
        2   -1    0    0  501    0  0.00000000000E+00  0.00000000000E+00  0.28043817183E+04  0.28043817183E+04  0.25500000920E-02 0.  1.
       -2   -1    0    0    0  501  0.00000000000E+00  0.00000000000E+00 -0.14268708735E+04  0.14268708735E+04  0.25500000920E-02 0. -1.
    10030    2    1    2    0    0  0.00000000000E+00  0.00000000000E+00  0.13775108448E+04  0.42312525918E+04  0.40007452266E+04 0.  0.
        2    1    3    3  502    0  0.18979671262E+04  0.60900422688E+03  0.86675328568E+03  0.21735746177E+04  0.25500000920E-02 0. -1.
       -2    1    3    3    0  502 -0.18979671262E+04 -0.60900422688E+03  0.51075755916E+03  0.20576779741E+04  0.25500000920E-02 0.  1.
</event>
<event>
 5   0  0.2078125E-09  0.3998988E+04  0.7818609E-02  0.8004751E-01
        1   -1    0    0  501    0  0.00000000000E+00  0.00000000000E+00  0.15061793424E+04  0.15061793424E+04  0.50400001928E-02 0. -1.
       -1   -1    0    0    0  501  0.00000000000E+00  0.00000000000E+00 -0.26543831066E+04  0.26543831066E+04  0.50400001928E-02 0.  1.
    10030    2    1    2    0    0  0.00000000000E+00  0.00000000000E+00 -0.11482037642E+04  0.41605624490E+04  0.39989883731E+04 0.  0.
        1    1    3    3  502    0  0.18344039763E+04  0.17046633337E+03  0.23439309943E+03  0.18571582712E+04  0.50400001928E-02 0. -1.
       -1    1    3    3    0  502 -0.18344039763E+04 -0.17046633337E+03 -0.13825968637E+04  0.23034041779E+04  0.50400001928E-02 0.  1.
</event>
<event>
 5   0  0.6538370E-09  0.4001526E+04  0.7818609E-02  0.8004239E-01
       -2   -1    0    0    0  501  0.00000000000E+00  0.00000000000E+00  0.16436417082E+04  0.16436417082E+04  0.25500000920E-02 0. -1.
        2   -1    0    0  501    0  0.00000000000E+00  0.00000000000E+00 -0.24354778813E+04  0.24354778813E+04  0.25500000920E-02 0.  1.
    10030    2    1    2    0    0  0.00000000000E+00  0.00000000000E+00 -0.79183617309E+03  0.40791195895E+04  0.40015262214E+04 0.  0.
        4    1    3    3  502    0  0.13259531894E+04 -0.66925727315E+03 -0.17624321798E+04  0.23048266658E+04  0.12699999809E+01 0.  1.
       -4    1    3    3    0  502 -0.13259531894E+04  0.66925727315E+03  0.97059600668E+03  0.17742929237E+04  0.12699999809E+01 0. -1.
</event>
<event>
 5   0  0.6736335E-09  0.4007965E+04  0.7818609E-02  0.8002942E-01
       -2   -1    0    0    0  501  0.00000000000E+00  0.00000000000E+00  0.21293988057E+04  0.21293988057E+04  0.25500000920E-02 0. -1.
        2   -1    0    0  501    0  0.00000000000E+00  0.00000000000E+00 -0.18859528689E+04  0.18859528689E+04  0.25500000920E-02 0.  1.
    10030    2    1    2    0    0  0.00000000000E+00  0.00000000000E+00  0.24344593681E+03  0.40153516746E+04  0.40079649633E+04 0.  0.
        1    1    3    3  502    0  0.55098191859E+03  0.12022204948E+04 -0.13867181492E+04  0.19162208688E+04  0.50400001928E-02 0.  1.
       -1    1    3    3    0  502 -0.55098191859E+03 -0.12022204948E+04  0.16301640860E+04  0.20991308058E+04  0.50400001928E-02 0. -1.
</event>
<event>
 5   0  0.6547327E-09  0.3999630E+04  0.7818609E-02  0.8004621E-01
       -2   -1    0    0    0  501  0.00000000000E+00  0.00000000000E+00  0.24689402256E+04  0.24689402256E+04  0.25500000920E-02 0.  1.
        2   -1    0    0  501    0  0.00000000000E+00  0.00000000000E+00 -0.16198282509E+04  0.16198282509E+04  0.25500000920E-02 0. -1.
    10030    2    1    2    0    0  0.00000000000E+00  0.00000000000E+00  0.84911197469E+03  0.40887684765E+04  0.39996295464E+04 0.  0.
        5    1    3    3  502    0 -0.18141414946E+04 -0.13200513156E+03  0.12741632359E+04  0.22208216405E+04  0.46999998093E+01 0.  1.
       -5    1    3    3    0  502  0.18141414946E+04  0.13200513156E+03 -0.42505126125E+03  0.18679468360E+04  0.46999998093E+01 0. -1.
</event>
<event>
 5   0  0.2078125E-09  0.4000170E+04  0.7818609E-02  0.8004512E-01
       -1   -1    0    0    0  501  0.00000000000E+00  0.00000000000E+00  0.21141004558E+04  0.21141004558E+04  0.50400001928E-02 0. -1.
        1   -1    0    0  501    0  0.00000000000E+00  0.00000000000E+00 -0.18922185242E+04  0.18922185242E+04  0.50400001928E-02 0.  1.
    10030    2    1    2    0    0  0.00000000000E+00  0.00000000000E+00  0.22188193159E+03  0.40063189800E+04  0.40001700186E+04 0.  0.
        1    1    3    3  502    0  0.15926823617E+04  0.12094982473E+04  0.82315059529E+02  0.20015741017E+04  0.50400001928E-02 0. -1.
       -1    1    3    3    0  502 -0.15926823617E+04 -0.12094982473E+04  0.13956687206E+03  0.20047448783E+04  0.50400001928E-02 0.  1.
</event>
<event>
 5   0  0.6538370E-09  0.3999256E+04  0.7818609E-02  0.8004697E-01
        2   -1    0    0  501    0  0.00000000000E+00  0.00000000000E+00  0.23053594353E+04  0.23053594353E+04  0.25500000920E-02 0.  1.
       -2   -1    0    0    0  501  0.00000000000E+00  0.00000000000E+00 -0.17344416117E+04  0.17344416117E+04  0.25500000920E-02 0. -1.
    10030    2    1    2    0    0  0.00000000000E+00  0.00000000000E+00  0.57091782352E+03  0.40398010470E+04  0.39992555980E+04 0.  0.
        4    1    3    3  502    0 -0.12478134780E+04 -0.44417764658E+03  0.17987044932E+04  0.22337573109E+04  0.12699999809E+01 0.  1.
       -4    1    3    3    0  502  0.12478134780E+04  0.44417764658E+03 -0.12277866696E+04  0.18060437361E+04  0.12699999809E+01 0. -1.
</event>
<event>
 5   0  0.2078125E-09  0.3999596E+04  0.7818609E-02  0.8004628E-01
        1   -1    0    0  501    0  0.00000000000E+00  0.00000000000E+00  0.20959364682E+04  0.20959364682E+04  0.50400001928E-02 0.  1.
       -1   -1    0    0    0  501  0.00000000000E+00  0.00000000000E+00 -0.19080688577E+04  0.19080688577E+04  0.50400001928E-02 0. -1.
    10030    2    1    2    0    0  0.00000000000E+00  0.00000000000E+00  0.18786761045E+03  0.40040053259E+04  0.39995955309E+04 0.  0.
        4    1    3    3  502    0 -0.30773263369E+03 -0.13842876198E+03 -0.18793629116E+04  0.19094157384E+04  0.12699999809E+01 0. -1.
       -4    1    3    3    0  502  0.30773263369E+03  0.13842876198E+03  0.20672305220E+04  0.20945895875E+04  0.12699999809E+01 0.  1.
</event>
<event>
 5   0  0.6538370E-09  0.3993960E+04  0.7818609E-02  0.8005766E-01
        2   -1    0    0  501    0  0.00000000000E+00  0.00000000000E+00  0.20516167611E+04  0.20516167611E+04  0.25500000920E-02 0.  1.
       -2   -1    0    0    0  501  0.00000000000E+00  0.00000000000E+00 -0.19437982685E+04  0.19437982685E+04  0.25500000920E-02 0. -1.
    10030    2    1    2    0    0  0.00000000000E+00  0.00000000000E+00  0.10781849253E+03  0.39954150296E+04  0.39939599937E+04 0.  0.
        4    1    3    3  502    0 -0.64713971180E+03  0.23706783347E+03  0.19288750023E+04  0.20483045066E+04  0.12699999809E+01 0.  1.
       -4    1    3    3    0  502  0.64713971180E+03 -0.23706783347E+03 -0.18210565098E+04  0.19471105230E+04  0.12699999809E+01 0. -1.
</event>
<event>
 5   0  0.2078125E-09  0.3999463E+04  0.7818609E-02  0.8004655E-01
        1   -1    0    0  501    0  0.00000000000E+00  0.00000000000E+00  0.14139370172E+04  0.14139370172E+04  0.50400001928E-02 0.  1.
       -1   -1    0    0    0  501  0.00000000000E+00  0.00000000000E+00 -0.28282211551E+04  0.28282211551E+04  0.50400001928E-02 0. -1.
    10030    2    1    2    0    0  0.00000000000E+00  0.00000000000E+00 -0.14142841379E+04  0.42421581723E+04  0.39994632560E+04 0.  0.
        2    1    3    3  502    0 -0.20749649308E+03  0.19865630797E+04 -0.60409247288E+03  0.20867235993E+04  0.25500000920E-02 0. -1.
       -2    1    3    3    0  502  0.20749649308E+03 -0.19865630797E+04 -0.81019166507E+03  0.21554345730E+04  0.25500000920E-02 0.  1.
</event>
<event>
 5   0  0.6736335E-09  0.3997875E+04  0.7818609E-02  0.8004975E-01
        2   -1    0    0  501    0  0.00000000000E+00  0.00000000000E+00  0.24218169390E+04  0.24218169390E+04  0.25500000920E-02 0.  1.
       -2   -1    0    0    0  501  0.00000000000E+00  0.00000000000E+00 -0.16498981019E+04  0.16498981019E+04  0.25500000920E-02 0. -1.
    10030    2    1    2    0    0  0.00000000000E+00  0.00000000000E+00  0.77191883706E+03  0.40717150409E+04  0.39978750210E+04 0.  0.
        1    1    3    3  502    0  0.16116887386E+04  0.27841563260E+03  0.15564002978E+04  0.22577505934E+04  0.50400001928E-02 0. -1.
       -1    1    3    3    0  502 -0.16116887386E+04 -0.27841563260E+03 -0.78448146078E+03  0.18139644476E+04  0.50400001928E-02 0.  1.
</event>
<event>
 5   0  0.2078125E-09  0.3998210E+04  0.7818609E-02  0.8004908E-01
        1   -1    0    0  501    0  0.00000000000E+00  0.00000000000E+00  0.20036320565E+04  0.20036320565E+04  0.50400001928E-02 0.  1.
       -1   -1    0    0    0  501  0.00000000000E+00  0.00000000000E+00 -0.19945880194E+04  0.19945880194E+04  0.50400001928E-02 0. -1.
    10030    2    1    2    0    0  0.00000000000E+00  0.00000000000E+00  0.90440370582E+01  0.39982200759E+04  0.39982098470E+04 0.  0.
        3    1    3    3  502    0  0.84823300379E+03 -0.14577818291E+04 -0.10686971056E+04  0.19966823993E+04  0.10100000352E+00 0. -1.
       -3    1    3    3    0  502 -0.84823300379E+03  0.14577818291E+04  0.10777411427E+04  0.20015376766E+04  0.10100000352E+00 0.  1.
</event>
<event>
 5   0  0.2078125E-09  0.4000456E+04  0.7818609E-02  0.8004455E-01
        1   -1    0    0  501    0  0.00000000000E+00  0.00000000000E+00  0.21088862705E+04  0.21088862705E+04  0.50400001928E-02 0. -1.
       -1   -1    0    0    0  501  0.00000000000E+00  0.00000000000E+00 -0.18971679406E+04  0.18971679406E+04  0.50400001928E-02 0.  1.
    10030    2    1    2    0    0  0.00000000000E+00  0.00000000000E+00  0.21171832997E+03  0.40060542111E+04  0.40004556854E+04 0.  0.
        1    1    3    3  502    0  0.18155867132E+03 -0.16476619447E+03 -0.18820638137E+04  0.18979661875E+04  0.50400001928E-02 0.  1.
       -1    1    3    3    0  502 -0.18155867132E+03  0.16476619447E+03  0.20937821437E+04  0.21080880236E+04  0.50400001928E-02 0. -1.
</event>
<event>
 5   0  0.2078125E-09  0.3997315E+04  0.7818609E-02  0.8005088E-01
        1   -1    0    0  501    0  0.00000000000E+00  0.00000000000E+00  0.13840924279E+04  0.13840924279E+04  0.50400001928E-02 0. -1.
       -1   -1    0    0    0  501  0.00000000000E+00  0.00000000000E+00 -0.28861026246E+04  0.28861026246E+04  0.50400001928E-02 0.  1.
    10030    2    1    2    0    0  0.00000000000E+00  0.00000000000E+00 -0.15020101966E+04  0.42701950525E+04  0.39973154936E+04 0.  0.
        3    1    3    3  502    0 -0.81286392284E+03 -0.16831820352E+04  0.49642498415E+01  0.18691907807E+04  0.10100000352E+00 0. -1.
       -3    1    3    3    0  502  0.81286392284E+03  0.16831820352E+04 -0.15069744465E+04  0.24010042718E+04  0.10100000352E+00 0.  1.
</event>
<event>
 5   0  0.6645526E-09  0.4001121E+04  0.7818609E-02  0.8004320E-01
        2   -1    0    0  501    0  0.00000000000E+00  0.00000000000E+00  0.18920088701E+04  0.18920088701E+04  0.25500000920E-02 0.  1.
       -2   -1    0    0    0  501  0.00000000000E+00  0.00000000000E+00 -0.21153401049E+04  0.21153401049E+04  0.25500000920E-02 0. -1.
    10030    2    1    2    0    0  0.00000000000E+00  0.00000000000E+00 -0.22333123477E+03  0.40073489750E+04  0.40011209638E+04 0.  0.
        3    1    3    3  502    0 -0.55640096194E+03 -0.40749082701E+03 -0.19925161651E+04  0.21084950754E+04  0.10100000352E+00 0. -1.
       -3    1    3    3    0  502  0.55640096194E+03  0.40749082701E+03  0.17691849303E+04  0.18988538997E+04  0.10100000352E+00 0.  1.
</event>
<event>
 5   0  0.6599276E-09  0.4018027E+04  0.7818609E-02  0.8000920E-01
        2   -1    0    0  501    0  0.00000000000E+00  0.00000000000E+00  0.26385511549E+04  0.26385511549E+04  0.25500000920E-02 0. -1.
       -2   -1    0    0    0  501  0.00000000000E+00  0.00000000000E+00 -0.15296786794E+04  0.15296786794E+04  0.25500000920E-02 0.  1.
    10030    2    1    2    0    0  0.00000000000E+00  0.00000000000E+00  0.11088724755E+04  0.41682298343E+04  0.40180271010E+04 0.  0.
        2    1    3    3  502    0  0.57170620124E+03 -0.10575912951E+04 -0.11153264201E+04  0.16399086412E+04  0.25500000920E-02 0.  1.
       -2    1    3    3    0  502 -0.57170620124E+03  0.10575912951E+04  0.22241988956E+04  0.25283211931E+04  0.25500000920E-02 0. -1.
</event>
<event>
 5   0  0.2078125E-09  0.4000293E+04  0.7818609E-02  0.8004488E-01
       -1   -1    0    0    0  501  0.00000000000E+00  0.00000000000E+00  0.17825835681E+04  0.17825835682E+04  0.50400001928E-02 0.  1.
        1   -1    0    0  501    0  0.00000000000E+00  0.00000000000E+00 -0.22442622600E+04  0.22442622600E+04  0.50400001928E-02 0. -1.
    10030    2    1    2    0    0  0.00000000000E+00  0.00000000000E+00 -0.46167869189E+03  0.40268458282E+04  0.40002925030E+04 0.  0.
        4    1    3    3  502    0 -0.17756178266E+03 -0.13846413415E+04 -0.16727663088E+04  0.21787401332E+04  0.12699999809E+01 0. -1.
       -4    1    3    3    0  502  0.17756178266E+03  0.13846413415E+04  0.12110876169E+04  0.18481056950E+04  0.12699999809E+01 0.  1.
</event>
<event>
 5   0  0.6538370E-09  0.4000468E+04  0.7818609E-02  0.8004452E-01
       -2   -1    0    0    0  501  0.00000000000E+00  0.00000000000E+00  0.25976306978E+04  0.25976306978E+04  0.25500000920E-02 0.  1.
        2   -1    0    0  501    0  0.00000000000E+00  0.00000000000E+00 -0.15402251812E+04  0.15402251812E+04  0.25500000920E-02 0. -1.
    10030    2    1    2    0    0  0.00000000000E+00  0.00000000000E+00  0.10574055167E+04  0.41378558790E+04  0.40004680787E+04 0.  0.
        4    1    3    3  502    0 -0.14424878895E+04 -0.10719536890E+04 -0.37956494024E+03  0.18368252991E+04  0.12699999809E+01 0. -1.
       -4    1    3    3    0  502  0.14424878895E+04  0.10719536890E+04  0.14369704569E+04  0.23010305799E+04  0.12699999809E+01 0.  1.
</event>
<event>
 5   0  0.6547327E-09  0.3999357E+04  0.7818609E-02  0.8004676E-01
        2   -1    0    0  501    0  0.00000000000E+00  0.00000000000E+00  0.26409220029E+04  0.26409220029E+04  0.25500000920E-02 0.  1.
       -2   -1    0    0    0  501  0.00000000000E+00  0.00000000000E+00 -0.15141358224E+04  0.15141358224E+04  0.25500000920E-02 0. -1.
    10030    2    1    2    0    0  0.00000000000E+00  0.00000000000E+00  0.11267861804E+04  0.41550578253E+04  0.39993572528E+04 0.  0.
        5    1    3    3  502    0  0.14166616400E+04  0.66618620529E+03  0.18560000630E+04  0.24280635466E+04  0.46999998093E+01 0.  1.
       -5    1    3    3    0  502 -0.14166616400E+04 -0.66618620529E+03 -0.72921388252E+03  0.17269942788E+04  0.46999998093E+01 0. -1.
</event>
<event>
 5   0  0.2078125E-09  0.4000814E+04  0.7818609E-02  0.8004382E-01
       -1   -1    0    0    0  501  0.00000000000E+00  0.00000000000E+00  0.28564267938E+04  0.28564267938E+04  0.50400001928E-02 0.  1.
        1   -1    0    0  501    0  0.00000000000E+00  0.00000000000E+00 -0.14009212145E+04  0.14009212145E+04  0.50400001928E-02 0. -1.
    10030    2    1    2    0    0  0.00000000000E+00  0.00000000000E+00  0.14555055792E+04  0.42573480083E+04  0.40008143637E+04 0.  0.
        4    1    3    3  502    0  0.33663808494E+02  0.15354761388E+04 -0.63615192649E+03  0.16623811571E+04  0.12699999809E+01 0. -1.
       -4    1    3    3    0  502 -0.33663808494E+02 -0.15354761388E+04  0.20916575057E+04  0.25949668512E+04  0.12699999809E+01 0.  1.
</event>
<event>
 5   0  0.6736335E-09  0.4001028E+04  0.7818609E-02  0.8004339E-01
        2   -1    0    0  501    0  0.00000000000E+00  0.00000000000E+00  0.18390498227E+04  0.18390498227E+04  0.25500000920E-02 0. -1.
       -2   -1    0    0    0  501  0.00000000000E+00  0.00000000000E+00 -0.21761541614E+04  0.21761541614E+04  0.25500000920E-02 0.  1.
    10030    2    1    2    0    0  0.00000000000E+00  0.00000000000E+00 -0.33710433872E+03  0.40152039840E+04  0.40010278302E+04 0.  0.
        1    1    3    3  502    0 -0.12370645122E+03  0.80776967280E+03  0.16639134040E+04  0.18537537448E+04  0.50400001928E-02 0. -1.
       -1    1    3    3    0  502  0.12370645122E+03 -0.80776967280E+03 -0.20010177427E+04  0.21614502393E+04  0.50400001928E-02 0.  1.
</event>
<event>
 5   0  0.2078125E-09  0.3999310E+04  0.7818609E-02  0.8004686E-01
        1   -1    0    0  501    0  0.00000000000E+00  0.00000000000E+00  0.18654171608E+04  0.18654171608E+04  0.50400001928E-02 0. -1.
       -1   -1    0    0    0  501  0.00000000000E+00  0.00000000000E+00 -0.21435523456E+04  0.21435523457E+04  0.50400001928E-02 0.  1.
    10030    2    1    2    0    0  0.00000000000E+00  0.00000000000E+00 -0.27813518488E+03  0.40089695064E+04  0.39993096057E+04 0.  0.
        1    1    3    3  502    0 -0.13353699752E+04  0.11598314297E+04  0.79602931556E+03  0.19396093904E+04  0.50400001928E-02 0.  1.
       -1    1    3    3    0  502  0.13353699752E+04 -0.11598314297E+04 -0.10741645004E+04  0.20693601161E+04  0.50400001928E-02 0. -1.
</event>
<event>
 5   0  0.6736335E-09  0.3999961E+04  0.7818609E-02  0.8004554E-01
       -2   -1    0    0    0  501  0.00000000000E+00  0.00000000000E+00  0.22656015829E+04  0.22656015829E+04  0.25500000920E-02 0.  1.
        2   -1    0    0  501    0  0.00000000000E+00  0.00000000000E+00 -0.17655009475E+04  0.17655009475E+04  0.25500000920E-02 0. -1.
    10030    2    1    2    0    0  0.00000000000E+00  0.00000000000E+00  0.50010063536E+03  0.40311025304E+04  0.39999608705E+04 0.  0.
        1    1    3    3  502    0  0.13841987630E+03  0.86023702080E+03  0.20642752498E+04  0.22406249354E+04  0.50400001928E-02 0.  1.
       -1    1    3    3    0  502 -0.13841987630E+03 -0.86023702080E+03 -0.15641746144E+04  0.17904775951E+04  0.50400001928E-02 0. -1.
</event>
<event>
 5   0  0.2078125E-09  0.4000113E+04  0.7818609E-02  0.8004524E-01
        1   -1    0    0  501    0  0.00000000000E+00  0.00000000000E+00  0.15292494454E+04  0.15292494454E+04  0.50400001928E-02 0.  1.
       -1   -1    0    0    0  501  0.00000000000E+00  0.00000000000E+00 -0.26158102125E+04  0.26158102125E+04  0.50400001928E-02 0. -1.
    10030    2    1    2    0    0  0.00000000000E+00  0.00000000000E+00 -0.10865607671E+04  0.41450596579E+04  0.40001131568E+04 0.  0.
        4    1    3    3  502    0  0.15442513236E+04 -0.29951506750E+03  0.73671316380E+03  0.17370000934E+04  0.12699999809E+01 0.  1.
       -4    1    3    3    0  502 -0.15442513236E+04  0.29951506750E+03 -0.18232739309E+04  0.24080595645E+04  0.12699999809E+01 0. -1.
</event>
<event>
 5   0  0.6599276E-09  0.3999973E+04  0.7818609E-02  0.8004552E-01
        2   -1    0    0  501    0  0.00000000000E+00  0.00000000000E+00  0.29413370709E+04  0.29413370709E+04  0.25500000920E-02 0.  1.
       -2   -1    0    0    0  501  0.00000000000E+00  0.00000000000E+00 -0.13599072592E+04  0.13599072592E+04  0.25500000920E-02 0. -1.
    10030    2    1    2    0    0  0.00000000000E+00  0.00000000000E+00  0.15814298117E+04  0.43012443301E+04  0.39999728171E+04 0.  0.
        2    1    3    3  502    0 -0.69200194899E+03 -0.17181298363E+03 -0.12185943294E+04  0.14118634985E+04  0.25500000920E-02 0. -1.
       -2    1    3    3    0  502  0.69200194899E+03  0.17181298363E+03  0.28000241412E+04  0.28893808316E+04  0.25500000920E-02 0.  1.
</event>
<event>
 5   0  0.6599276E-09  0.4000057E+04  0.7818609E-02  0.8004535E-01
        2   -1    0    0  501    0  0.00000000000E+00  0.00000000000E+00  0.13915930318E+04  0.13915930319E+04  0.25500000920E-02 0.  1.
       -2   -1    0    0    0  501  0.00000000000E+00  0.00000000000E+00 -0.28744850037E+04  0.28744850037E+04  0.25500000920E-02 0. -1.
    10030    2    1    2    0    0  0.00000000000E+00  0.00000000000E+00 -0.14828919719E+04  0.42660780356E+04  0.40000566503E+04 0.  0.
        2    1    3    3  502    0 -0.12595657735E+04  0.15494696817E+04 -0.86187633620E+03  0.21749006992E+04  0.25500000920E-02 0. -1.
       -2    1    3    3    0  502  0.12595657735E+04 -0.15494696817E+04 -0.62101563569E+03  0.20911773364E+04  0.25500000920E-02 0.  1.
</event>
<event>
 5   0  0.2078125E-09  0.4000163E+04  0.7818609E-02  0.8004514E-01
       -1   -1    0    0    0  501  0.00000000000E+00  0.00000000000E+00  0.18843494066E+04  0.18843494066E+04  0.50400001928E-02 0.  1.
        1   -1    0    0  501    0  0.00000000000E+00  0.00000000000E+00 -0.21229213246E+04  0.21229213246E+04  0.50400001928E-02 0. -1.
    10030    2    1    2    0    0  0.00000000000E+00  0.00000000000E+00 -0.23857191805E+03  0.40072707312E+04  0.40001627658E+04 0.  0.
        4    1    3    3  502    0 -0.28026188664E+03  0.14794604491E+04 -0.14380498350E+04  0.20821476620E+04  0.12699999809E+01 0. -1.
       -4    1    3    3    0  502  0.28026188664E+03 -0.14794604491E+04  0.11994779169E+04  0.19251230692E+04  0.12699999809E+01 0.  1.
</event>
<event>
 5   0  0.2078125E-09  0.3998432E+04  0.7818609E-02  0.8004863E-01
        1   -1    0    0  501    0  0.00000000000E+00  0.00000000000E+00  0.15801028697E+04  0.15801028697E+04  0.50400001928E-02 0.  1.
       -1   -1    0    0    0  501  0.00000000000E+00  0.00000000000E+00 -0.25294969367E+04  0.25294969367E+04  0.50400001928E-02 0. -1.
    10030    2    1    2    0    0  0.00000000000E+00  0.00000000000E+00 -0.94939406706E+03  0.41095998064E+04  0.39984323771E+04 0.  0.
        5    1    3    3  502    0  0.15552344099E+04 -0.11518011064E+04  0.40685759132E+02  0.19357368828E+04  0.46999998093E+01 0.  1.
       -5    1    3    3    0  502 -0.15552344099E+04  0.11518011064E+04 -0.99007982619E+03  0.21738629236E+04  0.46999998093E+01 0. -1.
</event>
<event>
 5   0  0.2078125E-09  0.3999208E+04  0.7818609E-02  0.8004706E-01
        1   -1    0    0  501    0  0.00000000000E+00  0.00000000000E+00  0.11752845417E+04  0.11752845417E+04  0.50400001928E-02 0. -1.
       -1   -1    0    0    0  501  0.00000000000E+00  0.00000000000E+00 -0.34020833910E+04  0.34020833910E+04  0.50400001928E-02 0.  1.
    10030    2    1    2    0    0  0.00000000000E+00  0.00000000000E+00 -0.22267988493E+04  0.45773679327E+04  0.39992079311E+04 0.  0.
        2    1    3    3  502    0 -0.17677988729E+04 -0.31873791776E+02 -0.44414467342E+02  0.17686439547E+04  0.25500000920E-02 0. -1.
       -2    1    3    3    0  502  0.17677988729E+04  0.31873791776E+02 -0.21823843820E+04  0.28087239780E+04  0.25500000920E-02 0.  1.
</event>
<event>
 5   0  0.6645526E-09  0.4000302E+04  0.7818609E-02  0.8004486E-01
        2   -1    0    0  501    0  0.00000000000E+00  0.00000000000E+00  0.24182266282E+04  0.24182266282E+04  0.25500000920E-02 0.  1.
       -2   -1    0    0    0  501  0.00000000000E+00  0.00000000000E+00 -0.16543547310E+04  0.16543547310E+04  0.25500000920E-02 0. -1.
    10030    2    1    2    0    0  0.00000000000E+00  0.00000000000E+00  0.76387189726E+03  0.40725813592E+04  0.40003023200E+04 0.  0.
        3    1    3    3  502    0  0.10403981711E+04  0.10887050705E+04 -0.95824488020E+03  0.17849202631E+04  0.10100000352E+00 0. -1.
       -3    1    3    3    0  502 -0.10403981711E+04 -0.10887050705E+04  0.17221167775E+04  0.22876610961E+04  0.10100000352E+00 0.  1.
</event>
<event>
 5   0  0.2078125E-09  0.3997005E+04  0.7818609E-02  0.8005151E-01
        1   -1    0    0  501    0  0.00000000000E+00  0.00000000000E+00  0.25640917000E+04  0.25640917000E+04  0.50400001928E-02 0. -1.
       -1   -1    0    0    0  501  0.00000000000E+00  0.00000000000E+00 -0.15576712174E+04  0.15576712174E+04  0.50400001928E-02 0.  1.
    10030    2    1    2    0    0  0.00000000000E+00  0.00000000000E+00  0.10064204826E+04  0.41217629174E+04  0.39970047985E+04 0.  0.
        2    1    3    3  502    0  0.83658139706E+02 -0.19254880550E+04  0.10483980839E+04  0.21940012481E+04  0.25500000920E-02 0. -1.
       -2    1    3    3    0  502 -0.83658139706E+02  0.19254880550E+04 -0.41977601350E+02  0.19277616692E+04  0.25500000920E-02 0.  1.
</event>
<event>
 5   0  0.2078125E-09  0.4000150E+04  0.7818609E-02  0.8004516E-01
        1   -1    0    0  501    0  0.00000000000E+00  0.00000000000E+00  0.18058066898E+04  0.18058066898E+04  0.50400001928E-02 0. -1.
       -1   -1    0    0    0  501  0.00000000000E+00  0.00000000000E+00 -0.22152431133E+04  0.22152431133E+04  0.50400001928E-02 0.  1.
    10030    2    1    2    0    0  0.00000000000E+00  0.00000000000E+00 -0.40943642344E+03  0.40210498031E+04  0.40001504139E+04 0.  0.
        1    1    3    3  502    0 -0.99417053603E+03  0.66567712023E+03 -0.18158395710E+04  0.21745745402E+04  0.50400001928E-02 0. -1.
       -1    1    3    3    0  502  0.99417053603E+03 -0.66567712023E+03  0.14064031476E+04  0.18464752629E+04  0.50400001928E-02 0.  1.
</event>
<event>
 5   0  0.6736335E-09  0.4004695E+04  0.7818609E-02  0.8003600E-01
        2   -1    0    0  501    0  0.00000000000E+00  0.00000000000E+00  0.20458910404E+04  0.20458910404E+04  0.25500000920E-02 0.  1.
       -2   -1    0    0    0  501  0.00000000000E+00  0.00000000000E+00 -0.19597306298E+04  0.19597306298E+04  0.25500000920E-02 0. -1.
    10030    2    1    2    0    0  0.00000000000E+00  0.00000000000E+00  0.86160410553E+02  0.40056216702E+04  0.40046949133E+04 0.  0.
        1    1    3    3  502    0 -0.90010052612E+02  0.17960845182E+04 -0.83767676630E+03  0.19838658651E+04  0.50400001928E-02 0. -1.
       -1    1    3    3    0  502  0.90010052612E+02 -0.17960845182E+04  0.92383717685E+03  0.20217558051E+04  0.50400001928E-02 0.  1.
</event>
<event>
 5   0  0.2078125E-09  0.4001053E+04  0.7818609E-02  0.8004334E-01
       -1   -1    0    0    0  501  0.00000000000E+00  0.00000000000E+00  0.18373973668E+04  0.18373973669E+04  0.50400001928E-02 0.  1.
        1   -1    0    0  501    0  0.00000000000E+00  0.00000000000E+00 -0.21781391090E+04  0.21781391090E+04  0.50400001928E-02 0. -1.
    10030    2    1    2    0    0  0.00000000000E+00  0.00000000000E+00 -0.34074174216E+03  0.40155364759E+04  0.40010533931E+04 0.  0.
        5    1    3    3  502    0 -0.43310948628E+02  0.18674124131E+03  0.18281526822E+04  0.18381818324E+04  0.46999998093E+01 0.  1.
       -5    1    3    3    0  502  0.43310948628E+02 -0.18674124131E+03 -0.21688944244E+04  0.21773546435E+04  0.46999998093E+01 0. -1.
</event>
<event>
 5   0  0.6599276E-09  0.4000232E+04  0.7818609E-02  0.8004500E-01
        2   -1    0    0  501    0  0.00000000000E+00  0.00000000000E+00  0.19211679151E+04  0.19211679151E+04  0.25500000920E-02 0.  1.
       -2   -1    0    0    0  501  0.00000000000E+00  0.00000000000E+00 -0.20823088092E+04  0.20823088092E+04  0.25500000920E-02 0. -1.
    10030    2    1    2    0    0  0.00000000000E+00  0.00000000000E+00 -0.16114089416E+03  0.40034767243E+04  0.40002324300E+04 0.  0.
        2    1    3    3  502    0 -0.18927956781E+04 -0.53154665784E+03  0.28748798917E+03  0.19869239222E+04  0.25500000920E-02 0.  1.
       -2    1    3    3    0  502  0.18927956781E+04  0.53154665784E+03 -0.44862888333E+03  0.20165528021E+04  0.25500000920E-02 0. -1.
</event>
<event>
 5   0  0.6599276E-09  0.3998774E+04  0.7818609E-02  0.8004794E-01
        2   -1    0    0  501    0  0.00000000000E+00  0.00000000000E+00  0.21054477208E+04  0.21054477208E+04  0.25500000920E-02 0. -1.
       -2   -1    0    0    0  501  0.00000000000E+00  0.00000000000E+00 -0.18986694820E+04  0.18986694820E+04  0.25500000920E-02 0.  1.
    10030    2    1    2    0    0  0.00000000000E+00  0.00000000000E+00  0.20677823886E+03  0.40041172028E+04  0.39987744790E+04 0.  0.
        2    1    3    3  502    0  0.14890782846E+03  0.42250192550E+03 -0.18477696670E+04  0.19012980199E+04  0.25500000920E-02 0.  1.
       -2    1    3    3    0  502 -0.14890782846E+03 -0.42250192550E+03  0.20545479058E+04  0.21028191829E+04  0.25500000920E-02 0. -1.
</event>
<event>
 5   0  0.2078125E-09  0.4000722E+04  0.7818609E-02  0.8004401E-01
        1   -1    0    0  501    0  0.00000000000E+00  0.00000000000E+00  0.20026490278E+04  0.20026490278E+04  0.50400001928E-02 0. -1.
       -1   -1    0    0    0  501  0.00000000000E+00  0.00000000000E+00 -0.19980752464E+04  0.19980752464E+04  0.50400001928E-02 0.  1.
    10030    2    1    2    0    0  0.00000000000E+00  0.00000000000E+00  0.45737813879E+01  0.40007242742E+04  0.40007216597E+04 0.  0.
        3    1    3    3  502    0  0.40710502326E+03  0.17320468391E+04 -0.91189240182E+03  0.19993170123E+04  0.10100000352E+00 0.  1.
       -3    1    3    3    0  502 -0.40710502326E+03 -0.17320468391E+04  0.91646618321E+03  0.20014072619E+04  0.10100000352E+00 0. -1.
</event>
<event>
 5   0  0.6547327E-09  0.4008679E+04  0.7818609E-02  0.8002798E-01
       -2   -1    0    0    0  501  0.00000000000E+00  0.00000000000E+00  0.25498474547E+04  0.25498474547E+04  0.25500000920E-02 0.  1.
        2   -1    0    0  501    0  0.00000000000E+00  0.00000000000E+00 -0.15755362278E+04  0.15755362278E+04  0.25500000920E-02 0. -1.
    10030    2    1    2    0    0  0.00000000000E+00  0.00000000000E+00  0.97431122686E+03  0.41253836825E+04  0.40086791043E+04 0.  0.
        5    1    3    3  502    0  0.35922452992E+03 -0.14120640794E+04  0.19035933526E+04  0.23972185902E+04  0.46999998093E+01 0.  1.
       -5    1    3    3    0  502 -0.35922452992E+03  0.14120640794E+04 -0.92928212574E+03  0.17281650923E+04  0.46999998093E+01 0. -1.
</event>
<event>
 5   0  0.2078125E-09  0.4004045E+04  0.7818609E-02  0.8003731E-01
        1   -1    0    0  501    0  0.00000000000E+00  0.00000000000E+00  0.24125559735E+04  0.24125559735E+04  0.50400001928E-02 0. -1.
       -1   -1    0    0    0  501  0.00000000000E+00  0.00000000000E+00 -0.16613473837E+04  0.16613473837E+04  0.50400001928E-02 0.  1.
    10030    2    1    2    0    0  0.00000000000E+00  0.00000000000E+00  0.75120858982E+03  0.40739033572E+04  0.40040447323E+04 0.  0.
        4    1    3    3  502    0 -0.11435753557E+04 -0.13778454745E+04  0.12866990923E+04  0.22049532677E+04  0.12699999809E+01 0. -1.
       -4    1    3    3    0  502  0.11435753557E+04  0.13778454745E+04 -0.53549050253E+03  0.18689500894E+04  0.12699999809E+01 0.  1.
</event>
<event>
 5   0  0.6599276E-09  0.4000701E+04  0.7818609E-02  0.8004405E-01
       -2   -1    0    0    0  501  0.00000000000E+00  0.00000000000E+00  0.12681829253E+04  0.12681829253E+04  0.25500000920E-02 0.  1.
        2   -1    0    0  501    0  0.00000000000E+00  0.00000000000E+00 -0.31552248248E+04  0.31552248248E+04  0.25500000920E-02 0. -1.
    10030    2    1    2    0    0  0.00000000000E+00  0.00000000000E+00 -0.18870418996E+04  0.44234077501E+04  0.40007010627E+04 0.  0.
        2    1    3    3  502    0 -0.16344353108E+04  0.14805058277E+03  0.32104676787E+03  0.16722346688E+04  0.25500000920E-02 0.  1.
       -2    1    3    3    0  502  0.16344353108E+04 -0.14805058277E+03 -0.22080886674E+04  0.27511730813E+04  0.25500000920E-02 0. -1.
</event>
<event>
 5   0  0.2078125E-09  0.3999708E+04  0.7818609E-02  0.8004605E-01
       -1   -1    0    0    0  501  0.00000000000E+00  0.00000000000E+00  0.33488264927E+04  0.33488264927E+04  0.50400001928E-02 0.  1.
        1   -1    0    0  501    0  0.00000000000E+00  0.00000000000E+00 -0.11942739759E+04  0.11942739759E+04  0.50400001928E-02 0. -1.
    10030    2    1    2    0    0  0.00000000000E+00  0.00000000000E+00  0.21545525168E+04  0.45431004686E+04  0.39997081544E+04 0.  0.
        5    1    3    3  502    0  0.18358763994E+04  0.64471290230E+03  0.55269015984E+03  0.20227667644E+04  0.46999998093E+01 0. -1.
       -5    1    3    3    0  502 -0.18358763994E+04 -0.64471290230E+03  0.16018623569E+04  0.25203337043E+04  0.46999998093E+01 0.  1.
</event>
<event>
 5   0  0.2078125E-09  0.3973361E+04  0.7818609E-02  0.8009942E-01
        1   -1    0    0  501    0  0.00000000000E+00  0.00000000000E+00  0.19107622006E+04  0.19107622006E+04  0.50400001928E-02 0. -1.
       -1   -1    0    0    0  501  0.00000000000E+00  0.00000000000E+00 -0.20656156427E+04  0.20656156427E+04  0.50400001928E-02 0.  1.
    10030    2    1    2    0    0  0.00000000000E+00  0.00000000000E+00 -0.15485344215E+03  0.39763778433E+04  0.39733614439E+04 0.  0.
        2    1    3    3  502    0  0.60408400236E+03 -0.40446805038E+03 -0.19277187392E+04  0.20602454765E+04  0.25500000920E-02 0.  1.
       -2    1    3    3    0  502 -0.60408400236E+03  0.40446805038E+03  0.17728652971E+04  0.19161323668E+04  0.25500000920E-02 0. -1.
</event>
<event>
 5   0  0.2078125E-09  0.4001592E+04  0.7818609E-02  0.8004226E-01
       -1   -1    0    0    0  501  0.00000000000E+00  0.00000000000E+00  0.13655838876E+04  0.13655838876E+04  0.50400001928E-02 0.  1.
        1   -1    0    0  501    0  0.00000000000E+00  0.00000000000E+00 -0.29314813955E+04  0.29314813955E+04  0.50400001928E-02 0. -1.
    10030    2    1    2    0    0  0.00000000000E+00  0.00000000000E+00 -0.15658975079E+04  0.42970652831E+04  0.40015915636E+04 0.  0.
        5    1    3    3  502    0 -0.17913466272E+03 -0.12775637691E+04 -0.24252216390E+04  0.27469948125E+04  0.46999998093E+01 0. -1.
       -5    1    3    3    0  502  0.17913466272E+03  0.12775637691E+04  0.85932413113E+03  0.15500704706E+04  0.46999998093E+01 0.  1.
</event>
<event>
 5   0  0.6599276E-09  0.4010269E+04  0.7818609E-02  0.8002478E-01
        2   -1    0    0  501    0  0.00000000000E+00  0.00000000000E+00  0.25642793096E+04  0.25642793096E+04  0.25500000920E-02 0.  1.
       -2   -1    0    0    0  501  0.00000000000E+00  0.00000000000E+00 -0.15679118463E+04  0.15679118463E+04  0.25500000920E-02 0. -1.
    10030    2    1    2    0    0  0.00000000000E+00  0.00000000000E+00  0.99636746337E+03  0.41321911559E+04  0.40102687724E+04 0.  0.
        2    1    3    3  502    0  0.94023150255E+03  0.17438184103E+04  0.81681975525E+03  0.21429261394E+04  0.25500000920E-02 0.  1.
       -2    1    3    3    0  502 -0.94023150255E+03 -0.17438184103E+04  0.17954770812E+03  0.19892650165E+04  0.25500000920E-02 0. -1.
</event>
<event>
 5   0  0.6599276E-09  0.4007315E+04  0.7818609E-02  0.8003073E-01
       -2   -1    0    0    0  501  0.00000000000E+00  0.00000000000E+00  0.19953828075E+04  0.19953828075E+04  0.25500000920E-02 0.  1.
        2   -1    0    0  501    0  0.00000000000E+00  0.00000000000E+00 -0.20119662021E+04  0.20119662021E+04  0.25500000920E-02 0. -1.
    10030    2    1    2    0    0  0.00000000000E+00  0.00000000000E+00 -0.16583394521E+02  0.40073490096E+04  0.40073146964E+04 0.  0.
        2    1    3    3  502    0  0.69023103530E+03  0.25641136124E+03 -0.18717660245E+04  0.20113860193E+04  0.25500000920E-02 0. -1.
       -2    1    3    3    0  502 -0.69023103530E+03 -0.25641136124E+03  0.18551826299E+04  0.19959629903E+04  0.25500000920E-02 0.  1.
</event>
<event>
 5   0  0.2078125E-09  0.4000057E+04  0.7818609E-02  0.8004535E-01
        1   -1    0    0  501    0  0.00000000000E+00  0.00000000000E+00  0.14812060529E+04  0.14812060529E+04  0.50400001928E-02 0.  1.
       -1   -1    0    0    0  501  0.00000000000E+00  0.00000000000E+00 -0.27005791201E+04  0.27005791201E+04  0.50400001928E-02 0. -1.
    10030    2    1    2    0    0  0.00000000000E+00  0.00000000000E+00 -0.12193730672E+04  0.41817851730E+04  0.40000570691E+04 0.  0.
        4    1    3    3  502    0  0.15196180970E+04  0.58442561975E+02  0.74835169519E+03  0.16949001641E+04  0.12699999809E+01 0. -1.
       -4    1    3    3    0  502 -0.15196180970E+04 -0.58442561975E+02 -0.19677247624E+04  0.24868850088E+04  0.12699999809E+01 0.  1.
</event>
<event>
 5   0  0.6538370E-09  0.4000395E+04  0.7818609E-02  0.8004467E-01
        2   -1    0    0  501    0  0.00000000000E+00  0.00000000000E+00  0.15814518900E+04  0.15814518900E+04  0.25500000920E-02 0.  1.
       -2   -1    0    0    0  501  0.00000000000E+00  0.00000000000E+00 -0.25298211467E+04  0.25298211467E+04  0.25500000920E-02 0. -1.
    10030    2    1    2    0    0  0.00000000000E+00  0.00000000000E+00 -0.94836925673E+03  0.41112730367E+04  0.40003951974E+04 0.  0.
        4    1    3    3  502    0  0.12816485469E+04  0.12432597132E+04 -0.14005394920E+04  0.22693237305E+04  0.12699999809E+01 0. -1.
       -4    1    3    3    0  502 -0.12816485469E+04 -0.12432597132E+04  0.45217023532E+03  0.18419493062E+04  0.12699999809E+01 0.  1.
</event>
<event>
 5   0  0.2078125E-09  0.3999127E+04  0.7818609E-02  0.8004723E-01
        1   -1    0    0  501    0  0.00000000000E+00  0.00000000000E+00  0.30811950004E+04  0.30811950004E+04  0.50400001928E-02 0. -1.
       -1   -1    0    0    0  501  0.00000000000E+00  0.00000000000E+00 -0.12976312353E+04  0.12976312353E+04  0.50400001928E-02 0.  1.
    10030    2    1    2    0    0  0.00000000000E+00  0.00000000000E+00  0.17835637651E+04  0.43788262357E+04  0.39991273421E+04 0.  0.
        5    1    3    3  502    0  0.12735840958E+03 -0.17839684494E+04 -0.87242131176E+02  0.17906414695E+04  0.46999998093E+01 0.  1.
       -5    1    3    3    0  502 -0.12735840958E+03  0.17839684494E+04  0.18708058963E+04  0.25881847663E+04  0.46999998093E+01 0. -1.
</event>
<event>
 5   0  0.6599276E-09  0.4001071E+04  0.7818609E-02  0.8004330E-01
        2   -1    0    0  501    0  0.00000000000E+00  0.00000000000E+00  0.13533943421E+04  0.13533943421E+04  0.25500000920E-02 0.  1.
       -2   -1    0    0    0  501  0.00000000000E+00  0.00000000000E+00 -0.29571150417E+04  0.29571150417E+04  0.25500000920E-02 0. -1.
    10030    2    1    2    0    0  0.00000000000E+00  0.00000000000E+00 -0.16037206996E+04  0.43105093838E+04  0.40010712397E+04 0.  0.
        2    1    3    3  502    0 -0.10659782667E+04 -0.16687343855E+04 -0.11087764869E+04  0.22694425334E+04  0.25500000920E-02 0.  1.
       -2    1    3    3    0  502  0.10659782667E+04  0.16687343855E+04 -0.49494421270E+03  0.20410668504E+04  0.25500000920E-02 0. -1.
</event>
<event>
 5   0  0.2078125E-09  0.4000580E+04  0.7818609E-02  0.8004429E-01
        1   -1    0    0  501    0  0.00000000000E+00  0.00000000000E+00  0.22778128955E+04  0.22778128955E+04  0.50400001928E-02 0. -1.
       -1   -1    0    0    0  501  0.00000000000E+00  0.00000000000E+00 -0.17565801876E+04  0.17565801876E+04  0.50400001928E-02 0.  1.
    10030    2    1    2    0    0  0.00000000000E+00  0.00000000000E+00  0.52123270796E+03  0.40343930831E+04  0.40005804595E+04 0.  0.
        1    1    3    3  502    0  0.16040786273E+04  0.60300222113E+03 -0.77984073845E+03  0.18827722907E+04  0.50400001928E-02 0.  1.
       -1    1    3    3    0  502 -0.16040786273E+04 -0.60300222113E+03  0.13010734464E+04  0.21516207924E+04  0.50400001928E-02 0. -1.
</event>
<event>
 5   0  0.6599276E-09  0.4000742E+04  0.7818609E-02  0.8004397E-01
       -2   -1    0    0    0  501  0.00000000000E+00  0.00000000000E+00  0.18828915702E+04  0.18828915702E+04  0.25500000920E-02 0. -1.
        2   -1    0    0  501    0  0.00000000000E+00  0.00000000000E+00 -0.21251807018E+04  0.21251807018E+04  0.25500000920E-02 0.  1.
    10030    2    1    2    0    0  0.00000000000E+00  0.00000000000E+00 -0.24228913161E+03  0.40080722720E+04  0.40007423454E+04 0.  0.
        2    1    3    3  502    0 -0.88860658924E+03  0.17722164270E+04 -0.38830165004E+03  0.20201858593E+04  0.25500000920E-02 0. -1.
       -2    1    3    3    0  502  0.88860658924E+03 -0.17722164270E+04  0.14601251843E+03  0.19878864128E+04  0.25500000920E-02 0.  1.
</event>
<event>
 5   0  0.6599276E-09  0.3997949E+04  0.7818609E-02  0.8004960E-01
        2   -1    0    0  501    0  0.00000000000E+00  0.00000000000E+00  0.21406573581E+04  0.21406573581E+04  0.25500000920E-02 0. -1.
       -2   -1    0    0    0  501  0.00000000000E+00  0.00000000000E+00 -0.18666692162E+04  0.18666692162E+04  0.25500000920E-02 0.  1.
    10030    2    1    2    0    0  0.00000000000E+00  0.00000000000E+00  0.27398814191E+03  0.40073265743E+04  0.39979490706E+04 0.  0.
        2    1    3    3  502    0 -0.11230008568E+04  0.13287390496E+04 -0.84980525308E+03  0.19361940384E+04  0.25500000920E-02 0.  1.
       -2    1    3    3    0  502  0.11230008568E+04 -0.13287390496E+04  0.11237933950E+04  0.20711325358E+04  0.25500000920E-02 0. -1.
</event>
<event>
 5   0  0.2078125E-09  0.3996686E+04  0.7818609E-02  0.8005215E-01
        1   -1    0    0  501    0  0.00000000000E+00  0.00000000000E+00  0.20155964885E+04  0.20155964885E+04  0.50400001928E-02 0.  1.
       -1   -1    0    0    0  501  0.00000000000E+00  0.00000000000E+00 -0.19812370878E+04  0.19812370879E+04  0.50400001928E-02 0. -1.
    10030    2    1    2    0    0  0.00000000000E+00  0.00000000000E+00  0.34359400656E+02  0.39968335764E+04  0.39966858857E+04 0.  0.
        5    1    3    3  502    0  0.13183654428E+04 -0.93148345392E+03  0.11951890875E+04  0.20085437289E+04  0.46999998093E+01 0.  1.
       -5    1    3    3    0  502 -0.13183654428E+04  0.93148345392E+03 -0.11608296869E+04  0.19882898475E+04  0.46999998093E+01 0. -1.
</event>
<event>
 5   0  0.2078125E-09  0.4003944E+04  0.7818609E-02  0.8003751E-01
       -1   -1    0    0    0  501  0.00000000000E+00  0.00000000000E+00  0.33405617652E+04  0.33405617652E+04  0.50400001928E-02 0.  1.
        1   -1    0    0  501    0  0.00000000000E+00  0.00000000000E+00 -0.11997659477E+04  0.11997659477E+04  0.50400001928E-02 0. -1.
    10030    2    1    2    0    0  0.00000000000E+00  0.00000000000E+00  0.21407958175E+04  0.45403277129E+04  0.40039441815E+04 0.  0.
        1    1    3    3  502    0 -0.69467731131E+03  0.14969773503E+04  0.23555218757E+04  0.28761086665E+04  0.50400001928E-02 0. -1.
       -1    1    3    3    0  502  0.69467731131E+03 -0.14969773503E+04 -0.21472605827E+03  0.16642190464E+04  0.50400001928E-02 0.  1.
</event>
<event>
 5   0  0.2078125E-09  0.4000881E+04  0.7818609E-02  0.8004369E-01
       -1   -1    0    0    0  501  0.00000000000E+00  0.00000000000E+00  0.32876372065E+04  0.32876372065E+04  0.50400001928E-02 0. -1.
        1   -1    0    0  501    0  0.00000000000E+00  0.00000000000E+00 -0.12172153176E+04  0.12172153176E+04  0.50400001928E-02 0.  1.
    10030    2    1    2    0    0  0.00000000000E+00  0.00000000000E+00  0.20704218889E+04  0.45048525241E+04  0.40008810862E+04 0.  0.
        3    1    3    3  502    0  0.18255733865E+03  0.37614818190E+03  0.32378898827E+04  0.32647734285E+04  0.10100000352E+00 0. -1.
       -3    1    3    3    0  502 -0.18255733865E+03 -0.37614818190E+03 -0.11674679938E+04  0.12400790956E+04  0.10100000352E+00 0.  1.
</event>
<event>
 5   0  0.2078125E-09  0.3999371E+04  0.7818609E-02  0.8004673E-01
       -1   -1    0    0    0  501  0.00000000000E+00  0.00000000000E+00  0.21500146988E+04  0.21500146988E+04  0.50400001928E-02 0. -1.
        1   -1    0    0  501    0  0.00000000000E+00  0.00000000000E+00 -0.18598674846E+04  0.18598674846E+04  0.50400001928E-02 0.  1.
    10030    2    1    2    0    0  0.00000000000E+00  0.00000000000E+00  0.29014721421E+03  0.40098821834E+04  0.39993711654E+04 0.  0.
        4    1    3    3  502    0 -0.11596808504E+04  0.17063122548E+03 -0.14792973197E+04  0.18874047957E+04  0.12699999809E+01 0.  1.
       -4    1    3    3    0  502  0.11596808504E+04 -0.17063122548E+03  0.17694445339E+04  0.21224773877E+04  0.12699999809E+01 0. -1.
</event>
<event>
 5   0  0.2078125E-09  0.4001078E+04  0.7818609E-02  0.8004329E-01
       -1   -1    0    0    0  501  0.00000000000E+00  0.00000000000E+00  0.26955848375E+04  0.26955848375E+04  0.50400001928E-02 0.  1.
        1   -1    0    0  501    0  0.00000000000E+00  0.00000000000E+00 -0.14847078544E+04  0.14847078544E+04  0.50400001928E-02 0. -1.
    10030    2    1    2    0    0  0.00000000000E+00  0.00000000000E+00  0.12108769831E+04  0.41802926920E+04  0.40010778451E+04 0.  0.
        4    1    3    3  502    0 -0.18248609074E+04 -0.79910835786E+03  0.41431623087E+03  0.20347852592E+04  0.12699999809E+01 0.  1.
       -4    1    3    3    0  502  0.18248609074E+04  0.79910835786E+03  0.79656075225E+03  0.21455074327E+04  0.12699999809E+01 0. -1.
</event>
<event>
 5   0  0.6736335E-09  0.4001480E+04  0.7818609E-02  0.8004248E-01
        2   -1    0    0  501    0  0.00000000000E+00  0.00000000000E+00  0.22753582602E+04  0.22753582602E+04  0.25500000920E-02 0. -1.
       -2   -1    0    0    0  501  0.00000000000E+00  0.00000000000E+00 -0.17592659242E+04  0.17592659242E+04  0.25500000920E-02 0.  1.
    10030    2    1    2    0    0  0.00000000000E+00  0.00000000000E+00  0.51609233601E+03  0.40346241843E+04  0.40014798525E+04 0.  0.
        1    1    3    3  502    0  0.98597004914E+03 -0.55221987354E+03 -0.14066521577E+04  0.18043708098E+04  0.50400001928E-02 0.  1.
       -1    1    3    3    0  502 -0.98597004914E+03  0.55221987354E+03  0.19227444937E+04  0.22302533745E+04  0.50400001928E-02 0. -1.
</event>
<event>
 5   0  0.6645526E-09  0.4001218E+04  0.7818609E-02  0.8004301E-01
       -2   -1    0    0    0  501  0.00000000000E+00  0.00000000000E+00  0.20078496699E+04  0.20078496699E+04  0.25500000920E-02 0.  1.
        2   -1    0    0  501    0  0.00000000000E+00  0.00000000000E+00 -0.19933944178E+04  0.19933944178E+04  0.25500000920E-02 0. -1.
    10030    2    1    2    0    0  0.00000000000E+00  0.00000000000E+00  0.14455252131E+02  0.40012440877E+04  0.40012179765E+04 0.  0.
        3    1    3    3  502    0  0.89459484820E+03 -0.14764316758E+04 -0.10038605108E+04  0.19969692965E+04  0.10100000352E+00 0. -1.
       -3    1    3    3    0  502 -0.89459484820E+03  0.14764316758E+04  0.10183157629E+04  0.20042747913E+04  0.10100000352E+00 0.  1.
</event>
<event>
 5   0  0.6599276E-09  0.3996552E+04  0.7818609E-02  0.8005242E-01
        2   -1    0    0  501    0  0.00000000000E+00  0.00000000000E+00  0.22239620632E+04  0.22239620632E+04  0.25500000920E-02 0.  1.
       -2   -1    0    0    0  501  0.00000000000E+00  0.00000000000E+00 -0.17954927161E+04  0.17954927161E+04  0.25500000920E-02 0. -1.
    10030    2    1    2    0    0  0.00000000000E+00  0.00000000000E+00  0.42846934710E+03  0.40194547793E+04  0.39965523569E+04 0.  0.
        2    1    3    3  502    0 -0.14737663560E+03 -0.13456484526E+04 -0.12640927748E+04  0.18521393506E+04  0.25500000920E-02 0. -1.
       -2    1    3    3    0  502  0.14737663560E+03  0.13456484526E+04  0.16925621219E+04  0.21673154287E+04  0.25500000920E-02 0.  1.
</event>
<event>
 5   0  0.6538370E-09  0.4000087E+04  0.7818609E-02  0.8004529E-01
       -2   -1    0    0    0  501  0.00000000000E+00  0.00000000000E+00  0.15422033325E+04  0.15422033325E+04  0.25500000920E-02 0. -1.
        2   -1    0    0  501    0  0.00000000000E+00  0.00000000000E+00 -0.25938040766E+04  0.25938040766E+04  0.25500000920E-02 0.  1.
    10030    2    1    2    0    0  0.00000000000E+00  0.00000000000E+00 -0.10516007440E+04  0.41360074091E+04  0.40000866444E+04 0.  0.
        4    1    3    3  502    0 -0.50946404179E+03 -0.10041617330E+04 -0.22349272149E+04  0.25025578245E+04  0.12699999809E+01 0.  1.
       -4    1    3    3    0  502  0.50946404179E+03  0.10041617330E+04  0.11833264709E+04  0.16334495846E+04  0.12699999809E+01 0. -1.
</event>
<event>
 5   0  0.2078125E-09  0.3999513E+04  0.7818609E-02  0.8004645E-01
        1   -1    0    0  501    0  0.00000000000E+00  0.00000000000E+00  0.27415676953E+04  0.27415676953E+04  0.50400001928E-02 0. -1.
       -1   -1    0    0    0  501  0.00000000000E+00  0.00000000000E+00 -0.14586642427E+04  0.14586642427E+04  0.50400001928E-02 0.  1.
    10030    2    1    2    0    0  0.00000000000E+00  0.00000000000E+00  0.12829034526E+04  0.42002319380E+04  0.39995133534E+04 0.  0.
        4    1    3    3  502    0 -0.87046359016E+03 -0.25432645100E+03  0.25132104772E+04  0.26718191033E+04  0.12699999809E+01 0. -1.
       -4    1    3    3    0  502  0.87046359016E+03  0.25432645100E+03 -0.12303070246E+04  0.15284128347E+04  0.12699999809E+01 0.  1.
</event>
<event>
 5   0  0.6547327E-09  0.4019873E+04  0.7818609E-02  0.8000550E-01
       -2   -1    0    0    0  501  0.00000000000E+00  0.00000000000E+00  0.18948594506E+04  0.18948594506E+04  0.25500000920E-02 0. -1.
        2   -1    0    0  501    0  0.00000000000E+00  0.00000000000E+00 -0.21320021647E+04  0.21320021647E+04  0.25500000920E-02 0.  1.
    10030    2    1    2    0    0  0.00000000000E+00  0.00000000000E+00 -0.23714271414E+03  0.40268616153E+04  0.40198728589E+04 0.  0.
        5    1    3    3  502    0 -0.93941599558E+03  0.12270213756E+04  0.11688628156E+04  0.19376135427E+04  0.46999998093E+01 0. -1.
       -5    1    3    3    0  502  0.93941599558E+03 -0.12270213756E+04 -0.14060055298E+04  0.20892480726E+04  0.46999998093E+01 0.  1.
</event>
<event>
 5   0  0.6736335E-09  0.3999324E+04  0.7818609E-02  0.8004683E-01
       -2   -1    0    0    0  501  0.00000000000E+00  0.00000000000E+00  0.13194653102E+04  0.13194653102E+04  0.25500000920E-02 0. -1.
        2   -1    0    0  501    0  0.00000000000E+00  0.00000000000E+00 -0.30305068192E+04  0.30305068192E+04  0.25500000920E-02 0.  1.
    10030    2    1    2    0    0  0.00000000000E+00  0.00000000000E+00 -0.17110415091E+04  0.43499721294E+04  0.39993242530E+04 0.  0.
        1    1    3    3  502    0  0.12799120391E+04  0.13685152140E+04 -0.16150586991E+04  0.24737468182E+04  0.50400001928E-02 0. -1.
       -1    1    3    3    0  502 -0.12799120391E+04 -0.13685152140E+04 -0.95982809977E+02  0.18762253113E+04  0.50400001928E-02 0.  1.
</event>
<event>
 5   0  0.2078125E-09  0.4002514E+04  0.7818609E-02  0.8004040E-01
        1   -1    0    0  501    0  0.00000000000E+00  0.00000000000E+00  0.19247130453E+04  0.19247130453E+04  0.50400001928E-02 0. -1.
       -1   -1    0    0    0  501  0.00000000000E+00  0.00000000000E+00 -0.20808448643E+04  0.20808448643E+04  0.50400001928E-02 0.  1.
    10030    2    1    2    0    0  0.00000000000E+00  0.00000000000E+00 -0.15613181899E+03  0.40055579096E+04  0.40025138379E+04 0.  0.
        4    1    3    3  502    0 -0.27871456935E+03 -0.19811168385E+04 -0.12832266247E+03  0.20047379025E+04  0.12699999809E+01 0. -1.
       -4    1    3    3    0  502  0.27871456935E+03  0.19811168385E+04 -0.27809156517E+02  0.20008200071E+04  0.12699999809E+01 0.  1.
</event>
<event>
 5   0  0.2078125E-09  0.4000195E+04  0.7818609E-02  0.8004507E-01
       -1   -1    0    0    0  501  0.00000000000E+00  0.00000000000E+00  0.16206040482E+04  0.16206040482E+04  0.50400001928E-02 0. -1.
        1   -1    0    0  501    0  0.00000000000E+00  0.00000000000E+00 -0.24684567406E+04  0.24684567406E+04  0.50400001928E-02 0.  1.
    10030    2    1    2    0    0  0.00000000000E+00  0.00000000000E+00 -0.84785269238E+03  0.40890607889E+04  0.40001954886E+04 0.  0.
        3    1    3    3  502    0  0.15591055785E+03  0.16593352088E+03  0.16073130627E+04  0.16233598884E+04  0.10100000352E+00 0. -1.
       -3    1    3    3    0  502 -0.15591055785E+03 -0.16593352088E+03 -0.24551657551E+04  0.24657009005E+04  0.10100000352E+00 0.  1.
</event>
<event>
 5   0  0.6538370E-09  0.4001899E+04  0.7818609E-02  0.8004164E-01
       -2   -1    0    0    0  501  0.00000000000E+00  0.00000000000E+00  0.11611697379E+04  0.11611697379E+04  0.25500000920E-02 0. -1.
        2   -1    0    0  501    0  0.00000000000E+00  0.00000000000E+00 -0.34480736175E+04  0.34480736175E+04  0.25500000920E-02 0.  1.
    10030    2    1    2    0    0  0.00000000000E+00  0.00000000000E+00 -0.22869038796E+04  0.46092433554E+04  0.40018989186E+04 0.  0.
        4    1    3    3  502    0  0.66857232337E+03  0.94346534395E+02 -0.33129018700E+04  0.33810073401E+04  0.12699999809E+01 0.  1.
       -4    1    3    3    0  502 -0.66857232337E+03 -0.94346534395E+02  0.10259979904E+04  0.12282360154E+04  0.12699999809E+01 0. -1.
</event>
<event>
 5   0  0.6645526E-09  0.3998717E+04  0.7818609E-02  0.8004805E-01
        2   -1    0    0  501    0  0.00000000000E+00  0.00000000000E+00  0.18771526745E+04  0.18771526745E+04  0.25500000920E-02 0.  1.
       -2   -1    0    0    0  501  0.00000000000E+00  0.00000000000E+00 -0.21295199095E+04  0.21295199095E+04  0.25500000920E-02 0. -1.
    10030    2    1    2    0    0  0.00000000000E+00  0.00000000000E+00 -0.25236723498E+03  0.40066725839E+04  0.39987167909E+04 0.  0.
        3    1    3    3  502    0 -0.13582368085E+04  0.62344113210E+03 -0.14569630682E+04  0.20871577481E+04  0.10100000352E+00 0. -1.
       -3    1    3    3    0  502  0.13582368085E+04 -0.62344113210E+03  0.12045958332E+04  0.19195148358E+04  0.10100000352E+00 0.  1.
</event>
<event>
 5   0  0.6599276E-09  0.3999572E+04  0.7818609E-02  0.8004633E-01
        2   -1    0    0  501    0  0.00000000000E+00  0.00000000000E+00  0.27837841911E+04  0.27837841911E+04  0.25500000920E-02 0.  1.
       -2   -1    0    0    0  501  0.00000000000E+00  0.00000000000E+00 -0.14365853847E+04  0.14365853847E+04  0.25500000920E-02 0. -1.
    10030    2    1    2    0    0  0.00000000000E+00  0.00000000000E+00  0.13471988064E+04  0.42203695758E+04  0.39995718187E+04 0.  0.
        2    1    3    3  502    0  0.16011231650E+04  0.75146683662E+03  0.16583077893E+04  0.24245169663E+04  0.25500000920E-02 0.  1.
       -2    1    3    3    0  502 -0.16011231650E+04 -0.75146683662E+03 -0.31110898293E+03  0.17958526095E+04  0.25500000920E-02 0. -1.
</event>
<event>
 5   0  0.6599276E-09  0.3999724E+04  0.7818609E-02  0.8004602E-01
       -2   -1    0    0    0  501  0.00000000000E+00  0.00000000000E+00  0.21837610796E+04  0.21837610796E+04  0.25500000920E-02 0. -1.
        2   -1    0    0  501    0  0.00000000000E+00  0.00000000000E+00 -0.18314491449E+04  0.18314491449E+04  0.25500000920E-02 0.  1.
    10030    2    1    2    0    0  0.00000000000E+00  0.00000000000E+00  0.35231193476E+03  0.40152102245E+04  0.39997236714E+04 0.  0.
        2    1    3    3  502    0  0.19650873194E+04 -0.36058719138E+03  0.87178329951E+02  0.19997978290E+04  0.25500000920E-02 0.  1.
       -2    1    3    3    0  502 -0.19650873194E+04  0.36058719138E+03  0.26513360480E+03  0.20154123955E+04  0.25500000920E-02 0. -1.
</event>
<event>
 5   0  0.6538370E-09  0.4000162E+04  0.7818609E-02  0.8004514E-01
       -2   -1    0    0    0  501  0.00000000000E+00  0.00000000000E+00  0.11703828541E+04  0.11703828541E+04  0.25500000920E-02 0.  1.
        2   -1    0    0  501    0  0.00000000000E+00  0.00000000000E+00 -0.34179616056E+04  0.34179616056E+04  0.25500000920E-02 0. -1.
    10030    2    1    2    0    0  0.00000000000E+00  0.00000000000E+00 -0.22475787514E+04  0.45883444597E+04  0.40001618263E+04 0.  0.
        4    1    3    3  502    0  0.19515363393E+04 -0.30008316923E+03 -0.75785304803E+03  0.21149200569E+04  0.12699999809E+01 0.  1.
       -4    1    3    3    0  502 -0.19515363393E+04  0.30008316923E+03 -0.14897257034E+04  0.24734244028E+04  0.12699999809E+01 0. -1.
</event>
<event>
 5   0  0.6547327E-09  0.4002146E+04  0.7818609E-02  0.8004114E-01
       -2   -1    0    0    0  501  0.00000000000E+00  0.00000000000E+00  0.15649820453E+04  0.15649820453E+04  0.25500000920E-02 0.  1.
        2   -1    0    0  501    0  0.00000000000E+00  0.00000000000E+00 -0.25586836873E+04  0.25586836873E+04  0.25500000920E-02 0. -1.
    10030    2    1    2    0    0  0.00000000000E+00  0.00000000000E+00 -0.99370164203E+03  0.41236657326E+04  0.40021464392E+04 0.  0.
        5    1    3    3  502    0  0.17324325177E+03 -0.32594530632E+03  0.15295938126E+04  0.15735097358E+04  0.46999998093E+01 0.  1.
       -5    1    3    3    0  502 -0.17324325177E+03  0.32594530632E+03 -0.25232954546E+04  0.25501559969E+04  0.46999998093E+01 0. -1.
</event>
<event>
 5   0  0.6547327E-09  0.4000403E+04  0.7818609E-02  0.8004465E-01
        2   -1    0    0  501    0  0.00000000000E+00  0.00000000000E+00  0.25940896875E+04  0.25940896875E+04  0.25500000920E-02 0. -1.
       -2   -1    0    0    0  501  0.00000000000E+00  0.00000000000E+00 -0.15422776595E+04  0.15422776595E+04  0.25500000920E-02 0.  1.
    10030    2    1    2    0    0  0.00000000000E+00  0.00000000000E+00  0.10518120280E+04  0.41363673470E+04  0.40004032656E+04 0.  0.
        5    1    3    3  502    0  0.97719684417E+03  0.82485627302E+03 -0.10643799943E+04  0.16637993887E+04  0.46999998093E+01 0.  1.
       -5    1    3    3    0  502 -0.97719684417E+03 -0.82485627302E+03  0.21161920223E+04  0.24725679584E+04  0.46999998093E+01 0. -1.
</event>
<event>
 5   0  0.6645526E-09  0.4000446E+04  0.7818609E-02  0.8004457E-01
       -2   -1    0    0    0  501  0.00000000000E+00  0.00000000000E+00  0.15244206230E+04  0.15244206230E+04  0.25500000920E-02 0.  1.
        2   -1    0    0  501    0  0.00000000000E+00  0.00000000000E+00 -0.26245327444E+04  0.26245327444E+04  0.25500000920E-02 0. -1.
    10030    2    1    2    0    0  0.00000000000E+00  0.00000000000E+00 -0.11001121214E+04  0.41489533674E+04  0.40004458958E+04 0.  0.
        3    1    3    3  502    0 -0.13069508489E+04 -0.14747188385E+04 -0.90628266823E+03  0.21689316400E+04  0.10100000352E+00 0. -1.
       -3    1    3    3    0  502  0.13069508489E+04  0.14747188385E+04 -0.19382945314E+03  0.19800217274E+04  0.10100000352E+00 0.  1.
</event>
<event>
 5   0  0.2078125E-09  0.3994924E+04  0.7818609E-02  0.8005571E-01
       -1   -1    0    0    0  501  0.00000000000E+00  0.00000000000E+00  0.23413083646E+04  0.23413083646E+04  0.50400001928E-02 0. -1.
        1   -1    0    0  501    0  0.00000000000E+00  0.00000000000E+00 -0.17041133327E+04  0.17041133327E+04  0.50400001928E-02 0.  1.
    10030    2    1    2    0    0  0.00000000000E+00  0.00000000000E+00  0.63719503188E+03  0.40454216973E+04  0.39949241795E+04 0.  0.
        1    1    3    3  502    0  0.39204187235E+03 -0.19478182742E+04  0.52652675141E+03  0.20554618165E+04  0.50400001928E-02 0. -1.
       -1    1    3    3    0  502 -0.39204187235E+03  0.19478182742E+04  0.11066828046E+03  0.19899598808E+04  0.50400001928E-02 0.  1.
</event>
<event>
 5   0  0.2078125E-09  0.4000060E+04  0.7818609E-02  0.8004535E-01
        1   -1    0    0  501    0  0.00000000000E+00  0.00000000000E+00  0.17197332034E+04  0.17197332034E+04  0.50400001928E-02 0. -1.
       -1   -1    0    0    0  501  0.00000000000E+00  0.00000000000E+00 -0.23260115084E+04  0.23260115084E+04  0.50400001928E-02 0.  1.
    10030    2    1    2    0    0  0.00000000000E+00  0.00000000000E+00 -0.60627830495E+03  0.40457447118E+04  0.40000596108E+04 0.  0.
        1    1    3    3  502    0 -0.11070599740E+04  0.12719790854E+04  0.78460023005E+03  0.18598683020E+04  0.50400001928E-02 0. -1.
       -1    1    3    3    0  502  0.11070599740E+04 -0.12719790854E+04 -0.13908785350E+04  0.21858764098E+04  0.50400001928E-02 0.  1.
</event>
<event>
 5   0  0.6599276E-09  0.4004279E+04  0.7818609E-02  0.8003684E-01
       -2   -1    0    0    0  501  0.00000000000E+00  0.00000000000E+00  0.18896598715E+04  0.18896598715E+04  0.25500000920E-02 0. -1.
        2   -1    0    0  501    0  0.00000000000E+00  0.00000000000E+00 -0.21213144020E+04  0.21213144020E+04  0.25500000920E-02 0.  1.
    10030    2    1    2    0    0  0.00000000000E+00  0.00000000000E+00 -0.23165453050E+03  0.40109742735E+04  0.40042790613E+04 0.  0.
        2    1    3    3  502    0 -0.71453638534E+03 -0.57683660047E+03 -0.18979197320E+04  0.21084122032E+04  0.25500000920E-02 0.  1.
       -2    1    3    3    0  502  0.71453638534E+03  0.57683660047E+03  0.16662652015E+04  0.19025620703E+04  0.25500000920E-02 0. -1.
</event>
<event>
 5   0  0.6538370E-09  0.4010475E+04  0.7818609E-02  0.8002437E-01
        2   -1    0    0  501    0  0.00000000000E+00  0.00000000000E+00  0.18152745109E+04  0.18152745109E+04  0.25500000920E-02 0.  1.
       -2   -1    0    0    0  501  0.00000000000E+00  0.00000000000E+00 -0.22150790377E+04  0.22150790377E+04  0.25500000920E-02 0. -1.
    10030    2    1    2    0    0  0.00000000000E+00  0.00000000000E+00 -0.39980452680E+03  0.40303535486E+04  0.40104745438E+04 0.  0.
        4    1    3    3  502    0  0.11664229582E+04 -0.15911926364E+04 -0.56020187376E+03  0.20509179105E+04  0.12699999809E+01 0.  1.
       -4    1    3    3    0  502 -0.11664229582E+04  0.15911926364E+04  0.16039734696E+03  0.19794356380E+04  0.12699999809E+01 0. -1.
</event>
<event>
 5   0  0.2078125E-09  0.3999291E+04  0.7818609E-02  0.8004690E-01
        1   -1    0    0  501    0  0.00000000000E+00  0.00000000000E+00  0.28460244266E+04  0.28460244266E+04  0.50400001928E-02 0. -1.
       -1   -1    0    0    0  501  0.00000000000E+00  0.00000000000E+00 -0.14049707700E+04  0.14049707700E+04  0.50400001928E-02 0.  1.
    10030    2    1    2    0    0  0.00000000000E+00  0.00000000000E+00  0.14410536566E+04  0.42509951966E+04  0.39992905021E+04 0.  0.
        5    1    3    3  502    0 -0.12090536328E+04  0.50312235175E+03 -0.88574567519E+03  0.15809839591E+04  0.46999998093E+01 0.  1.
       -5    1    3    3    0  502  0.12090536328E+04 -0.50312235175E+03  0.23267993318E+04  0.26700112375E+04  0.46999998093E+01 0. -1.
</event>
<event>
 5   0  0.6538370E-09  0.4026894E+04  0.7818609E-02  0.7999143E-01
       -2   -1    0    0    0  501  0.00000000000E+00  0.00000000000E+00  0.14648437378E+04  0.14648437378E+04  0.25500000920E-02 0.  1.
        2   -1    0    0  501    0  0.00000000000E+00  0.00000000000E+00 -0.27675094531E+04  0.27675094531E+04  0.25500000920E-02 0. -1.
    10030    2    1    2    0    0  0.00000000000E+00  0.00000000000E+00 -0.13026657153E+04  0.42323531910E+04  0.40268940348E+04 0.  0.
        4    1    3    3  502    0  0.16310121900E+03  0.41154571580E+03 -0.27157266925E+04  0.27515713629E+04  0.12699999809E+01 0. -1.
       -4    1    3    3    0  502 -0.16310121900E+03 -0.41154571580E+03  0.14130609773E+04  0.14807818280E+04  0.12699999809E+01 0.  1.
</event>
<event>
 5   0  0.2078125E-09  0.3999913E+04  0.7818609E-02  0.8004564E-01
       -1   -1    0    0    0  501  0.00000000000E+00  0.00000000000E+00  0.19008813327E+04  0.19008813327E+04  0.50400001928E-02 0.  1.
        1   -1    0    0  501    0  0.00000000000E+00  0.00000000000E+00 -0.21041952969E+04  0.21041952969E+04  0.50400001928E-02 0. -1.
    10030    2    1    2    0    0  0.00000000000E+00  0.00000000000E+00 -0.20331396418E+03  0.40050766295E+04  0.39999127791E+04 0.  0.
        5    1    3    3  502    0  0.11374511253E+04  0.16132537503E+04  0.22034914736E+03  0.19861919752E+04  0.46999998093E+01 0.  1.
       -5    1    3    3    0  502 -0.11374511253E+04 -0.16132537503E+04 -0.42366311154E+03  0.20188846544E+04  0.46999998093E+01 0. -1.
</event>
<event>
 5   0  0.2078125E-09  0.3995939E+04  0.7818609E-02  0.8005366E-01
        1   -1    0    0  501    0  0.00000000000E+00  0.00000000000E+00  0.14306520371E+04  0.14306520371E+04  0.50400001928E-02 0.  1.
       -1   -1    0    0    0  501  0.00000000000E+00  0.00000000000E+00 -0.27902530036E+04  0.27902530036E+04  0.50400001928E-02 0. -1.
    10030    2    1    2    0    0  0.00000000000E+00  0.00000000000E+00 -0.13596009665E+04  0.42209050407E+04  0.39959385099E+04 0.  0.
        4    1    3    3  502    0 -0.52072652204E+03  0.64339721480E+03 -0.26006279140E+04  0.27291726304E+04  0.12699999809E+01 0. -1.
       -4    1    3    3    0  502  0.52072652204E+03 -0.64339721480E+03  0.12410269475E+04  0.14917324103E+04  0.12699999809E+01 0.  1.
</event>
<event>
 5   0  0.2078125E-09  0.3999456E+04  0.7818609E-02  0.8004656E-01
        1   -1    0    0  501    0  0.00000000000E+00  0.00000000000E+00  0.13745037901E+04  0.13745037901E+04  0.50400001928E-02 0. -1.
       -1   -1    0    0    0  501  0.00000000000E+00  0.00000000000E+00 -0.29093489964E+04  0.29093489964E+04  0.50400001928E-02 0.  1.
    10030    2    1    2    0    0  0.00000000000E+00  0.00000000000E+00 -0.15348452063E+04  0.42838527865E+04  0.39994555741E+04 0.  0.
        1    1    3    3  502    0  0.19964487634E+04  0.55756009333E+02 -0.66033942552E+03  0.21035599717E+04  0.50400001928E-02 0. -1.
       -1    1    3    3    0  502 -0.19964487634E+04 -0.55756009333E+02 -0.87450578073E+03  0.21802928148E+04  0.50400001928E-02 0.  1.
</event>
<event>
 5   0  0.2078125E-09  0.4000901E+04  0.7818609E-02  0.8004365E-01
       -1   -1    0    0    0  501  0.00000000000E+00  0.00000000000E+00  0.22580582772E+04  0.22580582772E+04  0.50400001928E-02 0. -1.
        1   -1    0    0  501    0  0.00000000000E+00  0.00000000000E+00 -0.17722315271E+04  0.17722315271E+04  0.50400001928E-02 0.  1.
    10030    2    1    2    0    0  0.00000000000E+00  0.00000000000E+00  0.48582675006E+03  0.40302898043E+04  0.40009009330E+04 0.  0.
        1    1    3    3  502    0  0.11123815546E+04 -0.88681122581E+03 -0.11738225235E+04  0.18443660672E+04  0.50400001928E-02 0.  1.
       -1    1    3    3    0  502 -0.11123815546E+04  0.88681122581E+03  0.16596492736E+04  0.21859237371E+04  0.50400001928E-02 0. -1.
</event>
<event>
 5   0  0.2078125E-09  0.3999052E+04  0.7818609E-02  0.8004738E-01
       -1   -1    0    0    0  501  0.00000000000E+00  0.00000000000E+00  0.20566047008E+04  0.20566047008E+04  0.50400001928E-02 0.  1.
        1   -1    0    0  501    0  0.00000000000E+00  0.00000000000E+00 -0.19440312473E+04  0.19440312473E+04  0.50400001928E-02 0. -1.
    10030    2    1    2    0    0  0.00000000000E+00  0.00000000000E+00  0.11257345352E+03  0.40006359481E+04  0.39990517885E+04 0.  0.
        1    1    3    3  502    0  0.94386240691E+03 -0.13684428780E+04 -0.10552752233E+04  0.19690398550E+04  0.50400001928E-02 0. -1.
       -1    1    3    3    0  502 -0.94386240691E+03  0.13684428780E+04  0.11678486768E+04  0.20315960931E+04  0.50400001928E-02 0.  1.
</event>
<event>
 5   0  0.2078125E-09  0.3996885E+04  0.7818609E-02  0.8005175E-01
       -1   -1    0    0    0  501  0.00000000000E+00  0.00000000000E+00  0.17222669692E+04  0.17222669692E+04  0.50400001928E-02 0. -1.
        1   -1    0    0  501    0  0.00000000000E+00  0.00000000000E+00 -0.23189039004E+04  0.23189039004E+04  0.50400001928E-02 0.  1.
    10030    2    1    2    0    0  0.00000000000E+00  0.00000000000E+00 -0.59663693121E+03  0.40411708696E+04  0.39968845830E+04 0.  0.
        2    1    3    3  502    0 -0.15657284130E+04 -0.10483841055E+04  0.37475793312E+03  0.19212126911E+04  0.25500000920E-02 0. -1.
       -2    1    3    3    0  502  0.15657284130E+04  0.10483841055E+04 -0.97139486433E+03  0.21199581785E+04  0.25500000920E-02 0.  1.
</event>
<event>
 5   0  0.2078125E-09  0.4000189E+04  0.7818609E-02  0.8004508E-01
        1   -1    0    0  501    0  0.00000000000E+00  0.00000000000E+00  0.12154990088E+04  0.12154990088E+04  0.50400001928E-02 0.  1.
       -1   -1    0    0    0  501  0.00000000000E+00  0.00000000000E+00 -0.32911410130E+04  0.32911410130E+04  0.50400001928E-02 0. -1.
    10030    2    1    2    0    0  0.00000000000E+00  0.00000000000E+00 -0.20756420042E+04  0.45066400217E+04  0.40001893150E+04 0.  0.
        5    1    3    3  502    0  0.16692827989E+03  0.47128531006E+02 -0.32826453630E+04  0.32872281360E+04  0.46999998093E+01 0. -1.
       -5    1    3    3    0  502 -0.16692827989E+03 -0.47128531006E+02  0.12070033588E+04  0.12194118857E+04  0.46999998093E+01 0.  1.
</event>
<event>
 5   0  0.6645526E-09  0.4001660E+04  0.7818609E-02  0.8004212E-01
       -2   -1    0    0    0  501  0.00000000000E+00  0.00000000000E+00  0.15284620229E+04  0.15284620229E+04  0.25500000920E-02 0.  1.
        2   -1    0    0  501    0  0.00000000000E+00  0.00000000000E+00 -0.26191819125E+04  0.26191819125E+04  0.25500000920E-02 0. -1.
    10030    2    1    2    0    0  0.00000000000E+00  0.00000000000E+00 -0.10907198896E+04  0.41476439354E+04  0.40016596979E+04 0.  0.
        3    1    3    3  502    0 -0.82183193547E+03 -0.12663882407E+04 -0.19063399787E+04  0.24317234692E+04  0.10100000352E+00 0. -1.
       -3    1    3    3    0  502  0.82183193547E+03  0.12663882407E+04  0.81562008908E+03  0.17159204662E+04  0.10100000352E+00 0.  1.
</event>
<event>
 5   0  0.2078125E-09  0.3997973E+04  0.7818609E-02  0.8004956E-01
       -1   -1    0    0    0  501  0.00000000000E+00  0.00000000000E+00  0.27241579147E+04  0.27241579147E+04  0.50400001928E-02 0.  1.
        1   -1    0    0  501    0  0.00000000000E+00  0.00000000000E+00 -0.14668560974E+04  0.14668560974E+04  0.50400001928E-02 0. -1.
    10030    2    1    2    0    0  0.00000000000E+00  0.00000000000E+00  0.12573018173E+04  0.41910140121E+04  0.39979733103E+04 0.  0.
        3    1    3    3  502    0  0.26212303077E+03 -0.18051384094E+04  0.14858852975E+04  0.23526768346E+04  0.10100000352E+00 0.  1.
       -3    1    3    3    0  502 -0.26212303077E+03  0.18051384094E+04 -0.22858348022E+03  0.18383371775E+04  0.10100000352E+00 0. -1.
</event>
<event>
 5   0  0.2078125E-09  0.4000686E+04  0.7818609E-02  0.8004408E-01
        1   -1    0    0  501    0  0.00000000000E+00  0.00000000000E+00  0.14323792818E+04  0.14323792818E+04  0.50400001928E-02 0. -1.
       -1   -1    0    0    0  501  0.00000000000E+00  0.00000000000E+00 -0.27935144033E+04  0.27935144033E+04  0.50400001928E-02 0.  1.
    10030    2    1    2    0    0  0.00000000000E+00  0.00000000000E+00 -0.13611351214E+04  0.42258936851E+04  0.40006860186E+04 0.  0.
        2    1    3    3  502    0 -0.63384307916E+03 -0.35021210871E+03  0.12890611077E+04  0.14785412099E+04  0.25500000920E-02 0. -1.
       -2    1    3    3    0  502  0.63384307916E+03  0.35021210871E+03 -0.26501962291E+04  0.27473524752E+04  0.25500000920E-02 0.  1.
</event>
<event>
 5   0  0.6547327E-09  0.4002998E+04  0.7818609E-02  0.8003942E-01
       -2   -1    0    0    0  501  0.00000000000E+00  0.00000000000E+00  0.27353174206E+04  0.27353174206E+04  0.25500000920E-02 0. -1.
        2   -1    0    0  501    0  0.00000000000E+00  0.00000000000E+00 -0.14645459818E+04  0.14645459818E+04  0.25500000920E-02 0.  1.
    10030    2    1    2    0    0  0.00000000000E+00  0.00000000000E+00  0.12707714389E+04  0.41998634024E+04  0.40029979452E+04 0.  0.
        5    1    3    3  502    0  0.12028775179E+04 -0.14734700181E+04 -0.18100542399E+02  0.19022034425E+04  0.46999998093E+01 0.  1.
       -5    1    3    3    0  502 -0.12028775179E+04  0.14734700181E+04  0.12888719813E+04  0.22976599599E+04  0.46999998093E+01 0. -1.
</event>
<event>
 5   0  0.6645526E-09  0.3997468E+04  0.7818609E-02  0.8005058E-01
       -2   -1    0    0    0  501  0.00000000000E+00  0.00000000000E+00  0.21148304384E+04  0.21148304384E+04  0.25500000920E-02 0.  1.
        2   -1    0    0  501    0  0.00000000000E+00  0.00000000000E+00 -0.18890106538E+04  0.18890106538E+04  0.25500000920E-02 0. -1.
    10030    2    1    2    0    0  0.00000000000E+00  0.00000000000E+00  0.22581978464E+03  0.40038410922E+04  0.39974678131E+04 0.  0.
        3    1    3    3  502    0 -0.55947747959E+03 -0.17514737714E+04  0.89790800008E+03  0.20461950564E+04  0.10100000352E+00 0.  1.
       -3    1    3    3    0  502  0.55947747959E+03  0.17514737714E+04 -0.67208821544E+03  0.19576460358E+04  0.10100000352E+00 0. -1.
</event>
<event>
 5   0  0.2078125E-09  0.4000084E+04  0.7818609E-02  0.8004530E-01
        1   -1    0    0  501    0  0.00000000000E+00  0.00000000000E+00  0.22956758295E+04  0.22956758295E+04  0.50400001928E-02 0.  1.
       -1   -1    0    0    0  501  0.00000000000E+00  0.00000000000E+00 -0.17424792170E+04  0.17424792170E+04  0.50400001928E-02 0. -1.
    10030    2    1    2    0    0  0.00000000000E+00  0.00000000000E+00  0.55319661249E+03  0.40381550466E+04  0.40000837101E+04 0.  0.
        1    1    3    3  502    0 -0.30649495156E+03  0.13460242983E+04 -0.11843961984E+04  0.18189323576E+04  0.50400001928E-02 0. -1.
       -1    1    3    3    0  502  0.30649495156E+03 -0.13460242983E+04  0.17375928108E+04  0.22192226890E+04  0.50400001928E-02 0.  1.
</event>
<event>
 5   0  0.6538370E-09  0.3993110E+04  0.7818609E-02  0.8005938E-01
       -2   -1    0    0    0  501  0.00000000000E+00  0.00000000000E+00  0.17300822945E+04  0.17300822945E+04  0.25500000920E-02 0.  1.
        2   -1    0    0  501    0  0.00000000000E+00  0.00000000000E+00 -0.23040708927E+04  0.23040708927E+04  0.25500000920E-02 0. -1.
    10030    2    1    2    0    0  0.00000000000E+00  0.00000000000E+00 -0.57398859821E+03  0.40341531871E+04  0.39931101946E+04 0.  0.
        4    1    3    3  502    0 -0.32015324865E+03  0.19646035377E+04 -0.13026926888E+03  0.19947773956E+04  0.12699999809E+01 0.  1.
       -4    1    3    3    0  502  0.32015324865E+03 -0.19646035377E+04 -0.44371932934E+03  0.20393757915E+04  0.12699999809E+01 0. -1.
</event>
<event>
 5   0  0.6736335E-09  0.3998980E+04  0.7818609E-02  0.8004752E-01
        2   -1    0    0  501    0  0.00000000000E+00  0.00000000000E+00  0.27870567305E+04  0.27870567305E+04  0.25500000920E-02 0.  1.
       -2   -1    0    0    0  501  0.00000000000E+00  0.00000000000E+00 -0.14344741688E+04  0.14344741688E+04  0.25500000920E-02 0. -1.
    10030    2    1    2    0    0  0.00000000000E+00  0.00000000000E+00  0.13525825617E+04  0.42215308994E+04  0.39989803135E+04 0.  0.
        1    1    3    3  502    0 -0.27737007964E+03  0.10491402515E+04 -0.10965537813E+04  0.15427441861E+04  0.50400001928E-02 0. -1.
       -1    1    3    3    0  502  0.27737007964E+03 -0.10491402515E+04  0.24491363430E+04  0.26787867132E+04  0.50400001928E-02 0.  1.
</event>
<event>
 5   0  0.6645526E-09  0.4019600E+04  0.7818609E-02  0.8000604E-01
       -2   -1    0    0    0  501  0.00000000000E+00  0.00000000000E+00  0.16820771690E+04  0.16820771690E+04  0.25500000920E-02 0. -1.
        2   -1    0    0  501    0  0.00000000000E+00  0.00000000000E+00 -0.24013734144E+04  0.24013734144E+04  0.25500000920E-02 0.  1.
    10030    2    1    2    0    0  0.00000000000E+00  0.00000000000E+00 -0.71929624537E+03  0.40834505834E+04  0.40195996789E+04 0.  0.
        3    1    3    3  502    0  0.12484347031E+04 -0.67106941249E+03  0.10878976699E+04  0.17867413676E+04  0.10100000352E+00 0. -1.
       -3    1    3    3    0  502 -0.12484347031E+04  0.67106941249E+03 -0.18071939153E+04  0.22967092158E+04  0.10100000352E+00 0.  1.
</event>
<event>
 5   0  0.2078125E-09  0.3999880E+04  0.7818609E-02  0.8004571E-01
        3   -1    0    0  501    0  0.00000000000E+00  0.00000000000E+00  0.20240855340E+04  0.20240855365E+04  0.10100000352E+00 0. -1.
       -3   -1    0    0    0  501  0.00000000000E+00  0.00000000000E+00 -0.19760828800E+04  0.19760828826E+04  0.10100000352E+00 0.  1.
    10030    2    1    2    0    0  0.00000000000E+00  0.00000000000E+00  0.48002653941E+02  0.40001684191E+04  0.39998803890E+04 0.  0.
        4    1    3    3  502    0 -0.10819002144E+04 -0.93862114252E+03 -0.13718933826E+04  0.19833332522E+04  0.12699999809E+01 0.  1.
       -4    1    3    3    0  502  0.10819002144E+04  0.93862114252E+03  0.14198960365E+04  0.20168351669E+04  0.12699999809E+01 0. -1.
</event>
<event>
 5   0  0.2078125E-09  0.4001020E+04  0.7818609E-02  0.8004341E-01
       -1   -1    0    0    0  501  0.00000000000E+00  0.00000000000E+00  0.17987262076E+04  0.17987262077E+04  0.50400001928E-02 0.  1.
        1   -1    0    0  501    0  0.00000000000E+00  0.00000000000E+00 -0.22249303660E+04  0.22249303660E+04  0.50400001928E-02 0. -1.
    10030    2    1    2    0    0  0.00000000000E+00  0.00000000000E+00 -0.42620415834E+03  0.40236565736E+04  0.40010201497E+04 0.  0.
        2    1    3    3  502    0 -0.10748429039E+04  0.14186682994E+04 -0.11315783939E+04  0.21091175106E+04  0.25500000920E-02 0. -1.
       -2    1    3    3    0  502  0.10748429039E+04 -0.14186682994E+04  0.70537423560E+03  0.19145390631E+04  0.25500000920E-02 0.  1.
</event>
<event>
 5   0  0.2078125E-09  0.4000294E+04  0.7818609E-02  0.8004487E-01
        1   -1    0    0  501    0  0.00000000000E+00  0.00000000000E+00  0.21561357002E+04  0.21561357002E+04  0.50400001928E-02 0.  1.
       -1   -1    0    0    0  501  0.00000000000E+00  0.00000000000E+00 -0.18554431715E+04  0.18554431715E+04  0.50400001928E-02 0. -1.
    10030    2    1    2    0    0  0.00000000000E+00  0.00000000000E+00  0.30069252875E+03  0.40115788717E+04  0.40002936201E+04 0.  0.
        3    1    3    3  502    0  0.71665071162E+02 -0.34687864781E+03 -0.18237412965E+04  0.18578194222E+04  0.10100000352E+00 0. -1.
       -3    1    3    3    0  502 -0.71665071162E+02  0.34687864781E+03  0.21244338252E+04  0.21537594496E+04  0.10100000352E+00 0.  1.
</event>
<event>
 5   0  0.6599276E-09  0.3999703E+04  0.7818609E-02  0.8004606E-01
       -2   -1    0    0    0  501  0.00000000000E+00  0.00000000000E+00  0.14943152061E+04  0.14943152061E+04  0.25500000920E-02 0.  1.
        2   -1    0    0  501    0  0.00000000000E+00  0.00000000000E+00 -0.26764139798E+04  0.26764139798E+04  0.25500000920E-02 0. -1.
    10030    2    1    2    0    0  0.00000000000E+00  0.00000000000E+00 -0.11820987736E+04  0.41707291859E+04  0.39997030429E+04 0.  0.
        2    1    3    3  502    0  0.19266977839E+03 -0.19633747729E+04 -0.93285190440E+03  0.21822407791E+04  0.25500000920E-02 0. -1.
       -2    1    3    3    0  502 -0.19266977839E+03  0.19633747729E+04 -0.24924686925E+03  0.19884884068E+04  0.25500000920E-02 0.  1.
</event>
<event>
 5   0  0.6538370E-09  0.3999759E+04  0.7818609E-02  0.8004595E-01
        2   -1    0    0  501    0  0.00000000000E+00  0.00000000000E+00  0.19813340363E+04  0.19813340363E+04  0.25500000920E-02 0.  1.
       -2   -1    0    0    0  501  0.00000000000E+00  0.00000000000E+00 -0.20185982857E+04  0.20185982857E+04  0.25500000920E-02 0. -1.
    10030    2    1    2    0    0  0.00000000000E+00  0.00000000000E+00 -0.37264249432E+02  0.39999323220E+04  0.39997587373E+04 0.  0.
        4    1    3    3  502    0 -0.34226357267E+03  0.18902696020E+04 -0.57476088488E+03  0.20051471789E+04  0.12699999809E+01 0. -1.
       -4    1    3    3    0  502  0.34226357267E+03 -0.18902696020E+04  0.53749663545E+03  0.19947851432E+04  0.12699999809E+01 0.  1.
</event>
<event>
 5   0  0.2078125E-09  0.3996000E+04  0.7818609E-02  0.8005354E-01
        1   -1    0    0  501    0  0.00000000000E+00  0.00000000000E+00  0.14575517914E+04  0.14575517914E+04  0.50400001928E-02 0.  1.
       -1   -1    0    0    0  501  0.00000000000E+00  0.00000000000E+00 -0.27388425583E+04  0.27388425583E+04  0.50400001928E-02 0. -1.
    10030    2    1    2    0    0  0.00000000000E+00  0.00000000000E+00 -0.12812907669E+04  0.41963943498E+04  0.39960004391E+04 0.  0.
        2    1    3    3  502    0  0.13070016902E+04 -0.25772657709E+02 -0.22274082140E+04  0.25826856177E+04  0.25500000920E-02 0. -1.
       -2    1    3    3    0  502 -0.13070016902E+04  0.25772657709E+02  0.94611744717E+03  0.16137087320E+04  0.25500000920E-02 0.  1.
</event>
<event>
 5   0  0.2078125E-09  0.4002695E+04  0.7818609E-02  0.8004003E-01
       -1   -1    0    0    0  501  0.00000000000E+00  0.00000000000E+00  0.15184091284E+04  0.15184091284E+04  0.50400001928E-02 0.  1.
        1   -1    0    0  501    0  0.00000000000E+00  0.00000000000E+00 -0.26378867414E+04  0.26378867414E+04  0.50400001928E-02 0. -1.
    10030    2    1    2    0    0  0.00000000000E+00  0.00000000000E+00 -0.11194776129E+04  0.41562958698E+04  0.40026947462E+04 0.  0.
        5    1    3    3  502    0 -0.24787958010E+03  0.25949909675E+03  0.14847213367E+04  0.15274827675E+04  0.46999998093E+01 0.  1.
       -5    1    3    3    0  502  0.24787958010E+03 -0.25949909675E+03 -0.26041989496E+04  0.26288131023E+04  0.46999998093E+01 0. -1.
</event>
<event>
 5   0  0.2078125E-09  0.3999409E+04  0.7818609E-02  0.8004666E-01
       -1   -1    0    0    0  501  0.00000000000E+00  0.00000000000E+00  0.26300505477E+04  0.26300505477E+04  0.50400001928E-02 0. -1.
        1   -1    0    0  501    0  0.00000000000E+00  0.00000000000E+00 -0.15204336289E+04  0.15204336289E+04  0.50400001928E-02 0.  1.
    10030    2    1    2    0    0  0.00000000000E+00  0.00000000000E+00  0.11096169189E+04  0.41504841766E+04  0.39994086055E+04 0.  0.
        2    1    3    3  502    0 -0.20574938591E+03 -0.19484667787E+04  0.13974835349E+03  0.19642772716E+04  0.25500000920E-02 0.  1.
       -2    1    3    3    0  502  0.20574938591E+03  0.19484667787E+04  0.96986856540E+03  0.21862069050E+04  0.25500000920E-02 0. -1.
</event>
<event>
 5   0  0.6599276E-09  0.4001076E+04  0.7818609E-02  0.8004330E-01
        2   -1    0    0  501    0  0.00000000000E+00  0.00000000000E+00  0.26558728933E+04  0.26558728933E+04  0.25500000920E-02 0.  1.
       -2   -1    0    0    0  501  0.00000000000E+00  0.00000000000E+00 -0.15069063821E+04  0.15069063821E+04  0.25500000920E-02 0. -1.
    10030    2    1    2    0    0  0.00000000000E+00  0.00000000000E+00  0.11489665112E+04  0.41627792754E+04  0.40010757618E+04 0.  0.
        2    1    3    3  502    0 -0.11870947763E+04 -0.14118649869E+03  0.22433764449E+04  0.25420199662E+04  0.25500000920E-02 0.  1.
       -2    1    3    3    0  502  0.11870947763E+04  0.14118649869E+03 -0.10944099336E+04  0.16207593092E+04  0.25500000920E-02 0. -1.
</event>
<event>
 5   0  0.6645526E-09  0.4000207E+04  0.7818609E-02  0.8004505E-01
        2   -1    0    0  501    0  0.00000000000E+00  0.00000000000E+00  0.18771396398E+04  0.18771396398E+04  0.25500000920E-02 0. -1.
       -2   -1    0    0    0  501  0.00000000000E+00  0.00000000000E+00 -0.21311218586E+04  0.21311218586E+04  0.25500000920E-02 0.  1.
    10030    2    1    2    0    0  0.00000000000E+00  0.00000000000E+00 -0.25398221885E+03  0.40082614984E+04  0.40002066537E+04 0.  0.
        3    1    3    3  502    0 -0.38249852951E+03 -0.19138838928E+04  0.31110389319E+03  0.19763709983E+04  0.10100000352E+00 0. -1.
       -3    1    3    3    0  502  0.38249852951E+03  0.19138838928E+04 -0.56508611204E+03  0.20318905001E+04  0.10100000352E+00 0.  1.
</event>
<event>
 5   0  0.6599276E-09  0.3999827E+04  0.7818609E-02  0.8004581E-01
       -2   -1    0    0    0  501  0.00000000000E+00  0.00000000000E+00  0.14909437134E+04  0.14909437134E+04  0.25500000920E-02 0.  1.
        2   -1    0    0  501    0  0.00000000000E+00  0.00000000000E+00 -0.26826325820E+04  0.26826325820E+04  0.25500000920E-02 0. -1.
    10030    2    1    2    0    0  0.00000000000E+00  0.00000000000E+00 -0.11916888686E+04  0.41735762954E+04  0.39998270880E+04 0.  0.
        2    1    3    3  502    0  0.24432681308E+03 -0.36698998195E+02 -0.26666471570E+04  0.26780682343E+04  0.25500000920E-02 0. -1.
       -2    1    3    3    0  502 -0.24432681308E+03  0.36698998195E+02  0.14749582884E+04  0.14955080610E+04  0.25500000920E-02 0.  1.
</event>
<event>
 5   0  0.2078125E-09  0.3999059E+04  0.7818609E-02  0.8004736E-01
       -1   -1    0    0    0  501  0.00000000000E+00  0.00000000000E+00  0.24486792589E+04  0.24486792590E+04  0.50400001928E-02 0. -1.
        1   -1    0    0  501    0  0.00000000000E+00  0.00000000000E+00 -0.16327655773E+04  0.16327655773E+04  0.50400001928E-02 0.  1.
    10030    2    1    2    0    0  0.00000000000E+00  0.00000000000E+00  0.81591368166E+03  0.40814448362E+04  0.39990594914E+04 0.  0.
        3    1    3    3  502    0 -0.89262318949E+03  0.17091328712E+04 -0.13229496329E+03  0.19327217330E+04  0.10100000352E+00 0.  1.
       -3    1    3    3    0  502  0.89262318949E+03 -0.17091328712E+04  0.94820864495E+03  0.21487231032E+04  0.10100000352E+00 0. -1.
</event>
<event>
 5   0  0.2078125E-09  0.4000372E+04  0.7818609E-02  0.8004472E-01
        1   -1    0    0  501    0  0.00000000000E+00  0.00000000000E+00  0.19157423229E+04  0.19157423229E+04  0.50400001928E-02 0.  1.
       -1   -1    0    0    0  501  0.00000000000E+00  0.00000000000E+00 -0.20883517693E+04  0.20883517693E+04  0.50400001928E-02 0. -1.
    10030    2    1    2    0    0  0.00000000000E+00  0.00000000000E+00 -0.17260944639E+03  0.40040940923E+04  0.40003719175E+04 0.  0.
        5    1    3    3  502    0  0.22594767713E+03 -0.88907496206E+03  0.16927671985E+04  0.19253543880E+04  0.46999998093E+01 0.  1.
       -5    1    3    3    0  502 -0.22594767713E+03  0.88907496206E+03 -0.18653766449E+04  0.20787397043E+04  0.46999998093E+01 0. -1.
</event>
<event>
 5   0  0.6547327E-09  0.3999153E+04  0.7818609E-02  0.8004718E-01
        2   -1    0    0  501    0  0.00000000000E+00  0.00000000000E+00  0.21433822822E+04  0.21433822822E+04  0.25500000920E-02 0.  1.
       -2   -1    0    0    0  501  0.00000000000E+00  0.00000000000E+00 -0.18654187882E+04  0.18654187882E+04  0.25500000920E-02 0. -1.
    10030    2    1    2    0    0  0.00000000000E+00  0.00000000000E+00  0.27796349396E+03  0.40088010703E+04  0.39991527000E+04 0.  0.
        5    1    3    3  502    0  0.49931908540E+03  0.16420159957E+04  0.11674919621E+04  0.20757156960E+04  0.46999998093E+01 0.  1.
       -5    1    3    3    0  502 -0.49931908540E+03 -0.16420159957E+04 -0.88952846810E+03  0.19330853744E+04  0.46999998093E+01 0. -1.
</event>
<event>
 5   0  0.2078125E-09  0.3999265E+04  0.7818609E-02  0.8004695E-01
       -1   -1    0    0    0  501  0.00000000000E+00  0.00000000000E+00  0.25150466542E+04  0.25150466542E+04  0.50400001928E-02 0. -1.
        1   -1    0    0  501    0  0.00000000000E+00  0.00000000000E+00 -0.15898434311E+04  0.15898434311E+04  0.50400001928E-02 0.  1.
    10030    2    1    2    0    0  0.00000000000E+00  0.00000000000E+00  0.92520322315E+03  0.41048900853E+04  0.39992651335E+04 0.  0.
        5    1    3    3  502    0 -0.10599566621E+04 -0.23197725705E+03 -0.12613983535E+04  0.16638718309E+04  0.46999998093E+01 0.  1.
       -5    1    3    3    0  502  0.10599566621E+04  0.23197725705E+03  0.21866015767E+04  0.24410182544E+04  0.46999998093E+01 0. -1.
</event>
<event>
 5   0  0.2078125E-09  0.4000922E+04  0.7818609E-02  0.8004361E-01
        1   -1    0    0  501    0  0.00000000000E+00  0.00000000000E+00  0.20945696625E+04  0.20945696625E+04  0.50400001928E-02 0.  1.
       -1   -1    0    0    0  501  0.00000000000E+00  0.00000000000E+00 -0.19105804769E+04  0.19105804769E+04  0.50400001928E-02 0. -1.
    10030    2    1    2    0    0  0.00000000000E+00  0.00000000000E+00  0.18398918560E+03  0.40051501394E+04  0.40009218461E+04 0.  0.
        2    1    3    3  502    0  0.14069702913E+04 -0.97793982303E+03 -0.94152675322E+03  0.19550970117E+04  0.25500000920E-02 0. -1.
       -2    1    3    3    0  502 -0.14069702913E+04  0.97793982303E+03  0.11255159388E+04  0.20500531277E+04  0.25500000920E-02 0.  1.
</event>
<event>
 5   0  0.6547327E-09  0.4002108E+04  0.7818609E-02  0.8004122E-01
        2   -1    0    0  501    0  0.00000000000E+00  0.00000000000E+00  0.16991203304E+04  0.16991203304E+04  0.25500000920E-02 0.  1.
       -2   -1    0    0    0  501  0.00000000000E+00  0.00000000000E+00 -0.23566408668E+04  0.23566408668E+04  0.25500000920E-02 0. -1.
    10030    2    1    2    0    0  0.00000000000E+00  0.00000000000E+00 -0.65752053634E+03  0.40557611972E+04  0.40021076488E+04 0.  0.
        5    1    3    3  502    0 -0.32065366909E+03 -0.19433766541E+04 -0.68656980691E+03  0.20858887279E+04  0.46999998093E+01 0. -1.
       -5    1    3    3    0  502  0.32065366909E+03  0.19433766541E+04  0.29049270568E+02  0.19698724693E+04  0.46999998093E+01 0.  1.
</event>
<event>
 5   0  0.2078125E-09  0.3999441E+04  0.7818609E-02  0.8004659E-01
       -1   -1    0    0    0  501  0.00000000000E+00  0.00000000000E+00  0.18789985549E+04  0.18789985549E+04  0.50400001928E-02 0.  1.
        1   -1    0    0  501    0  0.00000000000E+00  0.00000000000E+00 -0.21281989495E+04  0.21281989495E+04  0.50400001928E-02 0. -1.
    10030    2    1    2    0    0  0.00000000000E+00  0.00000000000E+00 -0.24920039464E+03  0.40071975044E+04  0.39994413363E+04 0.  0.
        1    1    3    3  502    0 -0.13861966370E+04  0.13868885553E+04  0.26843822062E+03  0.19791564010E+04  0.50400001928E-02 0.  1.
       -1    1    3    3    0  502  0.13861966370E+04 -0.13868885553E+04 -0.51763861526E+03  0.20280411034E+04  0.50400001928E-02 0. -1.
</event>
<event>
 5   0  0.6645526E-09  0.4002406E+04  0.7818609E-02  0.8004061E-01
       -2   -1    0    0    0  501  0.00000000000E+00  0.00000000000E+00  0.20131874302E+04  0.20131874302E+04  0.25500000920E-02 0. -1.
        2   -1    0    0  501    0  0.00000000000E+00  0.00000000000E+00 -0.19892900741E+04  0.19892900741E+04  0.25500000920E-02 0.  1.
    10030    2    1    2    0    0  0.00000000000E+00  0.00000000000E+00  0.23897356034E+02  0.40024775043E+04  0.40024061624E+04 0.  0.
        3    1    3    3  502    0 -0.74126833231E+03 -0.71378924233E+03  0.17283242074E+04  0.20114866142E+04  0.10100000352E+00 0. -1.
       -3    1    3    3    0  502  0.74126833231E+03  0.71378924233E+03 -0.17044268513E+04  0.19909908902E+04  0.10100000352E+00 0.  1.
</event>
<event>
 5   0  0.6736335E-09  0.4002125E+04  0.7818609E-02  0.8004118E-01
       -2   -1    0    0    0  501  0.00000000000E+00  0.00000000000E+00  0.21883470272E+04  0.21883470272E+04  0.25500000920E-02 0.  1.
        2   -1    0    0  501    0  0.00000000000E+00  0.00000000000E+00 -0.18298060406E+04  0.18298060406E+04  0.25500000920E-02 0. -1.
    10030    2    1    2    0    0  0.00000000000E+00  0.00000000000E+00  0.35854098656E+03  0.40181530678E+04  0.40021247403E+04 0.  0.
        1    1    3    3  502    0 -0.45352543274E+03 -0.10982169604E+04  0.17958384469E+04  0.21533233705E+04  0.50400001928E-02 0.  1.
       -1    1    3    3    0  502  0.45352543274E+03  0.10982169604E+04 -0.14372974604E+04  0.18648296973E+04  0.50400001928E-02 0. -1.
</event>
<event>
 5   0  0.6645526E-09  0.4000447E+04  0.7818609E-02  0.8004456E-01
       -2   -1    0    0    0  501  0.00000000000E+00  0.00000000000E+00  0.18805310386E+04  0.18805310386E+04  0.25500000920E-02 0.  1.
        2   -1    0    0  501    0  0.00000000000E+00  0.00000000000E+00 -0.21275340951E+04  0.21275340951E+04  0.25500000920E-02 0. -1.
    10030    2    1    2    0    0  0.00000000000E+00  0.00000000000E+00 -0.24700305646E+03  0.40080651337E+04  0.40004469258E+04 0.  0.
        3    1    3    3  502    0 -0.56010226743E+03 -0.10642769666E+03  0.17974008527E+04  0.18856540616E+04  0.10100000352E+00 0.  1.
       -3    1    3    3    0  502  0.56010226743E+03  0.10642769666E+03 -0.20444039092E+04  0.21224110720E+04  0.10100000352E+00 0. -1.
</event>
<event>
 5   0  0.2078125E-09  0.3999493E+04  0.7818609E-02  0.8004649E-01
        1   -1    0    0  501    0  0.00000000000E+00  0.00000000000E+00  0.11793500938E+04  0.11793500939E+04  0.50400001928E-02 0.  1.
       -1   -1    0    0    0  501  0.00000000000E+00  0.00000000000E+00 -0.33908388080E+04  0.33908388080E+04  0.50400001928E-02 0. -1.
    10030    2    1    2    0    0  0.00000000000E+00  0.00000000000E+00 -0.22114887142E+04  0.45701889019E+04  0.39994930011E+04 0.  0.
        2    1    3    3  502    0 -0.16818740555E+04  0.10767133845E+04 -0.12254492755E+04  0.23430189879E+04  0.25500000920E-02 0. -1.
       -2    1    3    3    0  502  0.16818740555E+04 -0.10767133845E+04 -0.98603943870E+03  0.22271699140E+04  0.25500000920E-02 0.  1.
</event>
<event>
 5   0  0.6538370E-09  0.4001176E+04  0.7818609E-02  0.8004309E-01
        2   -1    0    0  501    0  0.00000000000E+00  0.00000000000E+00  0.13130552092E+04  0.13130552092E+04  0.25500000920E-02 0. -1.
       -2   -1    0    0    0  501  0.00000000000E+00  0.00000000000E+00 -0.30481211640E+04  0.30481211640E+04  0.25500000920E-02 0.  1.
    10030    2    1    2    0    0  0.00000000000E+00  0.00000000000E+00 -0.17350659548E+04  0.43611763731E+04  0.40011755135E+04 0.  0.
        4    1    3    3  502    0 -0.14435001449E+04 -0.32674383555E+03  0.59964442153E+03  0.15968811000E+04  0.12699999809E+01 0. -1.
       -4    1    3    3    0  502  0.14435001449E+04  0.32674383555E+03 -0.23347103763E+04  0.27642952731E+04  0.12699999809E+01 0.  1.
</event>
<event>
 5   0  0.2078125E-09  0.3994953E+04  0.7818609E-02  0.8005565E-01
       -1   -1    0    0    0  501  0.00000000000E+00  0.00000000000E+00  0.16250909103E+04  0.16250909103E+04  0.50400001928E-02 0. -1.
        1   -1    0    0  501    0  0.00000000000E+00  0.00000000000E+00 -0.24551934041E+04  0.24551934041E+04  0.50400001928E-02 0.  1.
    10030    2    1    2    0    0  0.00000000000E+00  0.00000000000E+00 -0.83010249374E+03  0.40802843144E+04  0.39949530581E+04 0.  0.
        5    1    3    3  502    0  0.16578116953E+04 -0.61475724261E+03 -0.13642150646E+04  0.22332422432E+04  0.46999998093E+01 0.  1.
       -5    1    3    3    0  502 -0.16578116953E+04  0.61475724261E+03  0.53411257089E+03  0.18470420712E+04  0.46999998093E+01 0. -1.
</event>
<event>
 5   0  0.2078125E-09  0.4000546E+04  0.7818609E-02  0.8004436E-01
        1   -1    0    0  501    0  0.00000000000E+00  0.00000000000E+00  0.14022237821E+04  0.14022237821E+04  0.50400001928E-02 0. -1.
       -1   -1    0    0    0  501  0.00000000000E+00  0.00000000000E+00 -0.28533899796E+04  0.28533899796E+04  0.50400001928E-02 0.  1.
    10030    2    1    2    0    0  0.00000000000E+00  0.00000000000E+00 -0.14511661976E+04  0.42556137617E+04  0.40005456073E+04 0.  0.
        2    1    3    3  502    0  0.32845732940E+03 -0.17009910839E+04  0.33808822638E+03  0.17650944829E+04  0.25500000920E-02 0. -1.
       -2    1    3    3    0  502 -0.32845732940E+03  0.17009910839E+04 -0.17892544239E+04  0.24905192788E+04  0.25500000920E-02 0.  1.
</event>
<event>
 5   0  0.2078125E-09  0.4000169E+04  0.7818609E-02  0.8004513E-01
       -1   -1    0    0    0  501  0.00000000000E+00  0.00000000000E+00  0.19561113670E+04  0.19561113670E+04  0.50400001928E-02 0.  1.
        1   -1    0    0  501    0  0.00000000000E+00  0.00000000000E+00 -0.20450457679E+04  0.20450457679E+04  0.50400001928E-02 0. -1.
    10030    2    1    2    0    0  0.00000000000E+00  0.00000000000E+00 -0.88934400832E+02  0.40011571349E+04  0.40001686328E+04 0.  0.
        2    1    3    3  502    0  0.14667080814E+02 -0.18711248758E+04  0.66211648663E+03  0.19848732116E+04  0.25500000920E-02 0.  1.
       -2    1    3    3    0  502 -0.14667080814E+02  0.18711248758E+04 -0.75105088747E+03  0.20162839234E+04  0.25500000920E-02 0. -1.
</event>
<event>
 5   0  0.2078125E-09  0.3998743E+04  0.7818609E-02  0.8004800E-01
       -1   -1    0    0    0  501  0.00000000000E+00  0.00000000000E+00  0.19811313331E+04  0.19811313331E+04  0.50400001928E-02 0. -1.
        1   -1    0    0  501    0  0.00000000000E+00  0.00000000000E+00 -0.20177797071E+04  0.20177797071E+04  0.50400001928E-02 0.  1.
    10030    2    1    2    0    0  0.00000000000E+00  0.00000000000E+00 -0.36648373954E+02  0.39989110402E+04  0.39987431031E+04 0.  0.
        3    1    3    3  502    0  0.57701746929E+03 -0.17904133351E+04  0.65916830104E+03  0.19932465803E+04  0.10100000352E+00 0. -1.
       -3    1    3    3    0  502 -0.57701746929E+03  0.17904133351E+04 -0.69581667500E+03  0.20056644599E+04  0.10100000352E+00 0.  1.
</event>
<event>
 5   0  0.2078125E-09  0.3999969E+04  0.7818609E-02  0.8004553E-01
        1   -1    0    0  501    0  0.00000000000E+00  0.00000000000E+00  0.19350985864E+04  0.19350985864E+04  0.50400001928E-02 0. -1.
       -1   -1    0    0    0  501  0.00000000000E+00  0.00000000000E+00 -0.20670464138E+04  0.20670464138E+04  0.50400001928E-02 0.  1.
    10030    2    1    2    0    0  0.00000000000E+00  0.00000000000E+00 -0.13194782746E+03  0.40021450002E+04  0.39999692966E+04 0.  0.
        5    1    3    3  502    0  0.16603837108E+04 -0.74400561018E+02 -0.11790119156E+04  0.20377685584E+04  0.46999998093E+01 0.  1.
       -5    1    3    3    0  502 -0.16603837108E+04  0.74400561018E+02  0.10470640881E+04  0.19643764418E+04  0.46999998093E+01 0. -1.
</event>
<event>
 5   0  0.6547327E-09  0.3993928E+04  0.7818609E-02  0.8005773E-01
        2   -1    0    0  501    0  0.00000000000E+00  0.00000000000E+00  0.23768262709E+04  0.23768262709E+04  0.25500000920E-02 0. -1.
       -2   -1    0    0    0  501  0.00000000000E+00  0.00000000000E+00 -0.16778105978E+04  0.16778105978E+04  0.25500000920E-02 0.  1.
    10030    2    1    2    0    0  0.00000000000E+00  0.00000000000E+00  0.69901567314E+03  0.40546368687E+04  0.39939275438E+04 0.  0.
        5    1    3    3  502    0  0.76847740193E+03  0.85299020226E+03  0.20082634171E+04  0.23132863733E+04  0.46999998093E+01 0. -1.
       -5    1    3    3    0  502 -0.76847740193E+03 -0.85299020226E+03 -0.13092477440E+04  0.17413504953E+04  0.46999998093E+01 0.  1.
</event>
<event>
 5   0  0.2078125E-09  0.4000529E+04  0.7818609E-02  0.8004440E-01
        1   -1    0    0  501    0  0.00000000000E+00  0.00000000000E+00  0.25698414617E+04  0.25698414617E+04  0.50400001928E-02 0. -1.
       -1   -1    0    0    0  501  0.00000000000E+00  0.00000000000E+00 -0.15569276986E+04  0.15569276986E+04  0.50400001928E-02 0.  1.
    10030    2    1    2    0    0  0.00000000000E+00  0.00000000000E+00  0.10129137631E+04  0.41267691603E+04  0.40005286414E+04 0.  0.
        3    1    3    3  502    0 -0.13416592279E+04 -0.13313776790E+04  0.11816662726E+04  0.22291144425E+04  0.10100000352E+00 0.  1.
       -3    1    3    3    0  502  0.13416592279E+04  0.13313776790E+04 -0.16875250952E+03  0.18976547177E+04  0.10100000352E+00 0. -1.
</event>
<event>
 5   0  0.2078125E-09  0.3998641E+04  0.7818609E-02  0.8004821E-01
        1   -1    0    0  501    0  0.00000000000E+00  0.00000000000E+00  0.19775895429E+04  0.19775895429E+04  0.50400001928E-02 0. -1.
       -1   -1    0    0    0  501  0.00000000000E+00  0.00000000000E+00 -0.20212900359E+04  0.20212900359E+04  0.50400001928E-02 0.  1.
    10030    2    1    2    0    0  0.00000000000E+00  0.00000000000E+00 -0.43700492982E+02  0.39988795788E+04  0.39986407882E+04 0.  0.
        5    1    3    3  502    0  0.10434334633E+04 -0.34765017843E+03  0.16478739416E+04  0.19811927358E+04  0.46999998093E+01 0. -1.
       -5    1    3    3    0  502 -0.10434334633E+04  0.34765017843E+03 -0.16915744346E+04  0.20176868430E+04  0.46999998093E+01 0.  1.
</event>
<event>
 5   0  0.2078125E-09  0.3999847E+04  0.7818609E-02  0.8004577E-01
       -1   -1    0    0    0  501  0.00000000000E+00  0.00000000000E+00  0.19847862798E+04  0.19847862798E+04  0.50400001928E-02 0.  1.
        1   -1    0    0  501    0  0.00000000000E+00  0.00000000000E+00 -0.20151764703E+04  0.20151764703E+04  0.50400001928E-02 0. -1.
    10030    2    1    2    0    0  0.00000000000E+00  0.00000000000E+00 -0.30390190564E+02  0.39999627501E+04  0.39998473019E+04 0.  0.
        4    1    3    3  502    0  0.81067229464E+03  0.13580647139E+04  0.12088351923E+04  0.19906816600E+04  0.12699999809E+01 0.  1.
       -4    1    3    3    0  502 -0.81067229464E+03 -0.13580647139E+04 -0.12392253829E+04  0.20092810901E+04  0.12699999809E+01 0. -1.
</event>
<event>
 5   0  0.2078125E-09  0.4000794E+04  0.7818609E-02  0.8004386E-01
        1   -1    0    0  501    0  0.00000000000E+00  0.00000000000E+00  0.22448624787E+04  0.22448624787E+04  0.50400001928E-02 0.  1.
       -1   -1    0    0    0  501  0.00000000000E+00  0.00000000000E+00 -0.17825534219E+04  0.17825534219E+04  0.50400001928E-02 0. -1.
    10030    2    1    2    0    0  0.00000000000E+00  0.00000000000E+00  0.46230905679E+03  0.40274159006E+04  0.40007935678E+04 0.  0.
        2    1    3    3  502    0  0.11419185170E+04  0.14119091132E+04 -0.61354900204E+03  0.19167440156E+04  0.25500000920E-02 0. -1.
       -2    1    3    3    0  502 -0.11419185170E+04 -0.14119091132E+04  0.10758580588E+04  0.21106718850E+04  0.25500000920E-02 0.  1.
</event>
<event>
 5   0  0.6599276E-09  0.3999855E+04  0.7818609E-02  0.8004576E-01
        2   -1    0    0  501    0  0.00000000000E+00  0.00000000000E+00  0.22316918595E+04  0.22316918595E+04  0.25500000920E-02 0. -1.
       -2   -1    0    0    0  501  0.00000000000E+00  0.00000000000E+00 -0.17922318070E+04  0.17922318070E+04  0.25500000920E-02 0.  1.
    10030    2    1    2    0    0  0.00000000000E+00  0.00000000000E+00  0.43946005248E+03  0.40239236665E+04  0.39998545643E+04 0.  0.
        2    1    3    3  502    0  0.32236786140E+03 -0.49743800196E+03 -0.17018275218E+04  0.18021050241E+04  0.25500000920E-02 0.  1.
       -2    1    3    3    0  502 -0.32236786140E+03  0.49743800196E+03  0.21412875743E+04  0.22218186424E+04  0.25500000920E-02 0. -1.
</event>
<event>
 5   0  0.6645526E-09  0.3999880E+04  0.7818609E-02  0.8004571E-01
       -2   -1    0    0    0  501  0.00000000000E+00  0.00000000000E+00  0.17347314750E+04  0.17347314750E+04  0.25500000920E-02 0. -1.
        2   -1    0    0  501    0  0.00000000000E+00  0.00000000000E+00 -0.23056945381E+04  0.23056945381E+04  0.25500000920E-02 0.  1.
    10030    2    1    2    0    0  0.00000000000E+00  0.00000000000E+00 -0.57096306312E+03  0.40404260132E+04  0.39998804418E+04 0.  0.
        3    1    3    3  502    0  0.15923909656E+04  0.11455796810E+04 -0.67891529527E+03  0.20758101506E+04  0.10100000352E+00 0.  1.
       -3    1    3    3    0  502 -0.15923909656E+04 -0.11455796810E+04  0.10795223215E+03  0.19646158626E+04  0.10100000352E+00 0. -1.
</event>
<event>
 5   0  0.6538370E-09  0.3992045E+04  0.7818609E-02  0.8006153E-01
        2   -1    0    0  501    0  0.00000000000E+00  0.00000000000E+00  0.21825491035E+04  0.21825491035E+04  0.25500000920E-02 0. -1.
       -2   -1    0    0    0  501  0.00000000000E+00  0.00000000000E+00 -0.18254369448E+04  0.18254369448E+04  0.25500000920E-02 0.  1.
    10030    2    1    2    0    0  0.00000000000E+00  0.00000000000E+00  0.35711215875E+03  0.40079860483E+04  0.39920449734E+04 0.  0.
        4    1    3    3  502    0  0.12809756249E+04  0.11474496537E+04  0.11957973700E+04  0.20946293759E+04  0.12699999809E+01 0. -1.
       -4    1    3    3    0  502 -0.12809756249E+04 -0.11474496537E+04 -0.83868521128E+03  0.19133566724E+04  0.12699999809E+01 0.  1.
</event>
<event>
 5   0  0.2078125E-09  0.4001723E+04  0.7818609E-02  0.8004199E-01
        1   -1    0    0  501    0  0.00000000000E+00  0.00000000000E+00  0.22302872278E+04  0.22302872278E+04  0.50400001928E-02 0. -1.
       -1   -1    0    0    0  501  0.00000000000E+00  0.00000000000E+00 -0.17950364366E+04  0.17950364366E+04  0.50400001928E-02 0.  1.
    10030    2    1    2    0    0  0.00000000000E+00  0.00000000000E+00  0.43525079118E+03  0.40253236645E+04  0.40017230479E+04 0.  0.
        5    1    3    3  502    0 -0.17576596574E+04  0.94038110001E+03  0.39109728336E+03  0.20314190261E+04  0.46999998093E+01 0.  1.
       -5    1    3    3    0  502  0.17576596574E+04 -0.94038110001E+03  0.44153507824E+02  0.19939046383E+04  0.46999998093E+01 0. -1.
</event>
<event>
 5   0  0.6736335E-09  0.4007056E+04  0.7818609E-02  0.8003125E-01
       -2   -1    0    0    0  501  0.00000000000E+00  0.00000000000E+00  0.17515825224E+04  0.17515825224E+04  0.25500000920E-02 0.  1.
        2   -1    0    0  501    0  0.00000000000E+00  0.00000000000E+00 -0.22917126511E+04  0.22917126511E+04  0.25500000920E-02 0. -1.
    10030    2    1    2    0    0  0.00000000000E+00  0.00000000000E+00 -0.54013012870E+03  0.40432951735E+04  0.40070556902E+04 0.  0.
        1    1    3    3  502    0  0.70245637661E+02  0.30401914051E+03 -0.22670447449E+04  0.22884173489E+04  0.50400001928E-02 0. -1.
       -1    1    3    3    0  502 -0.70245637661E+02 -0.30401914051E+03  0.17269146162E+04  0.17548778246E+04  0.50400001928E-02 0.  1.
</event>
<event>
 5   0  0.6547327E-09  0.4001115E+04  0.7818609E-02  0.8004322E-01
       -2   -1    0    0    0  501  0.00000000000E+00  0.00000000000E+00  0.24871467697E+04  0.24871467697E+04  0.25500000920E-02 0.  1.
        2   -1    0    0  501    0  0.00000000000E+00  0.00000000000E+00 -0.16091656995E+04  0.16091656995E+04  0.25500000920E-02 0. -1.
    10030    2    1    2    0    0  0.00000000000E+00  0.00000000000E+00  0.87798107018E+03  0.40963124691E+04  0.40011154801E+04 0.  0.
        5    1    3    3  502    0 -0.15249903301E+04 -0.85479275832E+03 -0.55674608302E+03  0.18347355280E+04  0.46999998093E+01 0. -1.
       -5    1    3    3    0  502  0.15249903301E+04  0.85479275832E+03  0.14347271532E+04  0.22615769412E+04  0.46999998093E+01 0.  1.
</event>
<event>
 5   0  0.2078125E-09  0.3996184E+04  0.7818609E-02  0.8005317E-01
       -1   -1    0    0    0  501  0.00000000000E+00  0.00000000000E+00  0.16146516444E+04  0.16146516444E+04  0.50400001928E-02 0.  1.
        1   -1    0    0  501    0  0.00000000000E+00  0.00000000000E+00 -0.24725900936E+04  0.24725900936E+04  0.50400001928E-02 0. -1.
    10030    2    1    2    0    0  0.00000000000E+00  0.00000000000E+00 -0.85793844924E+03  0.40872417380E+04  0.39961840100E+04 0.  0.
        4    1    3    3  502    0  0.99375348289E+03  0.17272476628E+04 -0.57872822183E+03  0.20750562501E+04  0.12699999809E+01 0. -1.
       -4    1    3    3    0  502 -0.99375348289E+03 -0.17272476628E+04 -0.27921022741E+03  0.20121854879E+04  0.12699999809E+01 0.  1.
</event>
<event>
 5   0  0.2078125E-09  0.3999325E+04  0.7818609E-02  0.8004683E-01
        1   -1    0    0  501    0  0.00000000000E+00  0.00000000000E+00  0.28363371241E+04  0.28363371241E+04  0.50400001928E-02 0. -1.
       -1   -1    0    0    0  501  0.00000000000E+00  0.00000000000E+00 -0.14097939713E+04  0.14097939713E+04  0.50400001928E-02 0.  1.
    10030    2    1    2    0    0  0.00000000000E+00  0.00000000000E+00  0.14265431528E+04  0.42461310954E+04  0.39993254322E+04 0.  0.
        2    1    3    3  502    0 -0.25963743716E+03  0.17955389487E+04  0.16061701231E+04  0.24230464666E+04  0.25500000920E-02 0. -1.
       -2    1    3    3    0  502  0.25963743716E+03 -0.17955389487E+04 -0.17962697030E+03  0.18230846288E+04  0.25500000920E-02 0.  1.
</event>
<event>
 5   0  0.2078125E-09  0.3998441E+04  0.7818609E-02  0.8004861E-01
        1   -1    0    0  501    0  0.00000000000E+00  0.00000000000E+00  0.24156389059E+04  0.24156389059E+04  0.50400001928E-02 0. -1.
       -1   -1    0    0    0  501  0.00000000000E+00  0.00000000000E+00 -0.16545861753E+04  0.16545861753E+04  0.50400001928E-02 0.  1.
    10030    2    1    2    0    0  0.00000000000E+00  0.00000000000E+00  0.76105273065E+03  0.40702250812E+04  0.39984410653E+04 0.  0.
        2    1    3    3  502    0  0.69190832737E+03  0.19573977170E+03  0.22794471033E+04  0.23901736943E+04  0.25500000920E-02 0. -1.
       -2    1    3    3    0  502 -0.69190832737E+03 -0.19573977170E+03 -0.15183943727E+04  0.16800513869E+04  0.25500000920E-02 0.  1.
</event>
<event>
 5   0  0.2078125E-09  0.3999226E+04  0.7818609E-02  0.8004703E-01
        1   -1    0    0  501    0  0.00000000000E+00  0.00000000000E+00  0.27871964060E+04  0.27871964060E+04  0.50400001928E-02 0. -1.
       -1   -1    0    0    0  501  0.00000000000E+00  0.00000000000E+00 -0.14345786281E+04  0.14345786281E+04  0.50400001928E-02 0.  1.
    10030    2    1    2    0    0  0.00000000000E+00  0.00000000000E+00  0.13526177779E+04  0.42217750341E+04  0.39992261234E+04 0.  0.
        5    1    3    3  502    0  0.17441555034E+04  0.47374102025E+03 -0.22682331607E+03  0.18215322894E+04  0.46999998093E+01 0.  1.
       -5    1    3    3    0  502 -0.17441555034E+04 -0.47374102025E+03  0.15794410940E+04  0.24002427448E+04  0.46999998093E+01 0. -1.
</event>
<event>
 5   0  0.2078125E-09  0.4001240E+04  0.7818609E-02  0.8004297E-01
        1   -1    0    0  501    0  0.00000000000E+00  0.00000000000E+00  0.11383327948E+04  0.11383327948E+04  0.50400001928E-02 0.  1.
       -1   -1    0    0    0  501  0.00000000000E+00  0.00000000000E+00 -0.35160892414E+04  0.35160892414E+04  0.50400001928E-02 0. -1.
    10030    2    1    2    0    0  0.00000000000E+00  0.00000000000E+00 -0.23777564466E+04  0.46544220361E+04  0.40012396543E+04 0.  0.
        2    1    3    3  502    0 -0.92749686186E+03 -0.89846304885E+02 -0.32482348578E+04  0.33792532428E+04  0.25500000920E-02 0. -1.
       -2    1    3    3    0  502  0.92749686186E+03  0.89846304885E+02  0.87047841118E+03  0.12751687934E+04  0.25500000920E-02 0.  1.
</event>
<event>
 5   0  0.6599276E-09  0.3998732E+04  0.7818609E-02  0.8004802E-01
       -2   -1    0    0    0  501  0.00000000000E+00  0.00000000000E+00  0.13804306361E+04  0.13804306361E+04  0.25500000920E-02 0. -1.
        2   -1    0    0  501    0  0.00000000000E+00  0.00000000000E+00 -0.28958094694E+04  0.28958094694E+04  0.25500000920E-02 0.  1.
    10030    2    1    2    0    0  0.00000000000E+00  0.00000000000E+00 -0.15153788333E+04  0.42762401054E+04  0.39987318528E+04 0.  0.
        2    1    3    3  502    0  0.38150506291E+03  0.11670047934E+03  0.13374320234E+04  0.13956681311E+04  0.25500000920E-02 0. -1.
       -2    1    3    3    0  502 -0.38150506291E+03 -0.11670047934E+03 -0.28528108567E+04  0.28805719743E+04  0.25500000920E-02 0.  1.
</event>
<event>
 5   0  0.6599276E-09  0.3974658E+04  0.7818609E-02  0.8009678E-01
        2   -1    0    0  501    0  0.00000000000E+00  0.00000000000E+00  0.21454069117E+04  0.21454069117E+04  0.25500000920E-02 0. -1.
       -2   -1    0    0    0  501  0.00000000000E+00  0.00000000000E+00 -0.18408983587E+04  0.18408983587E+04  0.25500000920E-02 0.  1.
    10030    2    1    2    0    0  0.00000000000E+00  0.00000000000E+00  0.30450855297E+03  0.39863052704E+04  0.39746577526E+04 0.  0.
        2    1    3    3  502    0 -0.90321732061E+02  0.78859055634E+03 -0.16750186590E+04  0.18535696882E+04  0.25500000920E-02 0.  1.
       -2    1    3    3    0  502  0.90321732061E+02 -0.78859055634E+03  0.19795272120E+04  0.21327355822E+04  0.25500000920E-02 0. -1.
</event>
<event>
 5   0  0.6645526E-09  0.3999595E+04  0.7818609E-02  0.8004628E-01
        2   -1    0    0  501    0  0.00000000000E+00  0.00000000000E+00  0.24193982038E+04  0.24193982038E+04  0.25500000920E-02 0.  1.
       -2   -1    0    0    0  501  0.00000000000E+00  0.00000000000E+00 -0.16529687652E+04  0.16529687652E+04  0.25500000920E-02 0. -1.
    10030    2    1    2    0    0  0.00000000000E+00  0.00000000000E+00  0.76642943859E+03  0.40723669690E+04  0.39995948102E+04 0.  0.
        3    1    3    3  502    0  0.15639273997E+04 -0.12197586155E+04  0.12260921658E+03  0.19871368905E+04  0.10100000352E+00 0. -1.
       -3    1    3    3    0  502 -0.15639273997E+04  0.12197586155E+04  0.64382022201E+03  0.20852300784E+04  0.10100000352E+00 0.  1.
</event>
<event>
 5   0  0.2078125E-09  0.3999670E+04  0.7818609E-02  0.8004613E-01
       -1   -1    0    0    0  501  0.00000000000E+00  0.00000000000E+00  0.15887125738E+04  0.15887125738E+04  0.50400001928E-02 0. -1.
        1   -1    0    0  501    0  0.00000000000E+00  0.00000000000E+00 -0.25173471057E+04  0.25173471057E+04  0.50400001928E-02 0.  1.
    10030    2    1    2    0    0  0.00000000000E+00  0.00000000000E+00 -0.92863453188E+03  0.41060596795E+04  0.39996704862E+04 0.  0.
        1    1    3    3  502    0 -0.85708187012E+03  0.34461107132E+03 -0.22851919149E+04  0.24648424312E+04  0.50400001928E-02 0.  1.
       -1    1    3    3    0  502  0.85708187012E+03 -0.34461107132E+03  0.13565573831E+04  0.16412172483E+04  0.50400001928E-02 0. -1.
</event>
<event>
 5   0  0.2078125E-09  0.4000884E+04  0.7818609E-02  0.8004368E-01
        1   -1    0    0  501    0  0.00000000000E+00  0.00000000000E+00  0.22299399410E+04  0.22299399410E+04  0.50400001928E-02 0. -1.
       -1   -1    0    0    0  501  0.00000000000E+00  0.00000000000E+00 -0.17945633821E+04  0.17945633822E+04  0.50400001928E-02 0.  1.
    10030    2    1    2    0    0  0.00000000000E+00  0.00000000000E+00  0.43537655881E+03  0.40245033231E+04  0.40008841835E+04 0.  0.
        2    1    3    3  502    0  0.18606862680E+04 -0.15295113535E+03  0.94041514179E+03  0.20904372932E+04  0.25500000920E-02 0. -1.
       -2    1    3    3    0  502 -0.18606862680E+04  0.15295113535E+03 -0.50503858298E+03  0.19340660299E+04  0.25500000920E-02 0.  1.
</event>
<event>
 5   0  0.2078125E-09  0.3998334E+04  0.7818609E-02  0.8004883E-01
        1   -1    0    0  501    0  0.00000000000E+00  0.00000000000E+00  0.13100263254E+04  0.13100263254E+04  0.50400001928E-02 0. -1.
       -1   -1    0    0    0  501  0.00000000000E+00  0.00000000000E+00 -0.30508314937E+04  0.30508314937E+04  0.50400001928E-02 0.  1.
    10030    2    1    2    0    0  0.00000000000E+00  0.00000000000E+00 -0.17408051683E+04  0.43608578191E+04  0.39983344387E+04 0.  0.
        2    1    3    3  502    0 -0.20842798766E+03 -0.47438775381E+03 -0.29763205792E+04  0.30210875785E+04  0.25500000920E-02 0.  1.
       -2    1    3    3    0  502  0.20842798766E+03  0.47438775381E+03  0.12355154108E+04  0.13397702405E+04  0.25500000920E-02 0. -1.
</event>
<event>
 5   0  0.6645526E-09  0.4003623E+04  0.7818609E-02  0.8003816E-01
       -2   -1    0    0    0  501  0.00000000000E+00  0.00000000000E+00  0.21482018339E+04  0.21482018339E+04  0.25500000920E-02 0.  1.
        2   -1    0    0  501    0  0.00000000000E+00  0.00000000000E+00 -0.18653968651E+04  0.18653968651E+04  0.25500000920E-02 0. -1.
    10030    2    1    2    0    0  0.00000000000E+00  0.00000000000E+00  0.28280496878E+03  0.40135986991E+04  0.40036228427E+04 0.  0.
        3    1    3    3  502    0 -0.70966249235E+03  0.14897414876E+04  0.12774951605E+04  0.20868503656E+04  0.10100000352E+00 0.  1.
       -3    1    3    3    0  502  0.70966249235E+03 -0.14897414876E+04 -0.99469019173E+03  0.19267483335E+04  0.10100000352E+00 0. -1.
</event>
<event>
 5   0  0.6599276E-09  0.4002046E+04  0.7818609E-02  0.8004134E-01
       -2   -1    0    0    0  501  0.00000000000E+00  0.00000000000E+00  0.15917937106E+04  0.15917937106E+04  0.25500000920E-02 0. -1.
        2   -1    0    0  501    0  0.00000000000E+00  0.00000000000E+00 -0.25154593668E+04  0.25154593668E+04  0.25500000920E-02 0.  1.
    10030    2    1    2    0    0  0.00000000000E+00  0.00000000000E+00 -0.92366565618E+03  0.41072530774E+04  0.40020456766E+04 0.  0.
        2    1    3    3  502    0  0.43362096356E+03 -0.18171571803E+04  0.27395586874E+03  0.18881576142E+04  0.25500000920E-02 0. -1.
       -2    1    3    3    0  502 -0.43362096356E+03  0.18171571803E+04 -0.11976215249E+04  0.22190954632E+04  0.25500000920E-02 0.  1.
</event>
<event>
 5   0  0.6599276E-09  0.3998936E+04  0.7818609E-02  0.8004761E-01
       -2   -1    0    0    0  501  0.00000000000E+00  0.00000000000E+00  0.23571019660E+04  0.23571019660E+04  0.25500000920E-02 0.  1.
        2   -1    0    0  501    0  0.00000000000E+00  0.00000000000E+00 -0.16960966432E+04  0.16960966432E+04  0.25500000920E-02 0. -1.
    10030    2    1    2    0    0  0.00000000000E+00  0.00000000000E+00  0.66100532278E+03  0.40531986091E+04  0.39989362246E+04 0.  0.
        2    1    3    3  502    0 -0.12361861855E+04  0.94638510558E+03  0.16021469922E+04  0.22339821033E+04  0.25500000920E-02 0.  1.
       -2    1    3    3    0  502  0.12361861855E+04 -0.94638510558E+03 -0.94114166939E+03  0.18192165058E+04  0.25500000920E-02 0. -1.
</event>
<event>
 5   0  0.2078125E-09  0.3992735E+04  0.7818609E-02  0.8006014E-01
        1   -1    0    0  501    0  0.00000000000E+00  0.00000000000E+00  0.15055572351E+04  0.15055572351E+04  0.50400001928E-02 0. -1.
       -1   -1    0    0    0  501  0.00000000000E+00  0.00000000000E+00 -0.26471813624E+04  0.26471813624E+04  0.50400001928E-02 0.  1.
    10030    2    1    2    0    0  0.00000000000E+00  0.00000000000E+00 -0.11416241274E+04  0.41527385975E+04  0.39927349287E+04 0.  0.
        4    1    3    3  502    0  0.32734680799E+03 -0.10765795461E+04 -0.22859254457E+04  0.25478689542E+04  0.12699999809E+01 0.  1.
       -4    1    3    3    0  502 -0.32734680799E+03  0.10765795461E+04  0.11443013183E+04  0.16048696433E+04  0.12699999809E+01 0. -1.
</event>
<event>
 5   0  0.6736335E-09  0.4001053E+04  0.7818609E-02  0.8004334E-01
       -2   -1    0    0    0  501  0.00000000000E+00  0.00000000000E+00  0.21558982961E+04  0.21558982961E+04  0.25500000920E-02 0.  1.
        2   -1    0    0  501    0  0.00000000000E+00  0.00000000000E+00 -0.18563516148E+04  0.18563516148E+04  0.25500000920E-02 0. -1.
    10030    2    1    2    0    0  0.00000000000E+00  0.00000000000E+00  0.29954668130E+03  0.40122499109E+04  0.40010525031E+04 0.  0.
        1    1    3    3  502    0 -0.98773018244E+03 -0.46462799292E+03  0.18309541383E+04  0.21316386048E+04  0.50400001928E-02 0.  1.
       -1    1    3    3    0  502  0.98773018244E+03  0.46462799292E+03 -0.15314074570E+04  0.18806113060E+04  0.50400001928E-02 0. -1.
</event>
<event>
 5   0  0.6645526E-09  0.3997390E+04  0.7818609E-02  0.8005073E-01
        2   -1    0    0  501    0  0.00000000000E+00  0.00000000000E+00  0.14633267572E+04  0.14633267572E+04  0.25500000920E-02 0. -1.
       -2   -1    0    0    0  501  0.00000000000E+00  0.00000000000E+00 -0.27299313860E+04  0.27299313860E+04  0.25500000920E-02 0.  1.
    10030    2    1    2    0    0  0.00000000000E+00  0.00000000000E+00 -0.12666046288E+04  0.41932581431E+04  0.39973899696E+04 0.  0.
        3    1    3    3  502    0  0.41174777092E+03  0.11498691577E+04 -0.22929256181E+04  0.25979305624E+04  0.10100000352E+00 0.  1.
       -3    1    3    3    0  502 -0.41174777092E+03 -0.11498691577E+04  0.10263209893E+04  0.15953275808E+04  0.10100000352E+00 0. -1.
</event>
<event>
 5   0  0.2078125E-09  0.4000293E+04  0.7818609E-02  0.8004487E-01
        1   -1    0    0  501    0  0.00000000000E+00  0.00000000000E+00  0.13848516482E+04  0.13848516482E+04  0.50400001928E-02 0.  1.
       -1   -1    0    0    0  501  0.00000000000E+00  0.00000000000E+00 -0.28888192385E+04  0.28888192385E+04  0.50400001928E-02 0. -1.
    10030    2    1    2    0    0  0.00000000000E+00  0.00000000000E+00 -0.15039675903E+04  0.42736708867E+04  0.40002930312E+04 0.  0.
        2    1    3    3  502    0 -0.37068248380E+03  0.25113719837E+03 -0.28345911225E+04  0.28697355676E+04  0.25500000920E-02 0. -1.
       -2    1    3    3    0  502  0.37068248380E+03 -0.25113719837E+03  0.13306235321E+04  0.14039353192E+04  0.25500000920E-02 0.  1.
</event>
<event>
 5   0  0.6645526E-09  0.4001225E+04  0.7818609E-02  0.8004299E-01
       -2   -1    0    0    0  501  0.00000000000E+00  0.00000000000E+00  0.15567173825E+04  0.15567173825E+04  0.25500000920E-02 0. -1.
        2   -1    0    0  501    0  0.00000000000E+00  0.00000000000E+00 -0.25710836718E+04  0.25710836718E+04  0.25500000920E-02 0.  1.
    10030    2    1    2    0    0  0.00000000000E+00  0.00000000000E+00 -0.10143662893E+04  0.41278010544E+04  0.40012251343E+04 0.  0.
        3    1    3    3  502    0 -0.27603772089E+03  0.12749382573E+04  0.10576351182E+04  0.16793619136E+04  0.10100000352E+00 0. -1.
       -3    1    3    3    0  502  0.27603772089E+03 -0.12749382573E+04 -0.20720014075E+04  0.24484391408E+04  0.10100000352E+00 0.  1.
</event>
<event>
 5   0  0.6599276E-09  0.4003554E+04  0.7818609E-02  0.8003830E-01
       -2   -1    0    0    0  501  0.00000000000E+00  0.00000000000E+00  0.27184709033E+04  0.27184709033E+04  0.25500000920E-02 0.  1.
        2   -1    0    0  501    0  0.00000000000E+00  0.00000000000E+00 -0.14740310904E+04  0.14740310905E+04  0.25500000920E-02 0. -1.
    10030    2    1    2    0    0  0.00000000000E+00  0.00000000000E+00  0.12444398128E+04  0.41925019937E+04  0.40035537363E+04 0.  0.
        2    1    3    3  502    0  0.17407162956E+04 -0.71226334684E+03  0.13399102866E+04  0.23092795139E+04  0.25500000920E-02 0.  1.
       -2    1    3    3    0  502 -0.17407162956E+04  0.71226334684E+03 -0.95470473753E+02  0.18832224798E+04  0.25500000920E-02 0. -1.
</event>
<event>
 5   0  0.6645526E-09  0.4008476E+04  0.7818609E-02  0.8002839E-01
        2   -1    0    0  501    0  0.00000000000E+00  0.00000000000E+00  0.20549560576E+04  0.20549560576E+04  0.25500000920E-02 0. -1.
       -2   -1    0    0    0  501  0.00000000000E+00  0.00000000000E+00 -0.19547721907E+04  0.19547721907E+04  0.25500000920E-02 0.  1.
    10030    2    1    2    0    0  0.00000000000E+00  0.00000000000E+00  0.10018386689E+03  0.40097282482E+04  0.40084764958E+04 0.  0.
        3    1    3    3  502    0  0.16511879625E+04  0.10294058285E+04 -0.43055046142E+03  0.19928551772E+04  0.10100000352E+00 0.  1.
       -3    1    3    3    0  502 -0.16511879625E+04 -0.10294058285E+04  0.53073432831E+03  0.20168730710E+04  0.10100000352E+00 0. -1.
</event>
<event>
 5   0  0.2078125E-09  0.4000646E+04  0.7818609E-02  0.8004416E-01
        1   -1    0    0  501    0  0.00000000000E+00  0.00000000000E+00  0.26588059483E+04  0.26588059483E+04  0.50400001928E-02 0. -1.
       -1   -1    0    0    0  501  0.00000000000E+00  0.00000000000E+00 -0.15049206995E+04  0.15049206995E+04  0.50400001928E-02 0.  1.
    10030    2    1    2    0    0  0.00000000000E+00  0.00000000000E+00  0.11538852489E+04  0.41637266478E+04  0.40006460016E+04 0.  0.
        5    1    3    3  502    0 -0.13918757334E+04 -0.14356162112E+04  0.63354767255E+03  0.20975501678E+04  0.46999998093E+01 0.  1.
       -5    1    3    3    0  502  0.13918757334E+04  0.14356162112E+04  0.52033757630E+03  0.20661764800E+04  0.46999998093E+01 0. -1.
</event>
<event>
 5   0  0.2078125E-09  0.4003824E+04  0.7818609E-02  0.8003775E-01
        3   -1    0    0  501    0  0.00000000000E+00  0.00000000000E+00  0.21674500618E+04  0.21674500641E+04  0.10100000352E+00 0. -1.
       -3   -1    0    0    0  501  0.00000000000E+00  0.00000000000E+00 -0.18490172658E+04  0.18490172686E+04  0.10100000352E+00 0.  1.
    10030    2    1    2    0    0  0.00000000000E+00  0.00000000000E+00  0.31843279593E+03  0.40164673327E+04  0.40038244703E+04 0.  0.
        1    1    3    3  502    0  0.81933134054E+03  0.79275604907E+03 -0.14915455372E+04  0.18773582739E+04  0.50400001928E-02 0.  1.
       -1    1    3    3    0  502 -0.81933134054E+03 -0.79275604907E+03  0.18099783332E+04  0.21391090588E+04  0.50400001928E-02 0. -1.
</event>
<event>
 5   0  0.6736335E-09  0.4003883E+04  0.7818609E-02  0.8003764E-01
       -2   -1    0    0    0  501  0.00000000000E+00  0.00000000000E+00  0.28843949974E+04  0.28843949974E+04  0.25500000920E-02 0.  1.
        2   -1    0    0  501    0  0.00000000000E+00  0.00000000000E+00 -0.13894665142E+04  0.13894665143E+04  0.25500000920E-02 0. -1.
    10030    2    1    2    0    0  0.00000000000E+00  0.00000000000E+00  0.14949284832E+04  0.42738615117E+04  0.40038832464E+04 0.  0.
        1    1    3    3  502    0  0.90268251039E+03 -0.16483047063E+04  0.14839331939E+04  0.23945358305E+04  0.50400001928E-02 0.  1.
       -1    1    3    3    0  502 -0.90268251039E+03  0.16483047063E+04  0.10995289259E+02  0.18793256812E+04  0.50400001928E-02 0. -1.
</event>
<event>
 5   0  0.2078125E-09  0.4000532E+04  0.7818609E-02  0.8004439E-01
        1   -1    0    0  501    0  0.00000000000E+00  0.00000000000E+00  0.15702052541E+04  0.15702052541E+04  0.50400001928E-02 0. -1.
       -1   -1    0    0    0  501  0.00000000000E+00  0.00000000000E+00 -0.25481157865E+04  0.25481157865E+04  0.50400001928E-02 0.  1.
    10030    2    1    2    0    0  0.00000000000E+00  0.00000000000E+00 -0.97791053233E+03  0.41183210406E+04  0.40005323626E+04 0.  0.
        4    1    3    3  502    0  0.12046217533E+04  0.15734121371E+04 -0.20830429896E+03  0.19925189122E+04  0.12699999809E+01 0. -1.
       -4    1    3    3    0  502 -0.12046217533E+04 -0.15734121371E+04 -0.76960623337E+03  0.21258021284E+04  0.12699999809E+01 0.  1.
</event>
<event>
 5   0  0.6599276E-09  0.3999642E+04  0.7818609E-02  0.8004619E-01
       -2   -1    0    0    0  501  0.00000000000E+00  0.00000000000E+00  0.18022093881E+04  0.18022093881E+04  0.25500000920E-02 0. -1.
        2   -1    0    0  501    0  0.00000000000E+00  0.00000000000E+00 -0.22191002757E+04  0.22191002757E+04  0.25500000920E-02 0.  1.
    10030    2    1    2    0    0  0.00000000000E+00  0.00000000000E+00 -0.41689088759E+03  0.40213096637E+04  0.39996416589E+04 0.  0.
        2    1    3    3  502    0 -0.12209381078E+04  0.47813956392E+03  0.13096936930E+04  0.18532687002E+04  0.25500000920E-02 0. -1.
       -2    1    3    3    0  502  0.12209381078E+04 -0.47813956392E+03 -0.17265845806E+04  0.21680409635E+04  0.25500000920E-02 0.  1.
</event>
<event>
 5   0  0.2078125E-09  0.4006556E+04  0.7818609E-02  0.8003225E-01
        1   -1    0    0  501    0  0.00000000000E+00  0.00000000000E+00  0.16950693948E+04  0.16950693949E+04  0.50400001928E-02 0. -1.
       -1   -1    0    0    0  501  0.00000000000E+00  0.00000000000E+00 -0.23675269278E+04  0.23675269278E+04  0.50400001928E-02 0.  1.
    10030    2    1    2    0    0  0.00000000000E+00  0.00000000000E+00 -0.67245753295E+03  0.40625963227E+04  0.40065558460E+04 0.  0.
        1    1    3    3  502    0 -0.16022808030E+04 -0.88903168607E+03  0.48468848185E+03  0.18954165862E+04  0.50400001928E-02 0.  1.
       -1    1    3    3    0  502  0.16022808030E+04  0.88903168607E+03 -0.11571460148E+04  0.21671797365E+04  0.50400001928E-02 0. -1.
</event>
<event>
 5   0  0.6538370E-09  0.4000321E+04  0.7818609E-02  0.8004482E-01
       -2   -1    0    0    0  501  0.00000000000E+00  0.00000000000E+00  0.24001524623E+04  0.24001524623E+04  0.25500000920E-02 0.  1.
        2   -1    0    0  501    0  0.00000000000E+00  0.00000000000E+00 -0.16668279425E+04  0.16668279425E+04  0.25500000920E-02 0. -1.
    10030    2    1    2    0    0  0.00000000000E+00  0.00000000000E+00  0.73332451980E+03  0.40669804048E+04  0.40003205824E+04 0.  0.
        4    1    3    3  502    0 -0.14989695956E+04  0.27347342328E+03 -0.95066940749E+03  0.17959597704E+04  0.12699999809E+01 0. -1.
       -4    1    3    3    0  502  0.14989695956E+04 -0.27347342328E+03  0.16839939273E+04  0.22710206344E+04  0.12699999809E+01 0.  1.
</event>
<event>
 5   0  0.2078125E-09  0.3998880E+04  0.7818609E-02  0.8004773E-01
       -1   -1    0    0    0  501  0.00000000000E+00  0.00000000000E+00  0.15214274803E+04  0.15214274803E+04  0.50400001928E-02 0.  1.
        1   -1    0    0  501    0  0.00000000000E+00  0.00000000000E+00 -0.26276371356E+04  0.26276371356E+04  0.50400001928E-02 0. -1.
    10030    2    1    2    0    0  0.00000000000E+00  0.00000000000E+00 -0.11062096553E+04  0.41490646159E+04  0.39988795163E+04 0.  0.
        4    1    3    3  502    0  0.37517175628E+03 -0.40217287263E+03  0.14413969630E+04  0.15427649477E+04  0.12699999809E+01 0.  1.
       -4    1    3    3    0  502 -0.37517175628E+03  0.40217287263E+03 -0.25476066183E+04  0.26062996682E+04  0.12699999809E+01 0. -1.
</event>
<event>
 5   0  0.6547327E-09  0.3999476E+04  0.7818609E-02  0.8004652E-01
        2   -1    0    0  501    0  0.00000000000E+00  0.00000000000E+00  0.25256581345E+04  0.25256581345E+04  0.25500000920E-02 0.  1.
       -2   -1    0    0    0  501  0.00000000000E+00  0.00000000000E+00 -0.15833306002E+04  0.15833306002E+04  0.25500000920E-02 0. -1.
    10030    2    1    2    0    0  0.00000000000E+00  0.00000000000E+00  0.94232753424E+03  0.41089887347E+04  0.39994758706E+04 0.  0.
        5    1    3    3  502    0 -0.25993744188E+03 -0.17539155718E+04 -0.47889636328E+03  0.18366140377E+04  0.46999998093E+01 0. -1.
       -5    1    3    3    0  502  0.25993744188E+03  0.17539155718E+04  0.14212238975E+04  0.22723746970E+04  0.46999998093E+01 0.  1.
</event>
<event>
 5   0  0.2078125E-09  0.4000129E+04  0.7818609E-02  0.8004520E-01
       -1   -1    0    0    0  501  0.00000000000E+00  0.00000000000E+00  0.16155596638E+04  0.16155596638E+04  0.50400001928E-02 0.  1.
        1   -1    0    0  501    0  0.00000000000E+00  0.00000000000E+00 -0.24760824005E+04  0.24760824005E+04  0.50400001928E-02 0. -1.
    10030    2    1    2    0    0  0.00000000000E+00  0.00000000000E+00 -0.86052273676E+03  0.40916420643E+04  0.40001294231E+04 0.  0.
        4    1    3    3  502    0 -0.10278858315E+04  0.13093327088E+04 -0.15643902002E+04  0.22843422984E+04  0.12699999809E+01 0.  1.
       -4    1    3    3    0  502  0.10278858315E+04 -0.13093327088E+04  0.70386746344E+03  0.18072997659E+04  0.12699999809E+01 0. -1.
</event>
<event>
 5   0  0.2078125E-09  0.3968526E+04  0.7818609E-02  0.8010926E-01
       -1   -1    0    0    0  501  0.00000000000E+00  0.00000000000E+00  0.14931721793E+04  0.14931721794E+04  0.50400001928E-02 0.  1.
        1   -1    0    0  501    0  0.00000000000E+00  0.00000000000E+00 -0.26368696705E+04  0.26368696705E+04  0.50400001928E-02 0. -1.
    10030    2    1    2    0    0  0.00000000000E+00  0.00000000000E+00 -0.11436974911E+04  0.41300418498E+04  0.39685263928E+04 0.  0.
        5    1    3    3  502    0  0.10236191146E+04  0.16751255242E+03  0.11885705491E+04  0.15775229276E+04  0.46999998093E+01 0.  1.
       -5    1    3    3    0  502 -0.10236191146E+04 -0.16751255242E+03 -0.23322680402E+04  0.25525189222E+04  0.46999998093E+01 0. -1.
</event>
<event>
 5   0  0.6736335E-09  0.4000508E+04  0.7818609E-02  0.8004444E-01
       -2   -1    0    0    0  501  0.00000000000E+00  0.00000000000E+00  0.20889256323E+04  0.20889256323E+04  0.25500000920E-02 0. -1.
        2   -1    0    0  501    0  0.00000000000E+00  0.00000000000E+00 -0.19153464425E+04  0.19153464425E+04  0.25500000920E-02 0.  1.
    10030    2    1    2    0    0  0.00000000000E+00  0.00000000000E+00  0.17357918972E+03  0.40042720748E+04  0.40005081070E+04 0.  0.
        1    1    3    3  502    0 -0.14271039675E+04  0.20519413779E+02  0.14895251103E+04  0.20629425185E+04  0.50400001928E-02 0. -1.
       -1    1    3    3    0  502  0.14271039675E+04 -0.20519413779E+02 -0.13159459205E+04  0.19413295563E+04  0.50400001928E-02 0.  1.
</event>
<event>
 5   0  0.2078125E-09  0.3999492E+04  0.7818609E-02  0.8004649E-01
       -1   -1    0    0    0  501  0.00000000000E+00  0.00000000000E+00  0.16153856326E+04  0.16153856326E+04  0.50400001928E-02 0.  1.
        1   -1    0    0  501    0  0.00000000000E+00  0.00000000000E+00 -0.24755606113E+04  0.24755606113E+04  0.50400001928E-02 0. -1.
    10030    2    1    2    0    0  0.00000000000E+00  0.00000000000E+00 -0.86017497863E+03  0.40909462439E+04  0.39994924899E+04 0.  0.
        5    1    3    3  502    0  0.77370287976E+03  0.18124203319E+04 -0.82494466936E+02  0.19723871407E+04  0.46999998093E+01 0. -1.
       -5    1    3    3    0  502 -0.77370287976E+03 -0.18124203319E+04 -0.77768051169E+03  0.21185591032E+04  0.46999998093E+01 0.  1.
</event>
<event>
 5   0  0.6736335E-09  0.3999470E+04  0.7818609E-02  0.8004653E-01
       -2   -1    0    0    0  501  0.00000000000E+00  0.00000000000E+00  0.29103241630E+04  0.29103241630E+04  0.25500000920E-02 0. -1.
        2   -1    0    0  501    0  0.00000000000E+00  0.00000000000E+00 -0.13740531458E+04  0.13740531458E+04  0.25500000920E-02 0.  1.
    10030    2    1    2    0    0  0.00000000000E+00  0.00000000000E+00  0.15362710172E+04  0.42843773088E+04  0.39994700006E+04 0.  0.
        1    1    3    3  502    0  0.28592408063E+03 -0.31242190302E+02  0.28880499410E+04  0.29023371816E+04  0.50400001928E-02 0. -1.
       -1    1    3    3    0  502 -0.28592408063E+03  0.31242190302E+02 -0.13517789238E+04  0.13820401272E+04  0.50400001928E-02 0.  1.
</event>
<event>
 5   0  0.2078125E-09  0.3995259E+04  0.7818609E-02  0.8005504E-01
       -1   -1    0    0    0  501  0.00000000000E+00  0.00000000000E+00  0.18092533010E+04  0.18092533010E+04  0.50400001928E-02 0.  1.
        1   -1    0    0  501    0  0.00000000000E+00  0.00000000000E+00 -0.22056194513E+04  0.22056194513E+04  0.50400001928E-02 0. -1.
    10030    2    1    2    0    0  0.00000000000E+00  0.00000000000E+00 -0.39636615027E+03  0.40148727523E+04  0.39952593273E+04 0.  0.
        3    1    3    3  502    0 -0.16170937788E+04 -0.28911002887E+03 -0.13404016579E+04  0.21202012906E+04  0.10100000352E+00 0. -1.
       -3    1    3    3    0  502  0.16170937788E+04  0.28911002887E+03  0.94403550760E+03  0.18946714617E+04  0.10100000352E+00 0.  1.
</event>
<event>
 5   0  0.2078125E-09  0.4011468E+04  0.7818609E-02  0.8002237E-01
        1   -1    0    0  501    0  0.00000000000E+00  0.00000000000E+00  0.29165834440E+04  0.29165834440E+04  0.50400001928E-02 0. -1.
       -1   -1    0    0    0  501  0.00000000000E+00  0.00000000000E+00 -0.13793428771E+04  0.13793428771E+04  0.50400001928E-02 0.  1.
    10030    2    1    2    0    0  0.00000000000E+00  0.00000000000E+00  0.15372405669E+04  0.42959263212E+04  0.40114678606E+04 0.  0.
        5    1    3    3  502    0  0.89446243351E+03  0.17941199085E+04  0.83649627858E+03  0.21722516901E+04  0.46999998093E+01 0.  1.
       -5    1    3    3    0  502 -0.89446243351E+03 -0.17941199085E+04  0.70074428833E+03  0.21236746311E+04  0.46999998093E+01 0. -1.
</event>
<event>
 5   0  0.6538370E-09  0.3999265E+04  0.7818609E-02  0.8004695E-01
       -2   -1    0    0    0  501  0.00000000000E+00  0.00000000000E+00  0.18519437245E+04  0.18519437245E+04  0.25500000920E-02 0.  1.
        2   -1    0    0  501    0  0.00000000000E+00  0.00000000000E+00 -0.21590987707E+04  0.21590987707E+04  0.25500000920E-02 0. -1.
    10030    2    1    2    0    0  0.00000000000E+00  0.00000000000E+00 -0.30715504618E+03  0.40110424952E+04  0.39992646419E+04 0.  0.
        4    1    3    3  502    0 -0.21710126025E+03  0.10822633913E+04  0.15186962980E+04  0.18774629327E+04  0.12699999809E+01 0.  1.
       -4    1    3    3    0  502  0.21710126025E+03 -0.10822633913E+04 -0.18258513442E+04  0.21335795624E+04  0.12699999809E+01 0. -1.
</event>
<event>
 5   0  0.6599276E-09  0.4000630E+04  0.7818609E-02  0.8004419E-01
       -2   -1    0    0    0  501  0.00000000000E+00  0.00000000000E+00  0.14954325379E+04  0.14954325379E+04  0.25500000920E-02 0.  1.
        2   -1    0    0  501    0  0.00000000000E+00  0.00000000000E+00 -0.26756543823E+04  0.26756543823E+04  0.25500000920E-02 0. -1.
    10030    2    1    2    0    0  0.00000000000E+00  0.00000000000E+00 -0.11802218445E+04  0.41710869202E+04  0.40006302621E+04 0.  0.
        2    1    3    3  502    0  0.28576443165E+03  0.13079642757E+04  0.95942571500E+03  0.16470973133E+04  0.25500000920E-02 0.  1.
       -2    1    3    3    0  502 -0.28576443165E+03 -0.13079642757E+04 -0.21396475595E+04  0.25239896069E+04  0.25500000920E-02 0. -1.
</event>
<event>
 5   0  0.2078125E-09  0.3998415E+04  0.7818609E-02  0.8004866E-01
        1   -1    0    0  501    0  0.00000000000E+00  0.00000000000E+00  0.27785910716E+04  0.27785910716E+04  0.50400001928E-02 0.  1.
       -1   -1    0    0    0  501  0.00000000000E+00  0.00000000000E+00 -0.14384376455E+04  0.14384376455E+04  0.50400001928E-02 0. -1.
    10030    2    1    2    0    0  0.00000000000E+00  0.00000000000E+00  0.13401534261E+04  0.42170287171E+04  0.39984146853E+04 0.  0.
        1    1    3    3  502    0  0.15379161464E+04  0.12522676874E+04  0.93578278822E+03  0.21929545962E+04  0.50400001928E-02 0.  1.
       -1    1    3    3    0  502 -0.15379161464E+04 -0.12522676874E+04  0.40437063792E+03  0.20240741209E+04  0.50400001928E-02 0. -1.
</event>
<event>
 5   0  0.6547327E-09  0.3998488E+04  0.7818609E-02  0.8004852E-01
        2   -1    0    0  501    0  0.00000000000E+00  0.00000000000E+00  0.24304383471E+04  0.24304383471E+04  0.25500000920E-02 0.  1.
       -2   -1    0    0    0  501  0.00000000000E+00  0.00000000000E+00 -0.16445498503E+04  0.16445498503E+04  0.25500000920E-02 0. -1.
    10030    2    1    2    0    0  0.00000000000E+00  0.00000000000E+00  0.78588849674E+03  0.40749881974E+04  0.39984882243E+04 0.  0.
        5    1    3    3  502    0 -0.10701185265E+04  0.90718283070E+03  0.18445622817E+04  0.23174482627E+04  0.46999998093E+01 0. -1.
       -5    1    3    3    0  502  0.10701185265E+04 -0.90718283070E+03 -0.10586737850E+04  0.17575399347E+04  0.46999998093E+01 0.  1.
</event>
<event>
 5   0  0.2078125E-09  0.3989658E+04  0.7818609E-02  0.8006636E-01
       -1   -1    0    0    0  501  0.00000000000E+00  0.00000000000E+00  0.24473017363E+04  0.24473017363E+04  0.50400001928E-02 0.  1.
        1   -1    0    0  501    0  0.00000000000E+00  0.00000000000E+00 -0.16260122802E+04  0.16260122803E+04  0.50400001928E-02 0. -1.
    10030    2    1    2    0    0  0.00000000000E+00  0.00000000000E+00  0.82128945606E+03  0.40733140166E+04  0.39896579687E+04 0.  0.
        1    1    3    3  502    0  0.43604751827E+03 -0.47803528555E+03  0.23371897226E+04  0.24251001983E+04  0.50400001928E-02 0.  1.
       -1    1    3    3    0  502 -0.43604751827E+03  0.47803528555E+03 -0.15159002666E+04  0.16482138182E+04  0.50400001928E-02 0. -1.
</event>
<event>
 5   0  0.6538370E-09  0.4000032E+04  0.7818609E-02  0.8004540E-01
        2   -1    0    0  501    0  0.00000000000E+00  0.00000000000E+00  0.26540684678E+04  0.26540684678E+04  0.25500000920E-02 0. -1.
       -2   -1    0    0    0  501  0.00000000000E+00  0.00000000000E+00 -0.15071445717E+04  0.15071445717E+04  0.25500000920E-02 0.  1.
    10030    2    1    2    0    0  0.00000000000E+00  0.00000000000E+00  0.11469238961E+04  0.41612130395E+04  0.40000324420E+04 0.  0.
        4    1    3    3  502    0 -0.68779418778E+03 -0.29505006916E+03  0.25029067936E+04  0.26124049109E+04  0.12699999809E+01 0. -1.
       -4    1    3    3    0  502  0.68779418778E+03  0.29505006916E+03 -0.13559828975E+04  0.15488081286E+04  0.12699999809E+01 0.  1.
</event>
<event>
 5   0  0.2078125E-09  0.4004946E+04  0.7818609E-02  0.8003549E-01
        1   -1    0    0  501    0  0.00000000000E+00  0.00000000000E+00  0.22085390649E+04  0.22085390649E+04  0.50400001928E-02 0. -1.
       -1   -1    0    0    0  501  0.00000000000E+00  0.00000000000E+00 -0.18156339881E+04  0.18156339881E+04  0.50400001928E-02 0.  1.
    10030    2    1    2    0    0  0.00000000000E+00  0.00000000000E+00  0.39290507679E+03  0.40241730530E+04  0.40049462370E+04 0.  0.
        2    1    3    3  502    0 -0.13198893870E+04  0.14711833364E+04 -0.12666581012E+03  0.19805384699E+04  0.25500000920E-02 0. -1.
       -2    1    3    3    0  502  0.13198893870E+04 -0.14711833364E+04  0.51957088691E+03  0.20436345832E+04  0.25500000920E-02 0.  1.
</event>
<event>
 5   0  0.2078125E-09  0.3993820E+04  0.7818609E-02  0.8005794E-01
        1   -1    0    0  501    0  0.00000000000E+00  0.00000000000E+00  0.27698763627E+04  0.27698763627E+04  0.50400001928E-02 0. -1.
       -1   -1    0    0    0  501  0.00000000000E+00  0.00000000000E+00 -0.14396487848E+04  0.14396487848E+04  0.50400001928E-02 0.  1.
    10030    2    1    2    0    0  0.00000000000E+00  0.00000000000E+00  0.13302275778E+04  0.42095251475E+04  0.39938197955E+04 0.  0.
        2    1    3    3  502    0 -0.79476786919E+03 -0.57951053799E+03  0.24968362454E+04  0.26835945420E+04  0.25500000920E-02 0. -1.
       -2    1    3    3    0  502  0.79476786919E+03  0.57951053799E+03 -0.11666086676E+04  0.15259306055E+04  0.25500000920E-02 0.  1.
</event>
<event>
 5   0  0.6599276E-09  0.3998024E+04  0.7818609E-02  0.8004945E-01
        2   -1    0    0  501    0  0.00000000000E+00  0.00000000000E+00  0.30408788719E+04  0.30408788719E+04  0.25500000920E-02 0.  1.
       -2   -1    0    0    0  501  0.00000000000E+00  0.00000000000E+00 -0.13141101721E+04  0.13141101721E+04  0.25500000920E-02 0. -1.
    10030    2    1    2    0    0  0.00000000000E+00  0.00000000000E+00  0.17267686998E+04  0.43549890440E+04  0.39980244410E+04 0.  0.
        2    1    3    3  502    0 -0.79358100964E+03 -0.15272350678E+04  0.19709427251E+04  0.26166453709E+04  0.25500000920E-02 0.  1.
       -2    1    3    3    0  502  0.79358100964E+03  0.15272350678E+04 -0.24417402533E+03  0.17383436731E+04  0.25500000920E-02 0. -1.
</event>
<event>
 5   0  0.2078125E-09  0.3996451E+04  0.7818609E-02  0.8005263E-01
        3   -1    0    0  501    0  0.00000000000E+00  0.00000000000E+00  0.21224065346E+04  0.21224065370E+04  0.10100000352E+00 0.  1.
       -3   -1    0    0    0  501  0.00000000000E+00  0.00000000000E+00 -0.18813099948E+04  0.18813099975E+04  0.10100000352E+00 0. -1.
    10030    2    1    2    0    0  0.00000000000E+00  0.00000000000E+00  0.24109653977E+03  0.40037165345E+04  0.39964507438E+04 0.  0.
        5    1    3    3  502    0 -0.42092132878E+03  0.14260438755E+04 -0.12168344331E+04  0.19213235093E+04  0.46999998093E+01 0. -1.
       -5    1    3    3    0  502  0.42092132878E+03 -0.14260438755E+04  0.14579309729E+04  0.20823930252E+04  0.46999998093E+01 0.  1.
</event>
<event>
 5   0  0.2078125E-09  0.4000818E+04  0.7818609E-02  0.8004381E-01
       -1   -1    0    0    0  501  0.00000000000E+00  0.00000000000E+00  0.20476961289E+04  0.20476961289E+04  0.50400001928E-02 0. -1.
        1   -1    0    0  501    0  0.00000000000E+00  0.00000000000E+00 -0.19542142355E+04  0.19542142355E+04  0.50400001928E-02 0.  1.
    10030    2    1    2    0    0  0.00000000000E+00  0.00000000000E+00  0.93481893420E+02  0.40019103644E+04  0.40008183788E+04 0.  0.
        1    1    3    3  502    0 -0.53036549423E+03 -0.12553911784E+03 -0.18785153580E+04  0.19559825096E+04  0.50400001928E-02 0.  1.
       -1    1    3    3    0  502  0.53036549423E+03  0.12553911784E+03  0.19719972514E+04  0.20459278548E+04  0.50400001928E-02 0. -1.
</event>
<event>
 5   0  0.2078125E-09  0.3995220E+04  0.7818609E-02  0.8005511E-01
       -1   -1    0    0    0  501  0.00000000000E+00  0.00000000000E+00  0.15843848179E+04  0.15843848179E+04  0.50400001928E-02 0. -1.
        1   -1    0    0  501    0  0.00000000000E+00  0.00000000000E+00 -0.25186091526E+04  0.25186091526E+04  0.50400001928E-02 0.  1.
    10030    2    1    2    0    0  0.00000000000E+00  0.00000000000E+00 -0.93422433477E+03  0.41029939705E+04  0.39952201960E+04 0.  0.
        5    1    3    3  502    0  0.80008406257E+03 -0.76277924538E+03 -0.21758643228E+04  0.24405684431E+04  0.46999998093E+01 0.  1.
       -5    1    3    3    0  502 -0.80008406257E+03  0.76277924538E+03  0.12416399880E+04  0.16624255274E+04  0.46999998093E+01 0. -1.
</event>
<event>
 5   0  0.6599276E-09  0.4000425E+04  0.7818609E-02  0.8004461E-01
        2   -1    0    0  501    0  0.00000000000E+00  0.00000000000E+00  0.27191864300E+04  0.27191864300E+04  0.25500000920E-02 0. -1.
       -2   -1    0    0    0  501  0.00000000000E+00  0.00000000000E+00 -0.14713409384E+04  0.14713409384E+04  0.25500000920E-02 0.  1.
    10030    2    1    2    0    0  0.00000000000E+00  0.00000000000E+00  0.12478454915E+04  0.41905273684E+04  0.40004251342E+04 0.  0.
        2    1    3    3  502    0 -0.11118820980E+04  0.16208130246E+04  0.23544421398E+03  0.19795834507E+04  0.25500000920E-02 0. -1.
       -2    1    3    3    0  502  0.11118820980E+04 -0.16208130246E+04  0.10124012775E+04  0.22109439177E+04  0.25500000920E-02 0.  1.
</event>
<event>
 5   0  0.6599276E-09  0.3999496E+04  0.7818609E-02  0.8004648E-01
       -2   -1    0    0    0  501  0.00000000000E+00  0.00000000000E+00  0.27450597366E+04  0.27450597366E+04  0.25500000920E-02 0.  1.
        2   -1    0    0  501    0  0.00000000000E+00  0.00000000000E+00 -0.14567956753E+04  0.14567956753E+04  0.25500000920E-02 0. -1.
    10030    2    1    2    0    0  0.00000000000E+00  0.00000000000E+00  0.12882640612E+04  0.42018554119E+04  0.39994955446E+04 0.  0.
        2    1    3    3  502    0 -0.14094500637E+04 -0.12996171902E+04  0.46642056307E+02  0.19177408075E+04  0.25500000920E-02 0. -1.
       -2    1    3    3    0  502  0.14094500637E+04  0.12996171902E+04  0.12416220049E+04  0.22841146044E+04  0.25500000920E-02 0.  1.
</event>
<event>
 5   0  0.2078125E-09  0.4001242E+04  0.7818609E-02  0.8004296E-01
        1   -1    0    0  501    0  0.00000000000E+00  0.00000000000E+00  0.28287174453E+04  0.28287174453E+04  0.50400001928E-02 0. -1.
       -1   -1    0    0    0  501  0.00000000000E+00  0.00000000000E+00 -0.14149468409E+04  0.14149468409E+04  0.50400001928E-02 0.  1.
    10030    2    1    2    0    0  0.00000000000E+00  0.00000000000E+00  0.14137706044E+04  0.42436642863E+04  0.40012422137E+04 0.  0.
        1    1    3    3  502    0 -0.64981502172E+03  0.11904637170E+04 -0.85294224102E+03  0.16021778586E+04  0.50400001928E-02 0.  1.
       -1    1    3    3    0  502  0.64981502172E+03 -0.11904637170E+04  0.22667128454E+04  0.26414864277E+04  0.50400001928E-02 0. -1.
</event>
<event>
 5   0  0.6645526E-09  0.4000611E+04  0.7818609E-02  0.8004423E-01
        2   -1    0    0  501    0  0.00000000000E+00  0.00000000000E+00  0.18595459812E+04  0.18595459812E+04  0.25500000920E-02 0. -1.
       -2   -1    0    0    0  501  0.00000000000E+00  0.00000000000E+00 -0.21517200046E+04  0.21517200046E+04  0.25500000920E-02 0.  1.
    10030    2    1    2    0    0  0.00000000000E+00  0.00000000000E+00 -0.29217402349E+03  0.40112659858E+04  0.40006110969E+04 0.  0.
        3    1    3    3  502    0  0.50822723395E+03 -0.12489978073E+04 -0.16274968095E+04  0.21135364485E+04  0.10100000352E+00 0.  1.
       -3    1    3    3    0  502 -0.50822723395E+03  0.12489978073E+04  0.13353227860E+04  0.18977295373E+04  0.10100000352E+00 0. -1.
</event>
<event>
 5   0  0.6645526E-09  0.3999874E+04  0.7818609E-02  0.8004572E-01
        2   -1    0    0  501    0  0.00000000000E+00  0.00000000000E+00  0.21288276347E+04  0.21288276347E+04  0.25500000920E-02 0. -1.
       -2   -1    0    0    0  501  0.00000000000E+00  0.00000000000E+00 -0.18788505494E+04  0.18788505494E+04  0.25500000920E-02 0.  1.
    10030    2    1    2    0    0  0.00000000000E+00  0.00000000000E+00  0.24997708524E+03  0.40076781841E+04  0.39998744835E+04 0.  0.
        3    1    3    3  502    0 -0.12959811808E+04  0.40007510165E+02 -0.14006709884E+04  0.19086767798E+04  0.10100000352E+00 0.  1.
       -3    1    3    3    0  502  0.12959811808E+04 -0.40007510165E+02  0.16506480736E+04  0.20990014043E+04  0.10100000352E+00 0. -1.
</event>
<event>
 5   0  0.6538370E-09  0.4000353E+04  0.7818609E-02  0.8004475E-01
        2   -1    0    0  501    0  0.00000000000E+00  0.00000000000E+00  0.17628602090E+04  0.17628602090E+04  0.25500000920E-02 0. -1.
       -2   -1    0    0    0  501  0.00000000000E+00  0.00000000000E+00 -0.22694401302E+04  0.22694401302E+04  0.25500000920E-02 0.  1.
    10030    2    1    2    0    0  0.00000000000E+00  0.00000000000E+00 -0.50657992121E+03  0.40323003393E+04  0.40003528356E+04 0.  0.
        4    1    3    3  502    0 -0.62337918129E+03  0.10698764853E+04 -0.18366520134E+04  0.22150687413E+04  0.12699999809E+01 0.  1.
       -4    1    3    3    0  502  0.62337918129E+03 -0.10698764853E+04  0.13300720921E+04  0.18172315980E+04  0.12699999809E+01 0. -1.
</event>
<event>
 5   0  0.2078125E-09  0.3999103E+04  0.7818609E-02  0.8004728E-01
       -1   -1    0    0    0  501  0.00000000000E+00  0.00000000000E+00  0.11867130794E+04  0.11867130794E+04  0.50400001928E-02 0.  1.
        1   -1    0    0  501    0  0.00000000000E+00  0.00000000000E+00 -0.33691427692E+04  0.33691427692E+04  0.50400001928E-02 0. -1.
    10030    2    1    2    0    0  0.00000000000E+00  0.00000000000E+00 -0.21824296899E+04  0.45558558486E+04  0.39991027947E+04 0.  0.
        4    1    3    3  502    0  0.13022380436E+04  0.59925083491E+02 -0.28184719363E+04  0.31053503195E+04  0.12699999809E+01 0. -1.
       -4    1    3    3    0  502 -0.13022380436E+04 -0.59925083491E+02  0.63604224648E+03  0.14505055291E+04  0.12699999809E+01 0.  1.
</event>
<event>
 5   0  0.2078125E-09  0.4003662E+04  0.7818609E-02  0.8003808E-01
        1   -1    0    0  501    0  0.00000000000E+00  0.00000000000E+00  0.22375867704E+04  0.22375867704E+04  0.50400001928E-02 0.  1.
       -1   -1    0    0    0  501  0.00000000000E+00  0.00000000000E+00 -0.17909147255E+04  0.17909147256E+04  0.50400001928E-02 0. -1.
    10030    2    1    2    0    0  0.00000000000E+00  0.00000000000E+00  0.44667204487E+03  0.40285014960E+04  0.40036618723E+04 0.  0.
        4    1    3    3  502    0 -0.36460740570E+03 -0.19502039466E+04 -0.44948084595E+02  0.19845039524E+04  0.12699999809E+01 0.  1.
       -4    1    3    3    0  502  0.36460740570E+03  0.19502039466E+04  0.49162012947E+03  0.20439975436E+04  0.12699999809E+01 0. -1.
</event>
<event>
 5   0  0.6547327E-09  0.3999458E+04  0.7818609E-02  0.8004656E-01
       -2   -1    0    0    0  501  0.00000000000E+00  0.00000000000E+00  0.14935379814E+04  0.14935379814E+04  0.25500000920E-02 0.  1.
        2   -1    0    0  501    0  0.00000000000E+00  0.00000000000E+00 -0.26774790749E+04  0.26774790749E+04  0.25500000920E-02 0. -1.
    10030    2    1    2    0    0  0.00000000000E+00  0.00000000000E+00 -0.11839410935E+04  0.41710170563E+04  0.39994583097E+04 0.  0.
        5    1    3    3  502    0  0.12691470239E+03  0.19875916094E+04 -0.77930562803E+03  0.21386834968E+04  0.46999998093E+01 0. -1.
       -5    1    3    3    0  502 -0.12691470239E+03 -0.19875916094E+04 -0.40463546552E+03  0.20323335596E+04  0.46999998093E+01 0.  1.
</event>
<event>
 5   0  0.2078125E-09  0.3997303E+04  0.7818609E-02  0.8005091E-01
        1   -1    0    0  501    0  0.00000000000E+00  0.00000000000E+00  0.18110291400E+04  0.18110291400E+04  0.50400001928E-02 0.  1.
       -1   -1    0    0    0  501  0.00000000000E+00  0.00000000000E+00 -0.22057120287E+04  0.22057120287E+04  0.50400001928E-02 0. -1.
    10030    2    1    2    0    0  0.00000000000E+00  0.00000000000E+00 -0.39468288867E+03  0.40167411687E+04  0.39973034703E+04 0.  0.
        4    1    3    3  502    0 -0.37287107200E+03  0.12621151821E+04 -0.17088632489E+04  0.21568919272E+04  0.12699999809E+01 0. -1.
       -4    1    3    3    0  502  0.37287107200E+03 -0.12621151821E+04  0.13141803603E+04  0.18598492416E+04  0.12699999809E+01 0.  1.
</event>
<event>
 5   0  0.6645526E-09  0.3999566E+04  0.7818609E-02  0.8004634E-01
        2   -1    0    0  501    0  0.00000000000E+00  0.00000000000E+00  0.35566906210E+04  0.35566906210E+04  0.25500000920E-02 0. -1.
       -2   -1    0    0    0  501  0.00000000000E+00  0.00000000000E+00 -0.11243969195E+04  0.11243969195E+04  0.25500000920E-02 0.  1.
    10030    2    1    2    0    0  0.00000000000E+00  0.00000000000E+00  0.24322937016E+04  0.46810875405E+04  0.39995659654E+04 0.  0.
        3    1    3    3  502    0  0.95143100496E+02  0.17007620262E+04  0.24422693057E+04  0.29776371591E+04  0.10100000352E+00 0. -1.
       -3    1    3    3    0  502 -0.95143100496E+02 -0.17007620262E+04 -0.99756041530E+01  0.17034503814E+04  0.10100000352E+00 0.  1.
</event>
<event>
 5   0  0.6645526E-09  0.3971050E+04  0.7818609E-02  0.8010412E-01
        2   -1    0    0  501    0  0.00000000000E+00  0.00000000000E+00  0.25815278475E+04  0.25815278475E+04  0.25500000920E-02 0. -1.
       -2   -1    0    0    0  501  0.00000000000E+00  0.00000000000E+00 -0.15271222294E+04  0.15271222294E+04  0.25500000920E-02 0.  1.
    10030    2    1    2    0    0  0.00000000000E+00  0.00000000000E+00  0.10544056181E+04  0.41086500769E+04  0.39710495146E+04 0.  0.
        3    1    3    3  502    0  0.92888949274E+03 -0.10064128391E+04  0.20145854275E+04  0.24360330350E+04  0.10100000352E+00 0. -1.
       -3    1    3    3    0  502 -0.92888949274E+03  0.10064128391E+04 -0.96017980939E+03  0.16726170420E+04  0.10100000352E+00 0.  1.
</event>
<event>
 5   0  0.2078125E-09  0.4024870E+04  0.7818609E-02  0.7999548E-01
       -1   -1    0    0    0  501  0.00000000000E+00  0.00000000000E+00  0.14998411224E+04  0.14998411224E+04  0.50400001928E-02 0.  1.
        1   -1    0    0  501    0  0.00000000000E+00  0.00000000000E+00 -0.27002162519E+04  0.27002162519E+04  0.50400001928E-02 0. -1.
    10030    2    1    2    0    0  0.00000000000E+00  0.00000000000E+00 -0.12003751295E+04  0.42000573743E+04  0.40248703701E+04 0.  0.
        4    1    3    3  502    0  0.43888461171E+03  0.19616355501E+04 -0.70060507641E+03  0.21287279817E+04  0.12699999809E+01 0. -1.
       -4    1    3    3    0  502 -0.43888461171E+03 -0.19616355501E+04 -0.49977005310E+03  0.20713293926E+04  0.12699999809E+01 0.  1.
</event>
<event>
 5   0  0.2078125E-09  0.4004670E+04  0.7818609E-02  0.8003605E-01
        1   -1    0    0  501    0  0.00000000000E+00  0.00000000000E+00  0.22930187787E+04  0.22930187787E+04  0.50400001928E-02 0. -1.
       -1   -1    0    0    0  501  0.00000000000E+00  0.00000000000E+00 -0.17485012885E+04  0.17485012885E+04  0.50400001928E-02 0.  1.
    10030    2    1    2    0    0  0.00000000000E+00  0.00000000000E+00  0.54451749017E+03  0.40415200672E+04  0.40046704180E+04 0.  0.
        3    1    3    3  502    0 -0.11984585140E+04 -0.11677064145E+04  0.13821535780E+04  0.21702971233E+04  0.10100000352E+00 0. -1.
       -3    1    3    3    0  502  0.11984585140E+04  0.11677064145E+04 -0.83763608778E+03  0.18712229439E+04  0.10100000352E+00 0.  1.
</event>
<event>
 5   0  0.2078125E-09  0.4001576E+04  0.7818609E-02  0.8004229E-01
        1   -1    0    0  501    0  0.00000000000E+00  0.00000000000E+00  0.25458667147E+04  0.25458667147E+04  0.50400001928E-02 0.  1.
       -1   -1    0    0    0  501  0.00000000000E+00  0.00000000000E+00 -0.15724122250E+04  0.15724122251E+04  0.50400001928E-02 0. -1.
    10030    2    1    2    0    0  0.00000000000E+00  0.00000000000E+00  0.97345448962E+03  0.41182789397E+04  0.40015756624E+04 0.  0.
        4    1    3    3  502    0 -0.74669658424E+03  0.10862346836E+03 -0.14203660474E+04  0.16083520039E+04  0.12699999809E+01 0. -1.
       -4    1    3    3    0  502  0.74669658424E+03 -0.10862346836E+03  0.23938205371E+04  0.25099269358E+04  0.12699999809E+01 0.  1.
</event>
<event>
 5   0  0.6547327E-09  0.4020056E+04  0.7818609E-02  0.8000513E-01
        2   -1    0    0  501    0  0.00000000000E+00  0.00000000000E+00  0.14154230181E+04  0.14154230181E+04  0.25500000920E-02 0. -1.
       -2   -1    0    0    0  501  0.00000000000E+00  0.00000000000E+00 -0.28544200938E+04  0.28544200938E+04  0.25500000920E-02 0.  1.
    10030    2    1    2    0    0  0.00000000000E+00  0.00000000000E+00 -0.14389970757E+04  0.42698431119E+04  0.40200556733E+04 0.  0.
        5    1    3    3  502    0  0.50269289524E+03  0.11702419905E+04 -0.23711183945E+04  0.26915406358E+04  0.46999998093E+01 0.  1.
       -5    1    3    3    0  502 -0.50269289524E+03 -0.11702419905E+04  0.93212131883E+03  0.15783024761E+04  0.46999998093E+01 0. -1.
</event>
<event>
 5   0  0.2078125E-09  0.4000443E+04  0.7818609E-02  0.8004457E-01
        1   -1    0    0  501    0  0.00000000000E+00  0.00000000000E+00  0.27309532178E+04  0.27309532179E+04  0.50400001928E-02 0. -1.
       -1   -1    0    0    0  501  0.00000000000E+00  0.00000000000E+00 -0.14650148138E+04  0.14650148138E+04  0.50400001928E-02 0.  1.
    10030    2    1    2    0    0  0.00000000000E+00  0.00000000000E+00  0.12659384041E+04  0.41959680316E+04  0.40004434354E+04 0.  0.
        4    1    3    3  502    0 -0.33432213295E+01 -0.19333721711E+04  0.11708146134E+04  0.22602538798E+04  0.12699999809E+01 0. -1.
       -4    1    3    3    0  502  0.33432213295E+01  0.19333721711E+04  0.95123790709E+02  0.19357141519E+04  0.12699999809E+01 0.  1.
</event>
<event>
 5   0  0.2078125E-09  0.3998024E+04  0.7818609E-02  0.8004945E-01
        1   -1    0    0  501    0  0.00000000000E+00  0.00000000000E+00  0.23672092727E+04  0.23672092727E+04  0.50400001928E-02 0.  1.
       -1   -1    0    0    0  501  0.00000000000E+00  0.00000000000E+00 -0.16880842746E+04  0.16880842746E+04  0.50400001928E-02 0. -1.
    10030    2    1    2    0    0  0.00000000000E+00  0.00000000000E+00  0.67912499811E+03  0.40552935473E+04  0.39980238858E+04 0.  0.
        2    1    3    3  502    0  0.16197629575E+04  0.10181542589E+04 -0.24820210488E+03  0.19292160113E+04  0.25500000920E-02 0. -1.
       -2    1    3    3    0  502 -0.16197629575E+04 -0.10181542589E+04  0.92732710299E+03  0.21260775360E+04  0.25500000920E-02 0.  1.
</event>
<event>
 5   0  0.2078125E-09  0.4004129E+04  0.7818609E-02  0.8003714E-01
        3   -1    0    0  501    0  0.00000000000E+00  0.00000000000E+00  0.25696372076E+04  0.25696372095E+04  0.10100000352E+00 0. -1.
       -3   -1    0    0    0  501  0.00000000000E+00  0.00000000000E+00 -0.15598554381E+04  0.15598554413E+04  0.10100000352E+00 0.  1.
    10030    2    1    2    0    0  0.00000000000E+00  0.00000000000E+00  0.10097817695E+04  0.41294926509E+04  0.40041291602E+04 0.  0.
        5    1    3    3  502    0  0.13502073732E+04  0.30078817862E+03  0.19975143439E+04  0.24297364308E+04  0.46999998093E+01 0. -1.
       -5    1    3    3    0  502 -0.13502073732E+04 -0.30078817862E+03 -0.98773257446E+03  0.16997562201E+04  0.46999998093E+01 0.  1.
</event>
<event>
 5   0  0.6599276E-09  0.4000391E+04  0.7818609E-02  0.8004468E-01
       -2   -1    0    0    0  501  0.00000000000E+00  0.00000000000E+00  0.24786164971E+04  0.24786164971E+04  0.25500000920E-02 0.  1.
        2   -1    0    0  501    0  0.00000000000E+00  0.00000000000E+00 -0.16141189184E+04  0.16141189184E+04  0.25500000920E-02 0. -1.
    10030    2    1    2    0    0  0.00000000000E+00  0.00000000000E+00  0.86449757873E+03  0.40927354156E+04  0.40003908707E+04 0.  0.
        2    1    3    3  502    0 -0.27925263318E+03 -0.18309161255E+04  0.12050299604E+04  0.22096002121E+04  0.25500000920E-02 0.  1.
       -2    1    3    3    0  502  0.27925263318E+03  0.18309161255E+04 -0.34053238169E+03  0.18831352035E+04  0.25500000920E-02 0. -1.
</event>
<event>
 5   0  0.6538370E-09  0.4000240E+04  0.7818609E-02  0.8004498E-01
        2   -1    0    0  501    0  0.00000000000E+00  0.00000000000E+00  0.17932904583E+04  0.17932904583E+04  0.25500000920E-02 0.  1.
       -2   -1    0    0    0  501  0.00000000000E+00  0.00000000000E+00 -0.22308043543E+04  0.22308043543E+04  0.25500000920E-02 0. -1.
    10030    2    1    2    0    0  0.00000000000E+00  0.00000000000E+00 -0.43751389601E+03  0.40240948125E+04  0.40002400742E+04 0.  0.
        4    1    3    3  502    0 -0.19194057109E+04 -0.27278844310E+03  0.27605710892E+03  0.19582494626E+04  0.12699999809E+01 0. -1.
       -4    1    3    3    0  502  0.19194057109E+04  0.27278844310E+03 -0.71357100493E+03  0.20658453499E+04  0.12699999809E+01 0.  1.
</event>
<event>
 5   0  0.6645526E-09  0.3999744E+04  0.7818609E-02  0.8004598E-01
       -2   -1    0    0    0  501  0.00000000000E+00  0.00000000000E+00  0.19123188316E+04  0.19123188316E+04  0.25500000920E-02 0. -1.
        2   -1    0    0  501    0  0.00000000000E+00  0.00000000000E+00 -0.20914340545E+04  0.20914340545E+04  0.25500000920E-02 0.  1.
    10030    2    1    2    0    0  0.00000000000E+00  0.00000000000E+00 -0.17911522284E+03  0.40037528861E+04  0.39997443556E+04 0.  0.
        3    1    3    3  502    0  0.14155256035E+04 -0.12575591702E+04 -0.73388035252E+03  0.20307014017E+04  0.10100000352E+00 0.  1.
       -3    1    3    3    0  502 -0.14155256035E+04  0.12575591702E+04  0.55476512968E+03  0.19730514844E+04  0.10100000352E+00 0. -1.
</event>
<event>
 5   0  0.2078125E-09  0.3999954E+04  0.7818609E-02  0.8004556E-01
       -1   -1    0    0    0  501  0.00000000000E+00  0.00000000000E+00  0.16538515891E+04  0.16538515891E+04  0.50400001928E-02 0. -1.
        1   -1    0    0  501    0  0.00000000000E+00  0.00000000000E+00 -0.24185411900E+04  0.24185411900E+04  0.50400001928E-02 0.  1.
    10030    2    1    2    0    0  0.00000000000E+00  0.00000000000E+00 -0.76468960093E+03  0.40723927791E+04  0.39999540949E+04 0.  0.
        1    1    3    3  502    0 -0.14834313676E+04  0.11615694211E+04 -0.10653865524E+04  0.21644538915E+04  0.50400001928E-02 0.  1.
       -1    1    3    3    0  502  0.14834313676E+04 -0.11615694211E+04  0.30069695143E+03  0.19079388876E+04  0.50400001928E-02 0. -1.
</event>
<event>
 5   0  0.2078125E-09  0.3999683E+04  0.7818609E-02  0.8004610E-01
       -1   -1    0    0    0  501  0.00000000000E+00  0.00000000000E+00  0.21596493651E+04  0.21596493651E+04  0.50400001928E-02 0.  1.
        1   -1    0    0  501    0  0.00000000000E+00  0.00000000000E+00 -0.18518589892E+04  0.18518589892E+04  0.50400001928E-02 0. -1.
    10030    2    1    2    0    0  0.00000000000E+00  0.00000000000E+00  0.30779037594E+03  0.40115083543E+04  0.39996830325E+04 0.  0.
        3    1    3    3  502    0 -0.67264990297E+03  0.38827353731E+03 -0.16944184814E+04  0.18639389024E+04  0.10100000352E+00 0. -1.
       -3    1    3    3    0  502  0.67264990297E+03 -0.38827353731E+03  0.20022088573E+04  0.21475694518E+04  0.10100000352E+00 0.  1.
</event>
<event>
 5   0  0.2078125E-09  0.3998772E+04  0.7818609E-02  0.8004794E-01
        3   -1    0    0  501    0  0.00000000000E+00  0.00000000000E+00  0.26775632826E+04  0.26775632845E+04  0.10100000352E+00 0.  1.
       -3   -1    0    0    0  501  0.00000000000E+00  0.00000000000E+00 -0.14929784357E+04  0.14929784391E+04  0.10100000352E+00 0. -1.
    10030    2    1    2    0    0  0.00000000000E+00  0.00000000000E+00  0.11845848469E+04  0.41705417236E+04  0.39987719376E+04 0.  0.
        1    1    3    3  502    0 -0.95526384525E+03 -0.61639603760E+03 -0.11230671950E+04  0.15980466244E+04  0.50400001928E-02 0. -1.
       -1    1    3    3    0  502  0.95526384525E+03  0.61639603760E+03  0.23076520419E+04  0.25724950993E+04  0.50400001928E-02 0.  1.
</event>
<event>
 5   0  0.2078125E-09  0.3999282E+04  0.7818609E-02  0.8004691E-01
       -1   -1    0    0    0  501  0.00000000000E+00  0.00000000000E+00  0.24465188834E+04  0.24465188834E+04  0.50400001928E-02 0.  1.
        1   -1    0    0  501    0  0.00000000000E+00  0.00000000000E+00 -0.16343894999E+04  0.16343894999E+04  0.50400001928E-02 0. -1.
    10030    2    1    2    0    0  0.00000000000E+00  0.00000000000E+00  0.81212938347E+03  0.40809083833E+04  0.39992823228E+04 0.  0.
        5    1    3    3  502    0  0.66836184132E+03 -0.62135880843E+03 -0.14095052207E+04  0.16791430484E+04  0.46999998093E+01 0. -1.
       -5    1    3    3    0  502 -0.66836184132E+03  0.62135880843E+03  0.22216346042E+04  0.24017653349E+04  0.46999998093E+01 0.  1.
</event>
<event>
 5   0  0.6599276E-09  0.4018797E+04  0.7818609E-02  0.8000765E-01
        2   -1    0    0  501    0  0.00000000000E+00  0.00000000000E+00  0.18035156801E+04  0.18035156801E+04  0.25500000920E-02 0. -1.
       -2   -1    0    0    0  501  0.00000000000E+00  0.00000000000E+00 -0.22387836169E+04  0.22387836169E+04  0.25500000920E-02 0.  1.
    10030    2    1    2    0    0  0.00000000000E+00  0.00000000000E+00 -0.43526793684E+03  0.40422992970E+04  0.40187965151E+04 0.  0.
        2    1    3    3  502    0 -0.16724217452E+04 -0.19373413281E+03  0.88566458710E+03  0.19023483301E+04  0.25500000920E-02 0. -1.
       -2    1    3    3    0  502  0.16724217452E+04  0.19373413281E+03 -0.13209325239E+04  0.21399509669E+04  0.25500000920E-02 0.  1.
</event>
<event>
 5   0  0.6599276E-09  0.3979834E+04  0.7818609E-02  0.8008627E-01
        2   -1    0    0  501    0  0.00000000000E+00  0.00000000000E+00  0.34738883384E+04  0.34738883384E+04  0.25500000920E-02 0. -1.
       -2   -1    0    0    0  501  0.00000000000E+00  0.00000000000E+00 -0.11398668875E+04  0.11398668875E+04  0.25500000920E-02 0.  1.
    10030    2    1    2    0    0  0.00000000000E+00  0.00000000000E+00  0.23340214509E+04  0.46137552259E+04  0.39798343120E+04 0.  0.
        2    1    3    3  502    0 -0.87914868785E+03 -0.16715083233E+04  0.44032616158E+03  0.19392600699E+04  0.25500000920E-02 0.  1.
       -2    1    3    3    0  502  0.87914868785E+03  0.16715083233E+04  0.18936952893E+04  0.26744951559E+04  0.25500000920E-02 0. -1.
</event>
<event>
 5   0  0.2078125E-09  0.4000518E+04  0.7818609E-02  0.8004442E-01
       -1   -1    0    0    0  501  0.00000000000E+00  0.00000000000E+00  0.20209809823E+04  0.20209809823E+04  0.50400001928E-02 0. -1.
        1   -1    0    0  501    0  0.00000000000E+00  0.00000000000E+00 -0.19797496355E+04  0.19797496355E+04  0.50400001928E-02 0.  1.
    10030    2    1    2    0    0  0.00000000000E+00  0.00000000000E+00  0.41231346802E+02  0.40007306179E+04  0.40005181481E+04 0.  0.
        3    1    3    3  502    0  0.19637931657E+04 -0.33997591014E+03 -0.14959658567E+03  0.19986111092E+04  0.10100000352E+00 0. -1.
       -3    1    3    3    0  502 -0.19637931657E+04  0.33997591014E+03  0.19082793248E+03  0.20021195087E+04  0.10100000352E+00 0.  1.
</event>
<event>
 5   0  0.2078125E-09  0.4002013E+04  0.7818609E-02  0.8004141E-01
       -1   -1    0    0    0  501  0.00000000000E+00  0.00000000000E+00  0.20010751034E+04  0.20010751034E+04  0.50400001928E-02 0. -1.
        1   -1    0    0  501    0  0.00000000000E+00  0.00000000000E+00 -0.20009379127E+04  0.20009379127E+04  0.50400001928E-02 0.  1.
    10030    2    1    2    0    0  0.00000000000E+00  0.00000000000E+00  0.13719076020E+00  0.40020130161E+04  0.40020130137E+04 0.  0.
        1    1    3    3  502    0 -0.86586932947E+02 -0.27743759851E+03 -0.19797187990E+04  0.20009386401E+04  0.50400001928E-02 0.  1.
       -1    1    3    3    0  502  0.86586932947E+02  0.27743759851E+03  0.19798559898E+04  0.20010743760E+04  0.50400001928E-02 0. -1.
</event>
<event>
 5   0  0.6736335E-09  0.3997585E+04  0.7818609E-02  0.8005034E-01
        2   -1    0    0  501    0  0.00000000000E+00  0.00000000000E+00  0.20470793531E+04  0.20470793531E+04  0.25500000920E-02 0. -1.
       -2   -1    0    0    0  501  0.00000000000E+00  0.00000000000E+00 -0.19516449965E+04  0.19516449965E+04  0.25500000920E-02 0.  1.
    10030    2    1    2    0    0  0.00000000000E+00  0.00000000000E+00  0.95434356604E+02  0.39987243496E+04  0.39975853597E+04 0.  0.
        1    1    3    3  502    0  0.24392311706E+03  0.14714224976E+03 -0.19312354560E+04  0.19521320947E+04  0.50400001928E-02 0.  1.
       -1    1    3    3    0  502 -0.24392311706E+03 -0.14714224976E+03  0.20266698126E+04  0.20465922549E+04  0.50400001928E-02 0. -1.
</event>
<event>
 5   0  0.6547327E-09  0.4001298E+04  0.7818609E-02  0.8004285E-01
        2   -1    0    0  501    0  0.00000000000E+00  0.00000000000E+00  0.22289141278E+04  0.22289141278E+04  0.25500000920E-02 0.  1.
       -2   -1    0    0    0  501  0.00000000000E+00  0.00000000000E+00 -0.17957607527E+04  0.17957607527E+04  0.25500000920E-02 0. -1.
    10030    2    1    2    0    0  0.00000000000E+00  0.00000000000E+00  0.43315337517E+03  0.40246748805E+04  0.40012980453E+04 0.  0.
        5    1    3    3  502    0  0.10171159296E+04  0.98643801323E+03  0.16372696366E+04  0.21652387215E+04  0.46999998093E+01 0.  1.
       -5    1    3    3    0  502 -0.10171159296E+04 -0.98643801323E+03 -0.12041162614E+04  0.18594361590E+04  0.46999998093E+01 0. -1.
</event>
<event>
 5   0  0.2078125E-09  0.4005209E+04  0.7818609E-02  0.8003497E-01
        1   -1    0    0  501    0  0.00000000000E+00  0.00000000000E+00  0.26211455788E+04  0.26211455788E+04  0.50400001928E-02 0. -1.
       -1   -1    0    0    0  501  0.00000000000E+00  0.00000000000E+00 -0.15300273759E+04  0.15300273759E+04  0.50400001928E-02 0.  1.
    10030    2    1    2    0    0  0.00000000000E+00  0.00000000000E+00  0.10911182029E+04  0.41511729547E+04  0.40052088543E+04 0.  0.
        2    1    3    3  502    0  0.18896421458E+03 -0.19897731815E+04  0.41644092827E+03  0.20416483132E+04  0.25500000920E-02 0.  1.
       -2    1    3    3    0  502 -0.18896421458E+03  0.19897731815E+04  0.67467727461E+03  0.21095246415E+04  0.25500000920E-02 0. -1.
</event>
<event>
 5   0  0.2078125E-09  0.4000128E+04  0.7818609E-02  0.8004521E-01
        1   -1    0    0  501    0  0.00000000000E+00  0.00000000000E+00  0.20263714330E+04  0.20263714330E+04  0.50400001928E-02 0.  1.
       -1   -1    0    0    0  501  0.00000000000E+00  0.00000000000E+00 -0.19740978000E+04  0.19740978000E+04  0.50400001928E-02 0. -1.
    10030    2    1    2    0    0  0.00000000000E+00  0.00000000000E+00  0.52273632982E+02  0.40004692330E+04  0.40001276919E+04 0.  0.
        2    1    3    3  502    0  0.54533815066E+03  0.80801889374E+03  0.17727014465E+04  0.20230567589E+04  0.25500000920E-02 0.  1.
       -2    1    3    3    0  502 -0.54533815066E+03 -0.80801889374E+03 -0.17204278135E+04  0.19774124741E+04  0.25500000920E-02 0. -1.
</event>
<event>
 5   0  0.2078125E-09  0.3999268E+04  0.7818609E-02  0.8004694E-01
       -1   -1    0    0    0  501  0.00000000000E+00  0.00000000000E+00  0.18037893959E+04  0.18037893959E+04  0.50400001928E-02 0.  1.
        1   -1    0    0  501    0  0.00000000000E+00  0.00000000000E+00 -0.22167422439E+04  0.22167422440E+04  0.50400001928E-02 0. -1.
    10030    2    1    2    0    0  0.00000000000E+00  0.00000000000E+00 -0.41295284807E+03  0.40205316398E+04  0.39992680095E+04 0.  0.
        3    1    3    3  502    0  0.17502648055E+04  0.68170825670E+03 -0.89596779113E+03  0.20810841716E+04  0.10100000352E+00 0. -1.
       -3    1    3    3    0  502 -0.17502648055E+04 -0.68170825670E+03  0.48301494306E+03  0.19394474682E+04  0.10100000352E+00 0.  1.
</event>
<event>
 5   0  0.6645526E-09  0.4000226E+04  0.7818609E-02  0.8004501E-01
       -2   -1    0    0    0  501  0.00000000000E+00  0.00000000000E+00  0.19828701986E+04  0.19828701986E+04  0.25500000920E-02 0. -1.
        2   -1    0    0  501    0  0.00000000000E+00  0.00000000000E+00 -0.20175055318E+04  0.20175055318E+04  0.25500000920E-02 0.  1.
    10030    2    1    2    0    0  0.00000000000E+00  0.00000000000E+00 -0.34635333164E+02  0.40003757304E+04  0.40002257909E+04 0.  0.
        3    1    3    3  502    0  0.15427322031E+04  0.43331036423E+03 -0.12143049118E+04  0.20105514048E+04  0.10100000352E+00 0.  1.
       -3    1    3    3    0  502 -0.15427322031E+04 -0.43331036423E+03  0.11796695786E+04  0.19898243257E+04  0.10100000352E+00 0. -1.
</event>
<event>
 5   0  0.2078125E-09  0.4000087E+04  0.7818609E-02  0.8004529E-01
        1   -1    0    0  501    0  0.00000000000E+00  0.00000000000E+00  0.20901685736E+04  0.20901685736E+04  0.50400001928E-02 0.  1.
       -1   -1    0    0    0  501  0.00000000000E+00  0.00000000000E+00 -0.19138042907E+04  0.19138042907E+04  0.50400001928E-02 0. -1.
    10030    2    1    2    0    0  0.00000000000E+00  0.00000000000E+00  0.17636428293E+03  0.40039728643E+04  0.40000867913E+04 0.  0.
        5    1    3    3  502    0 -0.92786286556E+03 -0.14913801967E+04 -0.86930719190E+03  0.19598115910E+04  0.46999998093E+01 0. -1.
       -5    1    3    3    0  502  0.92786286556E+03  0.14913801967E+04  0.10456714748E+04  0.20441612734E+04  0.46999998093E+01 0.  1.
</event>
<event>
 5   0  0.2078125E-09  0.4001405E+04  0.7818609E-02  0.8004263E-01
        1   -1    0    0  501    0  0.00000000000E+00  0.00000000000E+00  0.17936948882E+04  0.17936948883E+04  0.50400001928E-02 0.  1.
       -1   -1    0    0    0  501  0.00000000000E+00  0.00000000000E+00 -0.22316007020E+04  0.22316007020E+04  0.50400001928E-02 0. -1.
    10030    2    1    2    0    0  0.00000000000E+00  0.00000000000E+00 -0.43790581372E+03  0.40252955902E+04  0.40014051391E+04 0.  0.
        4    1    3    3  502    0  0.13927340734E+03  0.12075596009E+04  0.13796263175E+04  0.18387407812E+04  0.12699999809E+01 0.  1.
       -4    1    3    3    0  502 -0.13927340734E+03 -0.12075596009E+04 -0.18175321312E+04  0.21865548090E+04  0.12699999809E+01 0. -1.
</event>
<event>
 5   0  0.6645526E-09  0.4000862E+04  0.7818609E-02  0.8004373E-01
        2   -1    0    0  501    0  0.00000000000E+00  0.00000000000E+00  0.21340904740E+04  0.21340904740E+04  0.25500000920E-02 0. -1.
       -2   -1    0    0    0  501  0.00000000000E+00  0.00000000000E+00 -0.18751427114E+04  0.18751427114E+04  0.25500000920E-02 0.  1.
    10030    2    1    2    0    0  0.00000000000E+00  0.00000000000E+00  0.25894776255E+03  0.40092331854E+04  0.40008620060E+04 0.  0.
        3    1    3    3  502    0 -0.98084780876E+03  0.17249245377E+04  0.38357316818E+03  0.20210283200E+04  0.10100000352E+00 0. -1.
       -3    1    3    3    0  502  0.98084780876E+03 -0.17249245377E+04 -0.12462540563E+03  0.19882048654E+04  0.10100000352E+00 0.  1.
</event>
<event>
 5   0  0.6547327E-09  0.3999400E+04  0.7818609E-02  0.8004668E-01
        2   -1    0    0  501    0  0.00000000000E+00  0.00000000000E+00  0.19243679237E+04  0.19243679237E+04  0.25500000920E-02 0. -1.
       -2   -1    0    0    0  501  0.00000000000E+00  0.00000000000E+00 -0.20779814121E+04  0.20779814121E+04  0.25500000920E-02 0.  1.
    10030    2    1    2    0    0  0.00000000000E+00  0.00000000000E+00 -0.15361348836E+03  0.40023493358E+04  0.39994003428E+04 0.  0.
        5    1    3    3  502    0  0.14627180400E+04  0.12147870847E+04  0.54294543380E+03  0.19773880651E+04  0.46999998093E+01 0. -1.
       -5    1    3    3    0  502 -0.14627180400E+04 -0.12147870847E+04 -0.69655892217E+03  0.20249612707E+04  0.46999998093E+01 0.  1.
</event>
<event>
 5   0  0.6547327E-09  0.4001508E+04  0.7818609E-02  0.8004242E-01
        2   -1    0    0  501    0  0.00000000000E+00  0.00000000000E+00  0.15047425121E+04  0.15047425121E+04  0.25500000920E-02 0.  1.
       -2   -1    0    0    0  501  0.00000000000E+00  0.00000000000E+00 -0.26602667240E+04  0.26602667240E+04  0.25500000920E-02 0. -1.
    10030    2    1    2    0    0  0.00000000000E+00  0.00000000000E+00 -0.11555242118E+04  0.41650092361E+04  0.40015079323E+04 0.  0.
        5    1    3    3  502    0 -0.10470235672E+04 -0.80540801016E+03  0.98631961924E+03  0.16485717741E+04  0.46999998093E+01 0.  1.
       -5    1    3    3    0  502  0.10470235672E+04  0.80540801016E+03 -0.21418438311E+04  0.25164374619E+04  0.46999998093E+01 0. -1.
</event>
<event>
 5   0  0.6547327E-09  0.3999656E+04  0.7818609E-02  0.8004616E-01
       -2   -1    0    0    0  501  0.00000000000E+00  0.00000000000E+00  0.15474282574E+04  0.15474282574E+04  0.25500000920E-02 0. -1.
        2   -1    0    0  501    0  0.00000000000E+00  0.00000000000E+00 -0.25844895324E+04  0.25844895324E+04  0.25500000920E-02 0.  1.
    10030    2    1    2    0    0  0.00000000000E+00  0.00000000000E+00 -0.10370612750E+04  0.41319177898E+04  0.39996560520E+04 0.  0.
        5    1    3    3  502    0 -0.19652217215E+04  0.37014415713E+03 -0.50440621364E+03  0.20624138358E+04  0.46999998093E+01 0. -1.
       -5    1    3    3    0  502  0.19652217215E+04 -0.37014415713E+03 -0.53265506131E+03  0.20695039541E+04  0.46999998093E+01 0.  1.
</event>
<event>
 5   0  0.6599276E-09  0.3999942E+04  0.7818609E-02  0.8004558E-01
       -2   -1    0    0    0  501  0.00000000000E+00  0.00000000000E+00  0.15451733256E+04  0.15451733256E+04  0.25500000920E-02 0. -1.
        2   -1    0    0  501    0  0.00000000000E+00  0.00000000000E+00 -0.25886313018E+04  0.25886313018E+04  0.25500000920E-02 0.  1.
    10030    2    1    2    0    0  0.00000000000E+00  0.00000000000E+00 -0.10434579761E+04  0.41338046274E+04  0.39999420183E+04 0.  0.
        2    1    3    3  502    0 -0.30490723983E+03 -0.11524313734E+04 -0.21813409597E+04  0.24858227769E+04  0.25500000920E-02 0.  1.
       -2    1    3    3    0  502  0.30490723983E+03  0.11524313734E+04  0.11378829836E+04  0.16479818505E+04  0.25500000920E-02 0. -1.
</event>
<event>
 5   0  0.6538370E-09  0.4000595E+04  0.7818609E-02  0.8004426E-01
        2   -1    0    0  501    0  0.00000000000E+00  0.00000000000E+00  0.27760959004E+04  0.27760959004E+04  0.25500000920E-02 0. -1.
       -2   -1    0    0    0  501  0.00000000000E+00  0.00000000000E+00 -0.14413013197E+04  0.14413013197E+04  0.25500000920E-02 0.  1.
    10030    2    1    2    0    0  0.00000000000E+00  0.00000000000E+00  0.13347945807E+04  0.42173972201E+04  0.40005952982E+04 0.  0.
        4    1    3    3  502    0 -0.42325771406E+03 -0.51569428080E+03  0.26553541453E+04  0.27378814682E+04  0.12699999809E+01 0. -1.
       -4    1    3    3    0  502  0.42325771406E+03  0.51569428080E+03 -0.13205595646E+04  0.14795157520E+04  0.12699999809E+01 0.  1.
</event>
<event>
 5   0  0.6645526E-09  0.3999106E+04  0.7818609E-02  0.8004727E-01
        2   -1    0    0  501    0  0.00000000000E+00  0.00000000000E+00  0.18607162561E+04  0.18607162561E+04  0.25500000920E-02 0.  1.
       -2   -1    0    0    0  501  0.00000000000E+00  0.00000000000E+00 -0.21487487136E+04  0.21487487136E+04  0.25500000920E-02 0. -1.
    10030    2    1    2    0    0  0.00000000000E+00  0.00000000000E+00 -0.28803245746E+03  0.40094649696E+04  0.39991057308E+04 0.  0.
        3    1    3    3  502    0  0.64241441499E+03 -0.67459533489E+03 -0.19179033745E+04  0.21321652166E+04  0.10100000352E+00 0. -1.
       -3    1    3    3    0  502 -0.64241441499E+03  0.67459533489E+03  0.16298709171E+04  0.18772997531E+04  0.10100000352E+00 0.  1.
</event>
<event>
 5   0  0.6547327E-09  0.3998469E+04  0.7818609E-02  0.8004855E-01
       -2   -1    0    0    0  501  0.00000000000E+00  0.00000000000E+00  0.31915239088E+04  0.31915239088E+04  0.25500000920E-02 0.  1.
        2   -1    0    0  501    0  0.00000000000E+00  0.00000000000E+00 -0.12523608218E+04  0.12523608218E+04  0.25500000920E-02 0. -1.
    10030    2    1    2    0    0  0.00000000000E+00  0.00000000000E+00  0.19391630870E+04  0.44438847307E+04  0.39984694599E+04 0.  0.
        5    1    3    3  502    0  0.27913223451E+03 -0.10508437602E+04 -0.89502572677E+03  0.14082899397E+04  0.46999998093E+01 0. -1.
       -5    1    3    3    0  502 -0.27913223451E+03  0.10508437602E+04  0.28341888138E+04  0.30355947909E+04  0.46999998093E+01 0.  1.
</event>
<event>
 5   0  0.6538370E-09  0.3998084E+04  0.7818609E-02  0.8004933E-01
        2   -1    0    0  501    0  0.00000000000E+00  0.00000000000E+00  0.29564823306E+04  0.29564823306E+04  0.25500000920E-02 0. -1.
       -2   -1    0    0    0  501  0.00000000000E+00  0.00000000000E+00 -0.13516632967E+04  0.13516632967E+04  0.25500000920E-02 0.  1.
    10030    2    1    2    0    0  0.00000000000E+00  0.00000000000E+00  0.16048190339E+04  0.43081456273E+04  0.39980838679E+04 0.  0.
        4    1    3    3  502    0  0.18811004683E+04 -0.66961937646E+03  0.90597773515E+03  0.21926528112E+04  0.12699999809E+01 0. -1.
       -4    1    3    3    0  502 -0.18811004683E+04  0.66961937646E+03  0.69884129876E+03  0.21154928161E+04  0.12699999809E+01 0.  1.
</event>
<event>
 5   0  0.6736335E-09  0.4002105E+04  0.7818609E-02  0.8004122E-01
        2   -1    0    0  501    0  0.00000000000E+00  0.00000000000E+00  0.10488141648E+04  0.10488141648E+04  0.25500000920E-02 0. -1.
       -2   -1    0    0    0  501  0.00000000000E+00  0.00000000000E+00 -0.38178463299E+04  0.38178463299E+04  0.25500000920E-02 0.  1.
    10030    2    1    2    0    0  0.00000000000E+00  0.00000000000E+00 -0.27690321652E+04  0.48666604947E+04  0.40021051009E+04 0.  0.
        1    1    3    3  502    0  0.16328427552E+04 -0.79194563921E+03 -0.35925617833E+03  0.18499779351E+04  0.50400001928E-02 0.  1.
       -1    1    3    3    0  502 -0.16328427552E+04  0.79194563921E+03 -0.24097759868E+04  0.30166825596E+04  0.50400001928E-02 0. -1.
</event>
<event>
 5   0  0.2078125E-09  0.3999847E+04  0.7818609E-02  0.8004577E-01
        1   -1    0    0  501    0  0.00000000000E+00  0.00000000000E+00  0.14925872515E+04  0.14925872515E+04  0.50400001928E-02 0. -1.
       -1   -1    0    0    0  501  0.00000000000E+00  0.00000000000E+00 -0.26797048822E+04  0.26797048823E+04  0.50400001928E-02 0.  1.
    10030    2    1    2    0    0  0.00000000000E+00  0.00000000000E+00 -0.11871176307E+04  0.41722921338E+04  0.39998466696E+04 0.  0.
        2    1    3    3  502    0 -0.23439233541E+03 -0.19567861890E+03 -0.26552482659E+04  0.26727463857E+04  0.25500000920E-02 0.  1.
       -2    1    3    3    0  502  0.23439233541E+03  0.19567861890E+03  0.14681306351E+04  0.14995457481E+04  0.25500000920E-02 0. -1.
</event>
<event>
 5   0  0.6645526E-09  0.3989967E+04  0.7818609E-02  0.8006574E-01
        2   -1    0    0  501    0  0.00000000000E+00  0.00000000000E+00  0.25906163805E+04  0.25906163805E+04  0.25500000920E-02 0.  1.
       -2   -1    0    0    0  501  0.00000000000E+00  0.00000000000E+00 -0.15362978242E+04  0.15362978242E+04  0.25500000920E-02 0. -1.
    10030    2    1    2    0    0  0.00000000000E+00  0.00000000000E+00  0.10543185563E+04  0.41269142048E+04  0.39899665707E+04 0.  0.
        3    1    3    3  502    0 -0.21750734382E+03 -0.72818270004E+03  0.24350293357E+04  0.25508679631E+04  0.10100000352E+00 0.  1.
       -3    1    3    3    0  502  0.21750734382E+03  0.72818270004E+03 -0.13807107794E+04  0.15760462417E+04  0.10100000352E+00 0. -1.
</event>
<event>
 5   0  0.2078125E-09  0.3999908E+04  0.7818609E-02  0.8004565E-01
       -1   -1    0    0    0  501  0.00000000000E+00  0.00000000000E+00  0.13688622317E+04  0.13688622317E+04  0.50400001928E-02 0.  1.
        1   -1    0    0  501    0  0.00000000000E+00  0.00000000000E+00 -0.29220003521E+04  0.29220003521E+04  0.50400001928E-02 0. -1.
    10030    2    1    2    0    0  0.00000000000E+00  0.00000000000E+00 -0.15531381204E+04  0.42908625838E+04  0.39999079605E+04 0.  0.
        4    1    3    3  502    0 -0.19666397119E+04  0.29305237927E+03 -0.54583546531E+03  0.20619140189E+04  0.12699999809E+01 0. -1.
       -4    1    3    3    0  502  0.19666397119E+04 -0.29305237927E+03 -0.10073026551E+04  0.22289485649E+04  0.12699999809E+01 0.  1.
</event>
<event>
 5   0  0.2078125E-09  0.4011331E+04  0.7818609E-02  0.8002265E-01
       -1   -1    0    0    0  501  0.00000000000E+00  0.00000000000E+00  0.27141874858E+04  0.27141874858E+04  0.50400001928E-02 0.  1.
        1   -1    0    0  501    0  0.00000000000E+00  0.00000000000E+00 -0.14820987330E+04  0.14820987330E+04  0.50400001928E-02 0. -1.
    10030    2    1    2    0    0  0.00000000000E+00  0.00000000000E+00  0.12320887528E+04  0.41962862189E+04  0.40113308684E+04 0.  0.
        1    1    3    3  502    0  0.15790949240E+03 -0.18428428330E+03 -0.14666826825E+04  0.14866251027E+04  0.50400001928E-02 0. -1.
       -1    1    3    3    0  502 -0.15790949240E+03  0.18428428330E+03  0.26987714353E+04  0.27096611162E+04  0.50400001928E-02 0.  1.
</event>
<event>
 5   0  0.2078125E-09  0.4001802E+04  0.7818609E-02  0.8004183E-01
        3   -1    0    0  501    0  0.00000000000E+00  0.00000000000E+00  0.13788472678E+04  0.13788472715E+04  0.10100000352E+00 0. -1.
       -3   -1    0    0    0  501  0.00000000000E+00  0.00000000000E+00 -0.29035886739E+04  0.29035886756E+04  0.10100000352E+00 0.  1.
    10030    2    1    2    0    0  0.00000000000E+00  0.00000000000E+00 -0.15247414061E+04  0.42824359471E+04  0.40018022547E+04 0.  0.
        3    1    3    3  502    0 -0.59043876635E+03 -0.16236484798E+04  0.31774355536E+03  0.17566483142E+04  0.10100000352E+00 0. -1.
       -3    1    3    3    0  502  0.59043876635E+03  0.16236484798E+04 -0.18424849615E+04  0.25257876328E+04  0.10100000352E+00 0.  1.
</event>
<event>
 5   0  0.6538370E-09  0.3999667E+04  0.7818609E-02  0.8004614E-01
        2   -1    0    0  501    0  0.00000000000E+00  0.00000000000E+00  0.33233793056E+04  0.33233793056E+04  0.25500000920E-02 0. -1.
       -2   -1    0    0    0  501  0.00000000000E+00  0.00000000000E+00 -0.12033937925E+04  0.12033937925E+04  0.25500000920E-02 0.  1.
    10030    2    1    2    0    0  0.00000000000E+00  0.00000000000E+00  0.21199855131E+04  0.45267730980E+04  0.39996669993E+04 0.  0.
        4    1    3    3  502    0  0.17934458746E+04  0.80389798881E+03  0.14783445467E+04  0.24593097188E+04  0.12699999809E+01 0. -1.
       -4    1    3    3    0  502 -0.17934458746E+04 -0.80389798881E+03  0.64164096640E+03  0.20674633792E+04  0.12699999809E+01 0.  1.
</event>
<event>
 5   0  0.2078125E-09  0.3999854E+04  0.7818609E-02  0.8004576E-01
       -1   -1    0    0    0  501  0.00000000000E+00  0.00000000000E+00  0.19980251063E+04  0.19980251063E+04  0.50400001928E-02 0. -1.
        1   -1    0    0  501    0  0.00000000000E+00  0.00000000000E+00 -0.20018307935E+04  0.20018307935E+04  0.50400001928E-02 0.  1.
    10030    2    1    2    0    0  0.00000000000E+00  0.00000000000E+00 -0.38056872257E+01  0.39998558997E+04  0.39998540893E+04 0.  0.
        2    1    3    3  502    0  0.23529517508E+03  0.18625524513E+04 -0.69128166615E+03  0.20005838635E+04  0.25500000920E-02 0.  1.
       -2    1    3    3    0  502 -0.23529517508E+03 -0.18625524513E+04  0.68747597893E+03  0.19992720362E+04  0.25500000920E-02 0. -1.
</event>
<event>
 5   0  0.6599276E-09  0.4001192E+04  0.7818609E-02  0.8004306E-01
       -2   -1    0    0    0  501  0.00000000000E+00  0.00000000000E+00  0.15690124296E+04  0.15690124296E+04  0.25500000920E-02 0.  1.
        2   -1    0    0  501    0  0.00000000000E+00  0.00000000000E+00 -0.25508936396E+04  0.25508936396E+04  0.25500000920E-02 0. -1.
    10030    2    1    2    0    0  0.00000000000E+00  0.00000000000E+00 -0.98188121002E+03  0.41199060692E+04  0.40011917360E+04 0.  0.
        2    1    3    3  502    0 -0.27097077644E+03  0.17199975073E+04 -0.15053441672E+04  0.23017118952E+04  0.25500000920E-02 0. -1.
       -2    1    3    3    0  502  0.27097077644E+03 -0.17199975073E+04  0.52346295719E+03  0.18181941740E+04  0.25500000920E-02 0.  1.
</event>
<event>
 5   0  0.6736335E-09  0.3997988E+04  0.7818609E-02  0.8004953E-01
        2   -1    0    0  501    0  0.00000000000E+00  0.00000000000E+00  0.13141370736E+04  0.13141370736E+04  0.25500000920E-02 0.  1.
       -2   -1    0    0    0  501  0.00000000000E+00  0.00000000000E+00 -0.30407609718E+04  0.30407609718E+04  0.25500000920E-02 0. -1.
    10030    2    1    2    0    0  0.00000000000E+00  0.00000000000E+00 -0.17266238983E+04  0.43548980454E+04  0.39979878564E+04 0.  0.
        1    1    3    3  502    0 -0.18393852335E+04  0.64705914538E+03 -0.13430287624E+04  0.23676464752E+04  0.50400001928E-02 0. -1.
       -1    1    3    3    0  502  0.18393852335E+04 -0.64705914538E+03 -0.38359513587E+03  0.19872515702E+04  0.50400001928E-02 0.  1.
</event>
<event>
 5   0  0.6547327E-09  0.3998450E+04  0.7818609E-02  0.8004859E-01
        2   -1    0    0  501    0  0.00000000000E+00  0.00000000000E+00  0.21420296388E+04  0.21420296388E+04  0.25500000920E-02 0. -1.
       -2   -1    0    0    0  501  0.00000000000E+00  0.00000000000E+00 -0.18659409286E+04  0.18659409286E+04  0.25500000920E-02 0.  1.
    10030    2    1    2    0    0  0.00000000000E+00  0.00000000000E+00  0.27608871020E+03  0.40079705673E+04  0.39984500863E+04 0.  0.
        5    1    3    3  502    0  0.18365957814E+04 -0.34665022876E+03 -0.57331308935E+03  0.19549834869E+04  0.46999998093E+01 0. -1.
       -5    1    3    3    0  502 -0.18365957814E+04  0.34665022876E+03  0.84940179955E+03  0.20529870805E+04  0.46999998093E+01 0.  1.
</event>
<event>
 5   0  0.2078125E-09  0.4000914E+04  0.7818609E-02  0.8004362E-01
       -1   -1    0    0    0  501  0.00000000000E+00  0.00000000000E+00  0.15426330340E+04  0.15426330340E+04  0.50400001928E-02 0. -1.
        1   -1    0    0  501    0  0.00000000000E+00  0.00000000000E+00 -0.25941546089E+04  0.25941546089E+04  0.50400001928E-02 0.  1.
    10030    2    1    2    0    0  0.00000000000E+00  0.00000000000E+00 -0.10515215748E+04  0.41367876429E+04  0.40009141930E+04 0.  0.
        2    1    3    3  502    0 -0.21358508808E+03  0.94118453257E+03  0.12859971528E+04  0.16078667828E+04  0.25500000920E-02 0. -1.
       -2    1    3    3    0  502  0.21358508808E+03 -0.94118453257E+03 -0.23375187277E+04  0.25289208601E+04  0.25500000920E-02 0.  1.
</event>
<event>
 5   0  0.2078125E-09  0.4001431E+04  0.7818609E-02  0.8004258E-01
        1   -1    0    0  501    0  0.00000000000E+00  0.00000000000E+00  0.19979817266E+04  0.19979817266E+04  0.50400001928E-02 0.  1.
       -1   -1    0    0    0  501  0.00000000000E+00  0.00000000000E+00 -0.20034532417E+04  0.20034532417E+04  0.50400001928E-02 0. -1.
    10030    2    1    2    0    0  0.00000000000E+00  0.00000000000E+00 -0.54715151278E+01  0.40014349683E+04  0.40014312274E+04 0.  0.
        4    1    3    3  502    0 -0.75471927850E+01 -0.77778792563E+03  0.18405918557E+04  0.19981969396E+04  0.12699999809E+01 0.  1.
       -4    1    3    3    0  502  0.75471927850E+01  0.77778792563E+03 -0.18460633708E+04  0.20032380286E+04  0.12699999809E+01 0. -1.
</event>
<event>
 5   0  0.6538370E-09  0.4001240E+04  0.7818609E-02  0.8004296E-01
        2   -1    0    0  501    0  0.00000000000E+00  0.00000000000E+00  0.23926762033E+04  0.23926762033E+04  0.25500000920E-02 0. -1.
       -2   -1    0    0    0  501  0.00000000000E+00  0.00000000000E+00 -0.16728051947E+04  0.16728051947E+04  0.25500000920E-02 0.  1.
    10030    2    1    2    0    0  0.00000000000E+00  0.00000000000E+00  0.71987100863E+03  0.40654813979E+04  0.40012403987E+04 0.  0.
        4    1    3    3  502    0  0.64932022527E+02  0.19942764741E+04  0.21225842865E+03  0.20065916566E+04  0.12699999809E+01 0.  1.
       -4    1    3    3    0  502 -0.64932022527E+02 -0.19942764741E+04  0.50761257999E+03  0.20588897414E+04  0.12699999809E+01 0. -1.
</event>
<event>
 5   0  0.6645526E-09  0.4003426E+04  0.7818609E-02  0.8003856E-01
       -2   -1    0    0    0  501  0.00000000000E+00  0.00000000000E+00  0.15890094934E+04  0.15890094934E+04  0.25500000920E-02 0.  1.
        2   -1    0    0  501    0  0.00000000000E+00  0.00000000000E+00 -0.25216049183E+04  0.25216049183E+04  0.25500000920E-02 0. -1.
    10030    2    1    2    0    0  0.00000000000E+00  0.00000000000E+00 -0.93259542490E+03  0.41106144116E+04  0.40034256100E+04 0.  0.
        3    1    3    3  502    0  0.56941273446E+03 -0.91411150941E+03  0.12661913364E+04  0.16622488455E+04  0.10100000352E+00 0.  1.
       -3    1    3    3    0  502 -0.56941273446E+03  0.91411150941E+03 -0.21987867613E+04  0.24483655661E+04  0.10100000352E+00 0. -1.
</event>
<event>
 5   0  0.2078125E-09  0.4003323E+04  0.7818609E-02  0.8003877E-01
       -1   -1    0    0    0  501  0.00000000000E+00  0.00000000000E+00  0.14249784966E+04  0.14249784966E+04  0.50400001928E-02 0.  1.
        1   -1    0    0  501    0  0.00000000000E+00  0.00000000000E+00 -0.28117256867E+04  0.28117256867E+04  0.50400001928E-02 0. -1.
    10030    2    1    2    0    0  0.00000000000E+00  0.00000000000E+00 -0.13867471901E+04  0.42367041833E+04  0.40033229407E+04 0.  0.
        1    1    3    3  502    0 -0.49120705647E+03  0.15378205336E+04  0.55903135149E+03  0.17084181040E+04  0.50400001928E-02 0.  1.
       -1    1    3    3    0  502  0.49120705647E+03 -0.15378205336E+04 -0.19457785416E+04  0.25282860793E+04  0.50400001928E-02 0. -1.
</event>
<event>
 5   0  0.2078125E-09  0.3997655E+04  0.7818609E-02  0.8005020E-01
        1   -1    0    0  501    0  0.00000000000E+00  0.00000000000E+00  0.15352511916E+04  0.15352511917E+04  0.50400001928E-02 0.  1.
       -1   -1    0    0    0  501  0.00000000000E+00  0.00000000000E+00 -0.26023833386E+04  0.26023833386E+04  0.50400001928E-02 0. -1.
    10030    2    1    2    0    0  0.00000000000E+00  0.00000000000E+00 -0.10671321470E+04  0.41376345303E+04  0.39976553737E+04 0.  0.
        3    1    3    3  502    0 -0.16653058367E+03 -0.71347324687E+03 -0.24583983867E+04  0.25652483598E+04  0.10100000352E+00 0. -1.
       -3    1    3    3    0  502  0.16653058367E+03  0.71347324687E+03  0.13912662397E+04  0.15723861705E+04  0.10100000352E+00 0.  1.
</event>
<event>
 5   0  0.2078125E-09  0.3992530E+04  0.7818609E-02  0.8006055E-01
        1   -1    0    0  501    0  0.00000000000E+00  0.00000000000E+00  0.26222427543E+04  0.26222427543E+04  0.50400001928E-02 0. -1.
       -1   -1    0    0    0  501  0.00000000000E+00  0.00000000000E+00 -0.15197199591E+04  0.15197199591E+04  0.50400001928E-02 0.  1.
    10030    2    1    2    0    0  0.00000000000E+00  0.00000000000E+00  0.11025227952E+04  0.41419627135E+04  0.39925303513E+04 0.  0.
        2    1    3    3  502    0 -0.79885121495E+03  0.17626679438E+04  0.10594032271E+04  0.22062404088E+04  0.25500000920E-02 0. -1.
       -2    1    3    3    0  502  0.79885121495E+03 -0.17626679438E+04  0.43119568084E+02  0.19357223047E+04  0.25500000920E-02 0.  1.
</event>
<event>
 5   0  0.2078125E-09  0.3996259E+04  0.7818609E-02  0.8005302E-01
       -1   -1    0    0    0  501  0.00000000000E+00  0.00000000000E+00  0.26871924886E+04  0.26871924886E+04  0.50400001928E-02 0.  1.
        1   -1    0    0  501    0  0.00000000000E+00  0.00000000000E+00 -0.14857592338E+04  0.14857592338E+04  0.50400001928E-02 0. -1.
    10030    2    1    2    0    0  0.00000000000E+00  0.00000000000E+00  0.12014332548E+04  0.41729517224E+04  0.39962587768E+04 0.  0.
        2    1    3    3  502    0  0.96313650063E+03  0.10211304858E+04 -0.88419237898E+03  0.16589561631E+04  0.25500000920E-02 0. -1.
       -2    1    3    3    0  502 -0.96313650063E+03 -0.10211304858E+04  0.20856256338E+04  0.25139955593E+04  0.25500000920E-02 0.  1.
</event>
<event>
 5   0  0.6547327E-09  0.4000582E+04  0.7818609E-02  0.8004429E-01
        2   -1    0    0  501    0  0.00000000000E+00  0.00000000000E+00  0.25267030643E+04  0.25267030643E+04  0.25500000920E-02 0. -1.
       -2   -1    0    0    0  501  0.00000000000E+00  0.00000000000E+00 -0.15835510721E+04  0.15835510721E+04  0.25500000920E-02 0.  1.
    10030    2    1    2    0    0  0.00000000000E+00  0.00000000000E+00  0.94315199215E+03  0.41102541364E+04  0.40005816309E+04 0.  0.
        5    1    3    3  502    0  0.86628185638E+03  0.88817268665E+03  0.20836167034E+04  0.24250310581E+04  0.46999998093E+01 0. -1.
       -5    1    3    3    0  502 -0.86628185638E+03 -0.88817268665E+03 -0.11404647113E+04  0.16852230783E+04  0.46999998093E+01 0.  1.
</event>
<event>
 5   0  0.2078125E-09  0.4001571E+04  0.7818609E-02  0.8004230E-01
       -3   -1    0    0    0  501  0.00000000000E+00  0.00000000000E+00  0.19866105451E+04  0.19866105476E+04  0.10100000352E+00 0.  1.
        3   -1    0    0  501    0  0.00000000000E+00  0.00000000000E+00 -0.20150613596E+04  0.20150613621E+04  0.10100000352E+00 0. -1.
    10030    2    1    2    0    0  0.00000000000E+00  0.00000000000E+00 -0.28450814522E+02  0.40016719098E+04  0.40015707696E+04 0.  0.
        3    1    3    3  502    0 -0.14872725283E+04  0.12018339888E+04  0.57465078073E+03  0.19966492030E+04  0.10100000352E+00 0.  1.
       -3    1    3    3    0  502  0.14872725283E+04 -0.12018339888E+04 -0.60310159525E+03  0.20050227067E+04  0.10100000352E+00 0. -1.
</event>
<event>
 5   0  0.2078125E-09  0.3999904E+04  0.7818609E-02  0.8004566E-01
       -1   -1    0    0    0  501  0.00000000000E+00  0.00000000000E+00  0.21155998106E+04  0.21155998106E+04  0.50400001928E-02 0.  1.
        1   -1    0    0  501    0  0.00000000000E+00  0.00000000000E+00 -0.18906256282E+04  0.18906256282E+04  0.50400001928E-02 0. -1.
    10030    2    1    2    0    0  0.00000000000E+00  0.00000000000E+00  0.22497418238E+03  0.40062254388E+04  0.39999036093E+04 0.  0.
        3    1    3    3  502    0  0.14459605171E+04 -0.13442446116E+03  0.14897733400E+04  0.20804558077E+04  0.10100000352E+00 0.  1.
       -3    1    3    3    0  502 -0.14459605171E+04  0.13442446116E+03 -0.12647991577E+04  0.19257696311E+04  0.10100000352E+00 0. -1.
</event>
<event>
 5   0  0.2078125E-09  0.3991530E+04  0.7818609E-02  0.8006257E-01
       -1   -1    0    0    0  501  0.00000000000E+00  0.00000000000E+00  0.17751374218E+04  0.17751374218E+04  0.50400001928E-02 0.  1.
        1   -1    0    0  501    0  0.00000000000E+00  0.00000000000E+00 -0.22438137592E+04  0.22438137592E+04  0.50400001928E-02 0. -1.
    10030    2    1    2    0    0  0.00000000000E+00  0.00000000000E+00 -0.46867633739E+03  0.40189511810E+04  0.39915299180E+04 0.  0.
        5    1    3    3  502    0  0.11564484931E+04 -0.40144094562E+03 -0.18214051863E+04  0.21945539165E+04  0.46999998093E+01 0. -1.
       -5    1    3    3    0  502 -0.11564484931E+04  0.40144094562E+03  0.13527288489E+04  0.18243972645E+04  0.46999998093E+01 0.  1.
</event>
<event>
 5   0  0.2078125E-09  0.3999664E+04  0.7818609E-02  0.8004614E-01
        1   -1    0    0  501    0  0.00000000000E+00  0.00000000000E+00  0.29241204116E+04  0.29241204116E+04  0.50400001928E-02 0. -1.
       -1   -1    0    0    0  501  0.00000000000E+00  0.00000000000E+00 -0.13677028520E+04  0.13677028520E+04  0.50400001928E-02 0.  1.
    10030    2    1    2    0    0  0.00000000000E+00  0.00000000000E+00  0.15564175596E+04  0.42918232637E+04  0.39996638992E+04 0.  0.
        1    1    3    3  502    0  0.16707281658E+04  0.10883063366E+04  0.61341833050E+03  0.20861508418E+04  0.50400001928E-02 0. -1.
       -1    1    3    3    0  502 -0.16707281658E+04 -0.10883063366E+04  0.94299922913E+03  0.22056724219E+04  0.50400001928E-02 0.  1.
</event>
<event>
 5   0  0.6599276E-09  0.3999298E+04  0.7818609E-02  0.8004688E-01
       -2   -1    0    0    0  501  0.00000000000E+00  0.00000000000E+00  0.13630643808E+04  0.13630643808E+04  0.25500000920E-02 0.  1.
        2   -1    0    0  501    0  0.00000000000E+00  0.00000000000E+00 -0.29335340961E+04  0.29335340961E+04  0.25500000920E-02 0. -1.
    10030    2    1    2    0    0  0.00000000000E+00  0.00000000000E+00 -0.15704697153E+04  0.42965984769E+04  0.39992978566E+04 0.  0.
        2    1    3    3  502    0  0.11224878046E+04  0.32461951949E+03  0.95812150067E+03  0.15110769385E+04  0.25500000920E-02 0.  1.
       -2    1    3    3    0  502 -0.11224878046E+04 -0.32461951949E+03 -0.25285912160E+04  0.27855215385E+04  0.25500000920E-02 0. -1.
</event>
<event>
 5   0  0.6736335E-09  0.3991379E+04  0.7818609E-02  0.8006288E-01
        2   -1    0    0  501    0  0.00000000000E+00  0.00000000000E+00  0.19404084696E+04  0.19404084696E+04  0.25500000920E-02 0.  1.
       -2   -1    0    0    0  501  0.00000000000E+00  0.00000000000E+00 -0.20525457718E+04  0.20525457718E+04  0.25500000920E-02 0. -1.
    10030    2    1    2    0    0  0.00000000000E+00  0.00000000000E+00 -0.11213730215E+03  0.39929542414E+04  0.39913793104E+04 0.  0.
        1    1    3    3  502    0  0.37964632137E+03 -0.10533071207E+04 -0.17087465355E+04  0.20428905850E+04  0.50400001928E-02 0. -1.
       -1    1    3    3    0  502 -0.37964632137E+03  0.10533071207E+04  0.15966092333E+04  0.19500636563E+04  0.50400001928E-02 0.  1.
</event>
<event>
 5   0  0.2078125E-09  0.3998000E+04  0.7818609E-02  0.8004950E-01
       -1   -1    0    0    0  501  0.00000000000E+00  0.00000000000E+00  0.18385705491E+04  0.18385705491E+04  0.50400001928E-02 0.  1.
        1   -1    0    0  501    0  0.00000000000E+00  0.00000000000E+00 -0.21734286479E+04  0.21734286479E+04  0.50400001928E-02 0. -1.
    10030    2    1    2    0    0  0.00000000000E+00  0.00000000000E+00 -0.33485809879E+03  0.40119991970E+04  0.39980004515E+04 0.  0.
        2    1    3    3  502    0 -0.14980631695E+04  0.36087374026E+03  0.11104419840E+04  0.18993431802E+04  0.25500000920E-02 0.  1.
       -2    1    3    3    0  502  0.14980631695E+04 -0.36087374026E+03 -0.14453000828E+04  0.21126560168E+04  0.25500000920E-02 0. -1.
</event>
<event>
 5   0  0.2078125E-09  0.4000184E+04  0.7818609E-02  0.8004509E-01
        1   -1    0    0  501    0  0.00000000000E+00  0.00000000000E+00  0.24090276527E+04  0.24090276527E+04  0.50400001928E-02 0. -1.
       -1   -1    0    0    0  501  0.00000000000E+00  0.00000000000E+00 -0.16605739363E+04  0.16605739363E+04  0.50400001928E-02 0.  1.
    10030    2    1    2    0    0  0.00000000000E+00  0.00000000000E+00  0.74845371640E+03  0.40696015890E+04  0.40001842617E+04 0.  0.
        3    1    3    3  502    0  0.10034940538E+04  0.45984495588E+01 -0.13859261983E+04  0.17110852986E+04  0.10100000352E+00 0.  1.
       -3    1    3    3    0  502 -0.10034940538E+04 -0.45984495588E+01  0.21343799147E+04  0.23585162904E+04  0.10100000352E+00 0. -1.
</event>
<event>
 5   0  0.6599276E-09  0.3996822E+04  0.7818609E-02  0.8005188E-01
        2   -1    0    0  501    0  0.00000000000E+00  0.00000000000E+00  0.15039643581E+04  0.15039643581E+04  0.25500000920E-02 0. -1.
       -2   -1    0    0    0  501  0.00000000000E+00  0.00000000000E+00 -0.26554127090E+04  0.26554127090E+04  0.25500000920E-02 0.  1.
    10030    2    1    2    0    0  0.00000000000E+00  0.00000000000E+00 -0.11514483509E+04  0.41593770671E+04  0.39968217726E+04 0.  0.
        2    1    3    3  502    0 -0.75818190769E+03 -0.86902365474E+02  0.13463518204E+04  0.15475965400E+04  0.25500000920E-02 0. -1.
       -2    1    3    3    0  502  0.75818190769E+03  0.86902365474E+02 -0.24978001713E+04  0.26117805271E+04  0.25500000920E-02 0.  1.
</event>
<event>
 5   0  0.6736335E-09  0.4000029E+04  0.7818609E-02  0.8004541E-01
        2   -1    0    0  501    0  0.00000000000E+00  0.00000000000E+00  0.26032086882E+04  0.26032086882E+04  0.25500000920E-02 0.  1.
       -2   -1    0    0    0  501  0.00000000000E+00  0.00000000000E+00 -0.15365877722E+04  0.15365877722E+04  0.25500000920E-02 0. -1.
    10030    2    1    2    0    0  0.00000000000E+00  0.00000000000E+00  0.10666209159E+04  0.41397964604E+04  0.40000293193E+04 0.  0.
        1    1    3    3  502    0 -0.16199511389E+04  0.11672919536E+04  0.41419574001E+03  0.20392082553E+04  0.50400001928E-02 0. -1.
       -1    1    3    3    0  502  0.16199511389E+04 -0.11672919536E+04  0.65242517593E+03  0.21005882051E+04  0.50400001928E-02 0.  1.
</event>
<event>
 5   0  0.2078125E-09  0.3998952E+04  0.7818609E-02  0.8004758E-01
        1   -1    0    0  501    0  0.00000000000E+00  0.00000000000E+00  0.12121281711E+04  0.12121281711E+04  0.50400001928E-02 0. -1.
       -1   -1    0    0    0  501  0.00000000000E+00  0.00000000000E+00 -0.32982519135E+04  0.32982519135E+04  0.50400001928E-02 0.  1.
    10030    2    1    2    0    0  0.00000000000E+00  0.00000000000E+00 -0.20861237425E+04  0.45103800846E+04  0.39989518925E+04 0.  0.
        1    1    3    3  502    0  0.50770665949E+03 -0.76455744317E+03 -0.30466444260E+04  0.31818793809E+04  0.50400001928E-02 0.  1.
       -1    1    3    3    0  502 -0.50770665949E+03  0.76455744317E+03  0.96052068359E+03  0.13285007037E+04  0.50400001928E-02 0. -1.
</event>
<event>
 5   0  0.6599276E-09  0.4000415E+04  0.7818609E-02  0.8004463E-01
        2   -1    0    0  501    0  0.00000000000E+00  0.00000000000E+00  0.29295456917E+04  0.29295456917E+04  0.25500000920E-02 0.  1.
       -2   -1    0    0    0  501  0.00000000000E+00  0.00000000000E+00 -0.13656830429E+04  0.13656830429E+04  0.25500000920E-02 0. -1.
    10030    2    1    2    0    0  0.00000000000E+00  0.00000000000E+00  0.15638626487E+04  0.42952287346E+04  0.40004154158E+04 0.  0.
        2    1    3    3  502    0 -0.15249070351E+04 -0.33531694707E+03  0.21242879509E+04  0.26363569976E+04  0.25500000920E-02 0.  1.
       -2    1    3    3    0  502  0.15249070351E+04  0.33531694707E+03 -0.56042530213E+03  0.16588717370E+04  0.25500000920E-02 0. -1.
</event>
<event>
 5   0  0.2078125E-09  0.3999886E+04  0.7818609E-02  0.8004569E-01
       -1   -1    0    0    0  501  0.00000000000E+00  0.00000000000E+00  0.20107718777E+04  0.20107718777E+04  0.50400001928E-02 0.  1.
        1   -1    0    0  501    0  0.00000000000E+00  0.00000000000E+00 -0.19891728742E+04  0.19891728742E+04  0.50400001928E-02 0. -1.
    10030    2    1    2    0    0  0.00000000000E+00  0.00000000000E+00  0.21599003511E+02  0.39999447520E+04  0.39998864361E+04 0.  0.
        4    1    3    3  502    0  0.13824520622E+04 -0.98241113516E+03 -0.10491527041E+04  0.19942488191E+04  0.12699999809E+01 0. -1.
       -4    1    3    3    0  502 -0.13824520622E+04  0.98241113516E+03  0.10707517076E+04  0.20056959329E+04  0.12699999809E+01 0.  1.
</event>
<event>
 5   0  0.2078125E-09  0.3999619E+04  0.7818609E-02  0.8004623E-01
        1   -1    0    0  501    0  0.00000000000E+00  0.00000000000E+00  0.17815230016E+04  0.17815230016E+04  0.50400001928E-02 0. -1.
       -1   -1    0    0    0  501  0.00000000000E+00  0.00000000000E+00 -0.22448426923E+04  0.22448426923E+04  0.50400001928E-02 0.  1.
    10030    2    1    2    0    0  0.00000000000E+00  0.00000000000E+00 -0.46331969074E+03  0.40263656939E+04  0.39996194275E+04 0.  0.
        3    1    3    3  502    0 -0.99773962737E+03  0.86108112557E+03  0.12824906802E+04  0.18389473684E+04  0.10100000352E+00 0. -1.
       -3    1    3    3    0  502  0.99773962737E+03 -0.86108112557E+03 -0.17458103710E+04  0.21874183254E+04  0.10100000352E+00 0.  1.
</event>
<event>
 5   0  0.6547327E-09  0.4000501E+04  0.7818609E-02  0.8004445E-01
       -2   -1    0    0    0  501  0.00000000000E+00  0.00000000000E+00  0.14815209768E+04  0.14815209768E+04  0.25500000920E-02 0.  1.
        2   -1    0    0  501    0  0.00000000000E+00  0.00000000000E+00 -0.27006046729E+04  0.27006046729E+04  0.25500000920E-02 0. -1.
    10030    2    1    2    0    0  0.00000000000E+00  0.00000000000E+00 -0.12190836961E+04  0.41821256498E+04  0.40005012051E+04 0.  0.
        5    1    3    3  502    0  0.10540612449E+04  0.11919411468E+04  0.65759885713E+03  0.17216931063E+04  0.46999998093E+01 0.  1.
       -5    1    3    3    0  502 -0.10540612449E+04 -0.11919411468E+04 -0.18766825532E+04  0.24604325435E+04  0.46999998093E+01 0. -1.
</event>
<event>
 5   0  0.6599276E-09  0.4000179E+04  0.7818609E-02  0.8004510E-01
       -2   -1    0    0    0  501  0.00000000000E+00  0.00000000000E+00  0.34022025185E+04  0.34022025185E+04  0.25500000920E-02 0.  1.
        2   -1    0    0  501    0  0.00000000000E+00  0.00000000000E+00 -0.11758142049E+04  0.11758142049E+04  0.25500000920E-02 0. -1.
    10030    2    1    2    0    0  0.00000000000E+00  0.00000000000E+00  0.22263883136E+04  0.45780167234E+04  0.40001790206E+04 0.  0.
        2    1    3    3  502    0 -0.72162087746E+03  0.15462912825E+04 -0.80884773292E+02  0.17083020130E+04  0.25500000920E-02 0. -1.
       -2    1    3    3    0  502  0.72162087746E+03 -0.15462912825E+04  0.23072730869E+04  0.28697147104E+04  0.25500000920E-02 0.  1.
</event>
<event>
 5   0  0.2078125E-09  0.3996211E+04  0.7818609E-02  0.8005311E-01
       -1   -1    0    0    0  501  0.00000000000E+00  0.00000000000E+00  0.29151509063E+04  0.29151509063E+04  0.50400001928E-02 0.  1.
        1   -1    0    0  501    0  0.00000000000E+00  0.00000000000E+00 -0.13695435292E+04  0.13695435292E+04  0.50400001928E-02 0. -1.
    10030    2    1    2    0    0  0.00000000000E+00  0.00000000000E+00  0.15456073771E+04  0.42846944356E+04  0.39962112359E+04 0.  0.
        2    1    3    3  502    0 -0.12769511990E+04  0.12221674052E+03 -0.86974140671E+03  0.15498359303E+04  0.25500000920E-02 0. -1.
       -2    1    3    3    0  502  0.12769511990E+04 -0.12221674052E+03  0.24153487838E+04  0.27348585053E+04  0.25500000920E-02 0.  1.
</event>
<event>
 5   0  0.2078125E-09  0.4003781E+04  0.7818609E-02  0.8003784E-01
       -1   -1    0    0    0  501  0.00000000000E+00  0.00000000000E+00  0.17801265637E+04  0.17801265637E+04  0.50400001928E-02 0.  1.
        1   -1    0    0  501    0  0.00000000000E+00  0.00000000000E+00 -0.22512809394E+04  0.22512809394E+04  0.50400001928E-02 0. -1.
    10030    2    1    2    0    0  0.00000000000E+00  0.00000000000E+00 -0.47115437570E+03  0.40314075031E+04  0.40037807145E+04 0.  0.
        1    1    3    3  502    0  0.54690509333E+03  0.98009493544E+03 -0.19046865888E+04  0.22107741326E+04  0.50400001928E-02 0. -1.
       -1    1    3    3    0  502 -0.54690509333E+03 -0.98009493544E+03  0.14335322131E+04  0.18206333705E+04  0.50400001928E-02 0.  1.
</event>
<event>
 5   0  0.6599276E-09  0.4000229E+04  0.7818609E-02  0.8004500E-01
       -2   -1    0    0    0  501  0.00000000000E+00  0.00000000000E+00  0.14567760902E+04  0.14567760902E+04  0.25500000920E-02 0.  1.
        2   -1    0    0  501    0  0.00000000000E+00  0.00000000000E+00 -0.27461039181E+04  0.27461039181E+04  0.25500000920E-02 0. -1.
    10030    2    1    2    0    0  0.00000000000E+00  0.00000000000E+00 -0.12893278278E+04  0.42028800083E+04  0.40002292580E+04 0.  0.
        2    1    3    3  502    0  0.18973571398E+04 -0.60231180683E+03 -0.84870545375E+03  0.21640343287E+04  0.25500000920E-02 0.  1.
       -2    1    3    3    0  502 -0.18973571398E+04  0.60231180683E+03 -0.44062237408E+03  0.20388456796E+04  0.25500000920E-02 0. -1.
</event>
<event>
 5   0  0.2078125E-09  0.4000017E+04  0.7818609E-02  0.8004543E-01
       -1   -1    0    0    0  501  0.00000000000E+00  0.00000000000E+00  0.27678968522E+04  0.27678968522E+04  0.50400001928E-02 0.  1.
        1   -1    0    0  501    0  0.00000000000E+00  0.00000000000E+00 -0.14451527012E+04  0.14451527012E+04  0.50400001928E-02 0. -1.
    10030    2    1    2    0    0  0.00000000000E+00  0.00000000000E+00  0.13227441510E+04  0.42130495533E+04  0.40000168062E+04 0.  0.
        1    1    3    3  502    0 -0.58834218948E+03  0.18067031414E+04  0.13188875738E+04  0.23129607012E+04  0.50400001928E-02 0.  1.
       -1    1    3    3    0  502  0.58834218948E+03 -0.18067031414E+04  0.38565772179E+01  0.19000888522E+04  0.50400001928E-02 0. -1.
</event>
<event>
 5   0  0.6547327E-09  0.4000929E+04  0.7818609E-02  0.8004359E-01
        2   -1    0    0  501    0  0.00000000000E+00  0.00000000000E+00  0.19773856606E+04  0.19773856606E+04  0.25500000920E-02 0. -1.
       -2   -1    0    0    0  501  0.00000000000E+00  0.00000000000E+00 -0.20238130682E+04  0.20238130682E+04  0.25500000920E-02 0.  1.
    10030    2    1    2    0    0  0.00000000000E+00  0.00000000000E+00 -0.46427407579E+02  0.40011987287E+04  0.40009293624E+04 0.  0.
        5    1    3    3  502    0 -0.12284437505E+04 -0.13435470066E+04 -0.85251270843E+03  0.20102220313E+04  0.46999998093E+01 0.  1.
       -5    1    3    3    0  502  0.12284437505E+04  0.13435470066E+04  0.80608530085E+03  0.19909766974E+04  0.46999998093E+01 0. -1.
</event>
<event>
 5   0  0.2078125E-09  0.4002634E+04  0.7818609E-02  0.8004015E-01
        1   -1    0    0  501    0  0.00000000000E+00  0.00000000000E+00  0.19321816569E+04  0.19321816569E+04  0.50400001928E-02 0.  1.
       -1   -1    0    0    0  501  0.00000000000E+00  0.00000000000E+00 -0.20729260238E+04  0.20729260238E+04  0.50400001928E-02 0. -1.
    10030    2    1    2    0    0  0.00000000000E+00  0.00000000000E+00 -0.14074436693E+03  0.40051076806E+04  0.40026339524E+04 0.  0.
        3    1    3    3  502    0  0.11633568026E+04 -0.51171291374E+02 -0.16990304344E+04  0.20597868769E+04  0.10100000352E+00 0. -1.
       -3    1    3    3    0  502 -0.11633568026E+04  0.51171291374E+02  0.15582860675E+04  0.19453208037E+04  0.10100000352E+00 0.  1.
</event>
<event>
 5   0  0.2078125E-09  0.3999544E+04  0.7818609E-02  0.8004639E-01
        1   -1    0    0  501    0  0.00000000000E+00  0.00000000000E+00  0.22425884431E+04  0.22425884431E+04  0.50400001928E-02 0.  1.
       -1   -1    0    0    0  501  0.00000000000E+00  0.00000000000E+00 -0.17832462625E+04  0.17832462625E+04  0.50400001928E-02 0. -1.
    10030    2    1    2    0    0  0.00000000000E+00  0.00000000000E+00  0.45934218065E+03  0.40258347056E+04  0.39995437037E+04 0.  0.
        5    1    3    3  502    0 -0.47808026025E+02 -0.94463767263E+03 -0.15438529841E+04  0.18105607050E+04  0.46999998093E+01 0. -1.
       -5    1    3    3    0  502  0.47808026025E+02  0.94463767263E+03  0.20031951648E+04  0.22152740007E+04  0.46999998093E+01 0.  1.
</event>
<event>
 5   0  0.6599276E-09  0.3999180E+04  0.7818609E-02  0.8004712E-01
        2   -1    0    0  501    0  0.00000000000E+00  0.00000000000E+00  0.23745678967E+04  0.23745678967E+04  0.25500000920E-02 0.  1.
       -2   -1    0    0    0  501  0.00000000000E+00  0.00000000000E+00 -0.16838261357E+04  0.16838261357E+04  0.25500000920E-02 0. -1.
    10030    2    1    2    0    0  0.00000000000E+00  0.00000000000E+00  0.69074176102E+03  0.40583940325E+04  0.39991796587E+04 0.  0.
        2    1    3    3  502    0 -0.96579210498E+03 -0.31507290568E+03  0.20931773094E+04  0.23266750041E+04  0.25500000920E-02 0.  1.
       -2    1    3    3    0  502  0.96579210498E+03  0.31507290568E+03 -0.14024355484E+04  0.17317190284E+04  0.25500000920E-02 0. -1.
</event>
<event>
 5   0  0.2078125E-09  0.4000209E+04  0.7818609E-02  0.8004504E-01
       -1   -1    0    0    0  501  0.00000000000E+00  0.00000000000E+00  0.18273401422E+04  0.18273401422E+04  0.50400001928E-02 0. -1.
        1   -1    0    0  501    0  0.00000000000E+00  0.00000000000E+00 -0.21892031443E+04  0.21892031443E+04  0.50400001928E-02 0.  1.
    10030    2    1    2    0    0  0.00000000000E+00  0.00000000000E+00 -0.36186300211E+03  0.40165432865E+04  0.40002093870E+04 0.  0.
        1    1    3    3  502    0 -0.61556453179E+03  0.15611517152E+04 -0.12736326535E+04  0.21067165227E+04  0.50400001928E-02 0.  1.
       -1    1    3    3    0  502  0.61556453179E+03 -0.15611517152E+04  0.91176965140E+03  0.19098267639E+04  0.50400001928E-02 0. -1.
</event>
<event>
 5   0  0.6599276E-09  0.3999760E+04  0.7818609E-02  0.8004595E-01
        2   -1    0    0  501    0  0.00000000000E+00  0.00000000000E+00  0.29657738384E+04  0.29657738384E+04  0.25500000920E-02 0. -1.
       -2   -1    0    0    0  501  0.00000000000E+00  0.00000000000E+00 -0.13485587800E+04  0.13485587800E+04  0.25500000920E-02 0.  1.
    10030    2    1    2    0    0  0.00000000000E+00  0.00000000000E+00  0.16172150585E+04  0.43143326184E+04  0.39997601675E+04 0.  0.
        2    1    3    3  502    0 -0.14576973657E+04  0.25755521201E+03 -0.64188468230E+03  0.16134535142E+04  0.25500000920E-02 0.  1.
       -2    1    3    3    0  502  0.14576973657E+04 -0.25755521201E+03  0.22590997408E+04  0.27008791042E+04  0.25500000920E-02 0. -1.
</event>
<event>
 5   0  0.2078125E-09  0.3996972E+04  0.7818609E-02  0.8005158E-01
        1   -1    0    0  501    0  0.00000000000E+00  0.00000000000E+00  0.20678197166E+04  0.20678197166E+04  0.50400001928E-02 0. -1.
       -1   -1    0    0    0  501  0.00000000000E+00  0.00000000000E+00 -0.19314768222E+04  0.19314768222E+04  0.50400001928E-02 0.  1.
    10030    2    1    2    0    0  0.00000000000E+00  0.00000000000E+00  0.13634289447E+03  0.39992965388E+04  0.39969717813E+04 0.  0.
        2    1    3    3  502    0 -0.12329604441E+04 -0.30076330316E+03  0.16128620413E+04  0.20523094273E+04  0.25500000920E-02 0.  1.
       -2    1    3    3    0  502  0.12329604441E+04  0.30076330316E+03 -0.14765191468E+04  0.19469871115E+04  0.25500000920E-02 0. -1.
</event>
<event>
 5   0  0.2078125E-09  0.4000292E+04  0.7818609E-02  0.8004488E-01
       -1   -1    0    0    0  501  0.00000000000E+00  0.00000000000E+00  0.24628920397E+04  0.24628920397E+04  0.50400001928E-02 0.  1.
        1   -1    0    0  501    0  0.00000000000E+00  0.00000000000E+00 -0.16243440519E+04  0.16243440519E+04  0.50400001928E-02 0. -1.
    10030    2    1    2    0    0  0.00000000000E+00  0.00000000000E+00  0.83854798772E+03  0.40872360916E+04  0.40002920069E+04 0.  0.
        2    1    3    3  502    0  0.15649072774E+04  0.68115784430E+03  0.14848569170E+04  0.22622358100E+04  0.25500000920E-02 0.  1.
       -2    1    3    3    0  502 -0.15649072774E+04 -0.68115784430E+03 -0.64630892932E+03  0.18250002816E+04  0.25500000920E-02 0. -1.
</event>
<event>
 5   0  0.2078125E-09  0.3999151E+04  0.7818609E-02  0.8004718E-01
       -1   -1    0    0    0  501  0.00000000000E+00  0.00000000000E+00  0.19817671958E+04  0.19817671958E+04  0.50400001928E-02 0.  1.
        1   -1    0    0  501    0  0.00000000000E+00  0.00000000000E+00 -0.20175435079E+04  0.20175435079E+04  0.50400001928E-02 0. -1.
    10030    2    1    2    0    0  0.00000000000E+00  0.00000000000E+00 -0.35776312146E+02  0.39993107037E+04  0.39991506799E+04 0.  0.
        4    1    3    3  502    0 -0.32619607963E+03  0.77854221335E+03  0.17948531461E+04  0.19834392578E+04  0.12699999809E+01 0.  1.
       -4    1    3    3    0  502  0.32619607963E+03 -0.77854221335E+03 -0.18306294582E+04  0.20158714460E+04  0.12699999809E+01 0. -1.
</event>
<event>
 5   0  0.2078125E-09  0.4000239E+04  0.7818609E-02  0.8004498E-01
       -1   -1    0    0    0  501  0.00000000000E+00  0.00000000000E+00  0.13386745509E+04  0.13386745509E+04  0.50400001928E-02 0. -1.
        1   -1    0    0  501    0  0.00000000000E+00  0.00000000000E+00 -0.29883871541E+04  0.29883871541E+04  0.50400001928E-02 0.  1.
    10030    2    1    2    0    0  0.00000000000E+00  0.00000000000E+00 -0.16497126032E+04  0.43270617050E+04  0.40002389086E+04 0.  0.
        4    1    3    3  502    0  0.11503974539E+04 -0.11128187434E+04 -0.21223095904E+04  0.26581910142E+04  0.12699999809E+01 0.  1.
       -4    1    3    3    0  502 -0.11503974539E+04  0.11128187434E+04  0.47259698722E+03  0.16688706908E+04  0.12699999809E+01 0. -1.
</event>
<event>
 5   0  0.2078125E-09  0.3990202E+04  0.7818609E-02  0.8006526E-01
        3   -1    0    0  501    0  0.00000000000E+00  0.00000000000E+00  0.19876783886E+04  0.19876783911E+04  0.10100000352E+00 0. -1.
       -3   -1    0    0    0  501  0.00000000000E+00  0.00000000000E+00 -0.20025511824E+04  0.20025511849E+04  0.10100000352E+00 0.  1.
    10030    2    1    2    0    0  0.00000000000E+00  0.00000000000E+00 -0.14872793793E+02  0.39902295760E+04  0.39902018582E+04 0.  0.
        2    1    3    3  502    0  0.52059373644E+03  0.12384617156E+04 -0.14824457812E+04  0.20006125946E+04  0.25500000920E-02 0.  1.
       -2    1    3    3    0  502 -0.52059373644E+03 -0.12384617156E+04  0.14675729874E+04  0.19896169814E+04  0.25500000920E-02 0. -1.
</event>
<event>
 5   0  0.2078125E-09  0.4000245E+04  0.7818609E-02  0.8004497E-01
        1   -1    0    0  501    0  0.00000000000E+00  0.00000000000E+00  0.16661523342E+04  0.16661523342E+04  0.50400001928E-02 0. -1.
       -1   -1    0    0    0  501  0.00000000000E+00  0.00000000000E+00 -0.24010351129E+04  0.24010351129E+04  0.50400001928E-02 0.  1.
    10030    2    1    2    0    0  0.00000000000E+00  0.00000000000E+00 -0.73488277864E+03  0.40671874471E+04  0.40002451214E+04 0.  0.
        3    1    3    3  502    0 -0.18570360292E+04 -0.47150740239E+03 -0.95114638964E+03  0.21390608942E+04  0.10100000352E+00 0. -1.
       -3    1    3    3    0  502  0.18570360292E+04  0.47150740239E+03  0.21626361100E+03  0.19281265529E+04  0.10100000352E+00 0.  1.
</event>
<event>
 5   0  0.6547327E-09  0.3999031E+04  0.7818609E-02  0.8004742E-01
       -2   -1    0    0    0  501  0.00000000000E+00  0.00000000000E+00  0.21684484795E+04  0.21684484795E+04  0.25500000920E-02 0.  1.
        2   -1    0    0  501    0  0.00000000000E+00  0.00000000000E+00 -0.18437434547E+04  0.18437434547E+04  0.25500000920E-02 0. -1.
    10030    2    1    2    0    0  0.00000000000E+00  0.00000000000E+00  0.32470502475E+03  0.40121919342E+04  0.39990312281E+04 0.  0.
        5    1    3    3  502    0 -0.16735217212E+04  0.57859058347E+03  0.10941708997E+04  0.20815076417E+04  0.46999998093E+01 0.  1.
       -5    1    3    3    0  502  0.16735217212E+04 -0.57859058347E+03 -0.76946587499E+03  0.19306842925E+04  0.46999998093E+01 0. -1.
</event>
<event>
 5   0  0.2078125E-09  0.3999332E+04  0.7818609E-02  0.8004681E-01
       -1   -1    0    0    0  501  0.00000000000E+00  0.00000000000E+00  0.16283802584E+04  0.16283802584E+04  0.50400001928E-02 0.  1.
        1   -1    0    0  501    0  0.00000000000E+00  0.00000000000E+00 -0.24556088551E+04  0.24556088551E+04  0.50400001928E-02 0. -1.
    10030    2    1    2    0    0  0.00000000000E+00  0.00000000000E+00 -0.82722859670E+03  0.40839891136E+04  0.39993324354E+04 0.  0.
        5    1    3    3  502    0 -0.11171192966E+04 -0.34888662683E+03  0.12421156836E+04  0.17066197183E+04  0.46999998093E+01 0.  1.
       -5    1    3    3    0  502  0.11171192966E+04  0.34888662683E+03 -0.20693442803E+04  0.23773693953E+04  0.46999998093E+01 0. -1.
</event>
<event>
 5   0  0.6736335E-09  0.4001221E+04  0.7818609E-02  0.8004300E-01
        2   -1    0    0  501    0  0.00000000000E+00  0.00000000000E+00  0.21885787147E+04  0.21885787147E+04  0.25500000920E-02 0.  1.
       -2   -1    0    0    0  501  0.00000000000E+00  0.00000000000E+00 -0.18287862601E+04  0.18287862601E+04  0.25500000920E-02 0. -1.
    10030    2    1    2    0    0  0.00000000000E+00  0.00000000000E+00  0.35979245466E+03  0.40173649748E+04  0.40012211549E+04 0.  0.
        1    1    3    3  502    0 -0.87900736561E+03  0.98662275604E+03  0.16880767911E+04  0.21437541054E+04  0.50400001928E-02 0.  1.
       -1    1    3    3    0  502  0.87900736561E+03 -0.98662275604E+03 -0.13282843365E+04  0.18736108694E+04  0.50400001928E-02 0. -1.
</event>
<event>
 5   0  0.2078125E-09  0.3997746E+04  0.7818609E-02  0.8005001E-01
       -1   -1    0    0    0  501  0.00000000000E+00  0.00000000000E+00  0.13680768420E+04  0.13680768421E+04  0.50400001928E-02 0.  1.
        1   -1    0    0  501    0  0.00000000000E+00  0.00000000000E+00 -0.29205175641E+04  0.29205175641E+04  0.50400001928E-02 0. -1.
    10030    2    1    2    0    0  0.00000000000E+00  0.00000000000E+00 -0.15524407221E+04  0.42885944062E+04  0.39977455878E+04 0.  0.
        3    1    3    3  502    0  0.47659446465E+02 -0.14986024688E+04 -0.21942895990E+04  0.26576281976E+04  0.10100000352E+00 0. -1.
       -3    1    3    3    0  502 -0.47659446465E+02  0.14986024688E+04  0.64184887692E+03  0.16309662085E+04  0.10100000352E+00 0.  1.
</event>
<event>
 5   0  0.2078125E-09  0.3999147E+04  0.7818609E-02  0.8004719E-01
        1   -1    0    0  501    0  0.00000000000E+00  0.00000000000E+00  0.20606123125E+04  0.20606123125E+04  0.50400001928E-02 0.  1.
       -1   -1    0    0    0  501  0.00000000000E+00  0.00000000000E+00 -0.19403423166E+04  0.19403423166E+04  0.50400001928E-02 0. -1.
    10030    2    1    2    0    0  0.00000000000E+00  0.00000000000E+00  0.12026999586E+03  0.40009546291E+04  0.39991465430E+04 0.  0.
        4    1    3    3  502    0  0.13380107016E+04 -0.97971933195E+02 -0.14232425192E+04  0.19558865045E+04  0.12699999809E+01 0. -1.
       -4    1    3    3    0  502 -0.13380107016E+04  0.97971933195E+02  0.15435125151E+04  0.20450681246E+04  0.12699999809E+01 0.  1.
</event>
<event>
 5   0  0.6736335E-09  0.3997772E+04  0.7818609E-02  0.8004996E-01
       -2   -1    0    0    0  501  0.00000000000E+00  0.00000000000E+00  0.24190294045E+04  0.24190294045E+04  0.25500000920E-02 0. -1.
        2   -1    0    0  501    0  0.00000000000E+00  0.00000000000E+00 -0.16517142025E+04  0.16517142025E+04  0.25500000920E-02 0.  1.
    10030    2    1    2    0    0  0.00000000000E+00  0.00000000000E+00  0.76731520199E+03  0.40707436069E+04  0.39977719913E+04 0.  0.
        1    1    3    3  502    0  0.63547508923E+03  0.25314475697E+03  0.22961402820E+04  0.23958654077E+04  0.50400001928E-02 0. -1.
       -1    1    3    3    0  502 -0.63547508923E+03 -0.25314475697E+03 -0.15288250800E+04  0.16748781993E+04  0.50400001928E-02 0.  1.
</event>
<event>
 5   0  0.6645526E-09  0.3997350E+04  0.7818609E-02  0.8005081E-01
       -2   -1    0    0    0  501  0.00000000000E+00  0.00000000000E+00  0.18722099787E+04  0.18722099787E+04  0.25500000920E-02 0.  1.
        2   -1    0    0  501    0  0.00000000000E+00  0.00000000000E+00 -0.21336820829E+04  0.21336820829E+04  0.25500000920E-02 0. -1.
    10030    2    1    2    0    0  0.00000000000E+00  0.00000000000E+00 -0.26147210424E+03  0.40058920617E+04  0.39973495654E+04 0.  0.
        3    1    3    3  502    0 -0.22638601000E+03 -0.73426752696E+03 -0.19797539684E+04  0.21236349056E+04  0.10100000352E+00 0. -1.
       -3    1    3    3    0  502  0.22638601000E+03  0.73426752696E+03  0.17182818642E+04  0.18822571561E+04  0.10100000352E+00 0.  1.
</event>
<event>
 5   0  0.6736335E-09  0.4001717E+04  0.7818609E-02  0.8004200E-01
        2   -1    0    0  501    0  0.00000000000E+00  0.00000000000E+00  0.16169499147E+04  0.16169499147E+04  0.25500000920E-02 0. -1.
       -2   -1    0    0    0  501  0.00000000000E+00  0.00000000000E+00 -0.24759173921E+04  0.24759173921E+04  0.25500000920E-02 0.  1.
    10030    2    1    2    0    0  0.00000000000E+00  0.00000000000E+00 -0.85896747741E+03  0.40928673068E+04  0.40017168396E+04 0.  0.
        1    1    3    3  502    0  0.19613983579E+03  0.28568418655E+02 -0.24658514804E+04  0.24738048656E+04  0.50400001928E-02 0.  1.
       -1    1    3    3    0  502 -0.19613983579E+03 -0.28568418655E+02  0.16068840030E+04  0.16190624413E+04  0.50400001928E-02 0. -1.
</event>
<event>
 5   0  0.6645526E-09  0.4005881E+04  0.7818609E-02  0.8003361E-01
       -2   -1    0    0    0  501  0.00000000000E+00  0.00000000000E+00  0.16905132241E+04  0.16905132241E+04  0.25500000920E-02 0. -1.
        2   -1    0    0  501    0  0.00000000000E+00  0.00000000000E+00 -0.23731086479E+04  0.23731086479E+04  0.25500000920E-02 0.  1.
    10030    2    1    2    0    0  0.00000000000E+00  0.00000000000E+00 -0.68259542374E+03  0.40636218720E+04  0.40058814518E+04 0.  0.
        3    1    3    3  502    0  0.41185702222E+03 -0.13710337927E+04 -0.17623506461E+04  0.22705152890E+04  0.10100000352E+00 0.  1.
       -3    1    3    3    0  502 -0.41185702222E+03  0.13710337927E+04  0.10797552224E+04  0.17931065830E+04  0.10100000352E+00 0. -1.
</event>
<event>
 5   0  0.6599276E-09  0.4000719E+04  0.7818609E-02  0.8004402E-01
        2   -1    0    0  501    0  0.00000000000E+00  0.00000000000E+00  0.26065143841E+04  0.26065143841E+04  0.25500000920E-02 0.  1.
       -2   -1    0    0    0  501  0.00000000000E+00  0.00000000000E+00 -0.15351682863E+04  0.15351682863E+04  0.25500000920E-02 0. -1.
    10030    2    1    2    0    0  0.00000000000E+00  0.00000000000E+00  0.10713460977E+04  0.41416826704E+04  0.40007190455E+04 0.  0.
        2    1    3    3  502    0 -0.11639398218E+04 -0.84064239424E+03  0.19775889518E+04  0.24438276547E+04  0.25500000920E-02 0.  1.
       -2    1    3    3    0  502  0.11639398218E+04  0.84064239424E+03 -0.90624285402E+03  0.16978550157E+04  0.25500000920E-02 0. -1.
</event>
<event>
 5   0  0.6736335E-09  0.3999637E+04  0.7818609E-02  0.8004620E-01
       -2   -1    0    0    0  501  0.00000000000E+00  0.00000000000E+00  0.20109635960E+04  0.20109635960E+04  0.25500000920E-02 0. -1.
        2   -1    0    0  501    0  0.00000000000E+00  0.00000000000E+00 -0.19887352880E+04  0.19887352880E+04  0.25500000920E-02 0.  1.
    10030    2    1    2    0    0  0.00000000000E+00  0.00000000000E+00  0.22228307943E+02  0.39996988840E+04  0.39996371167E+04 0.  0.
        1    1    3    3  502    0  0.30893597378E+03  0.18959793217E+04 -0.54485777787E+03  0.19967596306E+04  0.50400001928E-02 0.  1.
       -1    1    3    3    0  502 -0.30893597378E+03 -0.18959793217E+04  0.56708608582E+03  0.20029392534E+04  0.50400001928E-02 0. -1.
</event>
<event>
 5   0  0.2078125E-09  0.4001122E+04  0.7818609E-02  0.8004320E-01
       -1   -1    0    0    0  501  0.00000000000E+00  0.00000000000E+00  0.33543156925E+04  0.33543156925E+04  0.50400001928E-02 0. -1.
        1   -1    0    0  501    0  0.00000000000E+00  0.00000000000E+00 -0.11931627002E+04  0.11931627002E+04  0.50400001928E-02 0.  1.
    10030    2    1    2    0    0  0.00000000000E+00  0.00000000000E+00  0.21611529923E+04  0.45474783927E+04  0.40011220271E+04 0.  0.
        5    1    3    3  502    0  0.20165164795E+03 -0.38132104514E+03 -0.11396728217E+04  0.12185833402E+04  0.46999998093E+01 0.  1.
       -5    1    3    3    0  502 -0.20165164795E+03  0.38132104514E+03  0.33008258139E+04  0.33288950525E+04  0.46999998093E+01 0. -1.
</event>
<event>
 5   0  0.2078125E-09  0.3998978E+04  0.7818609E-02  0.8004753E-01
       -1   -1    0    0    0  501  0.00000000000E+00  0.00000000000E+00  0.13285759019E+04  0.13285759019E+04  0.50400001928E-02 0.  1.
        1   -1    0    0  501    0  0.00000000000E+00  0.00000000000E+00 -0.30092037535E+04  0.30092037535E+04  0.50400001928E-02 0. -1.
    10030    2    1    2    0    0  0.00000000000E+00  0.00000000000E+00 -0.16806278516E+04  0.43377796554E+04  0.39989776648E+04 0.  0.
        5    1    3    3  502    0  0.11717911818E+04  0.61870036433E+03  0.78389180416E+03  0.15396081206E+04  0.46999998093E+01 0.  1.
       -5    1    3    3    0  502 -0.11717911818E+04 -0.61870036433E+03 -0.24645196558E+04  0.27981715348E+04  0.46999998093E+01 0. -1.
</event>
<event>
 5   0  0.6599276E-09  0.4000383E+04  0.7818609E-02  0.8004469E-01
       -2   -1    0    0    0  501  0.00000000000E+00  0.00000000000E+00  0.17397876818E+04  0.17397876818E+04  0.25500000920E-02 0. -1.
        2   -1    0    0  501    0  0.00000000000E+00  0.00000000000E+00 -0.22995714580E+04  0.22995714580E+04  0.25500000920E-02 0.  1.
    10030    2    1    2    0    0  0.00000000000E+00  0.00000000000E+00 -0.55978377624E+03  0.40393591398E+04  0.40003830296E+04 0.  0.
        2    1    3    3  502    0 -0.12903686497E+03 -0.98020596879E+03 -0.20356001968E+04  0.22629897072E+04  0.25500000920E-02 0.  1.
       -2    1    3    3    0  502  0.12903686497E+03  0.98020596879E+03  0.14758164205E+04  0.17763694326E+04  0.25500000920E-02 0. -1.
</event>
<event>
 5   0  0.2078125E-09  0.4000814E+04  0.7818609E-02  0.8004382E-01
       -1   -1    0    0    0  501  0.00000000000E+00  0.00000000000E+00  0.15580696377E+04  0.15580696377E+04  0.50400001928E-02 0.  1.
        1   -1    0    0  501    0  0.00000000000E+00  0.00000000000E+00 -0.25683239293E+04  0.25683239293E+04  0.50400001928E-02 0. -1.
    10030    2    1    2    0    0  0.00000000000E+00  0.00000000000E+00 -0.10102542916E+04  0.41263935670E+04  0.40008136842E+04 0.  0.
        3    1    3    3  502    0  0.52627381176E+03 -0.12429857136E+04  0.10175775715E+04  0.16903969159E+04  0.10100000352E+00 0.  1.
       -3    1    3    3    0  502 -0.52627381176E+03  0.12429857136E+04 -0.20278318631E+04  0.24359966511E+04  0.10100000352E+00 0. -1.
</event>
<event>
 5   0  0.2078125E-09  0.4001996E+04  0.7818609E-02  0.8004144E-01
       -1   -1    0    0    0  501  0.00000000000E+00  0.00000000000E+00  0.18314465877E+04  0.18314465877E+04  0.50400001928E-02 0.  1.
        1   -1    0    0  501    0  0.00000000000E+00  0.00000000000E+00 -0.21862456456E+04  0.21862456456E+04  0.50400001928E-02 0. -1.
    10030    2    1    2    0    0  0.00000000000E+00  0.00000000000E+00 -0.35479905792E+03  0.40176922334E+04  0.40019955660E+04 0.  0.
        5    1    3    3  502    0 -0.49078883803E+03 -0.18588543827E+04 -0.73433367736E+03  0.20580285079E+04  0.46999998093E+01 0. -1.
       -5    1    3    3    0  502  0.49078883803E+03  0.18588543827E+04  0.37953461944E+03  0.19596637255E+04  0.46999998093E+01 0.  1.
</event>
<event>
 5   0  0.6547327E-09  0.3997139E+04  0.7818609E-02  0.8005124E-01
       -2   -1    0    0    0  501  0.00000000000E+00  0.00000000000E+00  0.24533284144E+04  0.24533284144E+04  0.25500000920E-02 0. -1.
        2   -1    0    0  501    0  0.00000000000E+00  0.00000000000E+00 -0.16281067698E+04  0.16281067698E+04  0.25500000920E-02 0.  1.
    10030    2    1    2    0    0  0.00000000000E+00  0.00000000000E+00  0.82522164457E+03  0.40814351842E+04  0.39971392771E+04 0.  0.
        5    1    3    3  502    0  0.62533616536E+03  0.35532540575E+03  0.23165947834E+04  0.24256823667E+04  0.46999998093E+01 0. -1.
       -5    1    3    3    0  502 -0.62533616536E+03 -0.35532540575E+03 -0.14913731388E+04  0.16557528176E+04  0.46999998093E+01 0.  1.
</event>
<event>
 5   0  0.6645526E-09  0.4002724E+04  0.7818609E-02  0.8003997E-01
       -2   -1    0    0    0  501  0.00000000000E+00  0.00000000000E+00  0.17136421468E+04  0.17136421468E+04  0.25500000920E-02 0. -1.
        2   -1    0    0  501    0  0.00000000000E+00  0.00000000000E+00 -0.23373899735E+04  0.23373899735E+04  0.25500000920E-02 0.  1.
    10030    2    1    2    0    0  0.00000000000E+00  0.00000000000E+00 -0.62374782661E+03  0.40510321203E+04  0.40027240585E+04 0.  0.
        3    1    3    3  502    0 -0.11711548834E+04 -0.59965630935E+03  0.12143911019E+04  0.17905131133E+04  0.10100000352E+00 0. -1.
       -3    1    3    3    0  502  0.11711548834E+04  0.59965630935E+03 -0.18381389286E+04  0.22605190070E+04  0.10100000352E+00 0.  1.
</event>
<event>
 5   0  0.6599276E-09  0.3999205E+04  0.7818609E-02  0.8004707E-01
        2   -1    0    0  501    0  0.00000000000E+00  0.00000000000E+00  0.27410879673E+04  0.27410879673E+04  0.25500000920E-02 0. -1.
       -2   -1    0    0    0  501  0.00000000000E+00  0.00000000000E+00 -0.14586944989E+04  0.14586944989E+04  0.25500000920E-02 0.  1.
    10030    2    1    2    0    0  0.00000000000E+00  0.00000000000E+00  0.12823934684E+04  0.41997824663E+04  0.39992048905E+04 0.  0.
        2    1    3    3  502    0  0.67182222367E+02  0.45986676347E+03  0.26835833802E+04  0.27235290801E+04  0.25500000920E-02 0. -1.
       -2    1    3    3    0  502 -0.67182222367E+02 -0.45986676347E+03 -0.14011899119E+04  0.14762533862E+04  0.25500000920E-02 0.  1.
</event>
<event>
 5   0  0.2078125E-09  0.4003895E+04  0.7818609E-02  0.8003761E-01
       -1   -1    0    0    0  501  0.00000000000E+00  0.00000000000E+00  0.13205015895E+04  0.13205015895E+04  0.50400001928E-02 0.  1.
        1   -1    0    0  501    0  0.00000000000E+00  0.00000000000E+00 -0.30350548156E+04  0.30350548156E+04  0.50400001928E-02 0. -1.
    10030    2    1    2    0    0  0.00000000000E+00  0.00000000000E+00 -0.17145532261E+04  0.43555564050E+04  0.40038954572E+04 0.  0.
        3    1    3    3  502    0 -0.16737687558E+04  0.34991245980E+03  0.27524455797E+03  0.17319642475E+04  0.10100000352E+00 0.  1.
       -3    1    3    3    0  502  0.16737687558E+04 -0.34991245980E+03 -0.19897977841E+04  0.26235921576E+04  0.10100000352E+00 0. -1.
</event>
<event>
 5   0  0.6736335E-09  0.4002781E+04  0.7818609E-02  0.8003986E-01
        2   -1    0    0  501    0  0.00000000000E+00  0.00000000000E+00  0.11837984626E+04  0.11837984626E+04  0.25500000920E-02 0. -1.
       -2   -1    0    0    0  501  0.00000000000E+00  0.00000000000E+00 -0.33836528364E+04  0.33836528364E+04  0.25500000920E-02 0.  1.
    10030    2    1    2    0    0  0.00000000000E+00  0.00000000000E+00 -0.21998543739E+04  0.45674512990E+04  0.40027805464E+04 0.  0.
        1    1    3    3  502    0 -0.19983876062E+04 -0.62424064159E+01 -0.12247741455E+04  0.23438565868E+04  0.50400001928E-02 0. -1.
       -1    1    3    3    0  502  0.19983876062E+04  0.62424064159E+01 -0.97508022835E+03  0.22235947122E+04  0.50400001928E-02 0.  1.
</event>
<event>
 5   0  0.2078125E-09  0.4001053E+04  0.7818609E-02  0.8004334E-01
       -1   -1    0    0    0  501  0.00000000000E+00  0.00000000000E+00  0.15367770534E+04  0.15367770534E+04  0.50400001928E-02 0. -1.
        1   -1    0    0  501    0  0.00000000000E+00  0.00000000000E+00 -0.26042205576E+04  0.26042205576E+04  0.50400001928E-02 0.  1.
    10030    2    1    2    0    0  0.00000000000E+00  0.00000000000E+00 -0.10674435043E+04  0.41409976110E+04  0.40010530588E+04 0.  0.
        2    1    3    3  502    0 -0.89728992166E+03 -0.88373792966E+03  0.10749881602E+04  0.16558144450E+04  0.25500000920E-02 0. -1.
       -2    1    3    3    0  502  0.89728992166E+03  0.88373792966E+03 -0.21424316644E+04  0.24851831660E+04  0.25500000920E-02 0.  1.
</event>
<event>
 5   0  0.2078125E-09  0.3997737E+04  0.7818609E-02  0.8005003E-01
        1   -1    0    0  501    0  0.00000000000E+00  0.00000000000E+00  0.12254509064E+04  0.12254509064E+04  0.50400001928E-02 0. -1.
       -1   -1    0    0    0  501  0.00000000000E+00  0.00000000000E+00 -0.32604117378E+04  0.32604117378E+04  0.50400001928E-02 0.  1.
    10030    2    1    2    0    0  0.00000000000E+00  0.00000000000E+00 -0.20349608314E+04  0.44858626442E+04  0.39977366193E+04 0.  0.
        5    1    3    3  502    0  0.13881209271E+04  0.65931726297E+03 -0.24517837346E+04  0.28935867937E+04  0.46999998093E+01 0.  1.
       -5    1    3    3    0  502 -0.13881209271E+04 -0.65931726297E+03  0.41682290323E+03  0.15922758505E+04  0.46999998093E+01 0. -1.
</event>
<event>
 5   0  0.2078125E-09  0.4001349E+04  0.7818609E-02  0.8004275E-01
        1   -1    0    0  501    0  0.00000000000E+00  0.00000000000E+00  0.15714403224E+04  0.15714403225E+04  0.50400001928E-02 0. -1.
       -1   -1    0    0    0  501  0.00000000000E+00  0.00000000000E+00 -0.25471523318E+04  0.25471523318E+04  0.50400001928E-02 0.  1.
    10030    2    1    2    0    0  0.00000000000E+00  0.00000000000E+00 -0.97571200932E+03  0.41185926542E+04  0.40013487134E+04 0.  0.
        5    1    3    3  502    0 -0.18897384010E+04 -0.10923828725E+03  0.17891470414E+03  0.19013355277E+04  0.46999998093E+01 0. -1.
       -5    1    3    3    0  502  0.18897384010E+04  0.10923828725E+03 -0.11546267135E+04  0.22172571265E+04  0.46999998093E+01 0.  1.
</event>
<event>
 5   0  0.2078125E-09  0.4001096E+04  0.7818609E-02  0.8004326E-01
       -1   -1    0    0    0  501  0.00000000000E+00  0.00000000000E+00  0.20195725778E+04  0.20195725778E+04  0.50400001928E-02 0. -1.
        1   -1    0    0  501    0  0.00000000000E+00  0.00000000000E+00 -0.19817024188E+04  0.19817024188E+04  0.50400001928E-02 0.  1.
    10030    2    1    2    0    0  0.00000000000E+00  0.00000000000E+00  0.37870159015E+02  0.40012749967E+04  0.40010957812E+04 0.  0.
        2    1    3    3  502    0 -0.12287107168E+04  0.93869928911E+03 -0.12504938593E+04  0.19886229590E+04  0.25500000920E-02 0.  1.
       -2    1    3    3    0  502  0.12287107168E+04 -0.93869928911E+03  0.12883640183E+04  0.20126520376E+04  0.25500000920E-02 0. -1.
</event>
<event>
 5   0  0.6538370E-09  0.3998425E+04  0.7818609E-02  0.8004864E-01
       -2   -1    0    0    0  501  0.00000000000E+00  0.00000000000E+00  0.23336522660E+04  0.23336522660E+04  0.25500000920E-02 0.  1.
        2   -1    0    0  501    0  0.00000000000E+00  0.00000000000E+00 -0.17127016098E+04  0.17127016098E+04  0.25500000920E-02 0. -1.
    10030    2    1    2    0    0  0.00000000000E+00  0.00000000000E+00  0.62095065627E+03  0.40463538758E+04  0.39984246861E+04 0.  0.
        4    1    3    3  502    0 -0.13260846417E+04  0.14798859268E+04  0.53284907605E+03  0.20573022588E+04  0.12699999809E+01 0.  1.
       -4    1    3    3    0  502  0.13260846417E+04 -0.14798859268E+04  0.88101580215E+02  0.19890516169E+04  0.12699999809E+01 0. -1.
</event>
<event>
 5   0  0.2078125E-09  0.3999538E+04  0.7818609E-02  0.8004640E-01
        1   -1    0    0  501    0  0.00000000000E+00  0.00000000000E+00  0.33002248522E+04  0.33002248522E+04  0.50400001928E-02 0.  1.
       -1   -1    0    0    0  501  0.00000000000E+00  0.00000000000E+00 -0.12117588473E+04  0.12117588473E+04  0.50400001928E-02 0. -1.
    10030    2    1    2    0    0  0.00000000000E+00  0.00000000000E+00  0.20884660050E+04  0.45119836995E+04  0.39995383047E+04 0.  0.
        4    1    3    3  502    0  0.16288758137E+04  0.13044433009E+03  0.23446756845E+04  0.28579289385E+04  0.12699999809E+01 0.  1.
       -4    1    3    3    0  502 -0.16288758137E+04 -0.13044433009E+03 -0.25620967947E+03  0.16540547610E+04  0.12699999809E+01 0. -1.
</event>
<event>
 5   0  0.2078125E-09  0.4002147E+04  0.7818609E-02  0.8004114E-01
        1   -1    0    0  501    0  0.00000000000E+00  0.00000000000E+00  0.26622824840E+04  0.26622824840E+04  0.50400001928E-02 0.  1.
       -1   -1    0    0    0  501  0.00000000000E+00  0.00000000000E+00 -0.15040835602E+04  0.15040835602E+04  0.50400001928E-02 0. -1.
    10030    2    1    2    0    0  0.00000000000E+00  0.00000000000E+00  0.11581989239E+04  0.41663660442E+04  0.40021470822E+04 0.  0.
        5    1    3    3  502    0  0.90855812628E+02  0.97593927648E+03  0.23952647940E+04  0.25880548243E+04  0.46999998093E+01 0.  1.
       -5    1    3    3    0  502 -0.90855812628E+02 -0.97593927648E+03 -0.12370658701E+04  0.15783112200E+04  0.46999998093E+01 0. -1.
</event>
<event>
 5   0  0.2078125E-09  0.4000006E+04  0.7818609E-02  0.8004545E-01
        1   -1    0    0  501    0  0.00000000000E+00  0.00000000000E+00  0.33513845157E+04  0.33513845157E+04  0.50400001928E-02 0. -1.
       -1   -1    0    0    0  501  0.00000000000E+00  0.00000000000E+00 -0.11935399529E+04  0.11935399529E+04  0.50400001928E-02 0.  1.
    10030    2    1    2    0    0  0.00000000000E+00  0.00000000000E+00  0.21578445629E+04  0.45449244686E+04  0.40000056585E+04 0.  0.
        2    1    3    3  502    0  0.12688923909E+04 -0.14819986123E+04  0.15788678240E+04  0.25098269646E+04  0.25500000920E-02 0. -1.
       -2    1    3    3    0  502 -0.12688923909E+04  0.14819986123E+04  0.57897673886E+03  0.20350975040E+04  0.25500000920E-02 0.  1.
</event>
<event>
 5   0  0.6736335E-09  0.4000308E+04  0.7818609E-02  0.8004484E-01
        2   -1    0    0  501    0  0.00000000000E+00  0.00000000000E+00  0.17763511611E+04  0.17763511611E+04  0.25500000920E-02 0. -1.
       -2   -1    0    0    0  501  0.00000000000E+00  0.00000000000E+00 -0.22521539078E+04  0.22521539078E+04  0.25500000920E-02 0.  1.
    10030    2    1    2    0    0  0.00000000000E+00  0.00000000000E+00 -0.47580274678E+03  0.40285050689E+04  0.40003080927E+04 0.  0.
        1    1    3    3  502    0 -0.61784306555E+03  0.13665810422E+04 -0.15706124460E+04  0.21716577203E+04  0.50400001928E-02 0.  1.
       -1    1    3    3    0  502  0.61784306555E+03 -0.13665810422E+04  0.10948096992E+04  0.18568473486E+04  0.50400001928E-02 0. -1.
</event>
<event>
 5   0  0.6645526E-09  0.4000631E+04  0.7818609E-02  0.8004419E-01
        2   -1    0    0  501    0  0.00000000000E+00  0.00000000000E+00  0.13190396228E+04  0.13190396229E+04  0.25500000920E-02 0.  1.
       -2   -1    0    0    0  501  0.00000000000E+00  0.00000000000E+00 -0.30334666897E+04  0.30334666897E+04  0.25500000920E-02 0. -1.
    10030    2    1    2    0    0  0.00000000000E+00  0.00000000000E+00 -0.17144270669E+04  0.43525063126E+04  0.40006313293E+04 0.  0.
        3    1    3    3  502    0 -0.77867031983E+03 -0.63760668095E+03  0.10235306760E+04  0.14354388881E+04  0.10100000352E+00 0.  1.
       -3    1    3    3    0  502  0.77867031983E+03  0.63760668095E+03 -0.27379577429E+04  0.29170674244E+04  0.10100000352E+00 0. -1.
</event>
<event>
 5   0  0.6645526E-09  0.3998524E+04  0.7818609E-02  0.8004844E-01
        2   -1    0    0  501    0  0.00000000000E+00  0.00000000000E+00  0.15294429742E+04  0.15294429742E+04  0.25500000920E-02 0. -1.
       -2   -1    0    0    0  501  0.00000000000E+00  0.00000000000E+00 -0.26134011995E+04  0.26134011995E+04  0.25500000920E-02 0.  1.
    10030    2    1    2    0    0  0.00000000000E+00  0.00000000000E+00 -0.10839582253E+04  0.41428441737E+04  0.39985237793E+04 0.  0.
        3    1    3    3  502    0 -0.63384298996E+03 -0.12680582679E+04 -0.20025840009E+04  0.24535833790E+04  0.10100000352E+00 0.  1.
       -3    1    3    3    0  502  0.63384298996E+03  0.12680582679E+04  0.91862577558E+03  0.16892607947E+04  0.10100000352E+00 0. -1.
</event>
<event>
 5   0  0.2078125E-09  0.3997134E+04  0.7818609E-02  0.8005125E-01
       -1   -1    0    0    0  501  0.00000000000E+00  0.00000000000E+00  0.22601499096E+04  0.22601499096E+04  0.50400001928E-02 0.  1.
        1   -1    0    0  501    0  0.00000000000E+00  0.00000000000E+00 -0.17672585948E+04  0.17672585948E+04  0.50400001928E-02 0. -1.
    10030    2    1    2    0    0  0.00000000000E+00  0.00000000000E+00  0.49289131476E+03  0.40274085044E+04  0.39971336496E+04 0.  0.
        4    1    3    3  502    0  0.17955518800E+04 -0.87485313004E+03  0.17596451361E+03  0.20050784712E+04  0.12699999809E+01 0. -1.
       -4    1    3    3    0  502 -0.17955518800E+04  0.87485313004E+03  0.31692680115E+03  0.20223300332E+04  0.12699999809E+01 0.  1.
</event>
<event>
 5   0  0.6736335E-09  0.4001413E+04  0.7818609E-02  0.8004262E-01
       -2   -1    0    0    0  501  0.00000000000E+00  0.00000000000E+00  0.18592794699E+04  0.18592794699E+04  0.25500000920E-02 0.  1.
        2   -1    0    0  501    0  0.00000000000E+00  0.00000000000E+00 -0.21528908242E+04  0.21528908242E+04  0.25500000920E-02 0. -1.
    10030    2    1    2    0    0  0.00000000000E+00  0.00000000000E+00 -0.29361135434E+03  0.40121702941E+04  0.40014126058E+04 0.  0.
        1    1    3    3  502    0 -0.96043506606E+03  0.83628108340E+03 -0.16940108963E+04  0.21193099074E+04  0.50400001928E-02 0. -1.
       -1    1    3    3    0  502  0.96043506606E+03 -0.83628108340E+03  0.14003995420E+04  0.18928603868E+04  0.50400001928E-02 0.  1.
</event>
<event>
 5   0  0.2078125E-09  0.4003539E+04  0.7818609E-02  0.8003833E-01
        1   -1    0    0  501    0  0.00000000000E+00  0.00000000000E+00  0.15121120363E+04  0.15121120363E+04  0.50400001928E-02 0.  1.
       -1   -1    0    0    0  501  0.00000000000E+00  0.00000000000E+00 -0.26499895671E+04  0.26499895671E+04  0.50400001928E-02 0. -1.
    10030    2    1    2    0    0  0.00000000000E+00  0.00000000000E+00 -0.11378775308E+04  0.41621016034E+04  0.40035389946E+04 0.  0.
        2    1    3    3  502    0  0.69105803920E+03  0.20965804552E+03 -0.25098474751E+04  0.26116761012E+04  0.25500000920E-02 0. -1.
       -2    1    3    3    0  502 -0.69105803920E+03 -0.20965804552E+03  0.13719699443E+04  0.15504255021E+04  0.25500000920E-02 0.  1.
</event>
<event>
 5   0  0.2078125E-09  0.4000073E+04  0.7818609E-02  0.8004532E-01
       -1   -1    0    0    0  501  0.00000000000E+00  0.00000000000E+00  0.14185882086E+04  0.14185882086E+04  0.50400001928E-02 0.  1.
        1   -1    0    0  501    0  0.00000000000E+00  0.00000000000E+00 -0.28198074624E+04  0.28198074624E+04  0.50400001928E-02 0. -1.
    10030    2    1    2    0    0  0.00000000000E+00  0.00000000000E+00 -0.14012192538E+04  0.42383956710E+04  0.40000728077E+04 0.  0.
        3    1    3    3  502    0 -0.11386090856E+04 -0.10248385686E+04  0.66185522691E+03  0.16687651402E+04  0.10100000352E+00 0.  1.
       -3    1    3    3    0  502  0.11386090856E+04  0.10248385686E+04 -0.20630744807E+04  0.25696305308E+04  0.10100000352E+00 0. -1.
</event>
<event>
 5   0  0.2078125E-09  0.3998900E+04  0.7818609E-02  0.8004769E-01
        3   -1    0    0  501    0  0.00000000000E+00  0.00000000000E+00  0.24719382224E+04  0.24719382245E+04  0.10100000352E+00 0.  1.
       -3   -1    0    0    0  501  0.00000000000E+00  0.00000000000E+00 -0.16172733755E+04  0.16172733786E+04  0.10100000352E+00 0. -1.
    10030    2    1    2    0    0  0.00000000000E+00  0.00000000000E+00  0.85466484697E+03  0.40892116031E+04  0.39988997905E+04 0.  0.
        4    1    3    3  502    0 -0.13801597261E+04 -0.11413970086E+04 -0.48165820537E+03  0.18546223984E+04  0.12699999809E+01 0. -1.
       -4    1    3    3    0  502  0.13801597261E+04  0.11413970086E+04  0.13363230523E+04  0.22345892048E+04  0.12699999809E+01 0.  1.
</event>
<event>
 5   0  0.6599276E-09  0.3989985E+04  0.7818609E-02  0.8006570E-01
        2   -1    0    0  501    0  0.00000000000E+00  0.00000000000E+00  0.23269535407E+04  0.23269535407E+04  0.25500000920E-02 0.  1.
       -2   -1    0    0    0  501  0.00000000000E+00  0.00000000000E+00 -0.17103884249E+04  0.17103884249E+04  0.25500000920E-02 0. -1.
    10030    2    1    2    0    0  0.00000000000E+00  0.00000000000E+00  0.61656511584E+03  0.40373419656E+04  0.39899846623E+04 0.  0.
        2    1    3    3  502    0 -0.12362085318E+04 -0.48230562292E+03  0.18156496300E+04  0.22488694553E+04  0.25500000920E-02 0.  1.
       -2    1    3    3    0  502  0.12362085318E+04  0.48230562292E+03 -0.11990845142E+04  0.17884725103E+04  0.25500000920E-02 0. -1.
</event>
<event>
 5   0  0.6736335E-09  0.4000097E+04  0.7818609E-02  0.8004527E-01
        2   -1    0    0  501    0  0.00000000000E+00  0.00000000000E+00  0.19761939006E+04  0.19761939006E+04  0.25500000920E-02 0. -1.
       -2   -1    0    0    0  501  0.00000000000E+00  0.00000000000E+00 -0.20241913085E+04  0.20241913085E+04  0.25500000920E-02 0.  1.
    10030    2    1    2    0    0  0.00000000000E+00  0.00000000000E+00 -0.47997407995E+02  0.40003852091E+04  0.40000972576E+04 0.  0.
        1    1    3    3  502    0 -0.15490252215E+04  0.12268845400E+04 -0.33300267086E+03  0.20039000949E+04  0.50400001928E-02 0. -1.
       -1    1    3    3    0  502  0.15490252215E+04 -0.12268845400E+04  0.28500526287E+03  0.19964851142E+04  0.50400001928E-02 0.  1.
</event>
<event>
 5   0  0.6645526E-09  0.4000962E+04  0.7818609E-02  0.8004353E-01
        2   -1    0    0  501    0  0.00000000000E+00  0.00000000000E+00  0.27207761173E+04  0.27207761173E+04  0.25500000920E-02 0. -1.
       -2   -1    0    0    0  501  0.00000000000E+00  0.00000000000E+00 -0.14708757175E+04  0.14708757175E+04  0.25500000920E-02 0.  1.
    10030    2    1    2    0    0  0.00000000000E+00  0.00000000000E+00  0.12499003998E+04  0.41916518348E+04  0.40009616462E+04 0.  0.
        3    1    3    3  502    0  0.24710484986E+03  0.71298396243E+03  0.25659573521E+04  0.26746110148E+04  0.10100000352E+00 0. -1.
       -3    1    3    3    0  502 -0.24710484986E+03 -0.71298396243E+03 -0.13160569523E+04  0.15170408200E+04  0.10100000352E+00 0.  1.
</event>
<event>
 5   0  0.2078125E-09  0.3999540E+04  0.7818609E-02  0.8004639E-01
        1   -1    0    0  501    0  0.00000000000E+00  0.00000000000E+00  0.15656866562E+04  0.15656866562E+04  0.50400001928E-02 0. -1.
       -1   -1    0    0    0  501  0.00000000000E+00  0.00000000000E+00 -0.25542019920E+04  0.25542019920E+04  0.50400001928E-02 0.  1.
    10030    2    1    2    0    0  0.00000000000E+00  0.00000000000E+00 -0.98851533577E+03  0.41198886482E+04  0.39995399616E+04 0.  0.
        2    1    3    3  502    0 -0.13127581099E+03  0.19916390877E+04 -0.36717444662E+03  0.20294523075E+04  0.25500000920E-02 0. -1.
       -2    1    3    3    0  502  0.13127581099E+03 -0.19916390877E+04 -0.62134088915E+03  0.20904363407E+04  0.25500000920E-02 0.  1.
</event>
<event>
 5   0  0.6538370E-09  0.4001566E+04  0.7818609E-02  0.8004231E-01
        2   -1    0    0  501    0  0.00000000000E+00  0.00000000000E+00  0.27807747712E+04  0.27807747712E+04  0.25500000920E-02 0. -1.
       -2   -1    0    0    0  501  0.00000000000E+00  0.00000000000E+00 -0.14395746139E+04  0.14395746139E+04  0.25500000920E-02 0.  1.
    10030    2    1    2    0    0  0.00000000000E+00  0.00000000000E+00  0.13412001573E+04  0.42203493851E+04  0.40015660772E+04 0.  0.
        4    1    3    3  502    0  0.88121000642E+03  0.12061961060E+04  0.20744232505E+04  0.25563007563E+04  0.12699999809E+01 0. -1.
       -4    1    3    3    0  502 -0.88121000642E+03 -0.12061961060E+04 -0.73322309318E+03  0.16640486288E+04  0.12699999809E+01 0.  1.
</event>
<event>
 5   0  0.6736335E-09  0.3999405E+04  0.7818609E-02  0.8004667E-01
        2   -1    0    0  501    0  0.00000000000E+00  0.00000000000E+00  0.23332717938E+04  0.23332717938E+04  0.25500000920E-02 0. -1.
       -2   -1    0    0    0  501  0.00000000000E+00  0.00000000000E+00 -0.17138213158E+04  0.17138213158E+04  0.25500000920E-02 0.  1.
    10030    2    1    2    0    0  0.00000000000E+00  0.00000000000E+00  0.61945047793E+03  0.40470931096E+04  0.39994054237E+04 0.  0.
        1    1    3    3  502    0  0.14495449797E+04 -0.13775400297E+04  0.30597235289E+03  0.20229721358E+04  0.50400001928E-02 0. -1.
       -1    1    3    3    0  502 -0.14495449797E+04  0.13775400297E+04  0.31347812505E+03  0.20241209738E+04  0.50400001928E-02 0.  1.
</event>
<event>
 5   0  0.2078125E-09  0.3999483E+04  0.7818609E-02  0.8004651E-01
       -1   -1    0    0    0  501  0.00000000000E+00  0.00000000000E+00  0.29404877143E+04  0.29404877143E+04  0.50400001928E-02 0.  1.
        1   -1    0    0  501    0  0.00000000000E+00  0.00000000000E+00 -0.13599666267E+04  0.13599666267E+04  0.50400001928E-02 0. -1.
    10030    2    1    2    0    0  0.00000000000E+00  0.00000000000E+00  0.15805210876E+04  0.43004543411E+04  0.39994825454E+04 0.  0.
        1    1    3    3  502    0  0.25770242052E+02 -0.41020487149E+03 -0.13140595107E+04  0.13768386033E+04  0.50400001928E-02 0. -1.
       -1    1    3    3    0  502 -0.25770242052E+02  0.41020487149E+03  0.28945805983E+04  0.29236157377E+04  0.50400001928E-02 0.  1.
</event>
<event>
 5   0  0.2078125E-09  0.3999917E+04  0.7818609E-02  0.8004563E-01
        1   -1    0    0  501    0  0.00000000000E+00  0.00000000000E+00  0.12617910686E+04  0.12617910686E+04  0.50400001928E-02 0.  1.
       -1   -1    0    0    0  501  0.00000000000E+00  0.00000000000E+00 -0.31699661584E+04  0.31699661584E+04  0.50400001928E-02 0. -1.
    10030    2    1    2    0    0  0.00000000000E+00  0.00000000000E+00 -0.19081750898E+04  0.44317572270E+04  0.39999174924E+04 0.  0.
        5    1    3    3  502    0 -0.19148737255E+04 -0.36436957926E+03 -0.14499625938E+04  0.24293867927E+04  0.46999998093E+01 0.  1.
       -5    1    3    3    0  502  0.19148737255E+04  0.36436957926E+03 -0.45821249596E+03  0.20023704344E+04  0.46999998093E+01 0. -1.
</event>
<event>
 5   0  0.6547327E-09  0.4000777E+04  0.7818609E-02  0.8004390E-01
        2   -1    0    0  501    0  0.00000000000E+00  0.00000000000E+00  0.19186917273E+04  0.19186917273E+04  0.25500000920E-02 0. -1.
       -2   -1    0    0    0  501  0.00000000000E+00  0.00000000000E+00 -0.20855642080E+04  0.20855642080E+04  0.25500000920E-02 0.  1.
    10030    2    1    2    0    0  0.00000000000E+00  0.00000000000E+00 -0.16687248066E+03  0.40042559353E+04  0.40007773208E+04 0.  0.
        5    1    3    3  502    0  0.10992385581E+04  0.16695227793E+04 -0.16032089721E+03  0.20053320419E+04  0.46999998093E+01 0.  1.
       -5    1    3    3    0  502 -0.10992385581E+04 -0.16695227793E+04 -0.65515834490E+01  0.19989238934E+04  0.46999998093E+01 0. -1.
</event>
<event>
 5   0  0.6547327E-09  0.3991163E+04  0.7818609E-02  0.8006332E-01
       -2   -1    0    0    0  501  0.00000000000E+00  0.00000000000E+00  0.17075100676E+04  0.17075100676E+04  0.25500000920E-02 0. -1.
        2   -1    0    0  501    0  0.00000000000E+00  0.00000000000E+00 -0.23322529599E+04  0.23322529599E+04  0.25500000920E-02 0.  1.
    10030    2    1    2    0    0  0.00000000000E+00  0.00000000000E+00 -0.62474289230E+03  0.40397630275E+04  0.39911629429E+04 0.  0.
        5    1    3    3  502    0 -0.95983384658E+03 -0.83152703639E+03 -0.18704681862E+04  0.22608386831E+04  0.46999998093E+01 0.  1.
       -5    1    3    3    0  502  0.95983384658E+03  0.83152703639E+03  0.12457252939E+04  0.17789243444E+04  0.46999998093E+01 0. -1.
</event>
<event>
 5   0  0.6547327E-09  0.3998496E+04  0.7818609E-02  0.8004850E-01
       -2   -1    0    0    0  501  0.00000000000E+00  0.00000000000E+00  0.22895389153E+04  0.22895389153E+04  0.25500000920E-02 0.  1.
        2   -1    0    0  501    0  0.00000000000E+00  0.00000000000E+00 -0.17457630994E+04  0.17457630994E+04  0.25500000920E-02 0. -1.
    10030    2    1    2    0    0  0.00000000000E+00  0.00000000000E+00  0.54377581598E+03  0.40353020147E+04  0.39984959937E+04 0.  0.
        5    1    3    3  502    0 -0.14272134903E+04  0.10889070779E+04 -0.61616285607E+03  0.18979820143E+04  0.46999998093E+01 0. -1.
       -5    1    3    3    0  502  0.14272134903E+04 -0.10889070779E+04  0.11599386720E+04  0.21373200004E+04  0.46999998093E+01 0.  1.
</event>
<event>
 5   0  0.6538370E-09  0.3999484E+04  0.7818609E-02  0.8004651E-01
       -2   -1    0    0    0  501  0.00000000000E+00  0.00000000000E+00  0.20432159481E+04  0.20432159481E+04  0.25500000920E-02 0.  1.
        2   -1    0    0  501    0  0.00000000000E+00  0.00000000000E+00 -0.19571932297E+04  0.19571932297E+04  0.25500000920E-02 0. -1.
    10030    2    1    2    0    0  0.00000000000E+00  0.00000000000E+00  0.86022718388E+02  0.40004091779E+04  0.39994841770E+04 0.  0.
        4    1    3    3  502    0 -0.31688978177E+03  0.93548894789E+03  0.17822085222E+04  0.20376033802E+04  0.12699999809E+01 0.  1.
       -4    1    3    3    0  502  0.31688978177E+03 -0.93548894789E+03 -0.16961858038E+04  0.19628057977E+04  0.12699999809E+01 0. -1.
</event>
<event>
 5   0  0.6538370E-09  0.3997638E+04  0.7818609E-02  0.8005023E-01
       -2   -1    0    0    0  501  0.00000000000E+00  0.00000000000E+00  0.20451033367E+04  0.20451033367E+04  0.25500000920E-02 0.  1.
        2   -1    0    0  501    0  0.00000000000E+00  0.00000000000E+00 -0.19535820063E+04  0.19535820063E+04  0.25500000920E-02 0. -1.
    10030    2    1    2    0    0  0.00000000000E+00  0.00000000000E+00  0.91521330447E+02  0.39986853430E+04  0.39976378423E+04 0.  0.
        4    1    3    3  502    0  0.17830976137E+02 -0.96245106873E+03 -0.17064533136E+04  0.19592382519E+04  0.12699999809E+01 0. -1.
       -4    1    3    3    0  502 -0.17830976137E+02  0.96245106873E+03  0.17979746441E+04  0.20394470910E+04  0.12699999809E+01 0.  1.
</event>
<event>
 5   0  0.2078125E-09  0.4000357E+04  0.7818609E-02  0.8004475E-01
       -1   -1    0    0    0  501  0.00000000000E+00  0.00000000000E+00  0.16165386662E+04  0.16165386662E+04  0.50400001928E-02 0. -1.
        1   -1    0    0  501    0  0.00000000000E+00  0.00000000000E+00 -0.24748645029E+04  0.24748645029E+04  0.50400001928E-02 0.  1.
    10030    2    1    2    0    0  0.00000000000E+00  0.00000000000E+00 -0.85832583669E+03  0.40914031691E+04  0.40003570654E+04 0.  0.
        5    1    3    3  502    0 -0.39183508819E+03 -0.72023556174E+03  0.14367546571E+04  0.16542551301E+04  0.46999998093E+01 0. -1.
       -5    1    3    3    0  502  0.39183508819E+03  0.72023556174E+03 -0.22950804938E+04  0.24371480390E+04  0.46999998093E+01 0.  1.
</event>
<event>
 5   0  0.6645526E-09  0.4001161E+04  0.7818609E-02  0.8004312E-01
        2   -1    0    0  501    0  0.00000000000E+00  0.00000000000E+00  0.27283942105E+04  0.27283942105E+04  0.25500000920E-02 0.  1.
       -2   -1    0    0    0  501  0.00000000000E+00  0.00000000000E+00 -0.14669150581E+04  0.14669150581E+04  0.25500000920E-02 0. -1.
    10030    2    1    2    0    0  0.00000000000E+00  0.00000000000E+00  0.12614791524E+04  0.41953092687E+04  0.40011611075E+04 0.  0.
        3    1    3    3  502    0  0.11693989963E+04  0.94967658368E+02 -0.10683237458E+04  0.15867666826E+04  0.10100000352E+00 0. -1.
       -3    1    3    3    0  502 -0.11693989963E+04 -0.94967658368E+02  0.23298028982E+04  0.26085425861E+04  0.10100000352E+00 0.  1.
</event>
<event>
 5   0  0.6599276E-09  0.3998550E+04  0.7818609E-02  0.8004839E-01
       -2   -1    0    0    0  501  0.00000000000E+00  0.00000000000E+00  0.23687067676E+04  0.23687067676E+04  0.25500000920E-02 0.  1.
        2   -1    0    0  501    0  0.00000000000E+00  0.00000000000E+00 -0.16874613908E+04  0.16874613908E+04  0.25500000920E-02 0. -1.
    10030    2    1    2    0    0  0.00000000000E+00  0.00000000000E+00  0.68124537676E+03  0.40561681585E+04  0.39985503456E+04 0.  0.
        2    1    3    3  502    0  0.14526637054E+04  0.13733978776E+04  0.31480710380E+03  0.20237482758E+04  0.25500000920E-02 0. -1.
       -2    1    3    3    0  502 -0.14526637054E+04 -0.13733978776E+04  0.36643827296E+03  0.20324198826E+04  0.25500000920E-02 0.  1.
</event>
<event>
 5   0  0.2078125E-09  0.4000917E+04  0.7818609E-02  0.8004362E-01
        1   -1    0    0  501    0  0.00000000000E+00  0.00000000000E+00  0.15542978075E+04  0.15542978075E+04  0.50400001928E-02 0.  1.
       -1   -1    0    0    0  501  0.00000000000E+00  0.00000000000E+00 -0.25746900350E+04  0.25746900350E+04  0.50400001928E-02 0. -1.
    10030    2    1    2    0    0  0.00000000000E+00  0.00000000000E+00 -0.10203922275E+04  0.41289878425E+04  0.40009174330E+04 0.  0.
        3    1    3    3  502    0  0.80956072626E+03  0.17193083426E+04 -0.11550376477E+04  0.22238529008E+04  0.10100000352E+00 0. -1.
       -3    1    3    3    0  502 -0.80956072626E+03 -0.17193083426E+04  0.13464542022E+03  0.19051349417E+04  0.10100000352E+00 0.  1.
</event>
<event>
 5   0  0.6547327E-09  0.4003400E+04  0.7818609E-02  0.8003861E-01
       -2   -1    0    0    0  501  0.00000000000E+00  0.00000000000E+00  0.18702888647E+04  0.18702888647E+04  0.25500000920E-02 0.  1.
        2   -1    0    0  501    0  0.00000000000E+00  0.00000000000E+00 -0.21423445767E+04  0.21423445767E+04  0.25500000920E-02 0. -1.
    10030    2    1    2    0    0  0.00000000000E+00  0.00000000000E+00 -0.27205571199E+03  0.40126334414E+04  0.40034001579E+04 0.  0.
        5    1    3    3  502    0 -0.13044606398E+04 -0.14864953379E+04 -0.44576349527E+03  0.20273167325E+04  0.46999998093E+01 0.  1.
       -5    1    3    3    0  502  0.13044606398E+04  0.14864953379E+04  0.17370778328E+03  0.19853167088E+04  0.46999998093E+01 0. -1.
</event>
<event>
 5   0  0.6599276E-09  0.4001467E+04  0.7818609E-02  0.8004251E-01
        2   -1    0    0  501    0  0.00000000000E+00  0.00000000000E+00  0.27051266073E+04  0.27051266073E+04  0.25500000920E-02 0. -1.
       -2   -1    0    0    0  501  0.00000000000E+00  0.00000000000E+00 -0.14797588900E+04  0.14797588900E+04  0.25500000920E-02 0.  1.
    10030    2    1    2    0    0  0.00000000000E+00  0.00000000000E+00  0.12253677172E+04  0.41848854973E+04  0.40014673038E+04 0.  0.
        2    1    3    3  502    0  0.80321447780E+03 -0.17464497204E+04  0.11928128140E+04  0.22623091152E+04  0.25500000920E-02 0. -1.
       -2    1    3    3    0  502 -0.80321447780E+03  0.17464497204E+04  0.32554903233E+02  0.19225763821E+04  0.25500000920E-02 0.  1.
</event>
<event>
 5   0  0.2078125E-09  0.3999178E+04  0.7818609E-02  0.8004712E-01
        1   -1    0    0  501    0  0.00000000000E+00  0.00000000000E+00  0.24278734440E+04  0.24278734440E+04  0.50400001928E-02 0. -1.
       -1   -1    0    0    0  501  0.00000000000E+00  0.00000000000E+00 -0.16468552412E+04  0.16468552412E+04  0.50400001928E-02 0.  1.
    10030    2    1    2    0    0  0.00000000000E+00  0.00000000000E+00  0.78101820281E+03  0.40747286852E+04  0.39991779686E+04 0.  0.
        1    1    3    3  502    0 -0.10741970728E+04  0.83735720796E+03  0.18821641417E+04  0.23232753391E+04  0.50400001928E-02 0. -1.
       -1    1    3    3    0  502  0.10741970728E+04 -0.83735720796E+03 -0.11011459389E+04  0.17514533461E+04  0.50400001928E-02 0.  1.
</event>
<event>
 5   0  0.6547327E-09  0.4000433E+04  0.7818609E-02  0.8004459E-01
       -2   -1    0    0    0  501  0.00000000000E+00  0.00000000000E+00  0.18330098240E+04  0.18330098240E+04  0.25500000920E-02 0.  1.
        2   -1    0    0  501    0  0.00000000000E+00  0.00000000000E+00 -0.21826760896E+04  0.21826760896E+04  0.25500000920E-02 0. -1.
    10030    2    1    2    0    0  0.00000000000E+00  0.00000000000E+00 -0.34966626554E+03  0.40156859136E+04  0.40004333340E+04 0.  0.
        5    1    3    3  502    0  0.10392231493E+04 -0.16738248790E+04  0.17169335305E+03  0.19776691273E+04  0.46999998093E+01 0.  1.
       -5    1    3    3    0  502 -0.10392231493E+04  0.16738248790E+04 -0.52135961859E+03  0.20380167863E+04  0.46999998093E+01 0. -1.
</event>
<event>
 5   0  0.6547327E-09  0.3999876E+04  0.7818609E-02  0.8004572E-01
        2   -1    0    0  501    0  0.00000000000E+00  0.00000000000E+00  0.26808666444E+04  0.26808666444E+04  0.25500000920E-02 0.  1.
       -2   -1    0    0    0  501  0.00000000000E+00  0.00000000000E+00 -0.14919621658E+04  0.14919621658E+04  0.25500000920E-02 0. -1.
    10030    2    1    2    0    0  0.00000000000E+00  0.00000000000E+00  0.11889044785E+04  0.41728288102E+04  0.39998758006E+04 0.  0.
        5    1    3    3  502    0  0.18522302429E+04 -0.18291334126E+03  0.13578836499E+04  0.23039280066E+04  0.46999998093E+01 0.  1.
       -5    1    3    3    0  502 -0.18522302429E+04  0.18291334126E+03 -0.16897917133E+03  0.18689008036E+04  0.46999998093E+01 0. -1.
</event>
<event>
 5   0  0.6645526E-09  0.4000509E+04  0.7818609E-02  0.8004444E-01
        2   -1    0    0  501    0  0.00000000000E+00  0.00000000000E+00  0.24751203860E+04  0.24751203860E+04  0.25500000920E-02 0.  1.
       -2   -1    0    0    0  501  0.00000000000E+00  0.00000000000E+00 -0.16164946451E+04  0.16164946451E+04  0.25500000920E-02 0. -1.
    10030    2    1    2    0    0  0.00000000000E+00  0.00000000000E+00  0.85862574092E+03  0.40916150311E+04  0.40005093926E+04 0.  0.
        3    1    3    3  502    0  0.38646782294E+03 -0.91302766801E+03  0.22061274381E+04  0.24186721944E+04  0.10100000352E+00 0.  1.
       -3    1    3    3    0  502 -0.38646782294E+03  0.91302766801E+03 -0.13475016972E+04  0.16729428367E+04  0.10100000352E+00 0. -1.
</event>
<event>
 5   0  0.2078125E-09  0.3997742E+04  0.7818609E-02  0.8005002E-01
        1   -1    0    0  501    0  0.00000000000E+00  0.00000000000E+00  0.18443392413E+04  0.18443392413E+04  0.50400001928E-02 0. -1.
       -1   -1    0    0    0  501  0.00000000000E+00  0.00000000000E+00 -0.21663502827E+04  0.21663502827E+04  0.50400001928E-02 0.  1.
    10030    2    1    2    0    0  0.00000000000E+00  0.00000000000E+00 -0.32201104142E+03  0.40106895240E+04  0.39977417809E+04 0.  0.
        2    1    3    3  502    0  0.56386898343E+03 -0.78036166501E+03 -0.19184130518E+04  0.21464438488E+04  0.25500000920E-02 0.  1.
       -2    1    3    3    0  502 -0.56386898343E+03  0.78036166501E+03  0.15964020104E+04  0.18642456752E+04  0.25500000920E-02 0. -1.
</event>
<event>
 5   0  0.2078125E-09  0.3997482E+04  0.7818609E-02  0.8005055E-01
        1   -1    0    0  501    0  0.00000000000E+00  0.00000000000E+00  0.23430867747E+04  0.23430867747E+04  0.50400001928E-02 0. -1.
       -1   -1    0    0    0  501  0.00000000000E+00  0.00000000000E+00 -0.17050013101E+04  0.17050013101E+04  0.50400001928E-02 0.  1.
    10030    2    1    2    0    0  0.00000000000E+00  0.00000000000E+00  0.63808546462E+03  0.40480880848E+04  0.39974822179E+04 0.  0.
        5    1    3    3  502    0 -0.55843118791E+03 -0.14928624428E+04 -0.90223473423E+03  0.18315384982E+04  0.46999998093E+01 0.  1.
       -5    1    3    3    0  502  0.55843118791E+03  0.14928624428E+04  0.15403201989E+04  0.22165495866E+04  0.46999998093E+01 0. -1.
</event>
<event>
 5   0  0.6599276E-09  0.4001733E+04  0.7818609E-02  0.8004197E-01
       -2   -1    0    0    0  501  0.00000000000E+00  0.00000000000E+00  0.17441033710E+04  0.17441033710E+04  0.25500000920E-02 0. -1.
        2   -1    0    0  501    0  0.00000000000E+00  0.00000000000E+00 -0.22954297507E+04  0.22954297507E+04  0.25500000920E-02 0.  1.
    10030    2    1    2    0    0  0.00000000000E+00  0.00000000000E+00 -0.55132637970E+03  0.40395331217E+04  0.40017330076E+04 0.  0.
        2    1    3    3  502    0 -0.13148254448E+04 -0.75661800010E+03 -0.15926826325E+04  0.21995169279E+04  0.25500000920E-02 0.  1.
       -2    1    3    3    0  502  0.13148254448E+04  0.75661800010E+03  0.10413562528E+04  0.18400161938E+04  0.25500000920E-02 0. -1.
</event>
<event>
 5   0  0.6736335E-09  0.3985203E+04  0.7818609E-02  0.8007538E-01
        2   -1    0    0  501    0  0.00000000000E+00  0.00000000000E+00  0.15494315593E+04  0.15494315593E+04  0.25500000920E-02 0. -1.
       -2   -1    0    0    0  501  0.00000000000E+00  0.00000000000E+00 -0.25625274741E+04  0.25625274742E+04  0.25500000920E-02 0.  1.
    10030    2    1    2    0    0  0.00000000000E+00  0.00000000000E+00 -0.10130959148E+04  0.41119590335E+04  0.39852031015E+04 0.  0.
        1    1    3    3  502    0 -0.15720851916E+04 -0.44783228735E+03  0.66919348589E+03  0.17663027852E+04  0.50400001928E-02 0. -1.
       -1    1    3    3    0  502  0.15720851916E+04  0.44783228735E+03 -0.16822894007E+04  0.23456562483E+04  0.50400001928E-02 0.  1.
</event>
<event>
 5   0  0.2078125E-09  0.3999803E+04  0.7818609E-02  0.8004586E-01
        1   -1    0    0  501    0  0.00000000000E+00  0.00000000000E+00  0.26297205633E+04  0.26297205633E+04  0.50400001928E-02 0. -1.
       -1   -1    0    0    0  501  0.00000000000E+00  0.00000000000E+00 -0.15209245559E+04  0.15209245559E+04  0.50400001928E-02 0.  1.
    10030    2    1    2    0    0  0.00000000000E+00  0.00000000000E+00  0.11087960074E+04  0.41506451192E+04  0.39998032851E+04 0.  0.
        4    1    3    3  502    0 -0.56667043886E+02 -0.79067937999E+03  0.24597293519E+04  0.25843094113E+04  0.12699999809E+01 0. -1.
       -4    1    3    3    0  502  0.56667043886E+02  0.79067937999E+03 -0.13509333445E+04  0.15663357079E+04  0.12699999809E+01 0.  1.
</event>
<event>
 5   0  0.2078125E-09  0.3999279E+04  0.7818609E-02  0.8004692E-01
        1   -1    0    0  501    0  0.00000000000E+00  0.00000000000E+00  0.26138044502E+04  0.26138044502E+04  0.50400001928E-02 0.  1.
       -1   -1    0    0    0  501  0.00000000000E+00  0.00000000000E+00 -0.15297848921E+04  0.15297848921E+04  0.50400001928E-02 0. -1.
    10030    2    1    2    0    0  0.00000000000E+00  0.00000000000E+00  0.10840195581E+04  0.41435893424E+04  0.39992792145E+04 0.  0.
        3    1    3    3  502    0  0.23250805940E+03  0.10743742102E+04 -0.11886595480E+04  0.16190279407E+04  0.10100000352E+00 0. -1.
       -3    1    3    3    0  502 -0.23250805940E+03 -0.10743742102E+04  0.22726791061E+04  0.25245614017E+04  0.10100000352E+00 0.  1.
</event>
<event>
 5   0  0.6599276E-09  0.4000609E+04  0.7818609E-02  0.8004424E-01
        2   -1    0    0  501    0  0.00000000000E+00  0.00000000000E+00  0.16219295204E+04  0.16219295204E+04  0.25500000920E-02 0.  1.
       -2   -1    0    0    0  501  0.00000000000E+00  0.00000000000E+00 -0.24669497402E+04  0.24669497402E+04  0.25500000920E-02 0. -1.
    10030    2    1    2    0    0  0.00000000000E+00  0.00000000000E+00 -0.84502021976E+03  0.40888792606E+04  0.40006092580E+04 0.  0.
        2    1    3    3  502    0  0.11099369073E+04 -0.11924550402E+04  0.76383722990E+03  0.17992654821E+04  0.25500000920E-02 0.  1.
       -2    1    3    3    0  502 -0.11099369073E+04  0.11924550402E+04 -0.16088574497E+04  0.22896137785E+04  0.25500000920E-02 0. -1.
</event>
<event>
 5   0  0.2078125E-09  0.4003847E+04  0.7818609E-02  0.8003771E-01
       -1   -1    0    0    0  501  0.00000000000E+00  0.00000000000E+00  0.15871576043E+04  0.15871576043E+04  0.50400001928E-02 0. -1.
        1   -1    0    0  501    0  0.00000000000E+00  0.00000000000E+00 -0.25250783675E+04  0.25250783675E+04  0.50400001928E-02 0.  1.
    10030    2    1    2    0    0  0.00000000000E+00  0.00000000000E+00 -0.93792076324E+03  0.41122359718E+04  0.40038468164E+04 0.  0.
        3    1    3    3  502    0 -0.16094151577E+04 -0.72175692303E+03  0.50353407262E+03  0.18343109819E+04  0.10100000352E+00 0. -1.
       -3    1    3    3    0  502  0.16094151577E+04  0.72175692303E+03 -0.14414548359E+04  0.22779249899E+04  0.10100000352E+00 0.  1.
</event>
<event>
 5   0  0.2078125E-09  0.4000152E+04  0.7818609E-02  0.8004516E-01
       -1   -1    0    0    0  501  0.00000000000E+00  0.00000000000E+00  0.23815356569E+04  0.23815356570E+04  0.50400001928E-02 0.  1.
        1   -1    0    0  501    0  0.00000000000E+00  0.00000000000E+00 -0.16797164858E+04  0.16797164858E+04  0.50400001928E-02 0. -1.
    10030    2    1    2    0    0  0.00000000000E+00  0.00000000000E+00  0.70181917119E+03  0.40612521427E+04  0.40001523493E+04 0.  0.
        1    1    3    3  502    0 -0.31977675303E+03  0.11209288460E+04 -0.12992052120E+04  0.17454720945E+04  0.50400001928E-02 0. -1.
       -1    1    3    3    0  502  0.31977675303E+03 -0.11209288460E+04  0.20010243832E+04  0.23157800482E+04  0.50400001928E-02 0.  1.
</event>
<event>
 5   0  0.2078125E-09  0.4001066E+04  0.7818609E-02  0.8004332E-01
       -1   -1    0    0    0  501  0.00000000000E+00  0.00000000000E+00  0.20372120770E+04  0.20372120771E+04  0.50400001928E-02 0. -1.
        1   -1    0    0  501    0  0.00000000000E+00  0.00000000000E+00 -0.19645139263E+04  0.19645139263E+04  0.50400001928E-02 0.  1.
    10030    2    1    2    0    0  0.00000000000E+00  0.00000000000E+00  0.72698150740E+02  0.40017260034E+04  0.40010656062E+04 0.  0.
        2    1    3    3  502    0 -0.18338254556E+04 -0.45458133071E+03 -0.62146116834E+03  0.19889127612E+04  0.25500000920E-02 0.  1.
       -2    1    3    3    0  502  0.18338254556E+04  0.45458133071E+03  0.69415931908E+03  0.20128132422E+04  0.25500000920E-02 0. -1.
</event>
<event>
 5   0  0.6538370E-09  0.3994014E+04  0.7818609E-02  0.8005755E-01
       -2   -1    0    0    0  501  0.00000000000E+00  0.00000000000E+00  0.23948248818E+04  0.23948248818E+04  0.25500000920E-02 0.  1.
        2   -1    0    0  501    0  0.00000000000E+00  0.00000000000E+00 -0.16652730050E+04  0.16652730050E+04  0.25500000920E-02 0. -1.
    10030    2    1    2    0    0  0.00000000000E+00  0.00000000000E+00  0.72955187686E+03  0.40600978868E+04  0.39940141348E+04 0.  0.
        4    1    3    3  502    0  0.42879999013E+03  0.54391796594E+03  0.22688177067E+04  0.23721828733E+04  0.12699999809E+01 0.  1.
       -4    1    3    3    0  502 -0.42879999013E+03 -0.54391796594E+03 -0.15392658298E+04  0.16879150135E+04  0.12699999809E+01 0. -1.
</event>
<event>
 5   0  0.6547327E-09  0.3998886E+04  0.7818609E-02  0.8004771E-01
       -2   -1    0    0    0  501  0.00000000000E+00  0.00000000000E+00  0.27749821398E+04  0.27749821398E+04  0.25500000920E-02 0. -1.
        2   -1    0    0  501    0  0.00000000000E+00  0.00000000000E+00 -0.14406479093E+04  0.14406479093E+04  0.25500000920E-02 0.  1.
    10030    2    1    2    0    0  0.00000000000E+00  0.00000000000E+00  0.13343342305E+04  0.42156300491E+04  0.39988859539E+04 0.  0.
        5    1    3    3  502    0 -0.53995700064E+03  0.18330582467E+04  0.12873510711E+04  0.23041160927E+04  0.46999998093E+01 0. -1.
       -5    1    3    3    0  502  0.53995700064E+03 -0.18330582467E+04  0.46983159386E+02  0.19115139564E+04  0.46999998093E+01 0.  1.
</event>
<event>
 5   0  0.6538370E-09  0.4006833E+04  0.7818609E-02  0.8003169E-01
        2   -1    0    0  501    0  0.00000000000E+00  0.00000000000E+00  0.30958656529E+04  0.30958656529E+04  0.25500000920E-02 0.  1.
       -2   -1    0    0    0  501  0.00000000000E+00  0.00000000000E+00 -0.12964640722E+04  0.12964640722E+04  0.25500000920E-02 0. -1.
    10030    2    1    2    0    0  0.00000000000E+00  0.00000000000E+00  0.17994015807E+04  0.43923297250E+04  0.40068334586E+04 0.  0.
        4    1    3    3  502    0 -0.93503882947E+03  0.62653987871E+02 -0.10413810598E+04  0.14009636895E+04  0.12699999809E+01 0. -1.
       -4    1    3    3    0  502  0.93503882947E+03 -0.62653987871E+02  0.28407826405E+04  0.29913660355E+04  0.12699999809E+01 0.  1.
</event>
<event>
 5   0  0.6736335E-09  0.3999818E+04  0.7818609E-02  0.8004583E-01
       -2   -1    0    0    0  501  0.00000000000E+00  0.00000000000E+00  0.19357320846E+04  0.19357320846E+04  0.25500000920E-02 0.  1.
        2   -1    0    0  501    0  0.00000000000E+00  0.00000000000E+00 -0.20662140972E+04  0.20662140972E+04  0.25500000920E-02 0. -1.
    10030    2    1    2    0    0  0.00000000000E+00  0.00000000000E+00 -0.13048201260E+03  0.40019461818E+04  0.39998184567E+04 0.  0.
        1    1    3    3  502    0 -0.36581832919E+02  0.17511644275E+04  0.90052986283E+03  0.19694844799E+04  0.50400001928E-02 0.  1.
       -1    1    3    3    0  502  0.36581832919E+02 -0.17511644275E+04 -0.10310118754E+04  0.20324617020E+04  0.50400001928E-02 0. -1.
</event>
<event>
 5   0  0.6547327E-09  0.3999404E+04  0.7818609E-02  0.8004667E-01
       -2   -1    0    0    0  501  0.00000000000E+00  0.00000000000E+00  0.21439706683E+04  0.21439706683E+04  0.25500000920E-02 0. -1.
        2   -1    0    0  501    0  0.00000000000E+00  0.00000000000E+00 -0.18651415288E+04  0.18651415288E+04  0.25500000920E-02 0.  1.
    10030    2    1    2    0    0  0.00000000000E+00  0.00000000000E+00  0.27882913954E+03  0.40091121971E+04  0.39994043206E+04 0.  0.
        5    1    3    3  502    0 -0.14658642497E+04  0.81443577884E+03  0.12314269936E+04  0.20805043059E+04  0.46999998093E+01 0.  1.
       -5    1    3    3    0  502  0.14658642497E+04 -0.81443577884E+03 -0.95259785403E+03  0.19286078912E+04  0.46999998093E+01 0. -1.
</event>
<event>
 5   0  0.6645526E-09  0.3994858E+04  0.7818609E-02  0.8005585E-01
       -2   -1    0    0    0  501  0.00000000000E+00  0.00000000000E+00  0.13465632539E+04  0.13465632539E+04  0.25500000920E-02 0.  1.
        2   -1    0    0  501    0  0.00000000000E+00  0.00000000000E+00 -0.29628932824E+04  0.29628932824E+04  0.25500000920E-02 0. -1.
    10030    2    1    2    0    0  0.00000000000E+00  0.00000000000E+00 -0.16163300285E+04  0.43094565363E+04  0.39948583051E+04 0.  0.
        3    1    3    3  502    0  0.79395563584E+03  0.15892040694E+04 -0.17931939018E+04  0.25241789765E+04  0.10100000352E+00 0. -1.
       -3    1    3    3    0  502 -0.79395563584E+03 -0.15892040694E+04  0.17686387332E+03  0.17852775598E+04  0.10100000352E+00 0.  1.
</event>
<event>
 5   0  0.6538370E-09  0.4003226E+04  0.7818609E-02  0.8003896E-01
        2   -1    0    0  501    0  0.00000000000E+00  0.00000000000E+00  0.13081955894E+04  0.13081955894E+04  0.25500000920E-02 0. -1.
       -2   -1    0    0    0  501  0.00000000000E+00  0.00000000000E+00 -0.30625812291E+04  0.30625812291E+04  0.25500000920E-02 0.  1.
    10030    2    1    2    0    0  0.00000000000E+00  0.00000000000E+00 -0.17543856398E+04  0.43707768185E+04  0.40032263269E+04 0.  0.
        4    1    3    3  502    0  0.14167630573E+04 -0.89390608589E+03  0.31891273421E+03  0.17052837288E+04  0.12699999809E+01 0. -1.
       -4    1    3    3    0  502 -0.14167630573E+04  0.89390608589E+03 -0.20732983740E+04  0.26654930897E+04  0.12699999809E+01 0.  1.
</event>
<event>
 5   0  0.2078125E-09  0.4000503E+04  0.7818609E-02  0.8004445E-01
        1   -1    0    0  501    0  0.00000000000E+00  0.00000000000E+00  0.21015443051E+04  0.21015443051E+04  0.50400001928E-02 0.  1.
       -1   -1    0    0    0  501  0.00000000000E+00  0.00000000000E+00 -0.19038410260E+04  0.19038410260E+04  0.50400001928E-02 0. -1.
    10030    2    1    2    0    0  0.00000000000E+00  0.00000000000E+00  0.19770327908E+03  0.40053853311E+04  0.40005031013E+04 0.  0.
        3    1    3    3  502    0 -0.59303876937E+02  0.16655976248E+04  0.12062185419E+04  0.20573515934E+04  0.10100000352E+00 0.  1.
       -3    1    3    3    0  502  0.59303876937E+02 -0.16655976248E+04 -0.10085152628E+04  0.19480337377E+04  0.10100000352E+00 0. -1.
</event>
<event>
 5   0  0.2078125E-09  0.3999849E+04  0.7818609E-02  0.8004577E-01
       -1   -1    0    0    0  501  0.00000000000E+00  0.00000000000E+00  0.29701361555E+04  0.29701361555E+04  0.50400001928E-02 0. -1.
        1   -1    0    0  501    0  0.00000000000E+00  0.00000000000E+00 -0.13466376010E+04  0.13466376010E+04  0.50400001928E-02 0.  1.
    10030    2    1    2    0    0  0.00000000000E+00  0.00000000000E+00  0.16234985545E+04  0.43167737565E+04  0.39998485107E+04 0.  0.
        2    1    3    3  502    0  0.93972710045E+03  0.16896509011E+04  0.13638383761E+04  0.23660224655E+04  0.25500000920E-02 0. -1.
       -2    1    3    3    0  502 -0.93972710045E+03 -0.16896509011E+04  0.25966017840E+03  0.19507512910E+04  0.25500000920E-02 0.  1.
</event>
<event>
 5   0  0.2078125E-09  0.3999939E+04  0.7818609E-02  0.8004559E-01
        1   -1    0    0  501    0  0.00000000000E+00  0.00000000000E+00  0.18580642904E+04  0.18580642905E+04  0.50400001928E-02 0.  1.
       -1   -1    0    0    0  501  0.00000000000E+00  0.00000000000E+00 -0.21527128754E+04  0.21527128754E+04  0.50400001928E-02 0. -1.
    10030    2    1    2    0    0  0.00000000000E+00  0.00000000000E+00 -0.29464858493E+03  0.40107771658E+04  0.39999394602E+04 0.  0.
        5    1    3    3  502    0 -0.12822590315E+04  0.14949645332E+04  0.20110772798E+03  0.19797912990E+04  0.46999998093E+01 0. -1.
       -5    1    3    3    0  502  0.12822590315E+04 -0.14949645332E+04 -0.49575631291E+03  0.20309858668E+04  0.46999998093E+01 0.  1.
</event>
<event>
 5   0  0.6538370E-09  0.3998057E+04  0.7818609E-02  0.8004939E-01
        2   -1    0    0  501    0  0.00000000000E+00  0.00000000000E+00  0.32718188066E+04  0.32718188066E+04  0.25500000920E-02 0.  1.
       -2   -1    0    0    0  501  0.00000000000E+00  0.00000000000E+00 -0.12213741936E+04  0.12213741936E+04  0.25500000920E-02 0. -1.
    10030    2    1    2    0    0  0.00000000000E+00  0.00000000000E+00  0.20504446131E+04  0.44931930002E+04  0.39980570564E+04 0.  0.
        4    1    3    3  502    0  0.81590806117E+03  0.36436442324E+03 -0.98443164135E+03  0.13295016610E+04  0.12699999809E+01 0. -1.
       -4    1    3    3    0  502 -0.81590806117E+03 -0.36436442324E+03  0.30348762544E+04  0.31636913392E+04  0.12699999809E+01 0.  1.
</event>
<event>
 5   0  0.2078125E-09  0.3999935E+04  0.7818609E-02  0.8004560E-01
        1   -1    0    0  501    0  0.00000000000E+00  0.00000000000E+00  0.18517797626E+04  0.18517797626E+04  0.50400001928E-02 0.  1.
       -1   -1    0    0    0  501  0.00000000000E+00  0.00000000000E+00 -0.21600135338E+04  0.21600135339E+04  0.50400001928E-02 0. -1.
    10030    2    1    2    0    0  0.00000000000E+00  0.00000000000E+00 -0.30823377129E+03  0.40117932964E+04  0.39999346739E+04 0.  0.
        1    1    3    3  502    0  0.22248713231E+03 -0.49216554201E+02 -0.21469516109E+04  0.21590099613E+04  0.50400001928E-02 0. -1.
       -1    1    3    3    0  502 -0.22248713231E+03  0.49216554201E+02  0.18387178396E+04  0.18527833352E+04  0.50400001928E-02 0.  1.
</event>
<event>
 5   0  0.2078125E-09  0.3999797E+04  0.7818609E-02  0.8004587E-01
       -1   -1    0    0    0  501  0.00000000000E+00  0.00000000000E+00  0.17579208911E+04  0.17579208911E+04  0.50400001928E-02 0.  1.
        1   -1    0    0  501    0  0.00000000000E+00  0.00000000000E+00 -0.22751847131E+04  0.22751847131E+04  0.50400001928E-02 0. -1.
    10030    2    1    2    0    0  0.00000000000E+00  0.00000000000E+00 -0.51726382202E+03  0.40331056042E+04  0.39997973640E+04 0.  0.
        5    1    3    3  502    0 -0.10668784206E+04 -0.12400034599E+04 -0.14187495993E+04  0.21653430814E+04  0.46999998093E+01 0. -1.
       -5    1    3    3    0  502  0.10668784206E+04  0.12400034599E+04  0.90148577723E+03  0.18677625228E+04  0.46999998093E+01 0.  1.
</event>
<event>
 5   0  0.2078125E-09  0.4000483E+04  0.7818609E-02  0.8004449E-01
        1   -1    0    0  501    0  0.00000000000E+00  0.00000000000E+00  0.24986145673E+04  0.24986145673E+04  0.50400001928E-02 0.  1.
       -1   -1    0    0    0  501  0.00000000000E+00  0.00000000000E+00 -0.16012741761E+04  0.16012741761E+04  0.50400001928E-02 0. -1.
    10030    2    1    2    0    0  0.00000000000E+00  0.00000000000E+00  0.89734039115E+03  0.40998887434E+04  0.40004834621E+04 0.  0.
        1    1    3    3  502    0  0.10425631928E+04  0.74155635850E+03  0.20244467670E+04  0.23948337220E+04  0.50400001928E-02 0.  1.
       -1    1    3    3    0  502 -0.10425631928E+04 -0.74155635850E+03 -0.11271063758E+04  0.17050550214E+04  0.50400001928E-02 0. -1.
</event>
<event>
 5   0  0.2078125E-09  0.4000756E+04  0.7818609E-02  0.8004394E-01
       -1   -1    0    0    0  501  0.00000000000E+00  0.00000000000E+00  0.13969041590E+04  0.13969041590E+04  0.50400001928E-02 0. -1.
        1   -1    0    0  501    0  0.00000000000E+00  0.00000000000E+00 -0.28645575024E+04  0.28645575024E+04  0.50400001928E-02 0.  1.
    10030    2    1    2    0    0  0.00000000000E+00  0.00000000000E+00 -0.14676533434E+04  0.42614616614E+04  0.40007560729E+04 0.  0.
        2    1    3    3  502    0 -0.12686715999E+04  0.80154988107E+03 -0.21427059765E+04  0.26159508295E+04  0.25500000920E-02 0.  1.
       -2    1    3    3    0  502  0.12686715999E+04 -0.80154988107E+03  0.67505263317E+03  0.16455108319E+04  0.25500000920E-02 0. -1.
</event>
<event>
 5   0  0.6547327E-09  0.4003124E+04  0.7818609E-02  0.8003917E-01
        2   -1    0    0  501    0  0.00000000000E+00  0.00000000000E+00  0.23856266806E+04  0.23856266806E+04  0.25500000920E-02 0. -1.
       -2   -1    0    0    0  501  0.00000000000E+00  0.00000000000E+00 -0.16793283414E+04  0.16793283414E+04  0.25500000920E-02 0.  1.
    10030    2    1    2    0    0  0.00000000000E+00  0.00000000000E+00  0.70629833925E+03  0.40649550220E+04  0.40031240284E+04 0.  0.
        5    1    3    3  502    0  0.11931620188E+04  0.15450213438E+04 -0.95836143640E+02  0.19544649428E+04  0.46999998093E+01 0. -1.
       -5    1    3    3    0  502 -0.11931620188E+04 -0.15450213438E+04  0.80213448289E+03  0.21104900793E+04  0.46999998093E+01 0.  1.
</event>
<event>
 5   0  0.6538370E-09  0.4003009E+04  0.7818609E-02  0.8003940E-01
        2   -1    0    0  501    0  0.00000000000E+00  0.00000000000E+00  0.27087264756E+04  0.27087264756E+04  0.25500000920E-02 0.  1.
       -2   -1    0    0    0  501  0.00000000000E+00  0.00000000000E+00 -0.14789315197E+04  0.14789315197E+04  0.25500000920E-02 0. -1.
    10030    2    1    2    0    0  0.00000000000E+00  0.00000000000E+00  0.12297949559E+04  0.41876579953E+04  0.40030093494E+04 0.  0.
        4    1    3    3  502    0  0.12157744792E+04  0.14549899400E+04 -0.55698815277E+02  0.18968941143E+04  0.12699999809E+01 0. -1.
       -4    1    3    3    0  502 -0.12157744792E+04 -0.14549899400E+04  0.12854937712E+04  0.22907638810E+04  0.12699999809E+01 0.  1.
</event>
<event>
 5   0  0.2078125E-09  0.3999803E+04  0.7818609E-02  0.8004586E-01
        1   -1    0    0  501    0  0.00000000000E+00  0.00000000000E+00  0.12012108115E+04  0.12012108115E+04  0.50400001928E-02 0.  1.
       -1   -1    0    0    0  501  0.00000000000E+00  0.00000000000E+00 -0.33296453658E+04  0.33296453658E+04  0.50400001928E-02 0. -1.
    10030    2    1    2    0    0  0.00000000000E+00  0.00000000000E+00 -0.21284345543E+04  0.45308561773E+04  0.39998030011E+04 0.  0.
        5    1    3    3  502    0 -0.82454482501E+03  0.17350000322E+04 -0.43404219663E+03  0.19693943228E+04  0.46999998093E+01 0. -1.
       -5    1    3    3    0  502  0.82454482501E+03 -0.17350000322E+04 -0.16943923577E+04  0.25614618545E+04  0.46999998093E+01 0.  1.
</event>
<event>
 5   0  0.2078125E-09  0.3998144E+04  0.7818609E-02  0.8004921E-01
        1   -1    0    0  501    0  0.00000000000E+00  0.00000000000E+00  0.23636512555E+04  0.23636512555E+04  0.50400001928E-02 0. -1.
       -1   -1    0    0    0  501  0.00000000000E+00  0.00000000000E+00 -0.16907266073E+04  0.16907266073E+04  0.50400001928E-02 0.  1.
    10030    2    1    2    0    0  0.00000000000E+00  0.00000000000E+00  0.67292464819E+03  0.40543778629E+04  0.39981436033E+04 0.  0.
        2    1    3    3  502    0  0.19064384320E+04 -0.51274343578E+03  0.65532854531E+03  0.20801126961E+04  0.25500000920E-02 0. -1.
       -2    1    3    3    0  502 -0.19064384320E+04  0.51274343578E+03  0.17596102887E+02  0.19742651668E+04  0.25500000920E-02 0.  1.
</event>
<event>
 5   0  0.6538370E-09  0.3995196E+04  0.7818609E-02  0.8005516E-01
        2   -1    0    0  501    0  0.00000000000E+00  0.00000000000E+00  0.21163997464E+04  0.21163997464E+04  0.25500000920E-02 0. -1.
       -2   -1    0    0    0  501  0.00000000000E+00  0.00000000000E+00 -0.18854648556E+04  0.18854648556E+04  0.25500000920E-02 0.  1.
    10030    2    1    2    0    0  0.00000000000E+00  0.00000000000E+00  0.23093489080E+03  0.40018646019E+04  0.39951957860E+04 0.  0.
        4    1    3    3  502    0 -0.26992103055E+03 -0.12629915124E+04  0.16419504579E+04  0.20890207854E+04  0.12699999809E+01 0. -1.
       -4    1    3    3    0  502  0.26992103055E+03  0.12629915124E+04 -0.14110155671E+04  0.19128438165E+04  0.12699999809E+01 0.  1.
</event>
<event>
 5   0  0.2078125E-09  0.4000146E+04  0.7818609E-02  0.8004517E-01
        1   -1    0    0  501    0  0.00000000000E+00  0.00000000000E+00  0.32158495710E+04  0.32158495710E+04  0.50400001928E-02 0. -1.
       -1   -1    0    0    0  501  0.00000000000E+00  0.00000000000E+00 -0.12439299303E+04  0.12439299303E+04  0.50400001928E-02 0.  1.
    10030    2    1    2    0    0  0.00000000000E+00  0.00000000000E+00  0.19719196407E+04  0.44597795013E+04  0.40001457637E+04 0.  0.
        1    1    3    3  502    0 -0.67472457022E+03 -0.15052227536E+04  0.22470061019E+04  0.27874693193E+04  0.50400001928E-02 0. -1.
       -1    1    3    3    0  502  0.67472457022E+03  0.15052227536E+04 -0.27508646123E+03  0.16723101820E+04  0.50400001928E-02 0.  1.
</event>
<event>
 5   0  0.6538370E-09  0.3996221E+04  0.7818609E-02  0.8005309E-01
       -2   -1    0    0    0  501  0.00000000000E+00  0.00000000000E+00  0.14413426819E+04  0.14413426819E+04  0.25500000920E-02 0. -1.
        2   -1    0    0  501    0  0.00000000000E+00  0.00000000000E+00 -0.27699494163E+04  0.27699494163E+04  0.25500000920E-02 0.  1.
    10030    2    1    2    0    0  0.00000000000E+00  0.00000000000E+00 -0.13286067344E+04  0.42112920982E+04  0.39962213754E+04 0.  0.
        4    1    3    3  502    0  0.13568152443E+04  0.44575919379E+02  0.88072184498E+03  0.16182111113E+04  0.12699999809E+01 0. -1.
       -4    1    3    3    0  502 -0.13568152443E+04 -0.44575919379E+02 -0.22093285794E+04  0.25930809868E+04  0.12699999809E+01 0.  1.
</event>
<event>
 5   0  0.2078125E-09  0.3996736E+04  0.7818609E-02  0.8005205E-01
        1   -1    0    0  501    0  0.00000000000E+00  0.00000000000E+00  0.26466923828E+04  0.26466923828E+04  0.50400001928E-02 0.  1.
       -1   -1    0    0    0  501  0.00000000000E+00  0.00000000000E+00 -0.15088547557E+04  0.15088547558E+04  0.50400001928E-02 0. -1.
    10030    2    1    2    0    0  0.00000000000E+00  0.00000000000E+00  0.11378376271E+04  0.41555471386E+04  0.39967358626E+04 0.  0.
        1    1    3    3  502    0 -0.18936657152E+04 -0.57566304240E+03  0.85577385255E+03  0.21563178490E+04  0.50400001928E-02 0. -1.
       -1    1    3    3    0  502  0.18936657152E+04  0.57566304240E+03  0.28206377453E+03  0.19992292896E+04  0.50400001928E-02 0.  1.
</event>
<event>
 5   0  0.2078125E-09  0.3999770E+04  0.7818609E-02  0.8004593E-01
       -1   -1    0    0    0  501  0.00000000000E+00  0.00000000000E+00  0.33446829372E+04  0.33446829372E+04  0.50400001928E-02 0. -1.
        1   -1    0    0  501    0  0.00000000000E+00  0.00000000000E+00 -0.11957902329E+04  0.11957902329E+04  0.50400001928E-02 0.  1.
    10030    2    1    2    0    0  0.00000000000E+00  0.00000000000E+00  0.21488927043E+04  0.45404731701E+04  0.39997695876E+04 0.  0.
        1    1    3    3  502    0 -0.62994910649E+03  0.14043526037E+03  0.32232088097E+04  0.32871922624E+04  0.50400001928E-02 0. -1.
       -1    1    3    3    0  502  0.62994910649E+03 -0.14043526037E+03 -0.10743161054E+04  0.12532809077E+04  0.50400001928E-02 0.  1.
</event>
<event>
 5   0  0.6645526E-09  0.4000732E+04  0.7818609E-02  0.8004399E-01
       -2   -1    0    0    0  501  0.00000000000E+00  0.00000000000E+00  0.14000421783E+04  0.14000421783E+04  0.25500000920E-02 0. -1.
        2   -1    0    0  501    0  0.00000000000E+00  0.00000000000E+00 -0.28581019392E+04  0.28581019392E+04  0.25500000920E-02 0.  1.
    10030    2    1    2    0    0  0.00000000000E+00  0.00000000000E+00 -0.14580597609E+04  0.42581441175E+04  0.40007315654E+04 0.  0.
        3    1    3    3  502    0 -0.20059430272E+03 -0.19509368313E+04 -0.11481569989E+04  0.22725881938E+04  0.10100000352E+00 0.  1.
       -3    1    3    3    0  502  0.20059430272E+03  0.19509368313E+04 -0.30990276203E+03  0.19855559237E+04  0.10100000352E+00 0. -1.
</event>
<event>
 5   0  0.6645526E-09  0.4000881E+04  0.7818609E-02  0.8004369E-01
        2   -1    0    0  501    0  0.00000000000E+00  0.00000000000E+00  0.28274085434E+04  0.28274085434E+04  0.25500000920E-02 0. -1.
       -2   -1    0    0    0  501  0.00000000000E+00  0.00000000000E+00 -0.14153460672E+04  0.14153460672E+04  0.25500000920E-02 0.  1.
    10030    2    1    2    0    0  0.00000000000E+00  0.00000000000E+00  0.14120624762E+04  0.42427546106E+04  0.40008806842E+04 0.  0.
        3    1    3    3  502    0 -0.88501244610E+03  0.30249903594E+03 -0.11692088119E+04  0.14972648238E+04  0.10100000352E+00 0.  1.
       -3    1    3    3    0  502  0.88501244610E+03 -0.30249903594E+03  0.25812712881E+04  0.27454897868E+04  0.10100000352E+00 0. -1.
</event>
<event>
 5   0  0.6538370E-09  0.3997698E+04  0.7818609E-02  0.8005011E-01
       -2   -1    0    0    0  501  0.00000000000E+00  0.00000000000E+00  0.21112156852E+04  0.21112156852E+04  0.25500000920E-02 0. -1.
        2   -1    0    0  501    0  0.00000000000E+00  0.00000000000E+00 -0.18924629486E+04  0.18924629486E+04  0.25500000920E-02 0.  1.
    10030    2    1    2    0    0  0.00000000000E+00  0.00000000000E+00  0.21875273655E+03  0.40036786338E+04  0.39976980680E+04 0.  0.
        4    1    3    3  502    0  0.93354478721E+03  0.12673251498E+04  0.13432003166E+04  0.20692529107E+04  0.12699999809E+01 0. -1.
       -4    1    3    3    0  502 -0.93354478721E+03 -0.12673251498E+04 -0.11244475801E+04  0.19344257231E+04  0.12699999809E+01 0.  1.
</event>
<event>
 5   0  0.6645526E-09  0.3997132E+04  0.7818609E-02  0.8005125E-01
       -2   -1    0    0    0  501  0.00000000000E+00  0.00000000000E+00  0.28842084141E+04  0.28842084141E+04  0.25500000920E-02 0. -1.
        2   -1    0    0  501    0  0.00000000000E+00  0.00000000000E+00 -0.13848739665E+04  0.13848739665E+04  0.25500000920E-02 0.  1.
    10030    2    1    2    0    0  0.00000000000E+00  0.00000000000E+00  0.14993344475E+04  0.42690823806E+04  0.39971315449E+04 0.  0.
        3    1    3    3  502    0 -0.34443227144E+03  0.10083983612E+04  0.25554905926E+04  0.27687601961E+04  0.10100000352E+00 0. -1.
       -3    1    3    3    0  502  0.34443227144E+03 -0.10083983612E+04 -0.10561561450E+04  0.15003221845E+04  0.10100000352E+00 0.  1.
</event>
<event>
 5   0  0.6736335E-09  0.4001487E+04  0.7818609E-02  0.8004247E-01
        2   -1    0    0  501    0  0.00000000000E+00  0.00000000000E+00  0.15782837683E+04  0.15782837683E+04  0.25500000920E-02 0.  1.
       -2   -1    0    0    0  501  0.00000000000E+00  0.00000000000E+00 -0.25362831505E+04  0.25362831505E+04  0.25500000920E-02 0. -1.
    10030    2    1    2    0    0  0.00000000000E+00  0.00000000000E+00 -0.95799938222E+03  0.41145669187E+04  0.40014869877E+04 0.  0.
        1    1    3    3  502    0 -0.55192665022E+03  0.49875750120E+03 -0.23887940920E+04  0.25019431021E+04  0.50400001928E-02 0. -1.
       -1    1    3    3    0  502  0.55192665022E+03 -0.49875750120E+03  0.14307947098E+04  0.16126238166E+04  0.50400001928E-02 0.  1.
</event>
<event>
 5   0  0.2078125E-09  0.4000552E+04  0.7818609E-02  0.8004435E-01
        1   -1    0    0  501    0  0.00000000000E+00  0.00000000000E+00  0.22119857274E+04  0.22119857274E+04  0.50400001928E-02 0. -1.
       -1   -1    0    0    0  501  0.00000000000E+00  0.00000000000E+00 -0.18088293778E+04  0.18088293778E+04  0.50400001928E-02 0.  1.
    10030    2    1    2    0    0  0.00000000000E+00  0.00000000000E+00  0.40315634966E+03  0.40208151052E+04  0.40005523453E+04 0.  0.
        2    1    3    3  502    0  0.26615442631E+03 -0.25615037689E+03 -0.17742511662E+04  0.18122964423E+04  0.25500000920E-02 0.  1.
       -2    1    3    3    0  502 -0.26615442631E+03  0.25615037689E+03  0.21774075158E+04  0.22085186629E+04  0.25500000920E-02 0. -1.
</event>
<event>
 5   0  0.2078125E-09  0.3999373E+04  0.7818609E-02  0.8004673E-01
        1   -1    0    0  501    0  0.00000000000E+00  0.00000000000E+00  0.21418016867E+04  0.21418016867E+04  0.50400001928E-02 0.  1.
       -1   -1    0    0    0  501  0.00000000000E+00  0.00000000000E+00 -0.18670015047E+04  0.18670015047E+04  0.50400001928E-02 0. -1.
    10030    2    1    2    0    0  0.00000000000E+00  0.00000000000E+00  0.27480018201E+03  0.40088031914E+04  0.39993734368E+04 0.  0.
        4    1    3    3  502    0 -0.16873626687E+04 -0.74919700783E+03  0.90749302736E+03  0.20571908370E+04  0.12699999809E+01 0.  1.
       -4    1    3    3    0  502  0.16873626687E+04  0.74919700783E+03 -0.63269284535E+03  0.19516123544E+04  0.12699999809E+01 0. -1.
</event>
<event>
 5   0  0.6547327E-09  0.4001944E+04  0.7818609E-02  0.8004155E-01
       -2   -1    0    0    0  501  0.00000000000E+00  0.00000000000E+00  0.15529572406E+04  0.15529572406E+04  0.25500000920E-02 0.  1.
        2   -1    0    0  501    0  0.00000000000E+00  0.00000000000E+00 -0.25782348048E+04  0.25782348048E+04  0.25500000920E-02 0. -1.
    10030    2    1    2    0    0  0.00000000000E+00  0.00000000000E+00 -0.10252775642E+04  0.41311920454E+04  0.40019437318E+04 0.  0.
        5    1    3    3  502    0  0.18538072152E+04 -0.67070878392E+03 -0.86636392247E+03  0.21533833844E+04  0.46999998093E+01 0. -1.
       -5    1    3    3    0  502 -0.18538072152E+04  0.67070878392E+03 -0.15891364175E+03  0.19778086610E+04  0.46999998093E+01 0.  1.
</event>
<event>
 5   0  0.2078125E-09  0.4000354E+04  0.7818609E-02  0.8004475E-01
        1   -1    0    0  501    0  0.00000000000E+00  0.00000000000E+00  0.22421084004E+04  0.22421084004E+04  0.50400001928E-02 0. -1.
       -1   -1    0    0    0  501  0.00000000000E+00  0.00000000000E+00 -0.17843510960E+04  0.17843510960E+04  0.50400001928E-02 0.  1.
    10030    2    1    2    0    0  0.00000000000E+00  0.00000000000E+00  0.45775730448E+03  0.40264594964E+04  0.40003542751E+04 0.  0.
        1    1    3    3  502    0 -0.16860941037E+04 -0.10703522392E+04  0.33978545189E+03  0.20258384427E+04  0.50400001928E-02 0.  1.
       -1    1    3    3    0  502  0.16860941037E+04  0.10703522392E+04  0.11797185258E+03  0.20006210537E+04  0.50400001928E-02 0. -1.
</event>
<event>
 5   0  0.2078125E-09  0.4002871E+04  0.7818609E-02  0.8003968E-01
        1   -1    0    0  501    0  0.00000000000E+00  0.00000000000E+00  0.20102435380E+04  0.20102435380E+04  0.50400001928E-02 0.  1.
       -1   -1    0    0    0  501  0.00000000000E+00  0.00000000000E+00 -0.19926657366E+04  0.19926657366E+04  0.50400001928E-02 0. -1.
    10030    2    1    2    0    0  0.00000000000E+00  0.00000000000E+00  0.17577801418E+02  0.40029092746E+04  0.40028706801E+04 0.  0.
        4    1    3    3  502    0  0.13880306081E+04 -0.71702725558E+03 -0.12422166675E+04  0.19959611509E+04  0.12699999809E+01 0.  1.
       -4    1    3    3    0  502 -0.13880306081E+04  0.71702725558E+03  0.12597944689E+04  0.20069481236E+04  0.12699999809E+01 0. -1.
</event>
<event>
 5   0  0.2078125E-09  0.3998978E+04  0.7818609E-02  0.8004753E-01
        1   -1    0    0  501    0  0.00000000000E+00  0.00000000000E+00  0.26026373396E+04  0.26026373396E+04  0.50400001928E-02 0.  1.
       -1   -1    0    0    0  501  0.00000000000E+00  0.00000000000E+00 -0.15361173559E+04  0.15361173559E+04  0.50400001928E-02 0. -1.
    10030    2    1    2    0    0  0.00000000000E+00  0.00000000000E+00  0.10665199837E+04  0.41387546955E+04  0.39989780637E+04 0.  0.
        5    1    3    3  502    0  0.45768278483E+02 -0.19974401444E+04  0.45261042742E+03  0.20485946780E+04  0.46999998093E+01 0. -1.
       -5    1    3    3    0  502 -0.45768278483E+02  0.19974401444E+04  0.61390955629E+03  0.20901600175E+04  0.46999998093E+01 0.  1.
</event>
<event>
 5   0  0.6538370E-09  0.4000407E+04  0.7818609E-02  0.8004464E-01
        2   -1    0    0  501    0  0.00000000000E+00  0.00000000000E+00  0.27696688382E+04  0.27696688382E+04  0.25500000920E-02 0. -1.
       -2   -1    0    0    0  501  0.00000000000E+00  0.00000000000E+00 -0.14445101445E+04  0.14445101445E+04  0.25500000920E-02 0.  1.
    10030    2    1    2    0    0  0.00000000000E+00  0.00000000000E+00  0.13251586937E+04  0.42141789826E+04  0.40004073460E+04 0.  0.
        4    1    3    3  502    0  0.11638708489E+03  0.19844480936E+04  0.42883742774E+03  0.20335887839E+04  0.12699999809E+01 0.  1.
       -4    1    3    3    0  502 -0.11638708489E+03 -0.19844480936E+04  0.89632126595E+03  0.21805901987E+04  0.12699999809E+01 0. -1.
</event>
<event>
 5   0  0.2078125E-09  0.3999948E+04  0.7818609E-02  0.8004557E-01
        1   -1    0    0  501    0  0.00000000000E+00  0.00000000000E+00  0.16307393657E+04  0.16307393657E+04  0.50400001928E-02 0.  1.
       -1   -1    0    0    0  501  0.00000000000E+00  0.00000000000E+00 -0.24528108163E+04  0.24528108163E+04  0.50400001928E-02 0. -1.
    10030    2    1    2    0    0  0.00000000000E+00  0.00000000000E+00 -0.82207145062E+03  0.40835501819E+04  0.39999475770E+04 0.  0.
        1    1    3    3  502    0 -0.34166761358E+03  0.11635155770E+04 -0.20346822500E+04  0.23686361296E+04  0.50400001928E-02 0. -1.
       -1    1    3    3    0  502  0.34166761358E+03 -0.11635155770E+04  0.12126107993E+04  0.17149140523E+04  0.50400001928E-02 0.  1.
</event>
<event>
 5   0  0.6599276E-09  0.3998876E+04  0.7818609E-02  0.8004773E-01
        2   -1    0    0  501    0  0.00000000000E+00  0.00000000000E+00  0.20664561985E+04  0.20664561985E+04  0.25500000920E-02 0. -1.
       -2   -1    0    0    0  501  0.00000000000E+00  0.00000000000E+00 -0.19345932686E+04  0.19345932686E+04  0.25500000920E-02 0.  1.
    10030    2    1    2    0    0  0.00000000000E+00  0.00000000000E+00  0.13186292996E+03  0.40010494671E+04  0.39988759678E+04 0.  0.
        2    1    3    3  502    0  0.15468999297E+04  0.12419140717E+04  0.31607194433E+03  0.20087686347E+04  0.25500000920E-02 0. -1.
       -2    1    3    3    0  502 -0.15468999297E+04 -0.12419140717E+04 -0.18420901437E+03  0.19922808323E+04  0.25500000920E-02 0.  1.
</event>
<event>
 5   0  0.6547327E-09  0.4009762E+04  0.7818609E-02  0.8002580E-01
        2   -1    0    0  501    0  0.00000000000E+00  0.00000000000E+00  0.14127111118E+04  0.14127111118E+04  0.25500000920E-02 0.  1.
       -2   -1    0    0    0  501  0.00000000000E+00  0.00000000000E+00 -0.28452717606E+04  0.28452717606E+04  0.25500000920E-02 0. -1.
    10030    2    1    2    0    0  0.00000000000E+00  0.00000000000E+00 -0.14325606489E+04  0.42579828724E+04  0.40097616050E+04 0.  0.
        5    1    3    3  502    0 -0.15518623916E+03 -0.15887843613E+04  0.57173836229E+03  0.16956489497E+04  0.46999998093E+01 0.  1.
       -5    1    3    3    0  502  0.15518623916E+03  0.15887843613E+04 -0.20042990112E+04  0.25623339228E+04  0.46999998093E+01 0. -1.
</event>
<event>
 5   0  0.2078125E-09  0.4003313E+04  0.7818609E-02  0.8003879E-01
        1   -1    0    0  501    0  0.00000000000E+00  0.00000000000E+00  0.21842726520E+04  0.21842726520E+04  0.50400001928E-02 0.  1.
       -1   -1    0    0    0  501  0.00000000000E+00  0.00000000000E+00 -0.18343077158E+04  0.18343077158E+04  0.50400001928E-02 0. -1.
    10030    2    1    2    0    0  0.00000000000E+00  0.00000000000E+00  0.34996493623E+03  0.40185803678E+04  0.40033127177E+04 0.  0.
        3    1    3    3  502    0 -0.81368761520E+03  0.68243082827E+03 -0.15281995421E+04  0.18609656690E+04  0.10100000352E+00 0. -1.
       -3    1    3    3    0  502  0.81368761520E+03 -0.68243082827E+03  0.18781644783E+04  0.21576146988E+04  0.10100000352E+00 0.  1.
</event>
<event>
 5   0  0.2078125E-09  0.3999887E+04  0.7818609E-02  0.8004569E-01
        1   -1    0    0  501    0  0.00000000000E+00  0.00000000000E+00  0.25049464190E+04  0.25049464190E+04  0.50400001928E-02 0. -1.
       -1   -1    0    0    0  501  0.00000000000E+00  0.00000000000E+00 -0.15967504405E+04  0.15967504405E+04  0.50400001928E-02 0.  1.
    10030    2    1    2    0    0  0.00000000000E+00  0.00000000000E+00  0.90819597853E+03  0.41016968595E+04  0.39998871474E+04 0.  0.
        5    1    3    3  502    0  0.15403689470E+04 -0.60306766334E+03  0.16066841105E+04  0.23060535597E+04  0.46999998093E+01 0. -1.
       -5    1    3    3    0  502 -0.15403689470E+04  0.60306766334E+03 -0.69848813198E+03  0.17956432997E+04  0.46999998093E+01 0.  1.
</event>
<event>
 5   0  0.6599276E-09  0.4000251E+04  0.7818609E-02  0.8004496E-01
        2   -1    0    0  501    0  0.00000000000E+00  0.00000000000E+00  0.18351627704E+04  0.18351627704E+04  0.25500000920E-02 0. -1.
       -2   -1    0    0    0  501  0.00000000000E+00  0.00000000000E+00 -0.21799165388E+04  0.21799165389E+04  0.25500000920E-02 0.  1.
    10030    2    1    2    0    0  0.00000000000E+00  0.00000000000E+00 -0.34475376843E+03  0.40150793093E+04  0.40002508295E+04 0.  0.
        2    1    3    3  502    0  0.84367445360E+03  0.98749311082E+02 -0.19898801771E+04  0.21635991148E+04  0.25500000920E-02 0.  1.
       -2    1    3    3    0  502 -0.84367445360E+03 -0.98749311082E+02  0.16451264087E+04  0.18514801945E+04  0.25500000920E-02 0. -1.
</event>
<event>
 5   0  0.2078125E-09  0.3989346E+04  0.7818609E-02  0.8006699E-01
        1   -1    0    0  501    0  0.00000000000E+00  0.00000000000E+00  0.26479013404E+04  0.26479013404E+04  0.50400001928E-02 0. -1.
       -1   -1    0    0    0  501  0.00000000000E+00  0.00000000000E+00 -0.15025941290E+04  0.15025941290E+04  0.50400001928E-02 0.  1.
    10030    2    1    2    0    0  0.00000000000E+00  0.00000000000E+00  0.11453072114E+04  0.41504954695E+04  0.39893463166E+04 0.  0.
        4    1    3    3  502    0  0.13490619194E+04 -0.14051663853E+04  0.10192469847E+04  0.21984828090E+04  0.12699999809E+01 0. -1.
       -4    1    3    3    0  502 -0.13490619194E+04  0.14051663853E+04  0.12606022666E+03  0.19520126604E+04  0.12699999809E+01 0.  1.
</event>
<event>
 5   0  0.6645526E-09  0.3998719E+04  0.7818609E-02  0.8004805E-01
       -2   -1    0    0    0  501  0.00000000000E+00  0.00000000000E+00  0.33195434708E+04  0.33195434708E+04  0.25500000920E-02 0. -1.
        2   -1    0    0  501    0  0.00000000000E+00  0.00000000000E+00 -0.12042132545E+04  0.12042132545E+04  0.25500000920E-02 0.  1.
    10030    2    1    2    0    0  0.00000000000E+00  0.00000000000E+00  0.21153302163E+04  0.45237567253E+04  0.39987189181E+04 0.  0.
        3    1    3    3  502    0 -0.29075025873E+03 -0.45558833722E+03  0.32353372818E+04  0.32801682553E+04  0.10100000352E+00 0. -1.
       -3    1    3    3    0  502  0.29075025873E+03  0.45558833722E+03 -0.11200070655E+04  0.12435884701E+04  0.10100000352E+00 0.  1.
</event>
<event>
 5   0  0.6547327E-09  0.3999640E+04  0.7818609E-02  0.8004619E-01
       -2   -1    0    0    0  501  0.00000000000E+00  0.00000000000E+00  0.16618803462E+04  0.16618803462E+04  0.25500000920E-02 0. -1.
        2   -1    0    0  501    0  0.00000000000E+00  0.00000000000E+00 -0.24064791769E+04  0.24064791769E+04  0.25500000920E-02 0.  1.
    10030    2    1    2    0    0  0.00000000000E+00  0.00000000000E+00 -0.74459883078E+03  0.40683595231E+04  0.39996402076E+04 0.  0.
        5    1    3    3  502    0  0.12065101797E+04 -0.67675065653E+03 -0.18412727687E+04  0.23030340344E+04  0.46999998093E+01 0.  1.
       -5    1    3    3    0  502 -0.12065101797E+04  0.67675065653E+03  0.10966739379E+04  0.17653254887E+04  0.46999998093E+01 0. -1.
</event>
<event>
 5   0  0.6538370E-09  0.3998700E+04  0.7818609E-02  0.8004809E-01
        2   -1    0    0  501    0  0.00000000000E+00  0.00000000000E+00  0.13825308600E+04  0.13825308600E+04  0.25500000920E-02 0. -1.
       -2   -1    0    0    0  501  0.00000000000E+00  0.00000000000E+00 -0.28913645055E+04  0.28913645055E+04  0.25500000920E-02 0.  1.
    10030    2    1    2    0    0  0.00000000000E+00  0.00000000000E+00 -0.15088336456E+04  0.42738953655E+04  0.39987001170E+04 0.  0.
        4    1    3    3  502    0  0.12114620397E+04 -0.88278699188E+03  0.65968081270E+03  0.16377220565E+04  0.12699999809E+01 0. -1.
       -4    1    3    3    0  502 -0.12114620397E+04  0.88278699188E+03 -0.21685144583E+04  0.26361733090E+04  0.12699999809E+01 0.  1.
</event>
<event>
 5   0  0.2078125E-09  0.4003710E+04  0.7818609E-02  0.8003799E-01
        1   -1    0    0  501    0  0.00000000000E+00  0.00000000000E+00  0.22246777102E+04  0.22246777103E+04  0.50400001928E-02 0. -1.
       -1   -1    0    0    0  501  0.00000000000E+00  0.00000000000E+00 -0.18013501625E+04  0.18013501625E+04  0.50400001928E-02 0.  1.
    10030    2    1    2    0    0  0.00000000000E+00  0.00000000000E+00  0.42332754779E+03  0.40260278727E+04  0.40037100568E+04 0.  0.
        1    1    3    3  502    0 -0.14779457736E+04 -0.36364295934E+03 -0.10959167744E+04  0.18755248567E+04  0.50400001928E-02 0.  1.
       -1    1    3    3    0  502  0.14779457736E+04  0.36364295934E+03  0.15192443222E+04  0.21505030161E+04  0.50400001928E-02 0. -1.
</event>
<event>
 5   0  0.6736335E-09  0.3997751E+04  0.7818609E-02  0.8005000E-01
       -2   -1    0    0    0  501  0.00000000000E+00  0.00000000000E+00  0.13838976192E+04  0.13838976192E+04  0.25500000920E-02 0. -1.
        2   -1    0    0  501    0  0.00000000000E+00  0.00000000000E+00 -0.28871378727E+04  0.28871378727E+04  0.25500000920E-02 0.  1.
    10030    2    1    2    0    0  0.00000000000E+00  0.00000000000E+00 -0.15032402535E+04  0.42710354919E+04  0.39977509819E+04 0.  0.
        1    1    3    3  502    0 -0.14056636866E+04 -0.14162979394E+04 -0.87672761076E+03  0.21795507694E+04  0.50400001928E-02 0. -1.
       -1    1    3    3    0  502  0.14056636866E+04  0.14162979394E+04 -0.62651264269E+03  0.20914847225E+04  0.50400001928E-02 0.  1.
</event>
<event>
 5   0  0.2078125E-09  0.3998469E+04  0.7818609E-02  0.8004856E-01
       -1   -1    0    0    0  501  0.00000000000E+00  0.00000000000E+00  0.23746408249E+04  0.23746408250E+04  0.50400001928E-02 0. -1.
        1   -1    0    0  501    0  0.00000000000E+00  0.00000000000E+00 -0.16831756981E+04  0.16831756981E+04  0.50400001928E-02 0.  1.
    10030    2    1    2    0    0  0.00000000000E+00  0.00000000000E+00  0.69146512683E+03  0.40578165231E+04  0.39984685710E+04 0.  0.
        1    1    3    3  502    0  0.17708438586E+04 -0.88160696523E+03  0.51920421965E+02  0.19788417175E+04  0.50400001928E-02 0.  1.
       -1    1    3    3    0  502 -0.17708438586E+04  0.88160696523E+03  0.63954470486E+03  0.20789748056E+04  0.50400001928E-02 0. -1.
</event>
<event>
 5   0  0.6538370E-09  0.3996499E+04  0.7818609E-02  0.8005253E-01
        2   -1    0    0  501    0  0.00000000000E+00  0.00000000000E+00  0.13887315110E+04  0.13887315110E+04  0.25500000920E-02 0.  1.
       -2   -1    0    0    0  501  0.00000000000E+00  0.00000000000E+00 -0.28752870227E+04  0.28752870227E+04  0.25500000920E-02 0. -1.
    10030    2    1    2    0    0  0.00000000000E+00  0.00000000000E+00 -0.14865555117E+04  0.42640185337E+04  0.39964993140E+04 0.  0.
        4    1    3    3  502    0 -0.84014927666E+02  0.12517630438E+03  0.13826548692E+04  0.13908499974E+04  0.12699999809E+01 0.  1.
       -4    1    3    3    0  502  0.84014927666E+02 -0.12517630438E+03 -0.28692103809E+04  0.28731685363E+04  0.12699999809E+01 0. -1.
</event>
<event>
 5   0  0.2078125E-09  0.4000882E+04  0.7818609E-02  0.8004369E-01
       -1   -1    0    0    0  501  0.00000000000E+00  0.00000000000E+00  0.19963319456E+04  0.19963319456E+04  0.50400001928E-02 0. -1.
        1   -1    0    0  501    0  0.00000000000E+00  0.00000000000E+00 -0.20045584794E+04  0.20045584794E+04  0.50400001928E-02 0.  1.
    10030    2    1    2    0    0  0.00000000000E+00  0.00000000000E+00 -0.82265338507E+01  0.40008904250E+04  0.40008819674E+04 0.  0.
        1    1    3    3  502    0  0.12156561124E+04  0.18022476440E+03 -0.15825536090E+04  0.20036907632E+04  0.50400001928E-02 0.  1.
       -1    1    3    3    0  502 -0.12156561124E+04 -0.18022476440E+03  0.15743270752E+04  0.19971996617E+04  0.50400001928E-02 0. -1.
</event>
<event>
 5   0  0.6547327E-09  0.4002815E+04  0.7818609E-02  0.8003979E-01
       -2   -1    0    0    0  501  0.00000000000E+00  0.00000000000E+00  0.23284335435E+04  0.23284335435E+04  0.25500000920E-02 0.  1.
        2   -1    0    0  501    0  0.00000000000E+00  0.00000000000E+00 -0.17203120361E+04  0.17203120361E+04  0.25500000920E-02 0. -1.
    10030    2    1    2    0    0  0.00000000000E+00  0.00000000000E+00  0.60812150742E+03  0.40487455796E+04  0.40028151344E+04 0.  0.
        5    1    3    3  502    0  0.18625134498E+04 -0.50491171831E+03  0.84092221095E+03  0.21050093702E+04  0.46999998093E+01 0. -1.
       -5    1    3    3    0  502 -0.18625134498E+04  0.50491171831E+03 -0.23280070353E+03  0.19437362093E+04  0.46999998093E+01 0.  1.
</event>
<event>
 5   0  0.6547327E-09  0.3998738E+04  0.7818609E-02  0.8004801E-01
        2   -1    0    0  501    0  0.00000000000E+00  0.00000000000E+00  0.21874603153E+04  0.21874603153E+04  0.25500000920E-02 0. -1.
       -2   -1    0    0    0  501  0.00000000000E+00  0.00000000000E+00 -0.18274509613E+04  0.18274509613E+04  0.25500000920E-02 0.  1.
    10030    2    1    2    0    0  0.00000000000E+00  0.00000000000E+00  0.36000935402E+03  0.40149112766E+04  0.39987380289E+04 0.  0.
        5    1    3    3  502    0  0.15060044441E+04 -0.62969046315E+03  0.13391848730E+04  0.21113970917E+04  0.46999998093E+01 0. -1.
       -5    1    3    3    0  502 -0.15060044441E+04  0.62969046315E+03 -0.97917551894E+03  0.19035141849E+04  0.46999998093E+01 0.  1.
</event>
<event>
 5   0  0.6599276E-09  0.3999934E+04  0.7818609E-02  0.8004560E-01
       -2   -1    0    0    0  501  0.00000000000E+00  0.00000000000E+00  0.20485456999E+04  0.20485456999E+04  0.25500000920E-02 0. -1.
        2   -1    0    0  501    0  0.00000000000E+00  0.00000000000E+00 -0.19525398958E+04  0.19525398958E+04  0.25500000920E-02 0.  1.
    10030    2    1    2    0    0  0.00000000000E+00  0.00000000000E+00  0.96005804057E+02  0.40010855957E+04  0.39999336031E+04 0.  0.
        2    1    3    3  502    0 -0.18305801126E+04  0.78906808183E+03 -0.11395488028E+03  0.19966566308E+04  0.25500000920E-02 0.  1.
       -2    1    3    3    0  502  0.18305801126E+04 -0.78906808183E+03  0.20996068434E+03  0.20044289649E+04  0.25500000920E-02 0. -1.
</event>
<event>
 5   0  0.6599276E-09  0.3993702E+04  0.7818609E-02  0.8005818E-01
        2   -1    0    0  501    0  0.00000000000E+00  0.00000000000E+00  0.30058417164E+04  0.30058417164E+04  0.25500000920E-02 0.  1.
       -2   -1    0    0    0  501  0.00000000000E+00  0.00000000000E+00 -0.13265549858E+04  0.13265549858E+04  0.25500000920E-02 0. -1.
    10030    2    1    2    0    0  0.00000000000E+00  0.00000000000E+00  0.16792867305E+04  0.43323967022E+04  0.39937021999E+04 0.  0.
        2    1    3    3  502    0 -0.64256672274E+03 -0.35043847897E+03  0.28550840269E+04  0.29474063041E+04  0.25500000920E-02 0.  1.
       -2    1    3    3    0  502  0.64256672274E+03  0.35043847897E+03 -0.11757972964E+04  0.13849903981E+04  0.25500000920E-02 0. -1.
</event>
<event>
 5   0  0.6736335E-09  0.3999053E+04  0.7818609E-02  0.8004738E-01
       -2   -1    0    0    0  501  0.00000000000E+00  0.00000000000E+00  0.18031068078E+04  0.18031068078E+04  0.25500000920E-02 0.  1.
        2   -1    0    0  501    0  0.00000000000E+00  0.00000000000E+00 -0.22173433227E+04  0.22173433227E+04  0.25500000920E-02 0. -1.
    10030    2    1    2    0    0  0.00000000000E+00  0.00000000000E+00 -0.41423651485E+03  0.40204501305E+04  0.39990533082E+04 0.  0.
        1    1    3    3  502    0  0.10732115674E+04  0.13400977979E+04 -0.12375223857E+04  0.21163900471E+04  0.50400001928E-02 0. -1.
       -1    1    3    3    0  502 -0.10732115674E+04 -0.13400977979E+04  0.82328587089E+03  0.19040600835E+04  0.50400001928E-02 0.  1.
</event>
<event>
 5   0  0.2078125E-09  0.3999471E+04  0.7818609E-02  0.8004653E-01
       -1   -1    0    0    0  501  0.00000000000E+00  0.00000000000E+00  0.14194611048E+04  0.14194611048E+04  0.50400001928E-02 0.  1.
        1   -1    0    0  501    0  0.00000000000E+00  0.00000000000E+00 -0.28172259876E+04  0.28172259876E+04  0.50400001928E-02 0. -1.
    10030    2    1    2    0    0  0.00000000000E+00  0.00000000000E+00 -0.13977648829E+04  0.42366870924E+04  0.39994713215E+04 0.  0.
        5    1    3    3  502    0  0.36956439262E+03 -0.12086075248E+04 -0.23405117668E+04  0.26599487608E+04  0.46999998093E+01 0. -1.
       -5    1    3    3    0  502 -0.36956439262E+03  0.12086075248E+04  0.94274688394E+03  0.15767383316E+04  0.46999998093E+01 0.  1.
</event>
<event>
 5   0  0.2078125E-09  0.4000355E+04  0.7818609E-02  0.8004475E-01
       -1   -1    0    0    0  501  0.00000000000E+00  0.00000000000E+00  0.25681600663E+04  0.25681600663E+04  0.50400001928E-02 0.  1.
        1   -1    0    0  501    0  0.00000000000E+00  0.00000000000E+00 -0.15578116927E+04  0.15578116927E+04  0.50400001928E-02 0. -1.
    10030    2    1    2    0    0  0.00000000000E+00  0.00000000000E+00  0.10103483735E+04  0.41259717590E+04  0.40003548743E+04 0.  0.
        3    1    3    3  502    0 -0.25717310369E+03 -0.16492757572E+04 -0.63145698174E+03  0.17846530359E+04  0.10100000352E+00 0. -1.
       -3    1    3    3    0  502  0.25717310369E+03  0.16492757572E+04  0.16418053553E+04  0.23413187231E+04  0.10100000352E+00 0.  1.
</event>
<event>
 5   0  0.6645526E-09  0.4015467E+04  0.7818609E-02  0.8001434E-01
       -2   -1    0    0    0  501  0.00000000000E+00  0.00000000000E+00  0.23798819588E+04  0.23798819588E+04  0.25500000920E-02 0.  1.
        2   -1    0    0  501    0  0.00000000000E+00  0.00000000000E+00 -0.16937786095E+04  0.16937786095E+04  0.25500000920E-02 0. -1.
    10030    2    1    2    0    0  0.00000000000E+00  0.00000000000E+00  0.68610334934E+03  0.40736605683E+04  0.40154666752E+04 0.  0.
        3    1    3    3  502    0 -0.11857884415E+04 -0.14000373012E+04 -0.48411401714E+03  0.18975154978E+04  0.10100000352E+00 0.  1.
       -3    1    3    3    0  502  0.11857884415E+04  0.14000373012E+04  0.11702173665E+04  0.21761450705E+04  0.10100000352E+00 0. -1.
</event>
<event>
 5   0  0.2078125E-09  0.4000441E+04  0.7818609E-02  0.8004458E-01
       -1   -1    0    0    0  501  0.00000000000E+00  0.00000000000E+00  0.20073181039E+04  0.20073181039E+04  0.50400001928E-02 0.  1.
        1   -1    0    0  501    0  0.00000000000E+00  0.00000000000E+00 -0.19931481775E+04  0.19931481775E+04  0.50400001928E-02 0. -1.
    10030    2    1    2    0    0  0.00000000000E+00  0.00000000000E+00  0.14169926423E+02  0.40004662814E+04  0.40004411859E+04 0.  0.
        1    1    3    3  502    0 -0.10445002810E+04  0.15326129369E+04  0.75608843945E+03  0.20028861625E+04  0.50400001928E-02 0.  1.
       -1    1    3    3    0  502  0.10445002810E+04 -0.15326129369E+04 -0.74191851303E+03  0.19975801189E+04  0.50400001928E-02 0. -1.
</event>
<event>
 5   0  0.6599276E-09  0.3998234E+04  0.7818609E-02  0.8004903E-01
        2   -1    0    0  501    0  0.00000000000E+00  0.00000000000E+00  0.21527396069E+04  0.21527396069E+04  0.25500000920E-02 0. -1.
       -2   -1    0    0    0  501  0.00000000000E+00  0.00000000000E+00 -0.18564573477E+04  0.18564573477E+04  0.25500000920E-02 0.  1.
    10030    2    1    2    0    0  0.00000000000E+00  0.00000000000E+00  0.29628225922E+03  0.40091969546E+04  0.39982342407E+04 0.  0.
        2    1    3    3  502    0 -0.38732528290E+03 -0.13784023687E+04  0.15471207069E+04  0.21079839768E+04  0.25500000920E-02 0. -1.
       -2    1    3    3    0  502  0.38732528290E+03  0.13784023687E+04 -0.12508384476E+04  0.19012129778E+04  0.25500000920E-02 0.  1.
</event>
<event>
 5   0  0.2078125E-09  0.3999206E+04  0.7818609E-02  0.8004707E-01
       -1   -1    0    0    0  501  0.00000000000E+00  0.00000000000E+00  0.15523979639E+04  0.15523979639E+04  0.50400001928E-02 0. -1.
        1   -1    0    0  501    0  0.00000000000E+00  0.00000000000E+00 -0.25756363168E+04  0.25756363169E+04  0.50400001928E-02 0.  1.
    10030    2    1    2    0    0  0.00000000000E+00  0.00000000000E+00 -0.10232383530E+04  0.41280342807E+04  0.39992062082E+04 0.  0.
        4    1    3    3  502    0  0.15024137438E+04  0.22565087133E+03  0.83035575363E+03  0.17313745013E+04  0.12699999809E+01 0. -1.
       -4    1    3    3    0  502 -0.15024137438E+04 -0.22565087133E+03 -0.18535941066E+04  0.23966597794E+04  0.12699999809E+01 0.  1.
</event>
<event>
 5   0  0.2078125E-09  0.3999031E+04  0.7818609E-02  0.8004742E-01
       -1   -1    0    0    0  501  0.00000000000E+00  0.00000000000E+00  0.13721670916E+04  0.13721670916E+04  0.50400001928E-02 0. -1.
        1   -1    0    0  501    0  0.00000000000E+00  0.00000000000E+00 -0.29136841314E+04  0.29136841314E+04  0.50400001928E-02 0.  1.
    10030    2    1    2    0    0  0.00000000000E+00  0.00000000000E+00 -0.15415170399E+04  0.42858512230E+04  0.39990306227E+04 0.  0.
        1    1    3    3  502    0 -0.47166264532E+03 -0.62982190577E+03  0.11992646256E+04  0.14343559273E+04  0.50400001928E-02 0. -1.
       -1    1    3    3    0  502  0.47166264532E+03  0.62982190577E+03 -0.27407816654E+04  0.28514952957E+04  0.50400001928E-02 0.  1.
</event>
<event>
 5   0  0.2078125E-09  0.3999843E+04  0.7818609E-02  0.8004578E-01
       -1   -1    0    0    0  501  0.00000000000E+00  0.00000000000E+00  0.24278489246E+04  0.24278489246E+04  0.50400001928E-02 0.  1.
        1   -1    0    0  501    0  0.00000000000E+00  0.00000000000E+00 -0.16474195868E+04  0.16474195868E+04  0.50400001928E-02 0. -1.
    10030    2    1    2    0    0  0.00000000000E+00  0.00000000000E+00  0.78042933782E+03  0.40752685114E+04  0.39998429330E+04 0.  0.
        2    1    3    3  502    0  0.10818339668E+04 -0.89058927083E+03 -0.10636383750E+04  0.17592158975E+04  0.25500000920E-02 0. -1.
       -2    1    3    3    0  502 -0.10818339668E+04  0.89058927083E+03  0.18440677129E+04  0.23160526140E+04  0.25500000920E-02 0.  1.
</event>
<event>
 5   0  0.2078125E-09  0.4001023E+04  0.7818609E-02  0.8004340E-01
       -1   -1    0    0    0  501  0.00000000000E+00  0.00000000000E+00  0.13037195103E+04  0.13037195103E+04  0.50400001928E-02 0. -1.
        1   -1    0    0  501    0  0.00000000000E+00  0.00000000000E+00 -0.30697136814E+04  0.30697136814E+04  0.50400001928E-02 0.  1.
    10030    2    1    2    0    0  0.00000000000E+00  0.00000000000E+00 -0.17659941711E+04  0.43734331917E+04  0.40010226780E+04 0.  0.
        5    1    3    3  502    0  0.13927630064E+04 -0.96262971986E+03  0.28182638718E+03  0.17163603853E+04  0.46999998093E+01 0. -1.
       -5    1    3    3    0  502 -0.13927630064E+04  0.96262971986E+03 -0.20478205583E+04  0.26570728064E+04  0.46999998093E+01 0.  1.
</event>
<event>
 5   0  0.6538370E-09  0.4000391E+04  0.7818609E-02  0.8004468E-01
        2   -1    0    0  501    0  0.00000000000E+00  0.00000000000E+00  0.23638360955E+04  0.23638360955E+04  0.25500000920E-02 0. -1.
       -2   -1    0    0    0  501  0.00000000000E+00  0.00000000000E+00 -0.16924953163E+04  0.16924953163E+04  0.25500000920E-02 0.  1.
    10030    2    1    2    0    0  0.00000000000E+00  0.00000000000E+00  0.67134077925E+03  0.40563314118E+04  0.40003907410E+04 0.  0.
        4    1    3    3  502    0  0.13004427822E+04  0.15074303959E+04  0.13988463929E+03  0.19957622988E+04  0.12699999809E+01 0.  1.
       -4    1    3    3    0  502 -0.13004427822E+04 -0.15074303959E+04  0.53145613996E+03  0.20605691131E+04  0.12699999809E+01 0. -1.
</event>
<event>
 5   0  0.6538370E-09  0.4000164E+04  0.7818609E-02  0.8004514E-01
        2   -1    0    0  501    0  0.00000000000E+00  0.00000000000E+00  0.22208240790E+04  0.22208240790E+04  0.25500000920E-02 0. -1.
       -2   -1    0    0    0  501  0.00000000000E+00  0.00000000000E+00 -0.18012807535E+04  0.18012807535E+04  0.25500000920E-02 0.  1.
    10030    2    1    2    0    0  0.00000000000E+00  0.00000000000E+00  0.41954332551E+03  0.40221048325E+04  0.40001638318E+04 0.  0.
        4    1    3    3  502    0  0.52168426064E+03 -0.19300991025E+04  0.26381631067E+03  0.20166897808E+04  0.12699999809E+01 0.  1.
       -4    1    3    3    0  502 -0.52168426064E+03  0.19300991025E+04  0.15572701484E+03  0.20054150516E+04  0.12699999809E+01 0. -1.
</event>
<event>
 5   0  0.2078125E-09  0.4007153E+04  0.7818609E-02  0.8003105E-01
        1   -1    0    0  501    0  0.00000000000E+00  0.00000000000E+00  0.19964249635E+04  0.19964249635E+04  0.50400001928E-02 0. -1.
       -1   -1    0    0    0  501  0.00000000000E+00  0.00000000000E+00 -0.20107539366E+04  0.20107539366E+04  0.50400001928E-02 0.  1.
    10030    2    1    2    0    0  0.00000000000E+00  0.00000000000E+00 -0.14328973152E+02  0.40071789001E+04  0.40071532811E+04 0.  0.
        2    1    3    3  502    0 -0.12682548974E+04 -0.13847262159E+04  0.69168343795E+03  0.20010904917E+04  0.25500000920E-02 0. -1.
       -2    1    3    3    0  502  0.12682548974E+04  0.13847262159E+04 -0.70601241110E+03  0.20060884084E+04  0.25500000920E-02 0.  1.
</event>
<event>
 5   0  0.6538370E-09  0.3998455E+04  0.7818609E-02  0.8004858E-01
        2   -1    0    0  501    0  0.00000000000E+00  0.00000000000E+00  0.24192210227E+04  0.24192210227E+04  0.25500000920E-02 0.  1.
       -2   -1    0    0    0  501  0.00000000000E+00  0.00000000000E+00 -0.16521479524E+04  0.16521479524E+04  0.25500000920E-02 0. -1.
    10030    2    1    2    0    0  0.00000000000E+00  0.00000000000E+00  0.76707307035E+03  0.40713689751E+04  0.39984552312E+04 0.  0.
        4    1    3    3  502    0  0.12283034293E+04  0.50668860771E+01 -0.12226163917E+04  0.17330745633E+04  0.12699999809E+01 0. -1.
       -4    1    3    3    0  502 -0.12283034293E+04 -0.50668860771E+01  0.19896894621E+04  0.23382944118E+04  0.12699999809E+01 0.  1.
</event>
<event>
 5   0  0.6736335E-09  0.4001065E+04  0.7818609E-02  0.8004332E-01
       -2   -1    0    0    0  501  0.00000000000E+00  0.00000000000E+00  0.21031638845E+04  0.21031638845E+04  0.25500000920E-02 0. -1.
        2   -1    0    0  501    0  0.00000000000E+00  0.00000000000E+00 -0.19029093620E+04  0.19029093620E+04  0.25500000920E-02 0.  1.
    10030    2    1    2    0    0  0.00000000000E+00  0.00000000000E+00  0.20025452254E+03  0.40060732465E+04  0.40010649811E+04 0.  0.
        1    1    3    3  502    0 -0.18767648236E+04 -0.61519963912E+03 -0.21872613864E+03  0.19870978644E+04  0.50400001928E-02 0. -1.
       -1    1    3    3    0  502  0.18767648236E+04  0.61519963912E+03  0.41898066118E+03  0.20189753821E+04  0.50400001928E-02 0.  1.
</event>
<event>
 5   0  0.6538370E-09  0.3997549E+04  0.7818609E-02  0.8005041E-01
        2   -1    0    0  501    0  0.00000000000E+00  0.00000000000E+00  0.27930028246E+04  0.27930028246E+04  0.25500000920E-02 0. -1.
       -2   -1    0    0    0  501  0.00000000000E+00  0.00000000000E+00 -0.14303955468E+04  0.14303955468E+04  0.25500000920E-02 0.  1.
    10030    2    1    2    0    0  0.00000000000E+00  0.00000000000E+00  0.13626072779E+04  0.42233983714E+04  0.39975486501E+04 0.  0.
        4    1    3    3  502    0 -0.40747052708E+02  0.13372175754E+04 -0.88761619327E+03  0.16055140254E+04  0.12699999809E+01 0.  1.
       -4    1    3    3    0  502  0.40747052708E+02 -0.13372175754E+04  0.22502234711E+04  0.26178843460E+04  0.12699999809E+01 0. -1.
</event>
<event>
 5   0  0.2078125E-09  0.4001129E+04  0.7818609E-02  0.8004319E-01
       -1   -1    0    0    0  501  0.00000000000E+00  0.00000000000E+00  0.19240627700E+04  0.19240627700E+04  0.50400001928E-02 0.  1.
        1   -1    0    0  501    0  0.00000000000E+00  0.00000000000E+00 -0.20801080007E+04  0.20801080007E+04  0.50400001928E-02 0. -1.
    10030    2    1    2    0    0  0.00000000000E+00  0.00000000000E+00 -0.15604523070E+03  0.40041707707E+04  0.40011290215E+04 0.  0.
        5    1    3    3  502    0 -0.19112086779E+04  0.59022620344E+03 -0.11197022535E+03  0.20034083466E+04  0.46999998093E+01 0.  1.
       -5    1    3    3    0  502  0.19112086779E+04 -0.59022620344E+03 -0.44075005350E+02  0.20007624241E+04  0.46999998093E+01 0. -1.
</event>
<event>
 5   0  0.6547327E-09  0.4002581E+04  0.7818609E-02  0.8004026E-01
        2   -1    0    0  501    0  0.00000000000E+00  0.00000000000E+00  0.25393335037E+04  0.25393335037E+04  0.25500000920E-02 0. -1.
       -2   -1    0    0    0  501  0.00000000000E+00  0.00000000000E+00 -0.15772501207E+04  0.15772501208E+04  0.25500000920E-02 0.  1.
    10030    2    1    2    0    0  0.00000000000E+00  0.00000000000E+00  0.96208338298E+03  0.41165836245E+04  0.40025812049E+04 0.  0.
        5    1    3    3  502    0 -0.34223989773E+03 -0.22395945945E+03 -0.15338009247E+04  0.15874045967E+04  0.46999998093E+01 0.  1.
       -5    1    3    3    0  502  0.34223989773E+03  0.22395945945E+03  0.24958843077E+04  0.25291790278E+04  0.46999998093E+01 0. -1.
</event>
<event>
 5   0  0.2078125E-09  0.3999228E+04  0.7818609E-02  0.8004702E-01
        1   -1    0    0  501    0  0.00000000000E+00  0.00000000000E+00  0.22528823365E+04  0.22528823365E+04  0.50400001928E-02 0. -1.
       -1   -1    0    0    0  501  0.00000000000E+00  0.00000000000E+00 -0.17748179459E+04  0.17748179459E+04  0.50400001928E-02 0.  1.
    10030    2    1    2    0    0  0.00000000000E+00  0.00000000000E+00  0.47806439068E+03  0.40277002824E+04  0.39992279259E+04 0.  0.
        5    1    3    3  502    0  0.12191237383E+03  0.19698563080E+04  0.56262550843E+03  0.20522587688E+04  0.46999998093E+01 0. -1.
       -5    1    3    3    0  502 -0.12191237383E+03 -0.19698563080E+04 -0.84561117752E+02  0.19754415137E+04  0.46999998093E+01 0.  1.
</event>
<event>
 5   0  0.2078125E-09  0.4001031E+04  0.7818609E-02  0.8004339E-01
       -1   -1    0    0    0  501  0.00000000000E+00  0.00000000000E+00  0.19357487349E+04  0.19357487349E+04  0.50400001928E-02 0. -1.
        1   -1    0    0  501    0  0.00000000000E+00  0.00000000000E+00 -0.20674496997E+04  0.20674496997E+04  0.50400001928E-02 0.  1.
    10030    2    1    2    0    0  0.00000000000E+00  0.00000000000E+00 -0.13170096484E+03  0.40031984346E+04  0.40010314373E+04 0.  0.
        3    1    3    3  502    0 -0.15367138263E+04 -0.60377810761E+03 -0.11960753862E+04  0.20387824129E+04  0.10100000352E+00 0.  1.
       -3    1    3    3    0  502  0.15367138263E+04  0.60377810761E+03  0.10643744214E+04  0.19644160217E+04  0.10100000352E+00 0. -1.
</event>
<event>
 5   0  0.6645526E-09  0.3999765E+04  0.7818609E-02  0.8004594E-01
        2   -1    0    0  501    0  0.00000000000E+00  0.00000000000E+00  0.19120049620E+04  0.19120049620E+04  0.25500000920E-02 0.  1.
       -2   -1    0    0    0  501  0.00000000000E+00  0.00000000000E+00 -0.20917992546E+04  0.20917992546E+04  0.25500000920E-02 0. -1.
    10030    2    1    2    0    0  0.00000000000E+00  0.00000000000E+00 -0.17979429262E+03  0.40038042166E+04  0.39997652702E+04 0.  0.
        3    1    3    3  502    0 -0.51700830444E+03  0.17537628722E+04  0.72119802401E+03  0.19654791779E+04  0.10100000352E+00 0.  1.
       -3    1    3    3    0  502  0.51700830444E+03 -0.17537628722E+04 -0.90099231662E+03  0.20383250387E+04  0.10100000352E+00 0. -1.
</event>
<event>
 5   0  0.2078125E-09  0.4000324E+04  0.7818609E-02  0.8004481E-01
       -1   -1    0    0    0  501  0.00000000000E+00  0.00000000000E+00  0.17615821377E+04  0.17615821377E+04  0.50400001928E-02 0. -1.
        1   -1    0    0  501    0  0.00000000000E+00  0.00000000000E+00 -0.22710537088E+04  0.22710537088E+04  0.50400001928E-02 0.  1.
    10030    2    1    2    0    0  0.00000000000E+00  0.00000000000E+00 -0.50947157109E+03  0.40326358465E+04  0.40003238105E+04 0.  0.
        1    1    3    3  502    0 -0.87743343808E+03  0.93818546107E+03  0.12908037079E+04  0.18210589255E+04  0.50400001928E-02 0. -1.
       -1    1    3    3    0  502  0.87743343808E+03 -0.93818546107E+03 -0.18002752790E+04  0.22115769211E+04  0.50400001928E-02 0.  1.
</event>
<event>
 5   0  0.2078125E-09  0.3996669E+04  0.7818609E-02  0.8005219E-01
       -1   -1    0    0    0  501  0.00000000000E+00  0.00000000000E+00  0.24620603052E+04  0.24620603052E+04  0.50400001928E-02 0.  1.
        1   -1    0    0  501    0  0.00000000000E+00  0.00000000000E+00 -0.16219505389E+04  0.16219505389E+04  0.50400001928E-02 0. -1.
    10030    2    1    2    0    0  0.00000000000E+00  0.00000000000E+00  0.84010976630E+03  0.40840108441E+04  0.39966686322E+04 0.  0.
        4    1    3    3  502    0 -0.10749639414E+04 -0.16831074141E+04  0.34823096885E+03  0.20272307375E+04  0.12699999809E+01 0.  1.
       -4    1    3    3    0  502  0.10749639414E+04  0.16831074141E+04  0.49187879745E+03  0.20567801066E+04  0.12699999809E+01 0. -1.
</event>
<event>
 5   0  0.2078125E-09  0.4000598E+04  0.7818609E-02  0.8004426E-01
       -1   -1    0    0    0  501  0.00000000000E+00  0.00000000000E+00  0.24836574589E+04  0.24836574589E+04  0.50400001928E-02 0. -1.
        1   -1    0    0  501    0  0.00000000000E+00  0.00000000000E+00 -0.16110098352E+04  0.16110098352E+04  0.50400001928E-02 0.  1.
    10030    2    1    2    0    0  0.00000000000E+00  0.00000000000E+00  0.87264762369E+03  0.40946672941E+04  0.40005982520E+04 0.  0.
        5    1    3    3  502    0 -0.54648682992E+03 -0.38240651672E+03 -0.14938320464E+04  0.16359825403E+04  0.46999998093E+01 0.  1.
       -5    1    3    3    0  502  0.54648682992E+03  0.38240651672E+03  0.23664796701E+04  0.24586847538E+04  0.46999998093E+01 0. -1.
</event>
<event>
 5   0  0.2078125E-09  0.3999187E+04  0.7818609E-02  0.8004710E-01
       -1   -1    0    0    0  501  0.00000000000E+00  0.00000000000E+00  0.24605924864E+04  0.24605924864E+04  0.50400001928E-02 0. -1.
        1   -1    0    0  501    0  0.00000000000E+00  0.00000000000E+00 -0.16249643069E+04  0.16249643069E+04  0.50400001928E-02 0.  1.
    10030    2    1    2    0    0  0.00000000000E+00  0.00000000000E+00  0.83562817957E+03  0.40855567933E+04  0.39991873995E+04 0.  0.
        1    1    3    3  502    0 -0.92435293782E+03 -0.17726779723E+04  0.45815638556E+03  0.20510296977E+04  0.50400001928E-02 0.  1.
       -1    1    3    3    0  502  0.92435293782E+03  0.17726779723E+04  0.37747179401E+03  0.20345270956E+04  0.50400001928E-02 0. -1.
</event>
<event>
 5   0  0.2078125E-09  0.3995816E+04  0.7818609E-02  0.8005391E-01
       -1   -1    0    0    0  501  0.00000000000E+00  0.00000000000E+00  0.17732946331E+04  0.17732946331E+04  0.50400001928E-02 0.  1.
        1   -1    0    0  501    0  0.00000000000E+00  0.00000000000E+00 -0.22509716971E+04  0.22509716971E+04  0.50400001928E-02 0. -1.
    10030    2    1    2    0    0  0.00000000000E+00  0.00000000000E+00 -0.47767706397E+03  0.40242663302E+04  0.39958158264E+04 0.  0.
        1    1    3    3  502    0 -0.12086124182E+04  0.20531473377E+03  0.13499673327E+04  0.18235432313E+04  0.50400001928E-02 0.  1.
       -1    1    3    3    0  502  0.12086124182E+04 -0.20531473377E+03 -0.18276443966E+04  0.22007230988E+04  0.50400001928E-02 0. -1.
</event>
<event>
 5   0  0.6538370E-09  0.4001762E+04  0.7818609E-02  0.8004191E-01
        2   -1    0    0  501    0  0.00000000000E+00  0.00000000000E+00  0.30277720738E+04  0.30277720738E+04  0.25500000920E-02 0.  1.
       -2   -1    0    0    0  501  0.00000000000E+00  0.00000000000E+00 -0.13222676838E+04  0.13222676838E+04  0.25500000920E-02 0. -1.
    10030    2    1    2    0    0  0.00000000000E+00  0.00000000000E+00  0.17055043900E+04  0.43500397576E+04  0.40017621954E+04 0.  0.
        4    1    3    3  502    0  0.19061421611E+04  0.39389891411E+03  0.34872922062E+03  0.19774094101E+04  0.12699999809E+01 0.  1.
       -4    1    3    3    0  502 -0.19061421611E+04 -0.39389891411E+03  0.13567751694E+04  0.23726303475E+04  0.12699999809E+01 0. -1.
</event>
<event>
 5   0  0.2078125E-09  0.4000057E+04  0.7818609E-02  0.8004535E-01
       -1   -1    0    0    0  501  0.00000000000E+00  0.00000000000E+00  0.30749092812E+04  0.30749092812E+04  0.50400001928E-02 0.  1.
        1   -1    0    0  501    0  0.00000000000E+00  0.00000000000E+00 -0.13008887472E+04  0.13008887472E+04  0.50400001928E-02 0. -1.
    10030    2    1    2    0    0  0.00000000000E+00  0.00000000000E+00  0.17740205340E+04  0.43757980284E+04  0.40000574408E+04 0.  0.
        4    1    3    3  502    0 -0.80816617542E+03 -0.97343943650E+03 -0.80749154975E+03  0.15009200910E+04  0.12699999809E+01 0. -1.
       -4    1    3    3    0  502  0.80816617542E+03  0.97343943650E+03  0.25815120837E+04  0.28748779374E+04  0.12699999809E+01 0.  1.
</event>
<event>
 5   0  0.2078125E-09  0.4000931E+04  0.7818609E-02  0.8004359E-01
       -1   -1    0    0    0  501  0.00000000000E+00  0.00000000000E+00  0.17607393120E+04  0.17607393120E+04  0.50400001928E-02 0.  1.
        1   -1    0    0  501    0  0.00000000000E+00  0.00000000000E+00 -0.22728300934E+04  0.22728300934E+04  0.50400001928E-02 0. -1.
    10030    2    1    2    0    0  0.00000000000E+00  0.00000000000E+00 -0.51209078144E+03  0.40335694054E+04  0.40009305392E+04 0.  0.
        1    1    3    3  502    0  0.10626098506E+03  0.19782719685E+04  0.23725064540E+02  0.19812658218E+04  0.50400001928E-02 0.  1.
       -1    1    3    3    0  502 -0.10626098506E+03 -0.19782719685E+04 -0.53581584598E+03  0.20523035835E+04  0.50400001928E-02 0. -1.
</event>
<event>
 5   0  0.2078125E-09  0.4001169E+04  0.7818609E-02  0.8004311E-01
       -1   -1    0    0    0  501  0.00000000000E+00  0.00000000000E+00  0.16362051398E+04  0.16362051398E+04  0.50400001928E-02 0.  1.
        1   -1    0    0  501    0  0.00000000000E+00  0.00000000000E+00 -0.24461101425E+04  0.24461101425E+04  0.50400001928E-02 0. -1.
    10030    2    1    2    0    0  0.00000000000E+00  0.00000000000E+00 -0.80990500273E+03  0.40823152822E+04  0.40011688230E+04 0.  0.
        3    1    3    3  502    0  0.16557941429E+02 -0.18998938311E+04  0.23422484372E+03  0.19143489814E+04  0.10100000352E+00 0. -1.
       -3    1    3    3    0  502 -0.16557941429E+02  0.18998938311E+04 -0.10441298464E+04  0.21679663008E+04  0.10100000352E+00 0.  1.
</event>
<event>
 5   0  0.2078125E-09  0.3998145E+04  0.7818609E-02  0.8004921E-01
        1   -1    0    0  501    0  0.00000000000E+00  0.00000000000E+00  0.22788500248E+04  0.22788500248E+04  0.50400001928E-02 0.  1.
       -1   -1    0    0    0  501  0.00000000000E+00  0.00000000000E+00 -0.17536432799E+04  0.17536432799E+04  0.50400001928E-02 0. -1.
    10030    2    1    2    0    0  0.00000000000E+00  0.00000000000E+00  0.52520674486E+03  0.40324933047E+04  0.39981445856E+04 0.  0.
        5    1    3    3  502    0  0.46351998268E+03 -0.50273684232E+02  0.22232407090E+04  0.22716072632E+04  0.46999998093E+01 0.  1.
       -5    1    3    3    0  502 -0.46351998268E+03  0.50273684232E+02 -0.16980339642E+04  0.17608860415E+04  0.46999998093E+01 0. -1.
</event>
<event>
 5   0  0.6538370E-09  0.3998966E+04  0.7818609E-02  0.8004755E-01
       -2   -1    0    0    0  501  0.00000000000E+00  0.00000000000E+00  0.17561836144E+04  0.17561836144E+04  0.25500000920E-02 0.  1.
        2   -1    0    0  501    0  0.00000000000E+00  0.00000000000E+00 -0.22764883906E+04  0.22764883906E+04  0.25500000920E-02 0. -1.
    10030    2    1    2    0    0  0.00000000000E+00  0.00000000000E+00 -0.52030477619E+03  0.40326720050E+04  0.39989656712E+04 0.  0.
        4    1    3    3  502    0  0.43901867317E+03 -0.43091685317E+03 -0.21786873191E+04  0.22638698675E+04  0.12699999809E+01 0. -1.
       -4    1    3    3    0  502 -0.43901867317E+03  0.43091685317E+03  0.16583825429E+04  0.17688021374E+04  0.12699999809E+01 0.  1.
</event>
<event>
 5   0  0.2078125E-09  0.4007998E+04  0.7818609E-02  0.8002935E-01
        1   -1    0    0  501    0  0.00000000000E+00  0.00000000000E+00  0.22687329904E+04  0.22687329904E+04  0.50400001928E-02 0.  1.
       -1   -1    0    0    0  501  0.00000000000E+00  0.00000000000E+00 -0.17701564181E+04  0.17701564181E+04  0.50400001928E-02 0. -1.
    10030    2    1    2    0    0  0.00000000000E+00  0.00000000000E+00  0.49857657235E+03  0.40388894085E+04  0.40079981357E+04 0.  0.
        2    1    3    3  502    0  0.23050647104E+03 -0.19201354905E+04 -0.28007829244E+03  0.19540975884E+04  0.25500000920E-02 0. -1.
       -2    1    3    3    0  502 -0.23050647104E+03  0.19201354905E+04  0.77865486478E+03  0.20847918202E+04  0.25500000920E-02 0.  1.
</event>
<event>
 5   0  0.2078125E-09  0.4000283E+04  0.7818609E-02  0.8004489E-01
        1   -1    0    0  501    0  0.00000000000E+00  0.00000000000E+00  0.11482100900E+04  0.11482100900E+04  0.50400001928E-02 0. -1.
       -1   -1    0    0    0  501  0.00000000000E+00  0.00000000000E+00 -0.34841766893E+04  0.34841766893E+04  0.50400001928E-02 0.  1.
    10030    2    1    2    0    0  0.00000000000E+00  0.00000000000E+00 -0.23359665993E+04  0.46323867793E+04  0.40002834049E+04 0.  0.
        4    1    3    3  502    0 -0.90960167481E+03  0.26469023195E+03  0.87194063835E+03  0.12875240640E+04  0.12699999809E+01 0. -1.
       -4    1    3    3    0  502  0.90960167481E+03 -0.26469023195E+03 -0.32079072377E+04  0.33448627153E+04  0.12699999809E+01 0.  1.
</event>
<event>
 5   0  0.6538370E-09  0.4004207E+04  0.7818609E-02  0.8003698E-01
       -2   -1    0    0    0  501  0.00000000000E+00  0.00000000000E+00  0.14420717529E+04  0.14420717529E+04  0.25500000920E-02 0. -1.
        2   -1    0    0  501    0  0.00000000000E+00  0.00000000000E+00 -0.27796254461E+04  0.27796254461E+04  0.25500000920E-02 0.  1.
    10030    2    1    2    0    0  0.00000000000E+00  0.00000000000E+00 -0.13375536931E+04  0.42216971990E+04  0.40042074569E+04 0.  0.
        4    1    3    3  502    0  0.12003278659E+04  0.78830410817E+03  0.80206191725E+03  0.16448450640E+04  0.12699999809E+01 0.  1.
       -4    1    3    3    0  502 -0.12003278659E+04 -0.78830410817E+03 -0.21396156104E+04  0.25768521350E+04  0.12699999809E+01 0. -1.
</event>
<event>
 5   0  0.6547327E-09  0.3999104E+04  0.7818609E-02  0.8004727E-01
       -2   -1    0    0    0  501  0.00000000000E+00  0.00000000000E+00  0.21822828054E+04  0.21822828054E+04  0.25500000920E-02 0. -1.
        2   -1    0    0  501    0  0.00000000000E+00  0.00000000000E+00 -0.18321216398E+04  0.18321216398E+04  0.25500000920E-02 0.  1.
    10030    2    1    2    0    0  0.00000000000E+00  0.00000000000E+00  0.35016116561E+03  0.40144044453E+04  0.39991036756E+04 0.  0.
        5    1    3    3  502    0  0.16590985949E+04  0.91473413611E+03  0.81693199431E+03  0.20631884695E+04  0.46999998093E+01 0. -1.
       -5    1    3    3    0  502 -0.16590985949E+04 -0.91473413611E+03 -0.46677082870E+03  0.19512159757E+04  0.46999998093E+01 0.  1.
</event>
<event>
 5   0  0.2078125E-09  0.4000815E+04  0.7818609E-02  0.8004382E-01
        1   -1    0    0  501    0  0.00000000000E+00  0.00000000000E+00  0.17791612432E+04  0.17791612432E+04  0.50400001928E-02 0. -1.
       -1   -1    0    0    0  501  0.00000000000E+00  0.00000000000E+00 -0.22491666741E+04  0.22491666741E+04  0.50400001928E-02 0.  1.
    10030    2    1    2    0    0  0.00000000000E+00  0.00000000000E+00 -0.47000543094E+03  0.40283279174E+04  0.40008150050E+04 0.  0.
        4    1    3    3  502    0  0.53096005299E+03  0.13485914103E+04 -0.16232559141E+04  0.21761384941E+04  0.12699999809E+01 0.  1.
       -4    1    3    3    0  502 -0.53096005299E+03 -0.13485914103E+04  0.11532504831E+04  0.18521894233E+04  0.12699999809E+01 0. -1.
</event>
<event>
 5   0  0.6538370E-09  0.3999376E+04  0.7818609E-02  0.8004672E-01
       -2   -1    0    0    0  501  0.00000000000E+00  0.00000000000E+00  0.16067277827E+04  0.16067277827E+04  0.25500000920E-02 0.  1.
        2   -1    0    0  501    0  0.00000000000E+00  0.00000000000E+00 -0.24887554569E+04  0.24887554569E+04  0.25500000920E-02 0. -1.
    10030    2    1    2    0    0  0.00000000000E+00  0.00000000000E+00 -0.88202767422E+03  0.40954832396E+04  0.39993762199E+04 0.  0.
        4    1    3    3  502    0  0.10999545261E+04 -0.12347978076E+04  0.71033774299E+03  0.17997796830E+04  0.12699999809E+01 0. -1.
       -4    1    3    3    0  502 -0.10999545261E+04  0.12347978076E+04 -0.15923654172E+04  0.22957035567E+04  0.12699999809E+01 0.  1.
</event>
<event>
 5   0  0.6645526E-09  0.4000955E+04  0.7818609E-02  0.8004354E-01
        2   -1    0    0  501    0  0.00000000000E+00  0.00000000000E+00  0.24298994498E+04  0.24298994498E+04  0.25500000920E-02 0. -1.
       -2   -1    0    0    0  501  0.00000000000E+00  0.00000000000E+00 -0.16469445530E+04  0.16469445530E+04  0.25500000920E-02 0.  1.
    10030    2    1    2    0    0  0.00000000000E+00  0.00000000000E+00  0.78295489677E+03  0.40768440028E+04  0.40009547177E+04 0.  0.
        3    1    3    3  502    0 -0.82937466066E+03  0.50795637749E+01  0.22464527011E+04  0.23946686364E+04  0.10100000352E+00 0. -1.
       -3    1    3    3    0  502  0.82937466066E+03 -0.50795637749E+01 -0.14634978043E+04  0.16821753664E+04  0.10100000352E+00 0.  1.
</event>
<event>
 5   0  0.2078125E-09  0.3998800E+04  0.7818609E-02  0.8004789E-01
        1   -1    0    0  501    0  0.00000000000E+00  0.00000000000E+00  0.20953047859E+04  0.20953047859E+04  0.50400001928E-02 0. -1.
       -1   -1    0    0    0  501  0.00000000000E+00  0.00000000000E+00 -0.19078850550E+04  0.19078850550E+04  0.50400001928E-02 0.  1.
    10030    2    1    2    0    0  0.00000000000E+00  0.00000000000E+00  0.18741973088E+03  0.40031898408E+04  0.39988001633E+04 0.  0.
        5    1    3    3  502    0 -0.62491818446E+02  0.47723302727E+03 -0.18490187869E+04  0.19106410322E+04  0.46999998093E+01 0.  1.
       -5    1    3    3    0  502  0.62491818446E+02 -0.47723302727E+03  0.20364385178E+04  0.20925488086E+04  0.46999998093E+01 0. -1.
</event>
<event>
 5   0  0.6599276E-09  0.4002212E+04  0.7818609E-02  0.8004101E-01
        2   -1    0    0  501    0  0.00000000000E+00  0.00000000000E+00  0.13649076532E+04  0.13649076532E+04  0.25500000920E-02 0.  1.
       -2   -1    0    0    0  501  0.00000000000E+00  0.00000000000E+00 -0.29338430904E+04  0.29338430904E+04  0.25500000920E-02 0. -1.
    10030    2    1    2    0    0  0.00000000000E+00  0.00000000000E+00 -0.15689354373E+04  0.42987507436E+04  0.40022118321E+04 0.  0.
        2    1    3    3  502    0 -0.68217214929E+03  0.97022613271E+03  0.94669930741E+03  0.15175431356E+04  0.25500000920E-02 0.  1.
       -2    1    3    3    0  502  0.68217214929E+03 -0.97022613271E+03 -0.25156347447E+04  0.27812076079E+04  0.25500000920E-02 0. -1.
</event>
<event>
 5   0  0.6599276E-09  0.3999233E+04  0.7818609E-02  0.8004701E-01
       -2   -1    0    0    0  501  0.00000000000E+00  0.00000000000E+00  0.12611592975E+04  0.12611592975E+04  0.25500000920E-02 0.  1.
        2   -1    0    0  501    0  0.00000000000E+00  0.00000000000E+00 -0.31704680459E+04  0.31704680459E+04  0.25500000920E-02 0. -1.
    10030    2    1    2    0    0  0.00000000000E+00  0.00000000000E+00 -0.19093087485E+04  0.44316273434E+04  0.39992325531E+04 0.  0.
        2    1    3    3  502    0  0.70397486882E+03 -0.37609704297E+03 -0.29863047623E+04  0.30911237010E+04  0.25500000920E-02 0. -1.
       -2    1    3    3    0  502 -0.70397486882E+03  0.37609704297E+03  0.10769960138E+04  0.13405036424E+04  0.25500000920E-02 0.  1.
</event>
<event>
 5   0  0.2078125E-09  0.4000644E+04  0.7818609E-02  0.8004417E-01
       -1   -1    0    0    0  501  0.00000000000E+00  0.00000000000E+00  0.25961077079E+04  0.25961077079E+04  0.50400001928E-02 0.  1.
        1   -1    0    0  501    0  0.00000000000E+00  0.00000000000E+00 -0.15412644998E+04  0.15412644998E+04  0.50400001928E-02 0. -1.
    10030    2    1    2    0    0  0.00000000000E+00  0.00000000000E+00  0.10548432080E+04  0.41373722077E+04  0.40006442720E+04 0.  0.
        3    1    3    3  502    0  0.19908774524E+04 -0.15556450308E+03  0.40728210701E+03  0.20380559536E+04  0.10100000352E+00 0.  1.
       -3    1    3    3    0  502 -0.19908774524E+04  0.15556450308E+03  0.64756110103E+03  0.20993162541E+04  0.10100000352E+00 0. -1.
</event>
<event>
 5   0  0.6645526E-09  0.3998443E+04  0.7818609E-02  0.8004861E-01
        2   -1    0    0  501    0  0.00000000000E+00  0.00000000000E+00  0.13149059516E+04  0.13149059516E+04  0.25500000920E-02 0.  1.
       -2   -1    0    0    0  501  0.00000000000E+00  0.00000000000E+00 -0.30396750178E+04  0.30396750178E+04  0.25500000920E-02 0. -1.
    10030    2    1    2    0    0  0.00000000000E+00  0.00000000000E+00 -0.17247690662E+04  0.43545809694E+04  0.39984430829E+04 0.  0.
        3    1    3    3  502    0 -0.15301759273E+04  0.12314481074E+04 -0.45637355149E+03  0.20164770364E+04  0.10100000352E+00 0.  1.
       -3    1    3    3    0  502  0.15301759273E+04 -0.12314481074E+04 -0.12683955147E+04  0.23381039330E+04  0.10100000352E+00 0. -1.
</event>
<event>
 5   0  0.2078125E-09  0.4001178E+04  0.7818609E-02  0.8004309E-01
        1   -1    0    0  501    0  0.00000000000E+00  0.00000000000E+00  0.21154695645E+04  0.21154695645E+04  0.50400001928E-02 0.  1.
       -1   -1    0    0    0  501  0.00000000000E+00  0.00000000000E+00 -0.18919467203E+04  0.18919467203E+04  0.50400001928E-02 0. -1.
    10030    2    1    2    0    0  0.00000000000E+00  0.00000000000E+00  0.22352284416E+03  0.40074162848E+04  0.40011776789E+04 0.  0.
        4    1    3    3  502    0  0.99915128042E+03  0.49241667983E+03 -0.15526288555E+04  0.19108729533E+04  0.12699999809E+01 0. -1.
       -4    1    3    3    0  502 -0.99915128042E+03 -0.49241667983E+03  0.17761516997E+04  0.20965433315E+04  0.12699999809E+01 0.  1.
</event>
<event>
 5   0  0.2078125E-09  0.3999751E+04  0.7818609E-02  0.8004597E-01
        1   -1    0    0  501    0  0.00000000000E+00  0.00000000000E+00  0.16249884701E+04  0.16249884701E+04  0.50400001928E-02 0.  1.
       -1   -1    0    0    0  501  0.00000000000E+00  0.00000000000E+00 -0.24612496407E+04  0.24612496407E+04  0.50400001928E-02 0. -1.
    10030    2    1    2    0    0  0.00000000000E+00  0.00000000000E+00 -0.83626117066E+03  0.40862381108E+04  0.39997511363E+04 0.  0.
        3    1    3    3  502    0 -0.64432544936E+03 -0.16701294543E+03 -0.23447648385E+04  0.24374106684E+04  0.10100000352E+00 0. -1.
       -3    1    3    3    0  502  0.64432544936E+03  0.16701294543E+03  0.15085036678E+04  0.16488274424E+04  0.10100000352E+00 0.  1.
</event>
<event>
 5   0  0.6599276E-09  0.4003463E+04  0.7818609E-02  0.8003848E-01
       -2   -1    0    0    0  501  0.00000000000E+00  0.00000000000E+00  0.23925264617E+04  0.23925264617E+04  0.25500000920E-02 0. -1.
        2   -1    0    0  501    0  0.00000000000E+00  0.00000000000E+00 -0.16747690933E+04  0.16747690933E+04  0.25500000920E-02 0.  1.
    10030    2    1    2    0    0  0.00000000000E+00  0.00000000000E+00  0.71775736834E+03  0.40672955550E+04  0.40034631873E+04 0.  0.
        2    1    3    3  502    0  0.19443686692E+04 -0.42260014464E+03  0.58092461913E+03  0.20728323176E+04  0.25500000920E-02 0.  1.
       -2    1    3    3    0  502 -0.19443686692E+04  0.42260014464E+03  0.13683274921E+03  0.19944632374E+04  0.25500000920E-02 0. -1.
</event>
<event>
 5   0  0.2078125E-09  0.3993392E+04  0.7818609E-02  0.8005881E-01
       -1   -1    0    0    0  501  0.00000000000E+00  0.00000000000E+00  0.17124363229E+04  0.17124363229E+04  0.50400001928E-02 0. -1.
        1   -1    0    0  501    0  0.00000000000E+00  0.00000000000E+00 -0.23281424334E+04  0.23281424334E+04  0.50400001928E-02 0.  1.
    10030    2    1    2    0    0  0.00000000000E+00  0.00000000000E+00 -0.61570611045E+03  0.40405787563E+04  0.39933923763E+04 0.  0.
        5    1    3    3  502    0  0.17787291249E+04 -0.40635817293E+03  0.51275995094E+03  0.18952438159E+04  0.46999998093E+01 0. -1.
       -5    1    3    3    0  502 -0.17787291249E+04  0.40635817293E+03 -0.11284660614E+04  0.21453349404E+04  0.46999998093E+01 0.  1.
</event>
<event>
 5   0  0.6538370E-09  0.4000378E+04  0.7818609E-02  0.8004470E-01
       -2   -1    0    0    0  501  0.00000000000E+00  0.00000000000E+00  0.15507114143E+04  0.15507114143E+04  0.25500000920E-02 0.  1.
        2   -1    0    0  501    0  0.00000000000E+00  0.00000000000E+00 -0.25799482938E+04  0.25799482938E+04  0.25500000920E-02 0. -1.
    10030    2    1    2    0    0  0.00000000000E+00  0.00000000000E+00 -0.10292368795E+04  0.41306597081E+04  0.40003776159E+04 0.  0.
        4    1    3    3  502    0 -0.11363968908E+04  0.16073892017E+04 -0.14859444792E+03  0.19741276206E+04  0.12699999809E+01 0. -1.
       -4    1    3    3    0  502  0.11363968908E+04 -0.16073892017E+04 -0.88064243156E+03  0.21565320875E+04  0.12699999809E+01 0.  1.
</event>
<event>
 5   0  0.6645526E-09  0.3997934E+04  0.7818609E-02  0.8004964E-01
       -2   -1    0    0    0  501  0.00000000000E+00  0.00000000000E+00  0.17538870479E+04  0.17538870479E+04  0.25500000920E-02 0. -1.
        2   -1    0    0  501    0  0.00000000000E+00  0.00000000000E+00 -0.22782927404E+04  0.22782927404E+04  0.25500000920E-02 0.  1.
    10030    2    1    2    0    0  0.00000000000E+00  0.00000000000E+00 -0.52440569255E+03  0.40321797883E+04  0.39979335305E+04 0.  0.
        3    1    3    3  502    0  0.78824572342E+03  0.27264594394E+03 -0.20944097448E+04  0.22543778123E+04  0.10100000352E+00 0.  1.
       -3    1    3    3    0  502 -0.78824572342E+03 -0.27264594394E+03  0.15700040523E+04  0.17778019759E+04  0.10100000352E+00 0. -1.
</event>
<event>
 5   0  0.6547327E-09  0.4001695E+04  0.7818609E-02  0.8004205E-01
        2   -1    0    0  501    0  0.00000000000E+00  0.00000000000E+00  0.24962926392E+04  0.24962926392E+04  0.25500000920E-02 0.  1.
       -2   -1    0    0    0  501  0.00000000000E+00  0.00000000000E+00 -0.16037342400E+04  0.16037342400E+04  0.25500000920E-02 0. -1.
    10030    2    1    2    0    0  0.00000000000E+00  0.00000000000E+00  0.89255839922E+03  0.41000268791E+04  0.40016946302E+04 0.  0.
        5    1    3    3  502    0 -0.15299295401E+04 -0.12161266352E+04  0.71216187217E+01  0.19544107035E+04  0.46999998093E+01 0. -1.
       -5    1    3    3    0  502  0.15299295401E+04  0.12161266352E+04  0.88543678050E+03  0.21456161756E+04  0.46999998093E+01 0.  1.
</event>
<event>
 5   0  0.2078125E-09  0.4000854E+04  0.7818609E-02  0.8004374E-01
       -1   -1    0    0    0  501  0.00000000000E+00  0.00000000000E+00  0.18970464578E+04  0.18970464578E+04  0.50400001928E-02 0.  1.
        1   -1    0    0  501    0  0.00000000000E+00  0.00000000000E+00 -0.21094409792E+04  0.21094409792E+04  0.50400001928E-02 0. -1.
    10030    2    1    2    0    0  0.00000000000E+00  0.00000000000E+00 -0.21239452143E+03  0.40064874370E+04  0.40008536777E+04 0.  0.
        4    1    3    3  502    0  0.19730840781E+03 -0.46302957449E+02  0.18867386258E+04  0.18975929033E+04  0.12699999809E+01 0.  1.
       -4    1    3    3    0  502 -0.19730840781E+03  0.46302957449E+02 -0.20991331472E+04  0.21088945337E+04  0.12699999809E+01 0. -1.
</event>
<event>
 5   0  0.2078125E-09  0.4000916E+04  0.7818609E-02  0.8004362E-01
       -1   -1    0    0    0  501  0.00000000000E+00  0.00000000000E+00  0.28797996106E+04  0.28797996106E+04  0.50400001928E-02 0.  1.
        1   -1    0    0  501    0  0.00000000000E+00  0.00000000000E+00 -0.13896216174E+04  0.13896216174E+04  0.50400001928E-02 0. -1.
    10030    2    1    2    0    0  0.00000000000E+00  0.00000000000E+00  0.14901779932E+04  0.42694212280E+04  0.40009157915E+04 0.  0.
        3    1    3    3  502    0  0.11130058241E+03 -0.13165450225E+04  0.23479426975E+04  0.26941628638E+04  0.10100000352E+00 0.  1.
       -3    1    3    3    0  502 -0.11130058241E+03  0.13165450225E+04 -0.85776470429E+03  0.15752583642E+04  0.10100000352E+00 0. -1.
</event>
<event>
 5   0  0.2078125E-09  0.3992144E+04  0.7818609E-02  0.8006133E-01
       -1   -1    0    0    0  501  0.00000000000E+00  0.00000000000E+00  0.18584668180E+04  0.18584668180E+04  0.50400001928E-02 0. -1.
        1   -1    0    0  501    0  0.00000000000E+00  0.00000000000E+00 -0.21438655596E+04  0.21438655596E+04  0.50400001928E-02 0.  1.
    10030    2    1    2    0    0  0.00000000000E+00  0.00000000000E+00 -0.28539874155E+03  0.40023323776E+04  0.39921437874E+04 0.  0.
        5    1    3    3  502    0 -0.89096418004E+03  0.16872281386E+04 -0.73047626237E+03  0.20430794457E+04  0.46999998093E+01 0. -1.
       -5    1    3    3    0  502  0.89096418004E+03 -0.16872281386E+04  0.44507752082E+03  0.19592529319E+04  0.46999998093E+01 0.  1.
</event>
<event>
 5   0  0.6538370E-09  0.3998828E+04  0.7818609E-02  0.8004783E-01
        2   -1    0    0  501    0  0.00000000000E+00  0.00000000000E+00  0.19224753580E+04  0.19224753580E+04  0.25500000920E-02 0. -1.
       -2   -1    0    0    0  501  0.00000000000E+00  0.00000000000E+00 -0.20794319827E+04  0.20794319827E+04  0.25500000920E-02 0.  1.
    10030    2    1    2    0    0  0.00000000000E+00  0.00000000000E+00 -0.15695662472E+03  0.40019073407E+04  0.39988282010E+04 0.  0.
        4    1    3    3  502    0  0.71016236165E+03 -0.11294611604E+04  0.14118433207E+04  0.19425025786E+04  0.12699999809E+01 0. -1.
       -4    1    3    3    0  502 -0.71016236165E+03  0.11294611604E+04 -0.15687999454E+04  0.20594047621E+04  0.12699999809E+01 0.  1.
</event>
<event>
 5   0  0.6538370E-09  0.3999173E+04  0.7818609E-02  0.8004713E-01
       -2   -1    0    0    0  501  0.00000000000E+00  0.00000000000E+00  0.15012327584E+04  0.15012327584E+04  0.25500000920E-02 0.  1.
        2   -1    0    0  501    0  0.00000000000E+00  0.00000000000E+00 -0.26633753058E+04  0.26633753058E+04  0.25500000920E-02 0. -1.
    10030    2    1    2    0    0  0.00000000000E+00  0.00000000000E+00 -0.11621425473E+04  0.41646080642E+04  0.39991730430E+04 0.  0.
        4    1    3    3  502    0  0.65360263123E+03  0.18826610298E+04 -0.75134578789E+03  0.21298194897E+04  0.12699999809E+01 0. -1.
       -4    1    3    3    0  502 -0.65360263123E+03 -0.18826610298E+04 -0.41079675943E+03  0.20347885745E+04  0.12699999809E+01 0.  1.
</event>
<event>
 5   0  0.6547327E-09  0.4003294E+04  0.7818609E-02  0.8003882E-01
        2   -1    0    0  501    0  0.00000000000E+00  0.00000000000E+00  0.22957546424E+04  0.22957546424E+04  0.25500000920E-02 0.  1.
       -2   -1    0    0    0  501  0.00000000000E+00  0.00000000000E+00 -0.17452169766E+04  0.17452169766E+04  0.25500000920E-02 0. -1.
    10030    2    1    2    0    0  0.00000000000E+00  0.00000000000E+00  0.55053766584E+03  0.40409716190E+04  0.40032936320E+04 0.  0.
        5    1    3    3  502    0 -0.33917507570E+03 -0.16448470239E+04  0.13745578142E+04  0.21702517685E+04  0.46999998093E+01 0.  1.
       -5    1    3    3    0  502  0.33917507570E+03  0.16448470239E+04 -0.82402014838E+03  0.18707198505E+04  0.46999998093E+01 0. -1.
</event>
<event>
 5   0  0.6538370E-09  0.4000536E+04  0.7818609E-02  0.8004438E-01
       -2   -1    0    0    0  501  0.00000000000E+00  0.00000000000E+00  0.21944270331E+04  0.21944270331E+04  0.25500000920E-02 0. -1.
        2   -1    0    0  501    0  0.00000000000E+00  0.00000000000E+00 -0.18232876035E+04  0.18232876035E+04  0.25500000920E-02 0.  1.
    10030    2    1    2    0    0  0.00000000000E+00  0.00000000000E+00  0.37113942968E+03  0.40177146366E+04  0.40005357672E+04 0.  0.
        4    1    3    3  502    0 -0.76812821790E+03  0.12982019775E+04  0.15048776627E+04  0.21307293883E+04  0.12699999809E+01 0.  1.
       -4    1    3    3    0  502  0.76812821790E+03 -0.12982019775E+04 -0.11337382330E+04  0.18869852483E+04  0.12699999809E+01 0. -1.
</event>
<event>
 5   0  0.6599276E-09  0.4000343E+04  0.7818609E-02  0.8004477E-01
       -2   -1    0    0    0  501  0.00000000000E+00  0.00000000000E+00  0.14165980735E+04  0.14165980735E+04  0.25500000920E-02 0. -1.
        2   -1    0    0  501    0  0.00000000000E+00  0.00000000000E+00 -0.28241497229E+04  0.28241497229E+04  0.25500000920E-02 0.  1.
    10030    2    1    2    0    0  0.00000000000E+00  0.00000000000E+00 -0.14075516494E+04  0.42407477964E+04  0.40003425137E+04 0.  0.
        2    1    3    3  502    0  0.68191040137E+03 -0.11099502611E+04  0.90523006098E+03  0.15863268393E+04  0.25500000920E-02 0. -1.
       -2    1    3    3    0  502 -0.68191040137E+03  0.11099502611E+04 -0.23127817104E+04  0.26544209571E+04  0.25500000920E-02 0.  1.
</event>
<event>
 5   0  0.6547327E-09  0.3999713E+04  0.7818609E-02  0.8004604E-01
       -2   -1    0    0    0  501  0.00000000000E+00  0.00000000000E+00  0.28783815494E+04  0.28783815494E+04  0.25500000920E-02 0. -1.
        2   -1    0    0  501    0  0.00000000000E+00  0.00000000000E+00 -0.13894704180E+04  0.13894704180E+04  0.25500000920E-02 0.  1.
    10030    2    1    2    0    0  0.00000000000E+00  0.00000000000E+00  0.14889111314E+04  0.42678519674E+04  0.39997129970E+04 0.  0.
        5    1    3    3  502    0  0.12367790288E+04  0.55386453072E+03  0.23137713678E+04  0.26814078983E+04  0.46999998093E+01 0. -1.
       -5    1    3    3    0  502 -0.12367790288E+04 -0.55386453072E+03 -0.82486023641E+03  0.15864440690E+04  0.46999998093E+01 0.  1.
</event>
<event>
 5   0  0.6547327E-09  0.4003941E+04  0.7818609E-02  0.8003752E-01
       -2   -1    0    0    0  501  0.00000000000E+00  0.00000000000E+00  0.20880541556E+04  0.20880541556E+04  0.25500000920E-02 0.  1.
        2   -1    0    0  501    0  0.00000000000E+00  0.00000000000E+00 -0.19194361151E+04  0.19194361151E+04  0.25500000920E-02 0. -1.
    10030    2    1    2    0    0  0.00000000000E+00  0.00000000000E+00  0.16861804054E+03  0.40074902707E+04  0.40039413365E+04 0.  0.
        5    1    3    3  502    0 -0.20889533440E+03 -0.18594527610E+04  0.79674231860E+03  0.20337212797E+04  0.46999998093E+01 0.  1.
       -5    1    3    3    0  502  0.20889533440E+03  0.18594527610E+04 -0.62812427805E+03  0.19737689910E+04  0.46999998093E+01 0. -1.
</event>
<event>
 5   0  0.2078125E-09  0.4000044E+04  0.7818609E-02  0.8004538E-01
       -1   -1    0    0    0  501  0.00000000000E+00  0.00000000000E+00  0.18799213350E+04  0.18799213350E+04  0.50400001928E-02 0. -1.
        1   -1    0    0  501    0  0.00000000000E+00  0.00000000000E+00 -0.21277950933E+04  0.21277950933E+04  0.50400001928E-02 0.  1.
    10030    2    1    2    0    0  0.00000000000E+00  0.00000000000E+00 -0.24787375834E+03  0.40077164284E+04  0.40000436960E+04 0.  0.
        2    1    3    3  502    0  0.37685764178E+03 -0.16751397498E+04  0.90368761802E+03  0.19403005372E+04  0.25500000920E-02 0. -1.
       -2    1    3    3    0  502 -0.37685764178E+03  0.16751397498E+04 -0.11515613764E+04  0.20674158912E+04  0.25500000920E-02 0.  1.
</event>
<event>
 5   0  0.2078125E-09  0.3998911E+04  0.7818609E-02  0.8004766E-01
       -1   -1    0    0    0  501  0.00000000000E+00  0.00000000000E+00  0.16476398533E+04  0.16476398533E+04  0.50400001928E-02 0. -1.
        1   -1    0    0  501    0  0.00000000000E+00  0.00000000000E+00 -0.24263938101E+04  0.24263938101E+04  0.50400001928E-02 0.  1.
    10030    2    1    2    0    0  0.00000000000E+00  0.00000000000E+00 -0.77875395681E+03  0.40740336634E+04  0.39989114226E+04 0.  0.
        2    1    3    3  502    0  0.13291245205E+04  0.90304642278E+03  0.82283169847E+03  0.18053024225E+04  0.25500000920E-02 0. -1.
       -2    1    3    3    0  502 -0.13291245205E+04 -0.90304642278E+03 -0.16015856553E+04  0.22687312410E+04  0.25500000920E-02 0.  1.
</event>
<event>
 5   0  0.2078125E-09  0.4001861E+04  0.7818609E-02  0.8004171E-01
        1   -1    0    0  501    0  0.00000000000E+00  0.00000000000E+00  0.13645491408E+04  0.13645491408E+04  0.50400001928E-02 0.  1.
       -1   -1    0    0    0  501  0.00000000000E+00  0.00000000000E+00 -0.29340994741E+04  0.29340994741E+04  0.50400001928E-02 0. -1.
    10030    2    1    2    0    0  0.00000000000E+00  0.00000000000E+00 -0.15695503334E+04  0.42986486149E+04  0.40018610253E+04 0.  0.
        2    1    3    3  502    0 -0.17056481576E+04 -0.45696847203E+03  0.22611785400E+03  0.17802205217E+04  0.25500000920E-02 0.  1.
       -2    1    3    3    0  502  0.17056481576E+04  0.45696847203E+03 -0.17956681874E+04  0.25184280933E+04  0.25500000920E-02 0. -1.
</event>
<event>
 5   0  0.2078125E-09  0.3997391E+04  0.7818609E-02  0.8005073E-01
        1   -1    0    0  501    0  0.00000000000E+00  0.00000000000E+00  0.19991768068E+04  0.19991768068E+04  0.50400001928E-02 0. -1.
       -1   -1    0    0    0  501  0.00000000000E+00  0.00000000000E+00 -0.19982138321E+04  0.19982138321E+04  0.50400001928E-02 0.  1.
    10030    2    1    2    0    0  0.00000000000E+00  0.00000000000E+00  0.96297469646E+00  0.39973906389E+04  0.39973905229E+04 0.  0.
        5    1    3    3  502    0 -0.64690867049E+03  0.69736166297E+03  0.17583087600E+04  0.19991187815E+04  0.46999998093E+01 0. -1.
       -5    1    3    3    0  502  0.64690867049E+03 -0.69736166297E+03 -0.17573457853E+04  0.19982718574E+04  0.46999998093E+01 0.  1.
</event>
<event>
 5   0  0.6645526E-09  0.4000610E+04  0.7818609E-02  0.8004423E-01
       -2   -1    0    0    0  501  0.00000000000E+00  0.00000000000E+00  0.17819773600E+04  0.17819773600E+04  0.25500000920E-02 0.  1.
        2   -1    0    0  501    0  0.00000000000E+00  0.00000000000E+00 -0.22453822207E+04  0.22453822207E+04  0.25500000920E-02 0. -1.
    10030    2    1    2    0    0  0.00000000000E+00  0.00000000000E+00 -0.46340486073E+03  0.40273595808E+04  0.40006100944E+04 0.  0.
        3    1    3    3  502    0 -0.89747898469E+03 -0.13834398370E+04  0.90805412915E+03  0.18825346271E+04  0.10100000352E+00 0.  1.
       -3    1    3    3    0  502  0.89747898469E+03  0.13834398370E+04 -0.13714589899E+04  0.21448249536E+04  0.10100000352E+00 0. -1.
</event>
<event>
 5   0  0.2078125E-09  0.4002048E+04  0.7818609E-02  0.8004134E-01
        1   -1    0    0  501    0  0.00000000000E+00  0.00000000000E+00  0.11363606041E+04  0.11363606041E+04  0.50400001928E-02 0. -1.
       -1   -1    0    0    0  501  0.00000000000E+00  0.00000000000E+00 -0.35236144703E+04  0.35236144703E+04  0.50400001928E-02 0.  1.
    10030    2    1    2    0    0  0.00000000000E+00  0.00000000000E+00 -0.23872538662E+04  0.46599750745E+04  0.40020478099E+04 0.  0.
        3    1    3    3  502    0 -0.13488442801E+04  0.14499014132E+04 -0.85917580924E+03  0.21586519130E+04  0.10100000352E+00 0. -1.
       -3    1    3    3    0  502  0.13488442801E+04 -0.14499014132E+04 -0.15280780570E+04  0.25013231615E+04  0.10100000352E+00 0.  1.
</event>
<event>
 5   0  0.2078125E-09  0.3999045E+04  0.7818609E-02  0.8004739E-01
       -1   -1    0    0    0  501  0.00000000000E+00  0.00000000000E+00  0.17706812874E+04  0.17706812874E+04  0.50400001928E-02 0. -1.
        1   -1    0    0  501    0  0.00000000000E+00  0.00000000000E+00 -0.22579387062E+04  0.22579387062E+04  0.50400001928E-02 0.  1.
    10030    2    1    2    0    0  0.00000000000E+00  0.00000000000E+00 -0.48725741874E+03  0.40286199936E+04  0.39990447935E+04 0.  0.
        2    1    3    3  502    0 -0.99527069873E+03  0.66320096377E+03  0.13706234461E+04  0.18190678693E+04  0.25500000920E-02 0. -1.
       -2    1    3    3    0  502  0.99527069873E+03 -0.66320096377E+03 -0.18578808648E+04  0.22095521243E+04  0.25500000920E-02 0.  1.
</event>
<event>
 5   0  0.2078125E-09  0.4000704E+04  0.7818609E-02  0.8004404E-01
        1   -1    0    0  501    0  0.00000000000E+00  0.00000000000E+00  0.34558093641E+04  0.34558093641E+04  0.50400001928E-02 0.  1.
       -1   -1    0    0    0  501  0.00000000000E+00  0.00000000000E+00 -0.11578788864E+04  0.11578788864E+04  0.50400001928E-02 0. -1.
    10030    2    1    2    0    0  0.00000000000E+00  0.00000000000E+00  0.22979304777E+04  0.46136882505E+04  0.40007042871E+04 0.  0.
        5    1    3    3  502    0  0.83249106194E+03  0.26555417824E+03  0.32240629998E+04  0.33403839160E+04  0.46999998093E+01 0.  1.
       -5    1    3    3    0  502 -0.83249106194E+03 -0.26555417824E+03 -0.92613252209E+03  0.12733043345E+04  0.46999998093E+01 0. -1.
</event>
<event>
 5   0  0.6599276E-09  0.4002058E+04  0.7818609E-02  0.8004132E-01
       -2   -1    0    0    0  501  0.00000000000E+00  0.00000000000E+00  0.27013213437E+04  0.27013213437E+04  0.25500000920E-02 0. -1.
        2   -1    0    0  501    0  0.00000000000E+00  0.00000000000E+00 -0.14822805512E+04  0.14822805512E+04  0.25500000920E-02 0.  1.
    10030    2    1    2    0    0  0.00000000000E+00  0.00000000000E+00  0.12190407926E+04  0.41836018949E+04  0.40020575160E+04 0.  0.
        2    1    3    3  502    0  0.87332681512E+03  0.35629444732E+02  0.24912160244E+04  0.26400997071E+04  0.25500000920E-02 0. -1.
       -2    1    3    3    0  502 -0.87332681512E+03 -0.35629444732E+02 -0.12721752318E+04  0.15435021878E+04  0.25500000920E-02 0.  1.
</event>
<event>
 5   0  0.6538370E-09  0.3998159E+04  0.7818609E-02  0.8004918E-01
       -2   -1    0    0    0  501  0.00000000000E+00  0.00000000000E+00  0.18842882001E+04  0.18842882001E+04  0.25500000920E-02 0.  1.
        2   -1    0    0  501    0  0.00000000000E+00  0.00000000000E+00 -0.21208642095E+04  0.21208642095E+04  0.25500000920E-02 0. -1.
    10030    2    1    2    0    0  0.00000000000E+00  0.00000000000E+00 -0.23657600943E+03  0.40051524096E+04  0.39981592785E+04 0.  0.
        4    1    3    3  502    0  0.43462581432E+03 -0.85178195292E+03 -0.18768886138E+04  0.21064530793E+04  0.12699999809E+01 0. -1.
       -4    1    3    3    0  502 -0.43462581432E+03  0.85178195292E+03  0.16403126044E+04  0.18986993303E+04  0.12699999809E+01 0.  1.
</event>
<event>
 5   0  0.2078125E-09  0.4001193E+04  0.7818609E-02  0.8004306E-01
       -1   -1    0    0    0  501  0.00000000000E+00  0.00000000000E+00  0.21083459180E+04  0.21083459180E+04  0.50400001928E-02 0. -1.
        1   -1    0    0  501    0  0.00000000000E+00  0.00000000000E+00 -0.18983537766E+04  0.18983537766E+04  0.50400001928E-02 0.  1.
    10030    2    1    2    0    0  0.00000000000E+00  0.00000000000E+00  0.20999214138E+03  0.40066996946E+04  0.40011930400E+04 0.  0.
        3    1    3    3  502    0 -0.17925957882E+04 -0.80955528566E+03  0.47102204289E+03  0.20225333608E+04  0.10100000352E+00 0. -1.
       -3    1    3    3    0  502  0.17925957882E+04  0.80955528566E+03 -0.26102990151E+03  0.19841663338E+04  0.10100000352E+00 0.  1.
</event>
<event>
 5   0  0.6599276E-09  0.3997757E+04  0.7818609E-02  0.8004999E-01
       -2   -1    0    0    0  501  0.00000000000E+00  0.00000000000E+00  0.17249019765E+04  0.17249019765E+04  0.25500000920E-02 0.  1.
        2   -1    0    0  501    0  0.00000000000E+00  0.00000000000E+00 -0.23163723476E+04  0.23163723476E+04  0.25500000920E-02 0. -1.
    10030    2    1    2    0    0  0.00000000000E+00  0.00000000000E+00 -0.59147037107E+03  0.40412743241E+04  0.39977569915E+04 0.  0.
        2    1    3    3  502    0  0.23914380682E+03  0.19358660375E+04 -0.73723662596E+03  0.20852541615E+04  0.25500000920E-02 0. -1.
       -2    1    3    3    0  502 -0.23914380682E+03 -0.19358660375E+04  0.14576625488E+03  0.19560201626E+04  0.25500000920E-02 0.  1.
</event>
<event>
 5   0  0.2078125E-09  0.4000386E+04  0.7818609E-02  0.8004469E-01
        1   -1    0    0  501    0  0.00000000000E+00  0.00000000000E+00  0.22132365125E+04  0.22132365125E+04  0.50400001928E-02 0. -1.
       -1   -1    0    0    0  501  0.00000000000E+00  0.00000000000E+00 -0.18076567348E+04  0.18076567348E+04  0.50400001928E-02 0.  1.
    10030    2    1    2    0    0  0.00000000000E+00  0.00000000000E+00  0.40557977776E+03  0.40208932473E+04  0.40003859251E+04 0.  0.
        5    1    3    3  502    0  0.89476858807E+03  0.22950790031E+02  0.20007055962E+04  0.21917989273E+04  0.46999998093E+01 0. -1.
       -5    1    3    3    0  502 -0.89476858807E+03 -0.22950790031E+02 -0.15951258184E+04  0.18290943200E+04  0.46999998093E+01 0.  1.
</event>
<event>
 5   0  0.2078125E-09  0.3998971E+04  0.7818609E-02  0.8004754E-01
        1   -1    0    0  501    0  0.00000000000E+00  0.00000000000E+00  0.18736897219E+04  0.18736897219E+04  0.50400001928E-02 0. -1.
       -1   -1    0    0    0  501  0.00000000000E+00  0.00000000000E+00 -0.21337267187E+04  0.21337267187E+04  0.50400001928E-02 0.  1.
    10030    2    1    2    0    0  0.00000000000E+00  0.00000000000E+00 -0.26003699678E+03  0.40074164407E+04  0.39989707787E+04 0.  0.
        1    1    3    3  502    0 -0.78688663845E+03  0.17695344253E+04  0.36852505875E+03  0.19713582584E+04  0.50400001928E-02 0. -1.
       -1    1    3    3    0  502  0.78688663845E+03 -0.17695344253E+04 -0.62856205553E+03  0.20360581823E+04  0.50400001928E-02 0.  1.
</event>
<event>
 5   0  0.2078125E-09  0.3998917E+04  0.7818609E-02  0.8004765E-01
       -1   -1    0    0    0  501  0.00000000000E+00  0.00000000000E+00  0.14121372724E+04  0.14121372724E+04  0.50400001928E-02 0. -1.
        1   -1    0    0  501    0  0.00000000000E+00  0.00000000000E+00 -0.28310527894E+04  0.28310527894E+04  0.50400001928E-02 0.  1.
    10030    2    1    2    0    0  0.00000000000E+00  0.00000000000E+00 -0.14189155170E+04  0.42431900619E+04  0.39989174356E+04 0.  0.
        2    1    3    3  502    0 -0.23970556513E+03  0.61001912672E+03 -0.27138276568E+04  0.27918529051E+04  0.25500000920E-02 0.  1.
       -2    1    3    3    0  502  0.23970556513E+03 -0.61001912672E+03  0.12949121398E+04  0.14513371568E+04  0.25500000920E-02 0. -1.
</event>
<event>
 5   0  0.2078125E-09  0.4000651E+04  0.7818609E-02  0.8004415E-01
        3   -1    0    0  501    0  0.00000000000E+00  0.00000000000E+00  0.27306713578E+04  0.27306713596E+04  0.10100000352E+00 0.  1.
       -3   -1    0    0    0  501  0.00000000000E+00  0.00000000000E+00 -0.14653180355E+04  0.14653180390E+04  0.10100000352E+00 0. -1.
    10030    2    1    2    0    0  0.00000000000E+00  0.00000000000E+00  0.12653533222E+04  0.41959893987E+04  0.40006509475E+04 0.  0.
        4    1    3    3  502    0  0.33539930517E+03  0.19538304440E+04  0.91284158815E+03  0.21824819531E+04  0.12699999809E+01 0.  1.
       -4    1    3    3    0  502 -0.33539930517E+03 -0.19538304440E+04  0.35251173410E+03  0.20135074455E+04  0.12699999809E+01 0. -1.
</event>
<event>
 5   0  0.2078125E-09  0.4008454E+04  0.7818609E-02  0.8002843E-01
       -1   -1    0    0    0  501  0.00000000000E+00  0.00000000000E+00  0.27962178090E+04  0.27962178090E+04  0.50400001928E-02 0. -1.
        1   -1    0    0  501    0  0.00000000000E+00  0.00000000000E+00 -0.14365567674E+04  0.14365567674E+04  0.50400001928E-02 0.  1.
    10030    2    1    2    0    0  0.00000000000E+00  0.00000000000E+00  0.13596610416E+04  0.42327745764E+04  0.40084538749E+04 0.  0.
        3    1    3    3  502    0 -0.67520736112E+03  0.15955907119E+03  0.26653650740E+04  0.27541850093E+04  0.10100000352E+00 0. -1.
       -3    1    3    3    0  502  0.67520736112E+03 -0.15955907119E+03 -0.13057040324E+04  0.14785895672E+04  0.10100000352E+00 0.  1.
</event>
<event>
 5   0  0.6645526E-09  0.3997400E+04  0.7818609E-02  0.8005071E-01
        2   -1    0    0  501    0  0.00000000000E+00  0.00000000000E+00  0.23042534710E+04  0.23042534710E+04  0.25500000920E-02 0.  1.
       -2   -1    0    0    0  501  0.00000000000E+00  0.00000000000E+00 -0.17336641526E+04  0.17336641526E+04  0.25500000920E-02 0. -1.
    10030    2    1    2    0    0  0.00000000000E+00  0.00000000000E+00  0.57058931846E+03  0.40379176236E+04  0.39973999755E+04 0.  0.
        3    1    3    3  502    0 -0.68008850329E+03 -0.67207017310E+03  0.20582496568E+04  0.22694912094E+04  0.10100000352E+00 0.  1.
       -3    1    3    3    0  502  0.68008850329E+03  0.67207017310E+03 -0.14876603383E+04  0.17684264142E+04  0.10100000352E+00 0. -1.
</event>
<event>
 5   0  0.6645526E-09  0.3999398E+04  0.7818609E-02  0.8004668E-01
       -2   -1    0    0    0  501  0.00000000000E+00  0.00000000000E+00  0.24176229204E+04  0.24176229204E+04  0.25500000920E-02 0.  1.
        2   -1    0    0  501    0  0.00000000000E+00  0.00000000000E+00 -0.16540193634E+04  0.16540193634E+04  0.25500000920E-02 0. -1.
    10030    2    1    2    0    0  0.00000000000E+00  0.00000000000E+00  0.76360355698E+03  0.40716422838E+04  0.39993975165E+04 0.  0.
        3    1    3    3  502    0 -0.93601526932E+03  0.12692570080E+04 -0.86990238962E+03  0.18010741557E+04  0.10100000352E+00 0.  1.
       -3    1    3    3    0  502  0.93601526932E+03 -0.12692570080E+04  0.16335059466E+04  0.22705681281E+04  0.10100000352E+00 0. -1.
</event>
<event>
 5   0  0.2078125E-09  0.4001465E+04  0.7818609E-02  0.8004251E-01
       -1   -1    0    0    0  501  0.00000000000E+00  0.00000000000E+00  0.28040980155E+04  0.28040980155E+04  0.50400001928E-02 0. -1.
        1   -1    0    0  501    0  0.00000000000E+00  0.00000000000E+00 -0.14275285902E+04  0.14275285902E+04  0.50400001928E-02 0.  1.
    10030    2    1    2    0    0  0.00000000000E+00  0.00000000000E+00  0.13765694254E+04  0.42316266057E+04  0.40014647752E+04 0.  0.
        5    1    3    3  502    0  0.16267538453E+04 -0.80412408455E+03 -0.20277461538E+03  0.18259472202E+04  0.46999998093E+01 0. -1.
       -5    1    3    3    0  502 -0.16267538453E+04  0.80412408455E+03  0.15793440407E+04  0.24056793854E+04  0.46999998093E+01 0.  1.
</event>
<event>
 5   0  0.2078125E-09  0.4000511E+04  0.7818609E-02  0.8004444E-01
       -1   -1    0    0    0  501  0.00000000000E+00  0.00000000000E+00  0.16620772775E+04  0.16620772775E+04  0.50400001928E-02 0.  1.
        1   -1    0    0  501    0  0.00000000000E+00  0.00000000000E+00 -0.24072417233E+04  0.24072417233E+04  0.50400001928E-02 0. -1.
    10030    2    1    2    0    0  0.00000000000E+00  0.00000000000E+00 -0.74516444579E+03  0.40693190007E+04  0.40005108522E+04 0.  0.
        3    1    3    3  502    0  0.23521483106E+02 -0.19203954449E+04 -0.94125955870E+03  0.21387944015E+04  0.10100000352E+00 0. -1.
       -3    1    3    3    0  502 -0.23521483106E+02  0.19203954449E+04  0.19609511291E+03  0.19305245992E+04  0.10100000352E+00 0.  1.
</event>
<event>
 5   0  0.2078125E-09  0.3999679E+04  0.7818609E-02  0.8004611E-01
       -1   -1    0    0    0  501  0.00000000000E+00  0.00000000000E+00  0.19216728214E+04  0.19216728214E+04  0.50400001928E-02 0. -1.
        1   -1    0    0  501    0  0.00000000000E+00  0.00000000000E+00 -0.20811853999E+04  0.20811853999E+04  0.50400001928E-02 0.  1.
    10030    2    1    2    0    0  0.00000000000E+00  0.00000000000E+00 -0.15951257845E+03  0.40028582213E+04  0.39996786968E+04 0.  0.
        3    1    3    3  502    0 -0.19841569102E+04 -0.23706003722E+03 -0.43861161506E+00  0.19982683274E+04  0.10100000352E+00 0. -1.
       -3    1    3    3    0  502  0.19841569102E+04  0.23706003722E+03 -0.15907396684E+03  0.20045898939E+04  0.10100000352E+00 0.  1.
</event>
<event>
 5   0  0.6599276E-09  0.4000260E+04  0.7818609E-02  0.8004494E-01
        2   -1    0    0  501    0  0.00000000000E+00  0.00000000000E+00  0.26777576605E+04  0.26777576605E+04  0.25500000920E-02 0. -1.
       -2   -1    0    0    0  501  0.00000000000E+00  0.00000000000E+00 -0.14939816789E+04  0.14939816789E+04  0.25500000920E-02 0.  1.
    10030    2    1    2    0    0  0.00000000000E+00  0.00000000000E+00  0.11837759816E+04  0.41717393394E+04  0.40002604342E+04 0.  0.
        2    1    3    3  502    0 -0.78798513912E+03 -0.60544859688E+03 -0.12183296465E+04  0.15722009129E+04  0.25500000920E-02 0.  1.
       -2    1    3    3    0  502  0.78798513912E+03  0.60544859688E+03  0.24021056280E+04  0.25995384265E+04  0.25500000920E-02 0. -1.
</event>
<event>
 5   0  0.6599276E-09  0.3999705E+04  0.7818609E-02  0.8004606E-01
        2   -1    0    0  501    0  0.00000000000E+00  0.00000000000E+00  0.24302919679E+04  0.24302919679E+04  0.25500000920E-02 0.  1.
       -2   -1    0    0    0  501  0.00000000000E+00  0.00000000000E+00 -0.16456498008E+04  0.16456498008E+04  0.25500000920E-02 0. -1.
    10030    2    1    2    0    0  0.00000000000E+00  0.00000000000E+00  0.78464216708E+03  0.40759417688E+04  0.39997047356E+04 0.  0.
        2    1    3    3  502    0 -0.16864669386E+04  0.39777266848E+03 -0.62521783498E+03  0.18420888067E+04  0.25500000920E-02 0. -1.
       -2    1    3    3    0  502  0.16864669386E+04 -0.39777266848E+03  0.14098600021E+04  0.22338529621E+04  0.25500000920E-02 0.  1.
</event>
<event>
 5   0  0.2078125E-09  0.4002513E+04  0.7818609E-02  0.8004040E-01
       -1   -1    0    0    0  501  0.00000000000E+00  0.00000000000E+00  0.12073939927E+04  0.12073939927E+04  0.50400001928E-02 0. -1.
        1   -1    0    0  501    0  0.00000000000E+00  0.00000000000E+00 -0.33170836245E+04  0.33170836245E+04  0.50400001928E-02 0.  1.
    10030    2    1    2    0    0  0.00000000000E+00  0.00000000000E+00 -0.21096896317E+04  0.45244776172E+04  0.40025126316E+04 0.  0.
        4    1    3    3  502    0  0.16587990414E+04 -0.78946362750E+03 -0.15749761676E+03  0.18438205420E+04  0.12699999809E+01 0. -1.
       -4    1    3    3    0  502 -0.16587990414E+04  0.78946362750E+03 -0.19521920150E+04  0.26806570752E+04  0.12699999809E+01 0.  1.
</event>
<event>
 5   0  0.6736335E-09  0.3997836E+04  0.7818609E-02  0.8004983E-01
        2   -1    0    0  501    0  0.00000000000E+00  0.00000000000E+00  0.14211679428E+04  0.14211679428E+04  0.25500000920E-02 0. -1.
       -2   -1    0    0    0  501  0.00000000000E+00  0.00000000000E+00 -0.28115411650E+04  0.28115411650E+04  0.25500000920E-02 0.  1.
    10030    2    1    2    0    0  0.00000000000E+00  0.00000000000E+00 -0.13903732222E+04  0.42327091078E+04  0.39978355012E+04 0.  0.
        1    1    3    3  502    0 -0.17746896534E+04 -0.91881029309E+03 -0.64859615152E+03  0.21010503774E+04  0.50400001928E-02 0.  1.
       -1    1    3    3    0  502  0.17746896534E+04  0.91881029309E+03 -0.74177707065E+03  0.21316587304E+04  0.50400001928E-02 0. -1.
</event>
<event>
 5   0  0.6547327E-09  0.4000370E+04  0.7818609E-02  0.8004472E-01
        2   -1    0    0  501    0  0.00000000000E+00  0.00000000000E+00  0.13109549592E+04  0.13109549592E+04  0.25500000920E-02 0. -1.
       -2   -1    0    0    0  501  0.00000000000E+00  0.00000000000E+00 -0.30517754022E+04  0.30517754022E+04  0.25500000920E-02 0.  1.
    10030    2    1    2    0    0  0.00000000000E+00  0.00000000000E+00 -0.17408204430E+04  0.43627303614E+04  0.40003700318E+04 0.  0.
        5    1    3    3  502    0 -0.47267564302E+03  0.11603043313E+04 -0.25708049809E+04  0.28598581686E+04  0.46999998093E+01 0.  1.
       -5    1    3    3    0  502  0.47267564302E+03 -0.11603043313E+04  0.82998453791E+03  0.15028721928E+04  0.46999998093E+01 0. -1.
</event>
<event>
 5   0  0.6547327E-09  0.4000676E+04  0.7818609E-02  0.8004410E-01
       -2   -1    0    0    0  501  0.00000000000E+00  0.00000000000E+00  0.14516091752E+04  0.14516091752E+04  0.25500000920E-02 0.  1.
        2   -1    0    0  501    0  0.00000000000E+00  0.00000000000E+00 -0.27564940248E+04  0.27564940248E+04  0.25500000920E-02 0. -1.
    10030    2    1    2    0    0  0.00000000000E+00  0.00000000000E+00 -0.13048848496E+04  0.42081032000E+04  0.40006759517E+04 0.  0.
        5    1    3    3  502    0 -0.14556776511E+04  0.13358184085E+04 -0.98159135004E+03  0.22061169309E+04  0.46999998093E+01 0. -1.
       -5    1    3    3    0  502  0.14556776511E+04 -0.13358184085E+04 -0.32329349958E+03  0.20019862690E+04  0.46999998093E+01 0.  1.
</event>
<event>
 5   0  0.6599276E-09  0.3999866E+04  0.7818609E-02  0.8004574E-01
       -2   -1    0    0    0  501  0.00000000000E+00  0.00000000000E+00  0.14465514839E+04  0.14465514839E+04  0.25500000920E-02 0.  1.
        2   -1    0    0  501    0  0.00000000000E+00  0.00000000000E+00 -0.27650122816E+04  0.27650122816E+04  0.25500000920E-02 0. -1.
    10030    2    1    2    0    0  0.00000000000E+00  0.00000000000E+00 -0.13184607977E+04  0.42115637655E+04  0.39998663072E+04 0.  0.
        2    1    3    3  502    0  0.64184494778E+03  0.12526758143E+04  0.83672938438E+03  0.16374607462E+04  0.25500000920E-02 0.  1.
       -2    1    3    3    0  502 -0.64184494778E+03 -0.12526758143E+04 -0.21551901821E+04  0.25741030192E+04  0.25500000920E-02 0. -1.
</event>
<event>
 5   0  0.6645526E-09  0.3991966E+04  0.7818609E-02  0.8006169E-01
       -2   -1    0    0    0  501  0.00000000000E+00  0.00000000000E+00  0.25790809083E+04  0.25790809083E+04  0.25500000920E-02 0. -1.
        2   -1    0    0  501    0  0.00000000000E+00  0.00000000000E+00 -0.15447161421E+04  0.15447161421E+04  0.25500000920E-02 0.  1.
    10030    2    1    2    0    0  0.00000000000E+00  0.00000000000E+00  0.10343647662E+04  0.41237970503E+04  0.39919658870E+04 0.  0.
        3    1    3    3  502    0 -0.16657308685E+04  0.10996463767E+04  0.52560139920E+03  0.20640102522E+04  0.10100000352E+00 0. -1.
       -3    1    3    3    0  502  0.16657308685E+04 -0.10996463767E+04  0.50876336700E+03  0.20597867981E+04  0.10100000352E+00 0.  1.
</event>
<event>
 5   0  0.2078125E-09  0.4000326E+04  0.7818609E-02  0.8004481E-01
        1   -1    0    0  501    0  0.00000000000E+00  0.00000000000E+00  0.15390490418E+04  0.15390490418E+04  0.50400001928E-02 0.  1.
       -1   -1    0    0    0  501  0.00000000000E+00  0.00000000000E+00 -0.25994308337E+04  0.25994308337E+04  0.50400001928E-02 0. -1.
    10030    2    1    2    0    0  0.00000000000E+00  0.00000000000E+00 -0.10603817919E+04  0.41384798755E+04  0.40003257536E+04 0.  0.
        3    1    3    3  502    0 -0.10194846255E+04 -0.91270899552E+03 -0.20394309829E+04  0.24559449009E+04  0.10100000352E+00 0. -1.
       -3    1    3    3    0  502  0.10194846255E+04  0.91270899552E+03  0.97904919098E+03  0.16825349746E+04  0.10100000352E+00 0.  1.
</event>
<event>
 5   0  0.6538370E-09  0.4002574E+04  0.7818609E-02  0.8004028E-01
        2   -1    0    0  501    0  0.00000000000E+00  0.00000000000E+00  0.22794108791E+04  0.22794108791E+04  0.25500000920E-02 0.  1.
       -2   -1    0    0    0  501  0.00000000000E+00  0.00000000000E+00 -0.17570985256E+04  0.17570985256E+04  0.25500000920E-02 0. -1.
    10030    2    1    2    0    0  0.00000000000E+00  0.00000000000E+00  0.52231235349E+03  0.40365094048E+04  0.40025739194E+04 0.  0.
        4    1    3    3  502    0  0.19718300702E+04  0.29973471620E+03  0.42745777334E+03  0.20397736361E+04  0.12699999809E+01 0.  1.
       -4    1    3    3    0  502 -0.19718300702E+04 -0.29973471620E+03  0.94854580156E+02  0.19967357687E+04  0.12699999809E+01 0. -1.
</event>
<event>
 5   0  0.2078125E-09  0.4001089E+04  0.7818609E-02  0.8004327E-01
        1   -1    0    0  501    0  0.00000000000E+00  0.00000000000E+00  0.11206099126E+04  0.11206099126E+04  0.50400001928E-02 0.  1.
       -1   -1    0    0    0  501  0.00000000000E+00  0.00000000000E+00 -0.35714292459E+04  0.35714292459E+04  0.50400001928E-02 0. -1.
    10030    2    1    2    0    0  0.00000000000E+00  0.00000000000E+00 -0.24508193333E+04  0.46920391585E+04  0.40010893591E+04 0.  0.
        2    1    3    3  502    0  0.69611004412E+03  0.18603931695E+04 -0.15042710992E+04  0.24916788474E+04  0.25500000920E-02 0.  1.
       -2    1    3    3    0  502 -0.69611004412E+03 -0.18603931695E+04 -0.94654823410E+03  0.22003603110E+04  0.25500000920E-02 0. -1.
</event>
<event>
 5   0  0.2078125E-09  0.4000549E+04  0.7818609E-02  0.8004436E-01
        1   -1    0    0  501    0  0.00000000000E+00  0.00000000000E+00  0.26875743249E+04  0.26875743249E+04  0.50400001928E-02 0. -1.
       -1   -1    0    0    0  501  0.00000000000E+00  0.00000000000E+00 -0.14887391510E+04  0.14887391510E+04  0.50400001928E-02 0.  1.
    10030    2    1    2    0    0  0.00000000000E+00  0.00000000000E+00  0.11988351739E+04  0.41763134759E+04  0.40005485217E+04 0.  0.
        1    1    3    3  502    0 -0.19137316888E+04 -0.42369033277E+03  0.18286958818E+03  0.19685842021E+04  0.50400001928E-02 0.  1.
       -1    1    3    3    0  502  0.19137316888E+04  0.42369033277E+03  0.10159655857E+04  0.22077292737E+04  0.50400001928E-02 0. -1.
</event>
<event>
 5   0  0.6547327E-09  0.3991247E+04  0.7818609E-02  0.8006315E-01
        2   -1    0    0  501    0  0.00000000000E+00  0.00000000000E+00  0.18297189217E+04  0.18297189217E+04  0.25500000920E-02 0. -1.
       -2   -1    0    0    0  501  0.00000000000E+00  0.00000000000E+00 -0.21765705996E+04  0.21765705996E+04  0.25500000920E-02 0.  1.
    10030    2    1    2    0    0  0.00000000000E+00  0.00000000000E+00 -0.34685167793E+03  0.40062895213E+04  0.39912466275E+04 0.  0.
        5    1    3    3  502    0  0.75517748283E+03  0.55628132016E+03 -0.19415267401E+04  0.21562212573E+04  0.46999998093E+01 0.  1.
       -5    1    3    3    0  502 -0.75517748283E+03 -0.55628132016E+03  0.15946750622E+04  0.18500682640E+04  0.46999998093E+01 0. -1.
</event>
<event>
 5   0  0.2078125E-09  0.3999254E+04  0.7818609E-02  0.8004697E-01
        1   -1    0    0  501    0  0.00000000000E+00  0.00000000000E+00  0.21660078366E+04  0.21660078366E+04  0.50400001928E-02 0. -1.
       -1   -1    0    0    0  501  0.00000000000E+00  0.00000000000E+00 -0.18460268125E+04  0.18460268125E+04  0.50400001928E-02 0.  1.
    10030    2    1    2    0    0  0.00000000000E+00  0.00000000000E+00  0.31998102411E+03  0.40120346491E+04  0.39992542017E+04 0.  0.
        5    1    3    3  502    0  0.12840849676E+04 -0.12911847852E+04  0.98873831221E+03  0.20721143534E+04  0.46999998093E+01 0. -1.
       -5    1    3    3    0  502 -0.12840849676E+04  0.12911847852E+04 -0.66875728810E+03  0.19399202957E+04  0.46999998093E+01 0.  1.
</event>
<event>
 5   0  0.6645526E-09  0.3999428E+04  0.7818609E-02  0.8004662E-01
       -2   -1    0    0    0  501  0.00000000000E+00  0.00000000000E+00  0.26911025993E+04  0.26911025993E+04  0.25500000920E-02 0.  1.
        2   -1    0    0  501    0  0.00000000000E+00  0.00000000000E+00 -0.14859544333E+04  0.14859544333E+04  0.25500000920E-02 0. -1.
    10030    2    1    2    0    0  0.00000000000E+00  0.00000000000E+00  0.12051481660E+04  0.41770570326E+04  0.39994278780E+04 0.  0.
        3    1    3    3  502    0 -0.25852939664E+03 -0.78143393867E+03 -0.13008334247E+04  0.15393648230E+04  0.10100000352E+00 0. -1.
       -3    1    3    3    0  502  0.25852939664E+03  0.78143393867E+03  0.25059815907E+04  0.26376922096E+04  0.10100000352E+00 0.  1.
</event>
<event>
 5   0  0.6736335E-09  0.3999538E+04  0.7818609E-02  0.8004640E-01
       -2   -1    0    0    0  501  0.00000000000E+00  0.00000000000E+00  0.20702603882E+04  0.20702603882E+04  0.25500000920E-02 0. -1.
        2   -1    0    0  501    0  0.00000000000E+00  0.00000000000E+00 -0.19316773803E+04  0.19316773803E+04  0.25500000920E-02 0.  1.
    10030    2    1    2    0    0  0.00000000000E+00  0.00000000000E+00  0.13858300790E+03  0.40019377684E+04  0.39995375548E+04 0.  0.
        1    1    3    3  502    0 -0.15672523755E+04  0.11091701798E+04 -0.49009378383E+03  0.19815979444E+04  0.50400001928E-02 0.  1.
       -1    1    3    3    0  502  0.15672523755E+04 -0.11091701798E+04  0.62867679173E+03  0.20203398240E+04  0.50400001928E-02 0. -1.
</event>
<event>
 5   0  0.2078125E-09  0.4002264E+04  0.7818609E-02  0.8004090E-01
        1   -1    0    0  501    0  0.00000000000E+00  0.00000000000E+00  0.18924936082E+04  0.18924936082E+04  0.50400001928E-02 0. -1.
       -1   -1    0    0    0  501  0.00000000000E+00  0.00000000000E+00 -0.21160071795E+04  0.21160071795E+04  0.50400001928E-02 0.  1.
    10030    2    1    2    0    0  0.00000000000E+00  0.00000000000E+00 -0.22351357134E+03  0.40085007877E+04  0.40022643902E+04 0.  0.
        2    1    3    3  502    0  0.19330250410E+04 -0.27381395370E+03 -0.55172498812E+03  0.20287829734E+04  0.25500000920E-02 0.  1.
       -2    1    3    3    0  502 -0.19330250410E+04  0.27381395370E+03  0.32821141677E+03  0.19797178144E+04  0.25500000920E-02 0. -1.
</event>
<event>
 5   0  0.2078125E-09  0.3992718E+04  0.7818609E-02  0.8006017E-01
       -1   -1    0    0    0  501  0.00000000000E+00  0.00000000000E+00  0.15999356536E+04  0.15999356536E+04  0.50400001928E-02 0.  1.
        1   -1    0    0  501    0  0.00000000000E+00  0.00000000000E+00 -0.24910055859E+04  0.24910055859E+04  0.50400001928E-02 0. -1.
    10030    2    1    2    0    0  0.00000000000E+00  0.00000000000E+00 -0.89106993229E+03  0.40909412396E+04  0.39927176962E+04 0.  0.
        2    1    3    3  502    0  0.72611208852E+03 -0.11299409049E+04 -0.19588404824E+04  0.23750918402E+04  0.25500000920E-02 0. -1.
       -2    1    3    3    0  502 -0.72611208852E+03  0.11299409049E+04  0.10677705501E+04  0.17158493994E+04  0.25500000920E-02 0.  1.
</event>
<event>
 5   0  0.6645526E-09  0.4001098E+04  0.7818609E-02  0.8004325E-01
       -2   -1    0    0    0  501  0.00000000000E+00  0.00000000000E+00  0.15588041869E+04  0.15588041869E+04  0.25500000920E-02 0.  1.
        2   -1    0    0  501    0  0.00000000000E+00  0.00000000000E+00 -0.25674789706E+04  0.25674789706E+04  0.25500000920E-02 0. -1.
    10030    2    1    2    0    0  0.00000000000E+00  0.00000000000E+00 -0.10086747837E+04  0.41262831575E+04  0.40010983338E+04 0.  0.
        3    1    3    3  502    0 -0.24412780420E+03  0.17862713453E+04 -0.13985495448E+04  0.22817327940E+04  0.10100000352E+00 0. -1.
       -3    1    3    3    0  502  0.24412780420E+03 -0.17862713453E+04  0.38987476115E+03  0.18445503635E+04  0.10100000352E+00 0.  1.
</event>
<event>
 5   0  0.6645526E-09  0.3998882E+04  0.7818609E-02  0.8004772E-01
       -2   -1    0    0    0  501  0.00000000000E+00  0.00000000000E+00  0.29408612867E+04  0.29408612867E+04  0.25500000920E-02 0.  1.
        2   -1    0    0  501    0  0.00000000000E+00  0.00000000000E+00 -0.13593857776E+04  0.13593857777E+04  0.25500000920E-02 0. -1.
    10030    2    1    2    0    0  0.00000000000E+00  0.00000000000E+00  0.15814755090E+04  0.43002470643E+04  0.39988823474E+04 0.  0.
        3    1    3    3  502    0  0.13558851393E+04  0.53165103912E+03 -0.68242516980E+03  0.16083474317E+04  0.10100000352E+00 0. -1.
       -3    1    3    3    0  502 -0.13558851393E+04 -0.53165103912E+03  0.22639006788E+04  0.26918996327E+04  0.10100000352E+00 0.  1.
</event>
<event>
 5   0  0.2078125E-09  0.3994027E+04  0.7818609E-02  0.8005753E-01
        1   -1    0    0  501    0  0.00000000000E+00  0.00000000000E+00  0.18252726016E+04  0.18252726016E+04  0.50400001928E-02 0.  1.
       -1   -1    0    0    0  501  0.00000000000E+00  0.00000000000E+00 -0.21849135403E+04  0.21849135403E+04  0.50400001928E-02 0. -1.
    10030    2    1    2    0    0  0.00000000000E+00  0.00000000000E+00 -0.35964093873E+03  0.40101861419E+04  0.39940269513E+04 0.  0.
        4    1    3    3  502    0 -0.75800063320E+03 -0.42064504919E+03 -0.19861416268E+04  0.21670873061E+04  0.12699999809E+01 0. -1.
       -4    1    3    3    0  502  0.75800063320E+03  0.42064504919E+03  0.16265006881E+04  0.18430988358E+04  0.12699999809E+01 0.  1.
</event>
<event>
 5   0  0.2078125E-09  0.3998407E+04  0.7818609E-02  0.8004868E-01
        1   -1    0    0  501    0  0.00000000000E+00  0.00000000000E+00  0.27486487955E+04  0.27486487955E+04  0.50400001928E-02 0.  1.
       -1   -1    0    0    0  501  0.00000000000E+00  0.00000000000E+00 -0.14541014251E+04  0.14541014251E+04  0.50400001928E-02 0. -1.
    10030    2    1    2    0    0  0.00000000000E+00  0.00000000000E+00  0.12945473705E+04  0.42027502206E+04  0.39984067480E+04 0.  0.
        4    1    3    3  502    0  0.66671816889E+03 -0.12530968671E+04  0.21270758306E+04  0.25571894879E+04  0.12699999809E+01 0.  1.
       -4    1    3    3    0  502 -0.66671816889E+03  0.12530968671E+04 -0.83252846012E+03  0.16455607327E+04  0.12699999809E+01 0. -1.
</event>
<event>
 5   0  0.2078125E-09  0.4000040E+04  0.7818609E-02  0.8004539E-01
        1   -1    0    0  501    0  0.00000000000E+00  0.00000000000E+00  0.11776467106E+04  0.11776467106E+04  0.50400001928E-02 0. -1.
       -1   -1    0    0    0  501  0.00000000000E+00  0.00000000000E+00 -0.33966715927E+04  0.33966715927E+04  0.50400001928E-02 0.  1.
    10030    2    1    2    0    0  0.00000000000E+00  0.00000000000E+00 -0.22190248821E+04  0.45743183033E+04  0.40000395639E+04 0.  0.
        1    1    3    3  502    0 -0.33201880283E+03 -0.61605302325E+02  0.11448105651E+04  0.11935756904E+04  0.50400001928E-02 0. -1.
       -1    1    3    3    0  502  0.33201880283E+03  0.61605302325E+02 -0.33638354472E+04  0.33807426129E+04  0.50400001928E-02 0.  1.
</event>
<event>
 5   0  0.2078125E-09  0.3998916E+04  0.7818609E-02  0.8004765E-01
        1   -1    0    0  501    0  0.00000000000E+00  0.00000000000E+00  0.23556962867E+04  0.23556962867E+04  0.50400001928E-02 0.  1.
       -1   -1    0    0    0  501  0.00000000000E+00  0.00000000000E+00 -0.16970912584E+04  0.16970912584E+04  0.50400001928E-02 0. -1.
    10030    2    1    2    0    0  0.00000000000E+00  0.00000000000E+00  0.65860502828E+03  0.40527875451E+04  0.39989156409E+04 0.  0.
        1    1    3    3  502    0 -0.54688673795E+03 -0.18250970569E+04 -0.28530532399E+03  0.19265158964E+04  0.50400001928E-02 0.  1.
       -1    1    3    3    0  502  0.54688673795E+03  0.18250970569E+04  0.94391035226E+03  0.21262716488E+04  0.50400001928E-02 0. -1.
</event>
<event>
 5   0  0.2078125E-09  0.3998518E+04  0.7818609E-02  0.8004846E-01
        1   -1    0    0  501    0  0.00000000000E+00  0.00000000000E+00  0.23641860507E+04  0.23641860507E+04  0.50400001928E-02 0. -1.
       -1   -1    0    0    0  501  0.00000000000E+00  0.00000000000E+00 -0.16906603425E+04  0.16906603425E+04  0.50400001928E-02 0.  1.
    10030    2    1    2    0    0  0.00000000000E+00  0.00000000000E+00  0.67352570817E+03  0.40548463932E+04  0.39985175244E+04 0.  0.
        2    1    3    3  502    0  0.82774601241E+03 -0.26773568210E+03  0.21621736907E+04  0.23306310144E+04  0.25500000920E-02 0. -1.
       -2    1    3    3    0  502 -0.82774601241E+03  0.26773568210E+03 -0.14886479825E+04  0.17242153788E+04  0.25500000920E-02 0.  1.
</event>
<event>
 5   0  0.2078125E-09  0.4000060E+04  0.7818609E-02  0.8004535E-01
        1   -1    0    0  501    0  0.00000000000E+00  0.00000000000E+00  0.28981206294E+04  0.28981206294E+04  0.50400001928E-02 0. -1.
       -1   -1    0    0    0  501  0.00000000000E+00  0.00000000000E+00 -0.13802459403E+04  0.13802459403E+04  0.50400001928E-02 0.  1.
    10030    2    1    2    0    0  0.00000000000E+00  0.00000000000E+00  0.15178746891E+04  0.42783665697E+04  0.40000596161E+04 0.  0.
        5    1    3    3  502    0  0.18316306041E+04 -0.39180202697E+03  0.89232506650E+01  0.18730940213E+04  0.46999998093E+01 0.  1.
       -5    1    3    3    0  502 -0.18316306041E+04  0.39180202697E+03  0.15089514385E+04  0.24052725484E+04  0.46999998093E+01 0. -1.
</event>
<event>
 5   0  0.2078125E-09  0.4004465E+04  0.7818609E-02  0.8003646E-01
        1   -1    0    0  501    0  0.00000000000E+00  0.00000000000E+00  0.25134105436E+04  0.25134105436E+04  0.50400001928E-02 0. -1.
       -1   -1    0    0    0  501  0.00000000000E+00  0.00000000000E+00 -0.15950182373E+04  0.15950182373E+04  0.50400001928E-02 0.  1.
    10030    2    1    2    0    0  0.00000000000E+00  0.00000000000E+00  0.91839230628E+03  0.41084287809E+04  0.40044653350E+04 0.  0.
        2    1    3    3  502    0 -0.14610236172E+04 -0.10904584425E+04  0.13084831768E+04  0.22440627996E+04  0.25500000920E-02 0.  1.
       -2    1    3    3    0  502  0.14610236172E+04  0.10904584425E+04 -0.39009087054E+03  0.18643659812E+04  0.25500000920E-02 0. -1.
</event>
<event>
 5   0  0.6736335E-09  0.4001333E+04  0.7818609E-02  0.8004278E-01
       -2   -1    0    0    0  501  0.00000000000E+00  0.00000000000E+00  0.26426816128E+04  0.26426816128E+04  0.25500000920E-02 0. -1.
        2   -1    0    0  501    0  0.00000000000E+00  0.00000000000E+00 -0.15146226797E+04  0.15146226797E+04  0.25500000920E-02 0.  1.
    10030    2    1    2    0    0  0.00000000000E+00  0.00000000000E+00  0.11280589331E+04  0.41573042925E+04  0.40013325311E+04 0.  0.
        1    1    3    3  502    0  0.16405806529E+03 -0.18527694218E+04  0.13296356894E+04  0.22863946828E+04  0.50400001928E-02 0. -1.
       -1    1    3    3    0  502 -0.16405806529E+03  0.18527694218E+04 -0.20157675636E+03  0.18709096097E+04  0.50400001928E-02 0.  1.
</event>
<event>
 5   0  0.6736335E-09  0.4000315E+04  0.7818609E-02  0.8004483E-01
       -2   -1    0    0    0  501  0.00000000000E+00  0.00000000000E+00  0.16016004228E+04  0.16016004228E+04  0.25500000920E-02 0. -1.
        2   -1    0    0  501    0  0.00000000000E+00  0.00000000000E+00 -0.24978957599E+04  0.24978957599E+04  0.25500000920E-02 0.  1.
    10030    2    1    2    0    0  0.00000000000E+00  0.00000000000E+00 -0.89629533710E+03  0.40994961827E+04  0.40003154401E+04 0.  0.
        1    1    3    3  502    0 -0.15490913739E+04  0.12218087776E+04 -0.11116341070E+03  0.19760713746E+04  0.50400001928E-02 0. -1.
       -1    1    3    3    0  502  0.15490913739E+04 -0.12218087776E+04 -0.78513192640E+03  0.21234248081E+04  0.50400001928E-02 0.  1.
</event>
<event>
 5   0  0.6599276E-09  0.3997426E+04  0.7818609E-02  0.8005066E-01
        2   -1    0    0  501    0  0.00000000000E+00  0.00000000000E+00  0.19998434435E+04  0.19998434435E+04  0.25500000920E-02 0.  1.
       -2   -1    0    0    0  501  0.00000000000E+00  0.00000000000E+00 -0.19975832722E+04  0.19975832722E+04  0.25500000920E-02 0. -1.
    10030    2    1    2    0    0  0.00000000000E+00  0.00000000000E+00  0.22601713075E+01  0.39974267156E+04  0.39974260767E+04 0.  0.
        2    1    3    3  502    0  0.31253338463E+03 -0.16838205981E+04  0.10316276480E+04  0.19992960079E+04  0.25500000920E-02 0.  1.
       -2    1    3    3    0  502 -0.31253338463E+03  0.16838205981E+04 -0.10293674767E+04  0.19981307077E+04  0.25500000920E-02 0. -1.
</event>
<event>
 5   0  0.2078125E-09  0.3996870E+04  0.7818609E-02  0.8005178E-01
        1   -1    0    0  501    0  0.00000000000E+00  0.00000000000E+00  0.12947581517E+04  0.12947581517E+04  0.50400001928E-02 0. -1.
       -1   -1    0    0    0  501  0.00000000000E+00  0.00000000000E+00 -0.30845468994E+04  0.30845468994E+04  0.50400001928E-02 0.  1.
    10030    2    1    2    0    0  0.00000000000E+00  0.00000000000E+00 -0.17897887477E+04  0.43793050511E+04  0.39968698965E+04 0.  0.
        4    1    3    3  502    0  0.10926054013E+04  0.43619682267E+03  0.87513041043E+03  0.14662568258E+04  0.12699999809E+01 0. -1.
       -4    1    3    3    0  502 -0.10926054013E+04 -0.43619682267E+03 -0.26649191581E+04  0.29130482254E+04  0.12699999809E+01 0.  1.
</event>
<event>
 5   0  0.2078125E-09  0.4000774E+04  0.7818609E-02  0.8004390E-01
        1   -1    0    0  501    0  0.00000000000E+00  0.00000000000E+00  0.19606917098E+04  0.19606917098E+04  0.50400001928E-02 0. -1.
       -1   -1    0    0    0  501  0.00000000000E+00  0.00000000000E+00 -0.20408856071E+04  0.20408856071E+04  0.50400001928E-02 0.  1.
    10030    2    1    2    0    0  0.00000000000E+00  0.00000000000E+00 -0.80193897283E+02  0.40015773169E+04  0.40007736705E+04 0.  0.
        4    1    3    3  502    0  0.15610056893E+04  0.85427154637E+03  0.87388485793E+03  0.19824719405E+04  0.12699999809E+01 0. -1.
       -4    1    3    3    0  502 -0.15610056893E+04 -0.85427154637E+03 -0.95407875521E+03  0.20191053764E+04  0.12699999809E+01 0.  1.
</event>
<event>
 5   0  0.2078125E-09  0.4000447E+04  0.7818609E-02  0.8004456E-01
       -1   -1    0    0    0  501  0.00000000000E+00  0.00000000000E+00  0.18616578585E+04  0.18616578585E+04  0.50400001928E-02 0.  1.
        1   -1    0    0  501    0  0.00000000000E+00  0.00000000000E+00 -0.21491026503E+04  0.21491026503E+04  0.50400001928E-02 0. -1.
    10030    2    1    2    0    0  0.00000000000E+00  0.00000000000E+00 -0.28744479182E+03  0.40107605087E+04  0.40004468938E+04 0.  0.
        1    1    3    3  502    0  0.13350873452E+04 -0.77949275037E+03 -0.14161779637E+04  0.20965751101E+04  0.50400001928E-02 0. -1.
       -1    1    3    3    0  502 -0.13350873452E+04  0.77949275037E+03  0.11287331719E+04  0.19141853987E+04  0.50400001928E-02 0.  1.
</event>
<event>
 5   0  0.2078125E-09  0.4002734E+04  0.7818609E-02  0.8003995E-01
       -1   -1    0    0    0  501  0.00000000000E+00  0.00000000000E+00  0.26126431202E+04  0.26126431202E+04  0.50400001928E-02 0. -1.
        1   -1    0    0  501    0  0.00000000000E+00  0.00000000000E+00 -0.15331105650E+04  0.15331105650E+04  0.50400001928E-02 0.  1.
    10030    2    1    2    0    0  0.00000000000E+00  0.00000000000E+00  0.10795325552E+04  0.41457536852E+04  0.40027344504E+04 0.  0.
        2    1    3    3  502    0  0.17915915058E+04 -0.84643188476E+03  0.24824228221E+03  0.19969655204E+04  0.25500000920E-02 0. -1.
       -2    1    3    3    0  502 -0.17915915058E+04  0.84643188476E+03  0.83129027298E+03  0.21487881648E+04  0.25500000920E-02 0.  1.
</event>
<event>
 5   0  0.2078125E-09  0.4000890E+04  0.7818609E-02  0.8004367E-01
       -1   -1    0    0    0  501  0.00000000000E+00  0.00000000000E+00  0.25718104928E+04  0.25718104928E+04  0.50400001928E-02 0. -1.
        1   -1    0    0  501    0  0.00000000000E+00  0.00000000000E+00 -0.15560168873E+04  0.15560168873E+04  0.50400001928E-02 0.  1.
    10030    2    1    2    0    0  0.00000000000E+00  0.00000000000E+00  0.10157936055E+04  0.41278273801E+04  0.40008901798E+04 0.  0.
        2    1    3    3  502    0  0.15887056685E+04 -0.21048313717E+02  0.17619237337E+04  0.23725100581E+04  0.25500000920E-02 0. -1.
       -2    1    3    3    0  502 -0.15887056685E+04  0.21048313717E+02 -0.74613012813E+03  0.17553173220E+04  0.25500000920E-02 0.  1.
</event>
<event>
 5   0  0.6645526E-09  0.3998533E+04  0.7818609E-02  0.8004843E-01
        2   -1    0    0  501    0  0.00000000000E+00  0.00000000000E+00  0.26479107232E+04  0.26479107232E+04  0.25500000920E-02 0. -1.
       -2   -1    0    0    0  501  0.00000000000E+00  0.00000000000E+00 -0.15095172359E+04  0.15095172359E+04  0.25500000920E-02 0.  1.
    10030    2    1    2    0    0  0.00000000000E+00  0.00000000000E+00  0.11383934874E+04  0.41574279591E+04  0.39985331690E+04 0.  0.
        3    1    3    3  502    0 -0.76434201898E+03  0.10498689969E+04 -0.10112817747E+04  0.16459448565E+04  0.10100000352E+00 0.  1.
       -3    1    3    3    0  502  0.76434201898E+03 -0.10498689969E+04  0.21496752620E+04  0.25114831027E+04  0.10100000352E+00 0. -1.
</event>
<event>
 5   0  0.6736335E-09  0.4001872E+04  0.7818609E-02  0.8004169E-01
       -2   -1    0    0    0  501  0.00000000000E+00  0.00000000000E+00  0.21703768815E+04  0.21703768815E+04  0.25500000920E-02 0. -1.
        2   -1    0    0  501    0  0.00000000000E+00  0.00000000000E+00 -0.18447233893E+04  0.18447233893E+04  0.25500000920E-02 0.  1.
    10030    2    1    2    0    0  0.00000000000E+00  0.00000000000E+00  0.32565349224E+03  0.40151002708E+04  0.40018720604E+04 0.  0.
        1    1    3    3  502    0  0.10286471998E+03  0.19195488666E+04  0.72008686159E+03  0.20527479363E+04  0.50400001928E-02 0. -1.
       -1    1    3    3    0  502 -0.10286471998E+03 -0.19195488666E+04 -0.39443336935E+03  0.19623523345E+04  0.50400001928E-02 0.  1.
</event>
<event>
 5   0  0.6645526E-09  0.3998670E+04  0.7818609E-02  0.8004815E-01
       -2   -1    0    0    0  501  0.00000000000E+00  0.00000000000E+00  0.22409745114E+04  0.22409745114E+04  0.25500000920E-02 0.  1.
        2   -1    0    0  501    0  0.00000000000E+00  0.00000000000E+00 -0.17837508037E+04  0.17837508037E+04  0.25500000920E-02 0. -1.
    10030    2    1    2    0    0  0.00000000000E+00  0.00000000000E+00  0.45722370769E+03  0.40247253151E+04  0.39986698218E+04 0.  0.
        3    1    3    3  502    0 -0.12529111583E+04 -0.15403198812E+04 -0.73691934361E+01  0.19855543363E+04  0.10100000352E+00 0. -1.
       -3    1    3    3    0  502  0.12529111583E+04  0.15403198812E+04  0.46459290112E+03  0.20391709789E+04  0.10100000352E+00 0.  1.
</event>
<event>
 5   0  0.2078125E-09  0.4000513E+04  0.7818609E-02  0.8004443E-01
       -1   -1    0    0    0  501  0.00000000000E+00  0.00000000000E+00  0.22522174389E+04  0.22522174389E+04  0.50400001928E-02 0.  1.
        1   -1    0    0  501    0  0.00000000000E+00  0.00000000000E+00 -0.17764829386E+04  0.17764829386E+04  0.50400001928E-02 0. -1.
    10030    2    1    2    0    0  0.00000000000E+00  0.00000000000E+00  0.47573450032E+03  0.40287003775E+04  0.40005128943E+04 0.  0.
        1    1    3    3  502    0  0.32144753149E+03 -0.14834121980E+04  0.15498072168E+04  0.21692723835E+04  0.50400001928E-02 0.  1.
       -1    1    3    3    0  502 -0.32144753149E+03  0.14834121980E+04 -0.10740727164E+04  0.18594279940E+04  0.50400001928E-02 0. -1.
</event>
<event>
 5   0  0.6599276E-09  0.3998158E+04  0.7818609E-02  0.8004918E-01
        2   -1    0    0  501    0  0.00000000000E+00  0.00000000000E+00  0.19891393950E+04  0.19891393950E+04  0.25500000920E-02 0. -1.
       -2   -1    0    0    0  501  0.00000000000E+00  0.00000000000E+00 -0.20090677968E+04  0.20090677968E+04  0.25500000920E-02 0.  1.
    10030    2    1    2    0    0  0.00000000000E+00  0.00000000000E+00 -0.19928401836E+02  0.39982071918E+04  0.39981575266E+04 0.  0.
        2    1    3    3  502    0 -0.10370077463E+04  0.83178414273E+03  0.14830600304E+04  0.19916618638E+04  0.25500000920E-02 0. -1.
       -2    1    3    3    0  502  0.10370077463E+04 -0.83178414273E+03 -0.15029884322E+04  0.20065453280E+04  0.25500000920E-02 0.  1.
</event>
<event>
 5   0  0.6599276E-09  0.4003733E+04  0.7818609E-02  0.8003794E-01
        2   -1    0    0  501    0  0.00000000000E+00  0.00000000000E+00  0.15473286112E+04  0.15473286112E+04  0.25500000920E-02 0.  1.
       -2   -1    0    0    0  501  0.00000000000E+00  0.00000000000E+00 -0.25899283142E+04  0.25899283142E+04  0.25500000920E-02 0. -1.
    10030    2    1    2    0    0  0.00000000000E+00  0.00000000000E+00 -0.10425997029E+04  0.41372569254E+04  0.40037333485E+04 0.  0.
        2    1    3    3  502    0  0.11395225060E+04  0.11081565086E+04 -0.17788265678E+04  0.23855285258E+04  0.25500000920E-02 0. -1.
       -2    1    3    3    0  502 -0.11395225060E+04 -0.11081565086E+04  0.73622686485E+03  0.17517283995E+04  0.25500000920E-02 0.  1.
</event>
<event>
 5   0  0.2078125E-09  0.3970010E+04  0.7818609E-02  0.8010624E-01
        1   -1    0    0  501    0  0.00000000000E+00  0.00000000000E+00  0.33474113612E+04  0.33474113612E+04  0.50400001928E-02 0. -1.
       -1   -1    0    0    0  501  0.00000000000E+00  0.00000000000E+00 -0.11771020721E+04  0.11771020721E+04  0.50400001928E-02 0.  1.
    10030    2    1    2    0    0  0.00000000000E+00  0.00000000000E+00  0.21703092891E+04  0.45245134333E+04  0.39700099997E+04 0.  0.
        1    1    3    3  502    0  0.18905322273E+04 -0.60493682046E+03  0.10696873752E+04  0.22548374087E+04  0.50400001928E-02 0.  1.
       -1    1    3    3    0  502 -0.18905322273E+04  0.60493682046E+03  0.11006219139E+04  0.22696760245E+04  0.50400001928E-02 0. -1.
</event>
<event>
 5   0  0.2078125E-09  0.3997385E+04  0.7818609E-02  0.8005074E-01
        1   -1    0    0  501    0  0.00000000000E+00  0.00000000000E+00  0.34477776705E+04  0.34477776705E+04  0.50400001928E-02 0. -1.
       -1   -1    0    0    0  501  0.00000000000E+00  0.00000000000E+00 -0.11586513805E+04  0.11586513805E+04  0.50400001928E-02 0.  1.
    10030    2    1    2    0    0  0.00000000000E+00  0.00000000000E+00  0.22891262900E+04  0.46064290511E+04  0.39973853243E+04 0.  0.
        4    1    3    3  502    0  0.13497410200E+04 -0.92121520149E+03  0.24706955498E+04  0.29622249039E+04  0.12699999809E+01 0. -1.
       -4    1    3    3    0  502 -0.13497410200E+04  0.92121520149E+03 -0.18156925978E+03  0.16442041472E+04  0.12699999809E+01 0.  1.
</event>
<event>
 5   0  0.2078125E-09  0.4000755E+04  0.7818609E-02  0.8004394E-01
        3   -1    0    0  501    0  0.00000000000E+00  0.00000000000E+00  0.13765526680E+04  0.13765526717E+04  0.10100000352E+00 0.  1.
       -3   -1    0    0    0  501  0.00000000000E+00  0.00000000000E+00 -0.29069060546E+04  0.29069060564E+04  0.10100000352E+00 0. -1.
    10030    2    1    2    0    0  0.00000000000E+00  0.00000000000E+00 -0.15303533867E+04  0.42834587281E+04  0.40007545772E+04 0.  0.
        4    1    3    3  502    0  0.78279770154E+03 -0.65029196517E+03 -0.26090356278E+04  0.28004857439E+04  0.12699999809E+01 0. -1.
       -4    1    3    3    0  502 -0.78279770154E+03  0.65029196517E+03  0.10786822412E+04  0.14829729842E+04  0.12699999809E+01 0.  1.
</event>
<event>
 5   0  0.6538370E-09  0.3998512E+04  0.7818609E-02  0.8004847E-01
        2   -1    0    0  501    0  0.00000000000E+00  0.00000000000E+00  0.20208134901E+04  0.20208134901E+04  0.25500000920E-02 0. -1.
       -2   -1    0    0    0  501  0.00000000000E+00  0.00000000000E+00 -0.19779281550E+04  0.19779281550E+04  0.25500000920E-02 0.  1.
    10030    2    1    2    0    0  0.00000000000E+00  0.00000000000E+00  0.42885335156E+02  0.39987416451E+04  0.39985116721E+04 0.  0.
        4    1    3    3  502    0  0.34054052044E+03  0.19557298002E+04  0.25846977460E+03  0.20019128690E+04  0.12699999809E+01 0. -1.
       -4    1    3    3    0  502 -0.34054052044E+03 -0.19557298002E+04 -0.21558443944E+03  0.19968287761E+04  0.12699999809E+01 0.  1.
</event>
<event>
 5   0  0.2078125E-09  0.4001029E+04  0.7818609E-02  0.8004339E-01
       -1   -1    0    0    0  501  0.00000000000E+00  0.00000000000E+00  0.15510635120E+04  0.15510635120E+04  0.50400001928E-02 0.  1.
        1   -1    0    0  501    0  0.00000000000E+00  0.00000000000E+00 -0.25802029854E+04  0.25802029854E+04  0.50400001928E-02 0. -1.
    10030    2    1    2    0    0  0.00000000000E+00  0.00000000000E+00 -0.10291394735E+04  0.41312664974E+04  0.40010292196E+04 0.  0.
        5    1    3    3  502    0 -0.10304913693E+04  0.97904128418E+03 -0.19680854752E+04  0.24277184404E+04  0.46999998093E+01 0. -1.
       -5    1    3    3    0  502  0.10304913693E+04 -0.97904128418E+03  0.93894600171E+03  0.17035480570E+04  0.46999998093E+01 0.  1.
</event>
<event>
 5   0  0.6736335E-09  0.4000106E+04  0.7818609E-02  0.8004525E-01
        2   -1    0    0  501    0  0.00000000000E+00  0.00000000000E+00  0.28047024129E+04  0.28047024129E+04  0.25500000920E-02 0.  1.
       -2   -1    0    0    0  501  0.00000000000E+00  0.00000000000E+00 -0.14262517663E+04  0.14262517663E+04  0.25500000920E-02 0. -1.
    10030    2    1    2    0    0  0.00000000000E+00  0.00000000000E+00  0.13784506466E+04  0.42309541792E+04  0.40001058837E+04 0.  0.
        1    1    3    3  502    0  0.18695068081E+03 -0.11528300445E+04 -0.10281279617E+04  0.15559610452E+04  0.50400001928E-02 0. -1.
       -1    1    3    3    0  502 -0.18695068081E+03  0.11528300445E+04  0.24065786083E+04  0.26749931339E+04  0.50400001928E-02 0.  1.
</event>
<event>
 5   0  0.2078125E-09  0.3999456E+04  0.7818609E-02  0.8004656E-01
        1   -1    0    0  501    0  0.00000000000E+00  0.00000000000E+00  0.23221287687E+04  0.23221287687E+04  0.50400001928E-02 0.  1.
       -1   -1    0    0    0  501  0.00000000000E+00  0.00000000000E+00 -0.17220892804E+04  0.17220892804E+04  0.50400001928E-02 0. -1.
    10030    2    1    2    0    0  0.00000000000E+00  0.00000000000E+00  0.60003948830E+03  0.40442180492E+04  0.39994564933E+04 0.  0.
        5    1    3    3  502    0  0.15936041849E+04 -0.99274303370E+03 -0.39599911050E+03  0.19188409040E+04  0.46999998093E+01 0.  1.
       -5    1    3    3    0  502 -0.15936041849E+04  0.99274303370E+03  0.99603859880E+03  0.21253771452E+04  0.46999998093E+01 0. -1.
</event>
<event>
 5   0  0.2078125E-09  0.4000750E+04  0.7818609E-02  0.8004395E-01
        1   -1    0    0  501    0  0.00000000000E+00  0.00000000000E+00  0.19188056308E+04  0.19188056308E+04  0.50400001928E-02 0.  1.
       -1   -1    0    0    0  501  0.00000000000E+00  0.00000000000E+00 -0.20854115817E+04  0.20854115817E+04  0.50400001928E-02 0. -1.
    10030    2    1    2    0    0  0.00000000000E+00  0.00000000000E+00 -0.16660595092E+03  0.40042172126E+04  0.40007496726E+04 0.  0.
        3    1    3    3  502    0  0.69727587578E+03  0.88218134947E+03 -0.17391436978E+04  0.20710041990E+04  0.10100000352E+00 0. -1.
       -3    1    3    3    0  502 -0.69727587578E+03 -0.88218134947E+03  0.15725377469E+04  0.19332130136E+04  0.10100000352E+00 0.  1.
</event>
<event>
 5   0  0.2078125E-09  0.3996572E+04  0.7818609E-02  0.8005238E-01
        1   -1    0    0  501    0  0.00000000000E+00  0.00000000000E+00  0.25812450824E+04  0.25812450824E+04  0.50400001928E-02 0. -1.
       -1   -1    0    0    0  501  0.00000000000E+00  0.00000000000E+00 -0.15469849607E+04  0.15469849607E+04  0.50400001928E-02 0.  1.
    10030    2    1    2    0    0  0.00000000000E+00  0.00000000000E+00  0.10342601218E+04  0.41282300431E+04  0.39965721924E+04 0.  0.
        3    1    3    3  502    0 -0.39468028877E+03 -0.54487313819E+03  0.24607341045E+04  0.25510530395E+04  0.10100000352E+00 0. -1.
       -3    1    3    3    0  502  0.39468028877E+03  0.54487313819E+03 -0.14264739827E+04  0.15771770036E+04  0.10100000352E+00 0.  1.
</event>
<event>
 5   0  0.2078125E-09  0.3999781E+04  0.7818609E-02  0.8004591E-01
       -3   -1    0    0    0  501  0.00000000000E+00  0.00000000000E+00  0.12825339231E+04  0.12825339270E+04  0.10100000352E+00 0.  1.
        3   -1    0    0  501    0  0.00000000000E+00  0.00000000000E+00 -0.31184848412E+04  0.31184848428E+04  0.10100000352E+00 0. -1.
    10030    2    1    2    0    0  0.00000000000E+00  0.00000000000E+00 -0.18359509181E+04  0.44010187698E+04  0.39997812989E+04 0.  0.
        5    1    3    3  502    0  0.12923465427E+04  0.29142681169E+03  0.73046047491E+03  0.15128396374E+04  0.46999998093E+01 0.  1.
       -5    1    3    3    0  502 -0.12923465427E+04 -0.29142681169E+03 -0.25664113930E+04  0.28881791325E+04  0.46999998093E+01 0. -1.
</event>
<event>
 5   0  0.6538370E-09  0.3995086E+04  0.7818609E-02  0.8005539E-01
       -2   -1    0    0    0  501  0.00000000000E+00  0.00000000000E+00  0.18350825041E+04  0.18350825041E+04  0.25500000920E-02 0.  1.
        2   -1    0    0  501    0  0.00000000000E+00  0.00000000000E+00 -0.21743866439E+04  0.21743866439E+04  0.25500000920E-02 0. -1.
    10030    2    1    2    0    0  0.00000000000E+00  0.00000000000E+00 -0.33930413983E+03  0.40094691480E+04  0.39950864258E+04 0.  0.
        4    1    3    3  502    0 -0.72327072263E+03  0.17440554818E+04 -0.82417110610E+03  0.20601237067E+04  0.12699999809E+01 0.  1.
       -4    1    3    3    0  502  0.72327072263E+03 -0.17440554818E+04  0.48486696628E+03  0.19493454413E+04  0.12699999809E+01 0. -1.
</event>
<event>
 5   0  0.6645526E-09  0.3999838E+04  0.7818609E-02  0.8004579E-01
       -2   -1    0    0    0  501  0.00000000000E+00  0.00000000000E+00  0.21926476835E+04  0.21926476835E+04  0.25500000920E-02 0.  1.
        2   -1    0    0  501    0  0.00000000000E+00  0.00000000000E+00 -0.18241304895E+04  0.18241304895E+04  0.25500000920E-02 0. -1.
    10030    2    1    2    0    0  0.00000000000E+00  0.00000000000E+00  0.36851719398E+03  0.40167781730E+04  0.39998377428E+04 0.  0.
        3    1    3    3  502    0  0.65195800549E+03 -0.16053909759E+04  0.11871603987E+04  0.21003997831E+04  0.10100000352E+00 0. -1.
       -3    1    3    3    0  502 -0.65195800549E+03  0.16053909759E+04 -0.81864320470E+03  0.19163783899E+04  0.10100000352E+00 0.  1.
</event>
<event>
 5   0  0.6599276E-09  0.4008297E+04  0.7818609E-02  0.8002875E-01
        2   -1    0    0  501    0  0.00000000000E+00  0.00000000000E+00  0.27946614353E+04  0.27946614353E+04  0.25500000920E-02 0. -1.
       -2   -1    0    0    0  501  0.00000000000E+00  0.00000000000E+00 -0.14372444839E+04  0.14372444839E+04  0.25500000920E-02 0.  1.
    10030    2    1    2    0    0  0.00000000000E+00  0.00000000000E+00  0.13574169513E+04  0.42319059192E+04  0.40082972606E+04 0.  0.
        2    1    3    3  502    0 -0.23581812573E+03  0.16313868596E+04  0.18822950489E+04  0.25020127747E+04  0.25500000920E-02 0. -1.
       -2    1    3    3    0  502  0.23581812573E+03 -0.16313868596E+04 -0.52487809754E+03  0.17298931445E+04  0.25500000920E-02 0.  1.
</event>
<event>
 5   0  0.6736335E-09  0.3999271E+04  0.7818609E-02  0.8004694E-01
       -2   -1    0    0    0  501  0.00000000000E+00  0.00000000000E+00  0.18270689316E+04  0.18270689316E+04  0.25500000920E-02 0. -1.
        2   -1    0    0  501    0  0.00000000000E+00  0.00000000000E+00 -0.21885005853E+04  0.21885005853E+04  0.25500000920E-02 0.  1.
    10030    2    1    2    0    0  0.00000000000E+00  0.00000000000E+00 -0.36143165374E+03  0.40155695169E+04  0.39992706466E+04 0.  0.
        1    1    3    3  502    0 -0.19485015655E+04 -0.18060854727E+03  0.23237749639E+03  0.19706032323E+04  0.50400001928E-02 0. -1.
       -1    1    3    3    0  502  0.19485015655E+04  0.18060854727E+03 -0.59380915014E+03  0.20449662846E+04  0.50400001928E-02 0.  1.
</event>
<event>
 5   0  0.6547327E-09  0.4012319E+04  0.7818609E-02  0.8002066E-01
        2   -1    0    0  501    0  0.00000000000E+00  0.00000000000E+00  0.26235612660E+04  0.26235612660E+04  0.25500000920E-02 0. -1.
       -2   -1    0    0    0  501  0.00000000000E+00  0.00000000000E+00 -0.15340508509E+04  0.15340508509E+04  0.25500000920E-02 0.  1.
    10030    2    1    2    0    0  0.00000000000E+00  0.00000000000E+00  0.10895104151E+04  0.41576121169E+04  0.40123192259E+04 0.  0.
        5    1    3    3  502    0 -0.12265665124E+04  0.82695629102E+03  0.19489395106E+04  0.24467753110E+04  0.46999998093E+01 0. -1.
       -5    1    3    3    0  502  0.12265665124E+04 -0.82695629102E+03 -0.85942909544E+03  0.17108368060E+04  0.46999998093E+01 0.  1.
</event>
<event>
 5   0  0.6645526E-09  0.3999639E+04  0.7818609E-02  0.8004619E-01
        2   -1    0    0  501    0  0.00000000000E+00  0.00000000000E+00  0.23240083727E+04  0.23240083727E+04  0.25500000920E-02 0. -1.
       -2   -1    0    0    0  501  0.00000000000E+00  0.00000000000E+00 -0.17208533522E+04  0.17208533522E+04  0.25500000920E-02 0.  1.
    10030    2    1    2    0    0  0.00000000000E+00  0.00000000000E+00  0.60315502053E+03  0.40448617250E+04  0.39996387831E+04 0.  0.
        3    1    3    3  502    0  0.99787717390E+03 -0.62294808508E+03 -0.13339448519E+04  0.17785477359E+04  0.10100000352E+00 0.  1.
       -3    1    3    3    0  502 -0.99787717390E+03  0.62294808508E+03  0.19370998724E+04  0.22663139890E+04  0.10100000352E+00 0. -1.
</event>
<event>
 5   0  0.2078125E-09  0.4009942E+04  0.7818609E-02  0.8002544E-01
       -1   -1    0    0    0  501  0.00000000000E+00  0.00000000000E+00  0.24158370006E+04  0.24158370006E+04  0.50400001928E-02 0. -1.
        1   -1    0    0  501    0  0.00000000000E+00  0.00000000000E+00 -0.16639819551E+04  0.16639819552E+04  0.50400001928E-02 0.  1.
    10030    2    1    2    0    0  0.00000000000E+00  0.00000000000E+00  0.75185504547E+03  0.40798189558E+04  0.40099422318E+04 0.  0.
        3    1    3    3  502    0 -0.17611084724E+04 -0.64366291597E+03 -0.34644782744E+03  0.19067855433E+04  0.10100000352E+00 0.  1.
       -3    1    3    3    0  502  0.17611084724E+04  0.64366291597E+03  0.10983028729E+04  0.21730334125E+04  0.10100000352E+00 0. -1.
</event>
<event>
 5   0  0.2078125E-09  0.4002852E+04  0.7818609E-02  0.8003971E-01
       -1   -1    0    0    0  501  0.00000000000E+00  0.00000000000E+00  0.16551059415E+04  0.16551059415E+04  0.50400001928E-02 0. -1.
        1   -1    0    0  501    0  0.00000000000E+00  0.00000000000E+00 -0.24202114753E+04  0.24202114753E+04  0.50400001928E-02 0.  1.
    10030    2    1    2    0    0  0.00000000000E+00  0.00000000000E+00 -0.76510553381E+03  0.40753174168E+04  0.40028521793E+04 0.  0.
        3    1    3    3  502    0 -0.11498674435E+04  0.13265179414E+04  0.59602489572E+03  0.18539392313E+04  0.10100000352E+00 0. -1.
       -3    1    3    3    0  502  0.11498674435E+04 -0.13265179414E+04 -0.13611304295E+04  0.22213781855E+04  0.10100000352E+00 0.  1.
</event>
<event>
 5   0  0.2078125E-09  0.3999367E+04  0.7818609E-02  0.8004674E-01
        1   -1    0    0  501    0  0.00000000000E+00  0.00000000000E+00  0.28381572818E+04  0.28381572818E+04  0.50400001928E-02 0. -1.
       -1   -1    0    0    0  501  0.00000000000E+00  0.00000000000E+00 -0.14089191851E+04  0.14089191851E+04  0.50400001928E-02 0.  1.
    10030    2    1    2    0    0  0.00000000000E+00  0.00000000000E+00  0.14292380967E+04  0.42470764669E+04  0.39993670722E+04 0.  0.
        5    1    3    3  502    0  0.17149562850E+04 -0.51131955866E+03  0.16621796837E+04  0.24424139988E+04  0.46999998093E+01 0. -1.
       -5    1    3    3    0  502 -0.17149562850E+04  0.51131955866E+03 -0.23294158701E+03  0.18046624681E+04  0.46999998093E+01 0.  1.
</event>
<event>
 5   0  0.2078125E-09  0.4000203E+04  0.7818609E-02  0.8004506E-01
        1   -1    0    0  501    0  0.00000000000E+00  0.00000000000E+00  0.29166543348E+04  0.29166543348E+04  0.50400001928E-02 0.  1.
       -1   -1    0    0    0  501  0.00000000000E+00  0.00000000000E+00 -0.13715738804E+04  0.13715738804E+04  0.50400001928E-02 0. -1.
    10030    2    1    2    0    0  0.00000000000E+00  0.00000000000E+00  0.15450804544E+04  0.42882282152E+04  0.40002034468E+04 0.  0.
        5    1    3    3  502    0 -0.51196407508E+03 -0.81781841054E+03  0.26506723370E+04  0.28208190468E+04  0.46999998093E+01 0.  1.
       -5    1    3    3    0  502  0.51196407508E+03  0.81781841054E+03 -0.11055918826E+04  0.14674091684E+04  0.46999998093E+01 0. -1.
</event>
<event>
 5   0  0.6599276E-09  0.3997014E+04  0.7818609E-02  0.8005149E-01
       -2   -1    0    0    0  501  0.00000000000E+00  0.00000000000E+00  0.16263952903E+04  0.16263952903E+04  0.25500000920E-02 0. -1.
        2   -1    0    0  501    0  0.00000000000E+00  0.00000000000E+00 -0.24557557614E+04  0.24557557614E+04  0.25500000920E-02 0.  1.
    10030    2    1    2    0    0  0.00000000000E+00  0.00000000000E+00 -0.82936047106E+03  0.40821510517E+04  0.39970136875E+04 0.  0.
        2    1    3    3  502    0 -0.61893014655E+03 -0.79988546159E+03  0.13457339975E+04  0.16834165468E+04  0.25500000920E-02 0. -1.
       -2    1    3    3    0  502  0.61893014655E+03  0.79988546159E+03 -0.21750944685E+04  0.23987345049E+04  0.25500000920E-02 0.  1.
</event>
<event>
 5   0  0.6645526E-09  0.4006182E+04  0.7818609E-02  0.8003301E-01
       -2   -1    0    0    0  501  0.00000000000E+00  0.00000000000E+00  0.17881708657E+04  0.17881708658E+04  0.25500000920E-02 0. -1.
        2   -1    0    0  501    0  0.00000000000E+00  0.00000000000E+00 -0.22438418533E+04  0.22438418533E+04  0.25500000920E-02 0.  1.
    10030    2    1    2    0    0  0.00000000000E+00  0.00000000000E+00 -0.45567098753E+03  0.40320127190E+04  0.40061815383E+04 0.  0.
        3    1    3    3  502    0 -0.92189317171E+03 -0.10778151694E+04  0.11957813376E+04  0.18551187501E+04  0.10100000352E+00 0. -1.
       -3    1    3    3    0  502  0.92189317171E+03  0.10778151694E+04 -0.16514523251E+04  0.21768939689E+04  0.10100000352E+00 0.  1.
</event>
<event>
 5   0  0.2078125E-09  0.3998862E+04  0.7818609E-02  0.8004776E-01
        1   -1    0    0  501    0  0.00000000000E+00  0.00000000000E+00  0.11637042989E+04  0.11637042989E+04  0.50400001928E-02 0. -1.
       -1   -1    0    0    0  501  0.00000000000E+00  0.00000000000E+00 -0.34353432823E+04  0.34353432823E+04  0.50400001928E-02 0.  1.
    10030    2    1    2    0    0  0.00000000000E+00  0.00000000000E+00 -0.22716389834E+04  0.45990475812E+04  0.39988617110E+04 0.  0.
        3    1    3    3  502    0  0.18772941314E+02 -0.14929349842E+04 -0.26652722551E+04  0.30549768402E+04  0.10100000352E+00 0.  1.
       -3    1    3    3    0  502 -0.18772941314E+02  0.14929349842E+04  0.39363327176E+03  0.15440707410E+04  0.10100000352E+00 0. -1.
</event>
<event>
 5   0  0.2078125E-09  0.3986533E+04  0.7818609E-02  0.8007269E-01
       -1   -1    0    0    0  501  0.00000000000E+00  0.00000000000E+00  0.20920998994E+04  0.20920998995E+04  0.50400001928E-02 0. -1.
        1   -1    0    0  501    0  0.00000000000E+00  0.00000000000E+00 -0.18991022506E+04  0.18991022506E+04  0.50400001928E-02 0.  1.
    10030    2    1    2    0    0  0.00000000000E+00  0.00000000000E+00  0.19299764889E+03  0.39912021500E+04  0.39865331442E+04 0.  0.
        2    1    3    3  502    0  0.11595300336E+04 -0.61981799911E+03  0.15963947467E+04  0.20681296956E+04  0.25500000920E-02 0. -1.
       -2    1    3    3    0  502 -0.11595300336E+04  0.61981799911E+03 -0.14033970978E+04  0.19230724544E+04  0.25500000920E-02 0.  1.
</event>
<event>
 5   0  0.6599276E-09  0.3997573E+04  0.7818609E-02  0.8005036E-01
        2   -1    0    0  501    0  0.00000000000E+00  0.00000000000E+00  0.29779645167E+04  0.29779645167E+04  0.25500000920E-02 0.  1.
       -2   -1    0    0    0  501  0.00000000000E+00  0.00000000000E+00 -0.13415700049E+04  0.13415700049E+04  0.25500000920E-02 0. -1.
    10030    2    1    2    0    0  0.00000000000E+00  0.00000000000E+00  0.16363945118E+04  0.43195345217E+04  0.39975731995E+04 0.  0.
        2    1    3    3  502    0  0.92626295513E+03  0.40781605010E+03  0.26806377801E+04  0.28653264911E+04  0.25500000920E-02 0.  1.
       -2    1    3    3    0  502 -0.92626295513E+03 -0.40781605010E+03 -0.10442432683E+04  0.14542080305E+04  0.25500000920E-02 0. -1.
</event>
<event>
 5   0  0.2078125E-09  0.4001964E+04  0.7818609E-02  0.8004151E-01
       -1   -1    0    0    0  501  0.00000000000E+00  0.00000000000E+00  0.11570047738E+04  0.11570047739E+04  0.50400001928E-02 0.  1.
        1   -1    0    0  501    0  0.00000000000E+00  0.00000000000E+00 -0.34605977273E+04  0.34605977273E+04  0.50400001928E-02 0. -1.
    10030    2    1    2    0    0  0.00000000000E+00  0.00000000000E+00 -0.23035929534E+04  0.46176025011E+04  0.40019635635E+04 0.  0.
        4    1    3    3  502    0 -0.33761249549E+02  0.18172028975E+04 -0.21175497109E+04  0.27905885730E+04  0.12699999809E+01 0. -1.
       -4    1    3    3    0  502  0.33761249549E+02 -0.18172028975E+04 -0.18604324250E+03  0.18270139281E+04  0.12699999809E+01 0.  1.
</event>
<event>
 5   0  0.6736335E-09  0.4000628E+04  0.7818609E-02  0.8004420E-01
       -2   -1    0    0    0  501  0.00000000000E+00  0.00000000000E+00  0.12532880849E+04  0.12532880849E+04  0.25500000920E-02 0.  1.
        2   -1    0    0  501    0  0.00000000000E+00  0.00000000000E+00 -0.31926066928E+04  0.31926066928E+04  0.25500000920E-02 0. -1.
    10030    2    1    2    0    0  0.00000000000E+00  0.00000000000E+00 -0.19393186079E+04  0.44458947777E+04  0.40006279147E+04 0.  0.
        1    1    3    3  502    0 -0.32043992382E+03 -0.18847339905E+04 -0.31564108170E+03  0.19376618003E+04  0.50400001928E-02 0.  1.
       -1    1    3    3    0  502  0.32043992382E+03  0.18847339905E+04 -0.16236775262E+04  0.25082329774E+04  0.50400001928E-02 0. -1.
</event>
<event>
 5   0  0.2078125E-09  0.3999983E+04  0.7818609E-02  0.8004550E-01
       -1   -1    0    0    0  501  0.00000000000E+00  0.00000000000E+00  0.19000525324E+04  0.19000525324E+04  0.50400001928E-02 0.  1.
        1   -1    0    0  501    0  0.00000000000E+00  0.00000000000E+00 -0.21051873591E+04  0.21051873591E+04  0.50400001928E-02 0. -1.
    10030    2    1    2    0    0  0.00000000000E+00  0.00000000000E+00 -0.20513482669E+03  0.40052398915E+04  0.39999832864E+04 0.  0.
        4    1    3    3  502    0 -0.10181014093E+04 -0.11768867947E+04 -0.13605511713E+04  0.20670496147E+04  0.12699999809E+01 0. -1.
       -4    1    3    3    0  502  0.10181014093E+04  0.11768867947E+04  0.11554163446E+04  0.19381902768E+04  0.12699999809E+01 0.  1.
</event>
<event>
 5   0  0.2078125E-09  0.4000057E+04  0.7818609E-02  0.8004535E-01
       -1   -1    0    0    0  501  0.00000000000E+00  0.00000000000E+00  0.20594813424E+04  0.20594813424E+04  0.50400001928E-02 0.  1.
        1   -1    0    0  501    0  0.00000000000E+00  0.00000000000E+00 -0.19422921551E+04  0.19422921551E+04  0.50400001928E-02 0. -1.
    10030    2    1    2    0    0  0.00000000000E+00  0.00000000000E+00  0.11718918731E+03  0.40017734974E+04  0.40000572270E+04 0.  0.
        3    1    3    3  502    0 -0.78695132452E+02 -0.72507529711E+03  0.19217006303E+04  0.20554465289E+04  0.10100000352E+00 0.  1.
       -3    1    3    3    0  502  0.78695132452E+02  0.72507529711E+03 -0.18045114430E+04  0.19463269686E+04  0.10100000352E+00 0. -1.
</event>
<event>
 5   0  0.2078125E-09  0.4000522E+04  0.7818609E-02  0.8004441E-01
       -1   -1    0    0    0  501  0.00000000000E+00  0.00000000000E+00  0.23972663988E+04  0.23972663988E+04  0.50400001928E-02 0.  1.
        1   -1    0    0  501    0  0.00000000000E+00  0.00000000000E+00 -0.16690027454E+04  0.16690027454E+04  0.50400001928E-02 0. -1.
    10030    2    1    2    0    0  0.00000000000E+00  0.00000000000E+00  0.72826365333E+03  0.40662691442E+04  0.40005220665E+04 0.  0.
        2    1    3    3  502    0 -0.84233194920E+03 -0.16924669971E+04 -0.30011932303E+03  0.19141680325E+04  0.25500000920E-02 0. -1.
       -2    1    3    3    0  502  0.84233194920E+03  0.16924669971E+04  0.10283829764E+04  0.21521011117E+04  0.25500000920E-02 0.  1.
</event>
<event>
 5   0  0.6736335E-09  0.3998304E+04  0.7818609E-02  0.8004889E-01
       -2   -1    0    0    0  501  0.00000000000E+00  0.00000000000E+00  0.16811857818E+04  0.16811857818E+04  0.25500000920E-02 0.  1.
        2   -1    0    0  501    0  0.00000000000E+00  0.00000000000E+00 -0.23772561280E+04  0.23772561280E+04  0.25500000920E-02 0. -1.
    10030    2    1    2    0    0  0.00000000000E+00  0.00000000000E+00 -0.69607034624E+03  0.40584419098E+04  0.39983042416E+04 0.  0.
        1    1    3    3  502    0  0.84460718330E+03 -0.18060534461E+04 -0.19948209660E+03  0.20037423615E+04  0.50400001928E-02 0.  1.
       -1    1    3    3    0  502 -0.84460718330E+03  0.18060534461E+04 -0.49658824964E+03  0.20546995484E+04  0.50400001928E-02 0. -1.
</event>
<event>
 5   0  0.6547327E-09  0.3999794E+04  0.7818609E-02  0.8004588E-01
       -2   -1    0    0    0  501  0.00000000000E+00  0.00000000000E+00  0.29003970084E+04  0.29003970084E+04  0.25500000920E-02 0. -1.
        2   -1    0    0  501    0  0.00000000000E+00  0.00000000000E+00 -0.13789797866E+04  0.13789797866E+04  0.25500000920E-02 0.  1.
    10030    2    1    2    0    0  0.00000000000E+00  0.00000000000E+00  0.15214172218E+04  0.42793767950E+04  0.39997944186E+04 0.  0.
        5    1    3    3  502    0 -0.18702385901E+03  0.14030566721E+04 -0.75085138503E+03  0.16022939310E+04  0.46999998093E+01 0.  1.
       -5    1    3    3    0  502  0.18702385901E+03 -0.14030566721E+04  0.22722686069E+04  0.26770828640E+04  0.46999998093E+01 0. -1.
</event>
<event>
 5   0  0.2078125E-09  0.3997845E+04  0.7818609E-02  0.8004981E-01
       -1   -1    0    0    0  501  0.00000000000E+00  0.00000000000E+00  0.20494426156E+04  0.20494426156E+04  0.50400001928E-02 0. -1.
        1   -1    0    0  501    0  0.00000000000E+00  0.00000000000E+00 -0.19496478086E+04  0.19496478086E+04  0.50400001928E-02 0.  1.
    10030    2    1    2    0    0  0.00000000000E+00  0.00000000000E+00  0.99794806955E+02  0.39990904242E+04  0.39978450717E+04 0.  0.
        5    1    3    3  502    0  0.57436094709E+03  0.15930318102E+04  0.11123150488E+04  0.20260571817E+04  0.46999998093E+01 0.  1.
       -5    1    3    3    0  502 -0.57436094709E+03 -0.15930318102E+04 -0.10125202418E+04  0.19730332425E+04  0.46999998093E+01 0. -1.
</event>
<event>
 5   0  0.6538370E-09  0.3998427E+04  0.7818609E-02  0.8004864E-01
       -2   -1    0    0    0  501  0.00000000000E+00  0.00000000000E+00  0.15741042383E+04  0.15741042383E+04  0.25500000920E-02 0. -1.
        2   -1    0    0  501    0  0.00000000000E+00  0.00000000000E+00 -0.25391296390E+04  0.25391296391E+04  0.25500000920E-02 0.  1.
    10030    2    1    2    0    0  0.00000000000E+00  0.00000000000E+00 -0.96502540078E+03  0.41132338773E+04  0.39984270539E+04 0.  0.
        4    1    3    3  502    0 -0.82473197646E+03 -0.17898466860E+04 -0.13652374338E+03  0.19754428207E+04  0.12699999809E+01 0. -1.
       -4    1    3    3    0  502  0.82473197646E+03  0.17898466860E+04 -0.82850165740E+03  0.21377910566E+04  0.12699999809E+01 0.  1.
</event>
<event>
 5   0  0.2078125E-09  0.4000004E+04  0.7818609E-02  0.8004546E-01
        1   -1    0    0  501    0  0.00000000000E+00  0.00000000000E+00  0.16023782256E+04  0.16023782256E+04  0.50400001928E-02 0.  1.
       -1   -1    0    0    0  501  0.00000000000E+00  0.00000000000E+00 -0.24962941156E+04  0.24962941156E+04  0.50400001928E-02 0. -1.
    10030    2    1    2    0    0  0.00000000000E+00  0.00000000000E+00 -0.89391589001E+03  0.40986723411E+04  0.40000036677E+04 0.  0.
        1    1    3    3  502    0 -0.11011652120E+04 -0.16012303822E+04 -0.93138148851E+03  0.21549884079E+04  0.50400001928E-02 0. -1.
       -1    1    3    3    0  502  0.11011652120E+04  0.16012303822E+04  0.37465598496E+02  0.19436839332E+04  0.50400001928E-02 0.  1.
</event>
<event>
 5   0  0.2078125E-09  0.3997964E+04  0.7818609E-02  0.8004957E-01
        3   -1    0    0  501    0  0.00000000000E+00  0.00000000000E+00  0.28464666404E+04  0.28464666422E+04  0.10100000352E+00 0.  1.
       -3   -1    0    0    0  501  0.00000000000E+00  0.00000000000E+00 -0.14038207629E+04  0.14038207665E+04  0.10100000352E+00 0. -1.
    10030    2    1    2    0    0  0.00000000000E+00  0.00000000000E+00  0.14426458775E+04  0.42502874087E+04  0.39979639729E+04 0.  0.
        4    1    3    3  502    0 -0.29075850833E+03 -0.12182910627E+04  0.23775812318E+04  0.26873160868E+04  0.12699999809E+01 0.  1.
       -4    1    3    3    0  502  0.29075850833E+03  0.12182910627E+04 -0.93493535428E+03  0.15629713219E+04  0.12699999809E+01 0. -1.
</event>
<event>
 5   0  0.2078125E-09  0.4000435E+04  0.7818609E-02  0.8004459E-01
       -1   -1    0    0    0  501  0.00000000000E+00  0.00000000000E+00  0.17996854505E+04  0.17996854505E+04  0.50400001928E-02 0. -1.
        1   -1    0    0  501    0  0.00000000000E+00  0.00000000000E+00 -0.22230944865E+04  0.22230944865E+04  0.50400001928E-02 0.  1.
    10030    2    1    2    0    0  0.00000000000E+00  0.00000000000E+00 -0.42340903601E+03  0.40227799370E+04  0.40004353775E+04 0.  0.
        2    1    3    3  502    0 -0.14578712111E+04 -0.12487176888E+04 -0.77714989252E+03  0.20709047033E+04  0.25500000920E-02 0.  1.
       -2    1    3    3    0  502  0.14578712111E+04  0.12487176888E+04  0.35374085651E+03  0.19518752337E+04  0.25500000920E-02 0. -1.
</event>
<event>
 5   0  0.2078125E-09  0.4003946E+04  0.7818609E-02  0.8003751E-01
       -1   -1    0    0    0  501  0.00000000000E+00  0.00000000000E+00  0.33591573381E+04  0.33591573381E+04  0.50400001928E-02 0. -1.
        1   -1    0    0  501    0  0.00000000000E+00  0.00000000000E+00 -0.11931251670E+04  0.11931251670E+04  0.50400001928E-02 0.  1.
    10030    2    1    2    0    0  0.00000000000E+00  0.00000000000E+00  0.21660321711E+04  0.45522825051E+04  0.40039456340E+04 0.  0.
        2    1    3    3  502    0  0.52076021012E+03 -0.58303965083E+03 -0.10124180912E+04  0.12791078228E+04  0.25500000920E-02 0.  1.
       -2    1    3    3    0  502 -0.52076021012E+03  0.58303965083E+03  0.31784502624E+04  0.32731746824E+04  0.25500000920E-02 0. -1.
</event>
<event>
 5   0  0.2078125E-09  0.4001334E+04  0.7818609E-02  0.8004277E-01
        3   -1    0    0  501    0  0.00000000000E+00  0.00000000000E+00  0.16688636821E+04  0.16688636852E+04  0.10100000352E+00 0.  1.
       -3   -1    0    0    0  501  0.00000000000E+00  0.00000000000E+00 -0.23984396753E+04  0.23984396775E+04  0.10100000352E+00 0. -1.
    10030    2    1    2    0    0  0.00000000000E+00  0.00000000000E+00 -0.72957599322E+03  0.40673033627E+04  0.40013342167E+04 0.  0.
        5    1    3    3  502    0 -0.83691357344E+03 -0.15416683707E+04  0.61309188987E+03  0.18582436466E+04  0.46999998093E+01 0.  1.
       -5    1    3    3    0  502  0.83691357344E+03  0.15416683707E+04 -0.13426678831E+04  0.22090597160E+04  0.46999998093E+01 0. -1.
</event>
<event>
 5   0  0.2078125E-09  0.4001300E+04  0.7818609E-02  0.8004284E-01
       -1   -1    0    0    0  501  0.00000000000E+00  0.00000000000E+00  0.18162505214E+04  0.18162505214E+04  0.50400001928E-02 0. -1.
        1   -1    0    0  501    0  0.00000000000E+00  0.00000000000E+00 -0.22037711441E+04  0.22037711441E+04  0.50400001928E-02 0.  1.
    10030    2    1    2    0    0  0.00000000000E+00  0.00000000000E+00 -0.38752062270E+03  0.40200216655E+04  0.40013000335E+04 0.  0.
        2    1    3    3  502    0  0.30901719081E+03  0.14281883852E+04  0.11791571178E+04  0.18776648253E+04  0.25500000920E-02 0. -1.
       -2    1    3    3    0  502 -0.30901719081E+03 -0.14281883852E+04 -0.15666777405E+04  0.21423568401E+04  0.25500000920E-02 0.  1.
</event>
<event>
 5   0  0.2078125E-09  0.4002101E+04  0.7818609E-02  0.8004123E-01
       -1   -1    0    0    0  501  0.00000000000E+00  0.00000000000E+00  0.16037118754E+04  0.16037118754E+04  0.50400001928E-02 0. -1.
        1   -1    0    0  501    0  0.00000000000E+00  0.00000000000E+00 -0.24968340397E+04  0.24968340397E+04  0.50400001928E-02 0.  1.
    10030    2    1    2    0    0  0.00000000000E+00  0.00000000000E+00 -0.89312216431E+03  0.41005459150E+04  0.40021006485E+04 0.  0.
        2    1    3    3  502    0 -0.15371406948E+04  0.83436095612E+03  0.54959028192E+03  0.18333055389E+04  0.25500000920E-02 0. -1.
       -2    1    3    3    0  502  0.15371406948E+04 -0.83436095612E+03 -0.14427124462E+04  0.22672403762E+04  0.25500000920E-02 0.  1.
</event>
<event>
 5   0  0.2078125E-09  0.3981726E+04  0.7818609E-02  0.8008243E-01
        1   -1    0    0  501    0  0.00000000000E+00  0.00000000000E+00  0.22664110634E+04  0.22664110634E+04  0.50400001928E-02 0. -1.
       -1   -1    0    0    0  501  0.00000000000E+00  0.00000000000E+00 -0.17488160860E+04  0.17488160860E+04  0.50400001928E-02 0.  1.
    10030    2    1    2    0    0  0.00000000000E+00  0.00000000000E+00  0.51759497735E+03  0.40152271494E+04  0.39817263217E+04 0.  0.
        2    1    3    3  502    0  0.69267107635E+03  0.18452045111E+04 -0.24570724241E+02  0.19710851398E+04  0.25500000920E-02 0. -1.
       -2    1    3    3    0  502 -0.69267107635E+03 -0.18452045111E+04  0.54216570159E+03  0.20441420097E+04  0.25500000920E-02 0.  1.
</event>
<event>
 5   0  0.6736335E-09  0.3993330E+04  0.7818609E-02  0.8005893E-01
        2   -1    0    0  501    0  0.00000000000E+00  0.00000000000E+00  0.20386901352E+04  0.20386901352E+04  0.25500000920E-02 0.  1.
       -2   -1    0    0    0  501  0.00000000000E+00  0.00000000000E+00 -0.19555064578E+04  0.19555064578E+04  0.25500000920E-02 0. -1.
    10030    2    1    2    0    0  0.00000000000E+00  0.00000000000E+00  0.83183677427E+02  0.39941965929E+04  0.39933303018E+04 0.  0.
        1    1    3    3  502    0  0.10143386945E+04 -0.12446111046E+04 -0.11455657782E+04  0.19723743917E+04  0.50400001928E-02 0. -1.
       -1    1    3    3    0  502 -0.10143386945E+04  0.12446111046E+04  0.12287494557E+04  0.20218222013E+04  0.50400001928E-02 0.  1.
</event>
<event>
 5   0  0.2078125E-09  0.4012920E+04  0.7818609E-02  0.8001945E-01
       -3   -1    0    0    0  501  0.00000000000E+00  0.00000000000E+00  0.14980243672E+04  0.14980243706E+04  0.10100000352E+00 0.  1.
        3   -1    0    0  501    0  0.00000000000E+00  0.00000000000E+00 -0.26874601891E+04  0.26874601910E+04  0.10100000352E+00 0. -1.
    10030    2    1    2    0    0  0.00000000000E+00  0.00000000000E+00 -0.11894358220E+04  0.41854845616E+04  0.40129195657E+04 0.  0.
        4    1    3    3  502    0 -0.10649944135E+04 -0.91101040513E+03 -0.20923349865E+04  0.25183368257E+04  0.12699999809E+01 0. -1.
       -4    1    3    3    0  502  0.10649944135E+04  0.91101040513E+03  0.90289916452E+03  0.16671477359E+04  0.12699999809E+01 0.  1.
</event>
<event>
 5   0  0.2078125E-09  0.4000242E+04  0.7818609E-02  0.8004498E-01
        1   -1    0    0  501    0  0.00000000000E+00  0.00000000000E+00  0.19073046630E+04  0.19073046630E+04  0.50400001928E-02 0. -1.
       -1   -1    0    0    0  501  0.00000000000E+00  0.00000000000E+00 -0.20974542921E+04  0.20974542921E+04  0.50400001928E-02 0.  1.
    10030    2    1    2    0    0  0.00000000000E+00  0.00000000000E+00 -0.19014962910E+03  0.40047589551E+04  0.40002421686E+04 0.  0.
        2    1    3    3  502    0  0.21479704665E+03  0.14520972154E+04  0.12650468017E+04  0.19377996555E+04  0.25500000920E-02 0. -1.
       -2    1    3    3    0  502 -0.21479704665E+03 -0.14520972154E+04 -0.14551964308E+04  0.20669592997E+04  0.25500000920E-02 0.  1.
</event>
<event>
 5   0  0.2078125E-09  0.4002727E+04  0.7818609E-02  0.8003997E-01
        1   -1    0    0  501    0  0.00000000000E+00  0.00000000000E+00  0.22982936095E+04  0.22982936095E+04  0.50400001928E-02 0. -1.
       -1   -1    0    0    0  501  0.00000000000E+00  0.00000000000E+00 -0.17427954028E+04  0.17427954028E+04  0.50400001928E-02 0.  1.
    10030    2    1    2    0    0  0.00000000000E+00  0.00000000000E+00  0.55549820669E+03  0.40410890123E+04  0.40027268390E+04 0.  0.
        1    1    3    3  502    0 -0.19138461141E+04  0.21911545921E+03 -0.27025789972E+03  0.19452140924E+04  0.50400001928E-02 0.  1.
       -1    1    3    3    0  502  0.19138461141E+04 -0.21911545921E+03  0.82575610641E+03  0.20958749199E+04  0.50400001928E-02 0. -1.
</event>
<event>
 5   0  0.6547327E-09  0.3999417E+04  0.7818609E-02  0.8004664E-01
       -2   -1    0    0    0  501  0.00000000000E+00  0.00000000000E+00  0.23360237632E+04  0.23360237632E+04  0.25500000920E-02 0.  1.
        2   -1    0    0  501    0  0.00000000000E+00  0.00000000000E+00 -0.17118119840E+04  0.17118119840E+04  0.25500000920E-02 0. -1.
    10030    2    1    2    0    0  0.00000000000E+00  0.00000000000E+00  0.62421177913E+03  0.40478357472E+04  0.39994166938E+04 0.  0.
        5    1    3    3  502    0  0.84379677576E+03  0.18127463057E+04  0.34017639156E+03  0.20282465912E+04  0.46999998093E+01 0. -1.
       -5    1    3    3    0  502 -0.84379677576E+03 -0.18127463057E+04  0.28403538757E+03  0.20195891560E+04  0.46999998093E+01 0.  1.
</event>
<event>
 5   0  0.6547327E-09  0.3999361E+04  0.7818609E-02  0.8004676E-01
        2   -1    0    0  501    0  0.00000000000E+00  0.00000000000E+00  0.26927064121E+04  0.26927064121E+04  0.25500000920E-02 0.  1.
       -2   -1    0    0    0  501  0.00000000000E+00  0.00000000000E+00 -0.14850193749E+04  0.14850193749E+04  0.25500000920E-02 0. -1.
    10030    2    1    2    0    0  0.00000000000E+00  0.00000000000E+00  0.12076870372E+04  0.41777257870E+04  0.39993605453E+04 0.  0.
        5    1    3    3  502    0 -0.84934689722E+03  0.15143050966E+04 -0.43246395910E+03  0.17892895918E+04  0.46999998093E+01 0. -1.
       -5    1    3    3    0  502  0.84934689722E+03 -0.15143050966E+04  0.16401509963E+04  0.23884361951E+04  0.46999998093E+01 0.  1.
</event>
<event>
 5   0  0.6538370E-09  0.4000174E+04  0.7818609E-02  0.8004512E-01
        2   -1    0    0  501    0  0.00000000000E+00  0.00000000000E+00  0.25486029604E+04  0.25486029604E+04  0.25500000920E-02 0.  1.
       -2   -1    0    0    0  501  0.00000000000E+00  0.00000000000E+00 -0.15696235305E+04  0.15696235306E+04  0.25500000920E-02 0. -1.
    10030    2    1    2    0    0  0.00000000000E+00  0.00000000000E+00  0.97897942984E+03  0.41182264909E+04  0.40001735846E+04 0.  0.
        4    1    3    3  502    0  0.33942669832E+03  0.14935774705E+04 -0.83468895262E+03  0.17443312198E+04  0.12699999809E+01 0. -1.
       -4    1    3    3    0  502 -0.33942669832E+03 -0.14935774705E+04  0.18136683825E+04  0.23738952711E+04  0.12699999809E+01 0.  1.
</event>
<event>
 5   0  0.2078125E-09  0.3999715E+04  0.7818609E-02  0.8004604E-01
       -1   -1    0    0    0  501  0.00000000000E+00  0.00000000000E+00  0.17309198676E+04  0.17309198676E+04  0.50400001928E-02 0.  1.
        1   -1    0    0  501    0  0.00000000000E+00  0.00000000000E+00 -0.23105811590E+04  0.23105811591E+04  0.50400001928E-02 0. -1.
    10030    2    1    2    0    0  0.00000000000E+00  0.00000000000E+00 -0.57966129149E+03  0.40415010266E+04  0.39997154068E+04 0.  0.
        5    1    3    3  502    0 -0.16150412859E+02  0.45598569901E+03 -0.22572791746E+04  0.23029362032E+04  0.46999998093E+01 0. -1.
       -5    1    3    3    0  502  0.16150412859E+02 -0.45598569901E+03  0.16776178831E+04  0.17385648235E+04  0.46999998093E+01 0.  1.
</event>
<event>
 5   0  0.6599276E-09  0.3999221E+04  0.7818609E-02  0.8004704E-01
       -2   -1    0    0    0  501  0.00000000000E+00  0.00000000000E+00  0.15189925818E+04  0.15189925819E+04  0.25500000920E-02 0. -1.
        2   -1    0    0  501    0  0.00000000000E+00  0.00000000000E+00 -0.26322987603E+04  0.26322987603E+04  0.25500000920E-02 0.  1.
    10030    2    1    2    0    0  0.00000000000E+00  0.00000000000E+00 -0.11133061785E+04  0.41512913422E+04  0.39992210693E+04 0.  0.
        2    1    3    3  502    0  0.19603148759E+04 -0.86097513148E+01 -0.14727921493E+03  0.19658585167E+04  0.25500000920E-02 0. -1.
       -2    1    3    3    0  502 -0.19603148759E+04  0.86097513148E+01 -0.96602696357E+03  0.21854328255E+04  0.25500000920E-02 0.  1.
</event>
<event>
 5   0  0.2078125E-09  0.4000325E+04  0.7818609E-02  0.8004481E-01
        1   -1    0    0  501    0  0.00000000000E+00  0.00000000000E+00  0.16416337265E+04  0.16416337265E+04  0.50400001928E-02 0.  1.
       -1   -1    0    0    0  501  0.00000000000E+00  0.00000000000E+00 -0.24369930047E+04  0.24369930047E+04  0.50400001928E-02 0. -1.
    10030    2    1    2    0    0  0.00000000000E+00  0.00000000000E+00 -0.79535927825E+03  0.40786267312E+04  0.40003249407E+04 0.  0.
        2    1    3    3  502    0  0.19957069801E+04 -0.10412485762E+03 -0.31261044343E+03  0.20227243079E+04  0.25500000920E-02 0.  1.
       -2    1    3    3    0  502 -0.19957069801E+04  0.10412485762E+03 -0.48274883482E+03  0.20559024233E+04  0.25500000920E-02 0. -1.
</event>
<event>
 5   0  0.6599276E-09  0.4003146E+04  0.7818609E-02  0.8003912E-01
        2   -1    0    0  501    0  0.00000000000E+00  0.00000000000E+00  0.23545417532E+04  0.23545417532E+04  0.25500000920E-02 0. -1.
       -2   -1    0    0    0  501  0.00000000000E+00  0.00000000000E+00 -0.17015174692E+04  0.17015174692E+04  0.25500000920E-02 0.  1.
    10030    2    1    2    0    0  0.00000000000E+00  0.00000000000E+00  0.65302428395E+03  0.40560592224E+04  0.40031457256E+04 0.  0.
        2    1    3    3  502    0  0.20308859534E+03  0.22066962113E+03  0.23316482170E+04  0.23508559009E+04  0.25500000920E-02 0. -1.
       -2    1    3    3    0  502 -0.20308859534E+03 -0.22066962113E+03 -0.16786239330E+04  0.17052033215E+04  0.25500000920E-02 0.  1.
</event>
<event>
 5   0  0.2078125E-09  0.3999589E+04  0.7818609E-02  0.8004630E-01
       -1   -1    0    0    0  501  0.00000000000E+00  0.00000000000E+00  0.17298318810E+04  0.17298318810E+04  0.50400001928E-02 0.  1.
        1   -1    0    0  501    0  0.00000000000E+00  0.00000000000E+00 -0.23118880747E+04  0.23118880747E+04  0.50400001928E-02 0. -1.
    10030    2    1    2    0    0  0.00000000000E+00  0.00000000000E+00 -0.58205619369E+03  0.40417199557E+04  0.39995888273E+04 0.  0.
        5    1    3    3  502    0 -0.19015917316E+03 -0.73589270382E+03  0.15781746768E+04  0.17516723390E+04  0.46999998093E+01 0.  1.
       -5    1    3    3    0  502  0.19015917316E+03  0.73589270382E+03 -0.21602308705E+04  0.22900476167E+04  0.46999998093E+01 0. -1.
</event>
<event>
 5   0  0.6538370E-09  0.4000339E+04  0.7818609E-02  0.8004478E-01
        2   -1    0    0  501    0  0.00000000000E+00  0.00000000000E+00  0.12850112266E+04  0.12850112266E+04  0.25500000920E-02 0. -1.
       -2   -1    0    0    0  501  0.00000000000E+00  0.00000000000E+00 -0.31133407414E+04  0.31133407414E+04  0.25500000920E-02 0.  1.
    10030    2    1    2    0    0  0.00000000000E+00  0.00000000000E+00 -0.18283295148E+04  0.43983519681E+04  0.40003388882E+04 0.  0.
        4    1    3    3  502    0 -0.10580408355E+03 -0.14294650001E+04 -0.24479941486E+04  0.28367660557E+04  0.12699999809E+01 0.  1.
       -4    1    3    3    0  502  0.10580408355E+03  0.14294650001E+04  0.61966463374E+03  0.15615859124E+04  0.12699999809E+01 0. -1.
</event>
<event>
 5   0  0.2078125E-09  0.4001497E+04  0.7818609E-02  0.8004245E-01
       -1   -1    0    0    0  501  0.00000000000E+00  0.00000000000E+00  0.32362498682E+04  0.32362498682E+04  0.50400001928E-02 0.  1.
        1   -1    0    0  501    0  0.00000000000E+00  0.00000000000E+00 -0.12369238962E+04  0.12369238962E+04  0.50400001928E-02 0. -1.
    10030    2    1    2    0    0  0.00000000000E+00  0.00000000000E+00  0.19993259721E+04  0.44731737644E+04  0.40014971179E+04 0.  0.
        1    1    3    3  502    0  0.11665392684E+04 -0.36720097687E+03 -0.77044700750E+03  0.14454200128E+04  0.50400001928E-02 0. -1.
       -1    1    3    3    0  502 -0.11665392684E+04  0.36720097687E+03  0.27697729796E+04  0.30277537516E+04  0.50400001928E-02 0.  1.
</event>
<event>
 5   0  0.2078125E-09  0.4000399E+04  0.7818609E-02  0.8004466E-01
       -1   -1    0    0    0  501  0.00000000000E+00  0.00000000000E+00  0.20819456513E+04  0.20819456514E+04  0.50400001928E-02 0.  1.
        1   -1    0    0  501    0  0.00000000000E+00  0.00000000000E+00 -0.19216633171E+04  0.19216633171E+04  0.50400001928E-02 0. -1.
    10030    2    1    2    0    0  0.00000000000E+00  0.00000000000E+00  0.16028233429E+03  0.40036089684E+04  0.40003992732E+04 0.  0.
        5    1    3    3  502    0 -0.11110612583E+03  0.22327952592E+03  0.20663186267E+04  0.20813200318E+04  0.46999998093E+01 0.  1.
       -5    1    3    3    0  502  0.11110612583E+03 -0.22327952592E+03 -0.19060362924E+04  0.19222889366E+04  0.46999998093E+01 0. -1.
</event>
<event>
 5   0  0.2078125E-09  0.4001395E+04  0.7818609E-02  0.8004265E-01
        1   -1    0    0  501    0  0.00000000000E+00  0.00000000000E+00  0.15413097469E+04  0.15413097469E+04  0.50400001928E-02 0.  1.
       -1   -1    0    0    0  501  0.00000000000E+00  0.00000000000E+00 -0.25970055023E+04  0.25970055023E+04  0.50400001928E-02 0. -1.
    10030    2    1    2    0    0  0.00000000000E+00  0.00000000000E+00 -0.10556957553E+04  0.41383152492E+04  0.40013947036E+04 0.  0.
        1    1    3    3  502    0 -0.97880921434E+03  0.11190218668E+04 -0.19125082779E+04  0.24223883523E+04  0.50400001928E-02 0. -1.
       -1    1    3    3    0  502  0.97880921434E+03 -0.11190218668E+04  0.85681252257E+03  0.17159268969E+04  0.50400001928E-02 0.  1.
</event>
<event>
 5   0  0.6599276E-09  0.3999495E+04  0.7818609E-02  0.8004649E-01
       -2   -1    0    0    0  501  0.00000000000E+00  0.00000000000E+00  0.13166732771E+04  0.13166732771E+04  0.25500000920E-02 0. -1.
        2   -1    0    0  501    0  0.00000000000E+00  0.00000000000E+00 -0.30371916460E+04  0.30371916460E+04  0.25500000920E-02 0.  1.
    10030    2    1    2    0    0  0.00000000000E+00  0.00000000000E+00 -0.17205183689E+04  0.43538649231E+04  0.39994945069E+04 0.  0.
        2    1    3    3  502    0  0.12925315696E+03  0.17078088235E+04 -0.19840398794E+04  0.26210172833E+04  0.25500000920E-02 0.  1.
       -2    1    3    3    0  502 -0.12925315696E+03 -0.17078088235E+04  0.26352151051E+03  0.17328476398E+04  0.25500000920E-02 0. -1.
</event>
<event>
 5   0  0.6645526E-09  0.3998484E+04  0.7818609E-02  0.8004852E-01
        2   -1    0    0  501    0  0.00000000000E+00  0.00000000000E+00  0.20001576431E+04  0.20001576431E+04  0.25500000920E-02 0.  1.
       -2   -1    0    0    0  501  0.00000000000E+00  0.00000000000E+00 -0.19983268506E+04  0.19983268506E+04  0.25500000920E-02 0. -1.
    10030    2    1    2    0    0  0.00000000000E+00  0.00000000000E+00  0.18307925018E+01  0.39984844938E+04  0.39984840746E+04 0.  0.
        3    1    3    3  502    0  0.15119270089E+04  0.93710648068E+03 -0.91170558307E+03  0.19988243837E+04  0.10100000352E+00 0.  1.
       -3    1    3    3    0  502 -0.15119270089E+04 -0.93710648068E+03  0.91353637557E+03  0.19996601101E+04  0.10100000352E+00 0. -1.
</event>
<event>
 5   0  0.2078125E-09  0.4000345E+04  0.7818609E-02  0.8004477E-01
       -1   -1    0    0    0  501  0.00000000000E+00  0.00000000000E+00  0.28074143302E+04  0.28074143302E+04  0.50400001928E-02 0. -1.
        1   -1    0    0  501    0  0.00000000000E+00  0.00000000000E+00 -0.14250441980E+04  0.14250441980E+04  0.50400001928E-02 0.  1.
    10030    2    1    2    0    0  0.00000000000E+00  0.00000000000E+00  0.13823701322E+04  0.42324585283E+04  0.40003447366E+04 0.  0.
        5    1    3    3  502    0  0.18868801409E+04 -0.17012054494E+03  0.13698143257E+04  0.23378774653E+04  0.46999998093E+01 0.  1.
       -5    1    3    3    0  502 -0.18868801409E+04  0.17012054494E+03  0.12555806551E+02  0.18945810630E+04  0.46999998093E+01 0. -1.
</event>
<event>
 5   0  0.6547327E-09  0.4005144E+04  0.7818609E-02  0.8003510E-01
        2   -1    0    0  501    0  0.00000000000E+00  0.00000000000E+00  0.11679174657E+04  0.11679174657E+04  0.25500000920E-02 0.  1.
       -2   -1    0    0    0  501  0.00000000000E+00  0.00000000000E+00 -0.34337137440E+04  0.34337137441E+04  0.25500000920E-02 0. -1.
    10030    2    1    2    0    0  0.00000000000E+00  0.00000000000E+00 -0.22657962784E+04  0.46016312097E+04  0.40051438195E+04 0.  0.
        5    1    3    3  502    0 -0.11165758468E+04 -0.40743610526E+03  0.71881486358E+03  0.13890510068E+04  0.46999998093E+01 0.  1.
       -5    1    3    3    0  502  0.11165758468E+04  0.40743610526E+03 -0.29846111420E+04  0.32125802029E+04  0.46999998093E+01 0. -1.
</event>
<event>
 5   0  0.6547327E-09  0.3997576E+04  0.7818609E-02  0.8005036E-01
        2   -1    0    0  501    0  0.00000000000E+00  0.00000000000E+00  0.14567187171E+04  0.14567187171E+04  0.25500000920E-02 0.  1.
       -2   -1    0    0    0  501  0.00000000000E+00  0.00000000000E+00 -0.27425697088E+04  0.27425697088E+04  0.25500000920E-02 0. -1.
    10030    2    1    2    0    0  0.00000000000E+00  0.00000000000E+00 -0.12858509918E+04  0.41992884259E+04  0.39975755791E+04 0.  0.
        5    1    3    3  502    0  0.10197004965E+04  0.14947407897E+04 -0.15349446535E+04  0.23727866128E+04  0.46999998093E+01 0.  1.
       -5    1    3    3    0  502 -0.10197004965E+04 -0.14947407897E+04  0.24909366168E+03  0.18265018131E+04  0.46999998093E+01 0. -1.
</event>
<event>
 5   0  0.6547327E-09  0.3999374E+04  0.7818609E-02  0.8004673E-01
        2   -1    0    0  501    0  0.00000000000E+00  0.00000000000E+00  0.28195354165E+04  0.28195354165E+04  0.25500000920E-02 0.  1.
       -2   -1    0    0    0  501  0.00000000000E+00  0.00000000000E+00 -0.14182296857E+04  0.14182296858E+04  0.25500000920E-02 0. -1.
    10030    2    1    2    0    0  0.00000000000E+00  0.00000000000E+00  0.14013057307E+04  0.42377651022E+04  0.39993743649E+04 0.  0.
        5    1    3    3  502    0  0.11970516518E+04  0.13376282485E+04  0.16343973843E+04  0.24276447203E+04  0.46999998093E+01 0.  1.
       -5    1    3    3    0  502 -0.11970516518E+04 -0.13376282485E+04 -0.23309165357E+03  0.18101203819E+04  0.46999998093E+01 0. -1.
</event>
<event>
 5   0  0.2078125E-09  0.4001817E+04  0.7818609E-02  0.8004180E-01
        1   -1    0    0  501    0  0.00000000000E+00  0.00000000000E+00  0.24320545813E+04  0.24320545813E+04  0.50400001928E-02 0.  1.
       -1   -1    0    0    0  501  0.00000000000E+00  0.00000000000E+00 -0.16461945776E+04  0.16461945776E+04  0.50400001928E-02 0. -1.
    10030    2    1    2    0    0  0.00000000000E+00  0.00000000000E+00  0.78586000366E+03  0.40782491589E+04  0.40018171194E+04 0.  0.
        1    1    3    3  502    0 -0.20097255804E+03  0.77435803687E+03 -0.14761144917E+04  0.16789682341E+04  0.50400001928E-02 0. -1.
       -1    1    3    3    0  502  0.20097255804E+03 -0.77435803687E+03  0.22619744954E+04  0.23992809248E+04  0.50400001928E-02 0.  1.
</event>
<event>
 5   0  0.6538370E-09  0.3999482E+04  0.7818609E-02  0.8004651E-01
       -2   -1    0    0    0  501  0.00000000000E+00  0.00000000000E+00  0.16724050377E+04  0.16724050377E+04  0.25500000920E-02 0. -1.
        2   -1    0    0  501    0  0.00000000000E+00  0.00000000000E+00 -0.23911459274E+04  0.23911459274E+04  0.25500000920E-02 0.  1.
    10030    2    1    2    0    0  0.00000000000E+00  0.00000000000E+00 -0.71874088977E+03  0.40635509651E+04  0.39994822139E+04 0.  0.
        4    1    3    3  502    0  0.99082919707E+03  0.64547078308E+03 -0.19978374724E+04  0.23215794642E+04  0.12699999809E+01 0.  1.
       -4    1    3    3    0  502 -0.99082919707E+03 -0.64547078308E+03  0.12790965826E+04  0.17419715009E+04  0.12699999809E+01 0. -1.
</event>
<event>
 5   0  0.2078125E-09  0.3999257E+04  0.7818609E-02  0.8004697E-01
        1   -1    0    0  501    0  0.00000000000E+00  0.00000000000E+00  0.22097498712E+04  0.22097498712E+04  0.50400001928E-02 0. -1.
       -1   -1    0    0    0  501  0.00000000000E+00  0.00000000000E+00 -0.18094869065E+04  0.18094869065E+04  0.50400001928E-02 0.  1.
    10030    2    1    2    0    0  0.00000000000E+00  0.00000000000E+00  0.40026296471E+03  0.40192367777E+04  0.39992566602E+04 0.  0.
        1    1    3    3  502    0 -0.49832387736E+03 -0.11703623762E+04 -0.13504436488E+04  0.18552015597E+04  0.50400001928E-02 0.  1.
       -1    1    3    3    0  502  0.49832387736E+03  0.11703623762E+04  0.17507066135E+04  0.21640352181E+04  0.50400001928E-02 0. -1.
</event>
<event>
 5   0  0.2078125E-09  0.3998706E+04  0.7818609E-02  0.8004808E-01
        1   -1    0    0  501    0  0.00000000000E+00  0.00000000000E+00  0.23237569329E+04  0.23237569329E+04  0.50400001928E-02 0. -1.
       -1   -1    0    0    0  501  0.00000000000E+00  0.00000000000E+00 -0.17202372470E+04  0.17202372471E+04  0.50400001928E-02 0.  1.
    10030    2    1    2    0    0  0.00000000000E+00  0.00000000000E+00  0.60351968589E+03  0.40439941800E+04  0.39987064054E+04 0.  0.
        3    1    3    3  502    0 -0.42729069394E+03  0.19470771518E+04  0.14598140048E+03  0.19987489466E+04  0.10100000352E+00 0.  1.
       -3    1    3    3    0  502  0.42729069394E+03 -0.19470771518E+04  0.45753828541E+03  0.20452452334E+04  0.10100000352E+00 0. -1.
</event>
<event>
 5   0  0.2078125E-09  0.4000661E+04  0.7818609E-02  0.8004413E-01
       -1   -1    0    0    0  501  0.00000000000E+00  0.00000000000E+00  0.22857484914E+04  0.22857484914E+04  0.50400001928E-02 0.  1.
        1   -1    0    0  501    0  0.00000000000E+00  0.00000000000E+00 -0.17505524778E+04  0.17505524778E+04  0.50400001928E-02 0. -1.
    10030    2    1    2    0    0  0.00000000000E+00  0.00000000000E+00  0.53519601356E+03  0.40363009692E+04  0.40006612880E+04 0.  0.
        2    1    3    3  502    0 -0.31625878857E+03  0.83856835674E+03  0.20718541694E+04  0.22573870314E+04  0.25500000920E-02 0.  1.
       -2    1    3    3    0  502  0.31625878857E+03 -0.83856835674E+03 -0.15366581558E+04  0.17789139378E+04  0.25500000920E-02 0. -1.
</event>
<event>
 5   0  0.6538370E-09  0.4006263E+04  0.7818609E-02  0.8003284E-01
       -2   -1    0    0    0  501  0.00000000000E+00  0.00000000000E+00  0.22720522405E+04  0.22720522405E+04  0.25500000920E-02 0. -1.
        2   -1    0    0  501    0  0.00000000000E+00  0.00000000000E+00 -0.17660406240E+04  0.17660406240E+04  0.25500000920E-02 0.  1.
    10030    2    1    2    0    0  0.00000000000E+00  0.00000000000E+00  0.50601161657E+03  0.40380928645E+04  0.40062633745E+04 0.  0.
        4    1    3    3  502    0  0.47074671797E+03 -0.14569982014E+04  0.15548121333E+04  0.21821752025E+04  0.12699999809E+01 0. -1.
       -4    1    3    3    0  502 -0.47074671797E+03  0.14569982014E+04 -0.10488005168E+04  0.18559176620E+04  0.12699999809E+01 0.  1.
</event>
<event>
 5   0  0.2078125E-09  0.4003337E+04  0.7818609E-02  0.8003874E-01
        1   -1    0    0  501    0  0.00000000000E+00  0.00000000000E+00  0.20700120153E+04  0.20700120153E+04  0.50400001928E-02 0. -1.
       -1   -1    0    0    0  501  0.00000000000E+00  0.00000000000E+00 -0.19355812390E+04  0.19355812390E+04  0.50400001928E-02 0.  1.
    10030    2    1    2    0    0  0.00000000000E+00  0.00000000000E+00  0.13443077634E+03  0.40055932543E+04  0.40033368188E+04 0.  0.
        4    1    3    3  502    0 -0.79539264949E+03 -0.23032417835E+02  0.19049582389E+04  0.20644726842E+04  0.12699999809E+01 0. -1.
       -4    1    3    3    0  502  0.79539264949E+03  0.23032417835E+02 -0.17705274625E+04  0.19411205701E+04  0.12699999809E+01 0.  1.
</event>
<event>
 5   0  0.2078125E-09  0.4002083E+04  0.7818609E-02  0.8004127E-01
       -1   -1    0    0    0  501  0.00000000000E+00  0.00000000000E+00  0.21678621237E+04  0.21678621237E+04  0.50400001928E-02 0. -1.
        1   -1    0    0  501    0  0.00000000000E+00  0.00000000000E+00 -0.18470577759E+04  0.18470577760E+04  0.50400001928E-02 0.  1.
    10030    2    1    2    0    0  0.00000000000E+00  0.00000000000E+00  0.32080434775E+03  0.40149198997E+04  0.40020827542E+04 0.  0.
        3    1    3    3  502    0 -0.98403022901E+03 -0.78052888222E+03  0.17231619412E+04  0.21323292225E+04  0.10100000352E+00 0. -1.
       -3    1    3    3    0  502  0.98403022901E+03  0.78052888222E+03 -0.14023575934E+04  0.18825906771E+04  0.10100000352E+00 0.  1.
</event>
<event>
 5   0  0.6736335E-09  0.4000171E+04  0.7818609E-02  0.8004512E-01
        2   -1    0    0  501    0  0.00000000000E+00  0.00000000000E+00  0.20418468216E+04  0.20418468216E+04  0.25500000920E-02 0. -1.
       -2   -1    0    0    0  501  0.00000000000E+00  0.00000000000E+00 -0.19591786681E+04  0.19591786681E+04  0.25500000920E-02 0.  1.
    10030    2    1    2    0    0  0.00000000000E+00  0.00000000000E+00  0.82668153462E+02  0.40010254898E+04  0.40001713646E+04 0.  0.
        1    1    3    3  502    0  0.15698384747E+04 -0.12392513283E+04  0.26976732884E+02  0.20002160972E+04  0.50400001928E-02 0. -1.
       -1    1    3    3    0  502 -0.15698384747E+04  0.12392513283E+04  0.55691420578E+02  0.20008093926E+04  0.50400001928E-02 0.  1.
</event>
<event>
 5   0  0.6547327E-09  0.4001521E+04  0.7818609E-02  0.8004240E-01
        2   -1    0    0  501    0  0.00000000000E+00  0.00000000000E+00  0.21037830625E+04  0.21037830625E+04  0.25500000920E-02 0. -1.
       -2   -1    0    0    0  501  0.00000000000E+00  0.00000000000E+00 -0.19027830469E+04  0.19027830469E+04  0.25500000920E-02 0.  1.
    10030    2    1    2    0    0  0.00000000000E+00  0.00000000000E+00  0.20100001561E+03  0.40065661093E+04  0.40015210835E+04 0.  0.
        5    1    3    3  502    0  0.15388630739E+04  0.12779095554E+04  0.14377791777E+03  0.20054542058E+04  0.46999998093E+01 0.  1.
       -5    1    3    3    0  502 -0.15388630739E+04 -0.12779095554E+04  0.57222097832E+02  0.20011119035E+04  0.46999998093E+01 0. -1.
</event>
<event>
 5   0  0.2078125E-09  0.4000416E+04  0.7818609E-02  0.8004463E-01
        1   -1    0    0  501    0  0.00000000000E+00  0.00000000000E+00  0.17021006351E+04  0.17021006351E+04  0.50400001928E-02 0. -1.
       -1   -1    0    0    0  501  0.00000000000E+00  0.00000000000E+00 -0.23505262114E+04  0.23505262114E+04  0.50400001928E-02 0.  1.
    10030    2    1    2    0    0  0.00000000000E+00  0.00000000000E+00 -0.64842557628E+03  0.40526268465E+04  0.40004160569E+04 0.  0.
        4    1    3    3  502    0  0.65441907048E+03 -0.17726553870E+04  0.34028951305E+03  0.19199921891E+04  0.12699999809E+01 0.  1.
       -4    1    3    3    0  502 -0.65441907048E+03  0.17726553870E+04 -0.98871508933E+03  0.21326346573E+04  0.12699999809E+01 0. -1.
</event>
<event>
 5   0  0.6538370E-09  0.4000201E+04  0.7818609E-02  0.8004506E-01
       -2   -1    0    0    0  501  0.00000000000E+00  0.00000000000E+00  0.13565571146E+04  0.13565571147E+04  0.25500000920E-02 0. -1.
        2   -1    0    0  501    0  0.00000000000E+00  0.00000000000E+00 -0.29489367005E+04  0.29489367005E+04  0.25500000920E-02 0.  1.
    10030    2    1    2    0    0  0.00000000000E+00  0.00000000000E+00 -0.15923795858E+04  0.43054938151E+04  0.40002005258E+04 0.  0.
        4    1    3    3  502    0  0.13700454932E+04  0.14332687772E+04 -0.51322744937E+03  0.20480937647E+04  0.12699999809E+01 0. -1.
       -4    1    3    3    0  502 -0.13700454932E+04 -0.14332687772E+04 -0.10791521365E+04  0.22574000505E+04  0.12699999809E+01 0.  1.
</event>
<event>
 5   0  0.6599276E-09  0.3998069E+04  0.7818609E-02  0.8004936E-01
       -2   -1    0    0    0  501  0.00000000000E+00  0.00000000000E+00  0.13567255039E+04  0.13567255039E+04  0.25500000920E-02 0.  1.
        2   -1    0    0  501    0  0.00000000000E+00  0.00000000000E+00 -0.29454291368E+04  0.29454291368E+04  0.25500000920E-02 0. -1.
    10030    2    1    2    0    0  0.00000000000E+00  0.00000000000E+00 -0.15887036329E+04  0.43021546407E+04  0.39980689488E+04 0.  0.
        2    1    3    3  502    0  0.63803589046E+03 -0.18531109716E+04 -0.12180356307E+04  0.23075356700E+04  0.25500000920E-02 0. -1.
       -2    1    3    3    0  502 -0.63803589046E+03  0.18531109716E+04 -0.37066800224E+03  0.19946189707E+04  0.25500000920E-02 0.  1.
</event>
<event>
 5   0  0.2078125E-09  0.4001722E+04  0.7818609E-02  0.8004199E-01
       -1   -1    0    0    0  501  0.00000000000E+00  0.00000000000E+00  0.17365325819E+04  0.17365325819E+04  0.50400001928E-02 0. -1.
        1   -1    0    0  501    0  0.00000000000E+00  0.00000000000E+00 -0.23054249311E+04  0.23054249312E+04  0.50400001928E-02 0.  1.
    10030    2    1    2    0    0  0.00000000000E+00  0.00000000000E+00 -0.56889234925E+03  0.40419575131E+04  0.40017223832E+04 0.  0.
        1    1    3    3  502    0  0.11714197939E+04  0.13237843821E+04  0.66243130209E+03  0.18877088371E+04  0.50400001928E-02 0. -1.
       -1    1    3    3    0  502 -0.11714197939E+04 -0.13237843821E+04 -0.12313236513E+04  0.21542486760E+04  0.50400001928E-02 0.  1.
</event>
<event>
 5   0  0.6599276E-09  0.3994679E+04  0.7818609E-02  0.8005621E-01
       -2   -1    0    0    0  501  0.00000000000E+00  0.00000000000E+00  0.28902499091E+04  0.28902499091E+04  0.25500000920E-02 0.  1.
        2   -1    0    0  501    0  0.00000000000E+00  0.00000000000E+00 -0.13802838504E+04  0.13802838504E+04  0.25500000920E-02 0. -1.
    10030    2    1    2    0    0  0.00000000000E+00  0.00000000000E+00  0.15099660587E+04  0.42705337596E+04  0.39946790977E+04 0.  0.
        2    1    3    3  502    0 -0.55866692284E+03 -0.15361238421E+04 -0.47214188345E+03  0.17013827163E+04  0.25500000920E-02 0. -1.
       -2    1    3    3    0  502  0.55866692284E+03  0.15361238421E+04  0.19821079422E+04  0.25691510433E+04  0.25500000920E-02 0.  1.
</event>
<event>
 5   0  0.2078125E-09  0.3998885E+04  0.7818609E-02  0.8004772E-01
       -1   -1    0    0    0  501  0.00000000000E+00  0.00000000000E+00  0.15608237140E+04  0.15608237140E+04  0.50400001928E-02 0.  1.
        1   -1    0    0  501    0  0.00000000000E+00  0.00000000000E+00 -0.25613206108E+04  0.25613206108E+04  0.50400001928E-02 0. -1.
    10030    2    1    2    0    0  0.00000000000E+00  0.00000000000E+00 -0.10004968968E+04  0.41221443248E+04  0.39988848188E+04 0.  0.
        2    1    3    3  502    0  0.10106524663E+04 -0.48382311417E+03  0.12067736597E+04  0.16467561687E+04  0.25500000920E-02 0.  1.
       -2    1    3    3    0  502 -0.10106524663E+04  0.48382311417E+03 -0.22072705565E+04  0.24753881561E+04  0.25500000920E-02 0. -1.
</event>
<event>
 5   0  0.2078125E-09  0.3999432E+04  0.7818609E-02  0.8004661E-01
        1   -1    0    0  501    0  0.00000000000E+00  0.00000000000E+00  0.21562585913E+04  0.21562585913E+04  0.50400001928E-02 0. -1.
       -1   -1    0    0    0  501  0.00000000000E+00  0.00000000000E+00 -0.18545386575E+04  0.18545386575E+04  0.50400001928E-02 0.  1.
    10030    2    1    2    0    0  0.00000000000E+00  0.00000000000E+00  0.30171993379E+03  0.40107972488E+04  0.39994324163E+04 0.  0.
        1    1    3    3  502    0  0.15017849626E+04 -0.44184124766E+03  0.13986960502E+04  0.20992694927E+04  0.50400001928E-02 0. -1.
       -1    1    3    3    0  502 -0.15017849626E+04  0.44184124766E+03 -0.10969761165E+04  0.19115277561E+04  0.50400001928E-02 0.  1.
</event>
<event>
 5   0  0.6736335E-09  0.4000563E+04  0.7818609E-02  0.8004433E-01
       -2   -1    0    0    0  501  0.00000000000E+00  0.00000000000E+00  0.19333056061E+04  0.19333056061E+04  0.25500000920E-02 0.  1.
        2   -1    0    0  501    0  0.00000000000E+00  0.00000000000E+00 -0.20695777507E+04  0.20695777507E+04  0.25500000920E-02 0. -1.
    10030    2    1    2    0    0  0.00000000000E+00  0.00000000000E+00 -0.13627214457E+03  0.40028833568E+04  0.40005630942E+04 0.  0.
        1    1    3    3  502    0  0.14948756887E+03  0.72325628199E+03 -0.19281601920E+04  0.20647634026E+04  0.50400001928E-02 0. -1.
       -1    1    3    3    0  502 -0.14948756887E+03 -0.72325628199E+03  0.17918880474E+04  0.19381199543E+04  0.50400001928E-02 0.  1.
</event>
<event>
 5   0  0.6599276E-09  0.4000605E+04  0.7818609E-02  0.8004425E-01
       -2   -1    0    0    0  501  0.00000000000E+00  0.00000000000E+00  0.21296714996E+04  0.21296714996E+04  0.25500000920E-02 0. -1.
        2   -1    0    0  501    0  0.00000000000E+00  0.00000000000E+00 -0.18787921362E+04  0.18787921362E+04  0.25500000920E-02 0.  1.
    10030    2    1    2    0    0  0.00000000000E+00  0.00000000000E+00  0.25087936342E+03  0.40084636358E+04  0.40006049873E+04 0.  0.
        2    1    3    3  502    0 -0.43722004361E+03  0.22438693810E+03  0.20682429534E+04  0.21258268459E+04  0.25500000920E-02 0. -1.
       -2    1    3    3    0  502  0.43722004361E+03 -0.22438693810E+03 -0.18173635899E+04  0.18826367899E+04  0.25500000920E-02 0.  1.
</event>
<event>
 5   0  0.2078125E-09  0.3996863E+04  0.7818609E-02  0.8005180E-01
        1   -1    0    0  501    0  0.00000000000E+00  0.00000000000E+00  0.20439814805E+04  0.20439814805E+04  0.50400001928E-02 0.  1.
       -1   -1    0    0    0  501  0.00000000000E+00  0.00000000000E+00 -0.19538968486E+04  0.19538968486E+04  0.50400001928E-02 0. -1.
    10030    2    1    2    0    0  0.00000000000E+00  0.00000000000E+00  0.90084631869E+02  0.39978783291E+04  0.39968632567E+04 0.  0.
        1    1    3    3  502    0 -0.88774850355E+03  0.11956090210E+03 -0.17418426703E+04  0.19586750887E+04  0.50400001928E-02 0. -1.
       -1    1    3    3    0  502  0.88774850355E+03 -0.11956090210E+03  0.18319273022E+04  0.20392032404E+04  0.50400001928E-02 0.  1.
</event>
<event>
 5   0  0.2078125E-09  0.4000067E+04  0.7818609E-02  0.8004533E-01
        1   -1    0    0  501    0  0.00000000000E+00  0.00000000000E+00  0.12629069950E+04  0.12629069950E+04  0.50400001928E-02 0.  1.
       -1   -1    0    0    0  501  0.00000000000E+00  0.00000000000E+00 -0.31674024795E+04  0.31674024795E+04  0.50400001928E-02 0. -1.
    10030    2    1    2    0    0  0.00000000000E+00  0.00000000000E+00 -0.19044954844E+04  0.44303094745E+04  0.40000673732E+04 0.  0.
        2    1    3    3  502    0 -0.11016151982E+04  0.16659242626E+04 -0.10698528189E+04  0.22657106496E+04  0.25500000920E-02 0. -1.
       -2    1    3    3    0  502  0.11016151982E+04 -0.16659242626E+04 -0.83464266553E+03  0.21645988249E+04  0.25500000920E-02 0.  1.
</event>
<event>
 5   0  0.6736335E-09  0.4000388E+04  0.7818609E-02  0.8004468E-01
        2   -1    0    0  501    0  0.00000000000E+00  0.00000000000E+00  0.12315582038E+04  0.12315582038E+04  0.25500000920E-02 0.  1.
       -2   -1    0    0    0  501  0.00000000000E+00  0.00000000000E+00 -0.32485479099E+04  0.32485479099E+04  0.25500000920E-02 0. -1.
    10030    2    1    2    0    0  0.00000000000E+00  0.00000000000E+00 -0.20169897061E+04  0.44801061137E+04  0.40003878957E+04 0.  0.
        1    1    3    3  502    0  0.67432802696E+03 -0.16536535220E+04  0.35638684381E+00  0.17858578851E+04  0.50400001928E-02 0. -1.
       -1    1    3    3    0  502 -0.67432802696E+03  0.16536535220E+04 -0.20173460929E+04  0.26942482286E+04  0.50400001928E-02 0.  1.
</event>
<event>
 5   0  0.2078125E-09  0.3996776E+04  0.7818609E-02  0.8005197E-01
       -1   -1    0    0    0  501  0.00000000000E+00  0.00000000000E+00  0.30604424001E+04  0.30604424001E+04  0.50400001928E-02 0.  1.
        1   -1    0    0  501    0  0.00000000000E+00  0.00000000000E+00 -0.13048943120E+04  0.13048943120E+04  0.50400001928E-02 0. -1.
    10030    2    1    2    0    0  0.00000000000E+00  0.00000000000E+00  0.17555480881E+04  0.43653367121E+04  0.39967756405E+04 0.  0.
        2    1    3    3  502    0 -0.83404002728E+03 -0.18066501964E+04  0.10790090073E+04  0.22635962840E+04  0.25500000920E-02 0.  1.
       -2    1    3    3    0  502  0.83404002728E+03  0.18066501964E+04  0.67653908089E+03  0.21017404281E+04  0.25500000920E-02 0. -1.
</event>
<event>
 5   0  0.2078125E-09  0.3999651E+04  0.7818609E-02  0.8004617E-01
       -1   -1    0    0    0  501  0.00000000000E+00  0.00000000000E+00  0.15639145499E+04  0.15639145499E+04  0.50400001928E-02 0. -1.
        1   -1    0    0  501    0  0.00000000000E+00  0.00000000000E+00 -0.25572382369E+04  0.25572382369E+04  0.50400001928E-02 0.  1.
    10030    2    1    2    0    0  0.00000000000E+00  0.00000000000E+00 -0.99332368703E+03  0.41211527868E+04  0.39996510279E+04 0.  0.
        3    1    3    3  502    0  0.12699059225E+04  0.55392462373E+03  0.98930217463E+03  0.17024136817E+04  0.10100000352E+00 0. -1.
       -3    1    3    3    0  502 -0.12699059225E+04 -0.55392462373E+03 -0.19826258617E+04  0.24187391051E+04  0.10100000352E+00 0.  1.
</event>
<event>
 5   0  0.6538370E-09  0.3999373E+04  0.7818609E-02  0.8004673E-01
        2   -1    0    0  501    0  0.00000000000E+00  0.00000000000E+00  0.12842269958E+04  0.12842269958E+04  0.25500000920E-02 0.  1.
       -2   -1    0    0    0  501  0.00000000000E+00  0.00000000000E+00 -0.31137372130E+04  0.31137372130E+04  0.25500000920E-02 0. -1.
    10030    2    1    2    0    0  0.00000000000E+00  0.00000000000E+00 -0.18295102172E+04  0.43979642088E+04  0.39993726442E+04 0.  0.
        4    1    3    3  502    0 -0.18216922859E+04 -0.59409824858E+03 -0.15438051871E+04  0.24606608019E+04  0.12699999809E+01 0. -1.
       -4    1    3    3    0  502  0.18216922859E+04  0.59409824858E+03 -0.28570503011E+03  0.19373034069E+04  0.12699999809E+01 0.  1.
</event>
<event>
 5   0  0.6538370E-09  0.4000065E+04  0.7818609E-02  0.8004533E-01
       -2   -1    0    0    0  501  0.00000000000E+00  0.00000000000E+00  0.29181749713E+04  0.29181749713E+04  0.25500000920E-02 0.  1.
        2   -1    0    0  501    0  0.00000000000E+00  0.00000000000E+00 -0.13707641373E+04  0.13707641373E+04  0.25500000920E-02 0. -1.
    10030    2    1    2    0    0  0.00000000000E+00  0.00000000000E+00  0.15474108340E+04  0.42889391087E+04  0.40000647981E+04 0.  0.
        4    1    3    3  502    0  0.52558941654E+03 -0.17540507445E+03  0.28342374759E+04  0.28878910744E+04  0.12699999809E+01 0.  1.
       -4    1    3    3    0  502 -0.52558941654E+03  0.17540507445E+03 -0.12868266419E+04  0.14010480342E+04  0.12699999809E+01 0. -1.
</event>
<event>
 5   0  0.6538370E-09  0.4010533E+04  0.7818609E-02  0.8002425E-01
       -2   -1    0    0    0  501  0.00000000000E+00  0.00000000000E+00  0.13235174058E+04  0.13235174058E+04  0.25500000920E-02 0.  1.
        2   -1    0    0  501    0  0.00000000000E+00  0.00000000000E+00 -0.30381875611E+04  0.30381875611E+04  0.25500000920E-02 0. -1.
    10030    2    1    2    0    0  0.00000000000E+00  0.00000000000E+00 -0.17146701553E+04  0.43617049670E+04  0.40105331911E+04 0.  0.
        4    1    3    3  502    0  0.53462321492E+02 -0.19926585998E+04 -0.62019163326E+03  0.20876268321E+04  0.12699999809E+01 0. -1.
       -4    1    3    3    0  502 -0.53462321492E+02  0.19926585998E+04 -0.10944785220E+04  0.22740781348E+04  0.12699999809E+01 0.  1.
</event>
<event>
 5   0  0.6645526E-09  0.3998742E+04  0.7818609E-02  0.8004800E-01
       -2   -1    0    0    0  501  0.00000000000E+00  0.00000000000E+00  0.30428194525E+04  0.30428194525E+04  0.25500000920E-02 0.  1.
        2   -1    0    0  501    0  0.00000000000E+00  0.00000000000E+00 -0.13137438451E+04  0.13137438451E+04  0.25500000920E-02 0. -1.
    10030    2    1    2    0    0  0.00000000000E+00  0.00000000000E+00  0.17290756074E+04  0.43565632976E+04  0.39987424660E+04 0.  0.
        3    1    3    3  502    0  0.11445104147E+04 -0.44923365008E+03 -0.85317714726E+03  0.14965380772E+04  0.10100000352E+00 0. -1.
       -3    1    3    3    0  502 -0.11445104147E+04  0.44923365008E+03  0.25822527547E+04  0.28600252204E+04  0.10100000352E+00 0.  1.
</event>
<event>
 5   0  0.2078125E-09  0.3999375E+04  0.7818609E-02  0.8004673E-01
       -1   -1    0    0    0  501  0.00000000000E+00  0.00000000000E+00  0.17224529694E+04  0.17224529694E+04  0.50400001928E-02 0. -1.
        1   -1    0    0  501    0  0.00000000000E+00  0.00000000000E+00 -0.23215440273E+04  0.23215440273E+04  0.50400001928E-02 0.  1.
    10030    2    1    2    0    0  0.00000000000E+00  0.00000000000E+00 -0.59909105792E+03  0.40439969968E+04  0.39993751530E+04 0.  0.
        1    1    3    3  502    0  0.28564362823E+03  0.69997263167E+03 -0.21714693850E+04  0.22993114747E+04  0.50400001928E-02 0.  1.
       -1    1    3    3    0  502 -0.28564362823E+03 -0.69997263167E+03  0.15723783271E+04  0.17446855221E+04  0.50400001928E-02 0. -1.
</event>
<event>
 5   0  0.6599276E-09  0.4000474E+04  0.7818609E-02  0.8004451E-01
       -2   -1    0    0    0  501  0.00000000000E+00  0.00000000000E+00  0.13868829612E+04  0.13868829612E+04  0.25500000920E-02 0. -1.
        2   -1    0    0  501    0  0.00000000000E+00  0.00000000000E+00 -0.28848494229E+04  0.28848494229E+04  0.25500000920E-02 0.  1.
    10030    2    1    2    0    0  0.00000000000E+00  0.00000000000E+00 -0.14979664617E+04  0.42717323840E+04  0.40004742269E+04 0.  0.
        2    1    3    3  502    0 -0.26954121921E+03 -0.11323190651E+04  0.98801651562E+03  0.15267532771E+04  0.25500000920E-02 0.  1.
       -2    1    3    3    0  502  0.26954121921E+03  0.11323190651E+04 -0.24859829773E+04  0.27449791069E+04  0.25500000920E-02 0. -1.
</event>
<event>
 5   0  0.6736335E-09  0.3998731E+04  0.7818609E-02  0.8004803E-01
       -2   -1    0    0    0  501  0.00000000000E+00  0.00000000000E+00  0.31686928858E+04  0.31686928858E+04  0.25500000920E-02 0.  1.
        2   -1    0    0  501    0  0.00000000000E+00  0.00000000000E+00 -0.12615494596E+04  0.12615494596E+04  0.25500000920E-02 0. -1.
    10030    2    1    2    0    0  0.00000000000E+00  0.00000000000E+00  0.19071434262E+04  0.44302423455E+04  0.39987311977E+04 0.  0.
        1    1    3    3  502    0 -0.69117488336E+03 -0.16365599150E+04 -0.62699331953E+02  0.17776338996E+04  0.50400001928E-02 0. -1.
       -1    1    3    3    0  502  0.69117488336E+03  0.16365599150E+04  0.19698427582E+04  0.26526084458E+04  0.50400001928E-02 0.  1.
</event>
<event>
 5   0  0.2078125E-09  0.3998523E+04  0.7818609E-02  0.8004845E-01
        1   -1    0    0  501    0  0.00000000000E+00  0.00000000000E+00  0.21370532930E+04  0.21370532930E+04  0.50400001928E-02 0. -1.
       -1   -1    0    0    0  501  0.00000000000E+00  0.00000000000E+00 -0.18703544061E+04  0.18703544061E+04  0.50400001928E-02 0.  1.
    10030    2    1    2    0    0  0.00000000000E+00  0.00000000000E+00  0.26669888685E+03  0.40074076991E+04  0.39985232487E+04 0.  0.
        2    1    3    3  502    0 -0.15883183491E+04 -0.91950869584E+03 -0.66137881859E+03  0.19508135128E+04  0.25500000920E-02 0.  1.
       -2    1    3    3    0  502  0.15883183491E+04  0.91950869584E+03  0.92807770544E+03  0.20565941863E+04  0.25500000920E-02 0. -1.
</event>
<event>
 5   0  0.2078125E-09  0.3997172E+04  0.7818609E-02  0.8005117E-01
        1   -1    0    0  501    0  0.00000000000E+00  0.00000000000E+00  0.20545010758E+04  0.20545010758E+04  0.50400001928E-02 0.  1.
       -1   -1    0    0    0  501  0.00000000000E+00  0.00000000000E+00 -0.19441926056E+04  0.19441926056E+04  0.50400001928E-02 0. -1.
    10030    2    1    2    0    0  0.00000000000E+00  0.00000000000E+00  0.11030847026E+03  0.39986936814E+04  0.39971719001E+04 0.  0.
        2    1    3    3  502    0 -0.18375930922E+04  0.76961547322E+03  0.21424135133E+03  0.20037354380E+04  0.25500000920E-02 0.  1.
       -2    1    3    3    0  502  0.18375930922E+04 -0.76961547322E+03 -0.10393288107E+03  0.19949582434E+04  0.25500000920E-02 0. -1.
</event>
<event>
 5   0  0.6538370E-09  0.4000326E+04  0.7818609E-02  0.8004481E-01
        2   -1    0    0  501    0  0.00000000000E+00  0.00000000000E+00  0.23632610285E+04  0.23632610285E+04  0.25500000920E-02 0.  1.
       -2   -1    0    0    0  501  0.00000000000E+00  0.00000000000E+00 -0.16928521116E+04  0.16928521116E+04  0.25500000920E-02 0. -1.
    10030    2    1    2    0    0  0.00000000000E+00  0.00000000000E+00  0.67040891689E+03  0.40561131400E+04  0.40003256978E+04 0.  0.
        4    1    3    3  502    0 -0.17433929316E+04  0.44535179575E+03 -0.55041353259E+03  0.18816784544E+04  0.12699999809E+01 0. -1.
       -4    1    3    3    0  502  0.17433929316E+04 -0.44535179575E+03  0.12208224495E+04  0.21744346856E+04  0.12699999809E+01 0.  1.
</event>
<event>
 5   0  0.6538370E-09  0.4001997E+04  0.7818609E-02  0.8004144E-01
       -2   -1    0    0    0  501  0.00000000000E+00  0.00000000000E+00  0.20809823308E+04  0.20809823308E+04  0.25500000920E-02 0.  1.
        2   -1    0    0  501    0  0.00000000000E+00  0.00000000000E+00 -0.19240890889E+04  0.19240890889E+04  0.25500000920E-02 0. -1.
    10030    2    1    2    0    0  0.00000000000E+00  0.00000000000E+00  0.15689324186E+03  0.40050714197E+04  0.40019971999E+04 0.  0.
        4    1    3    3  502    0 -0.58712536073E+03  0.74721693339E+03  0.18407492036E+04  0.20715715238E+04  0.12699999809E+01 0.  1.
       -4    1    3    3    0  502  0.58712536073E+03 -0.74721693339E+03 -0.16838559618E+04  0.19334998959E+04  0.12699999809E+01 0. -1.
</event>
<event>
 5   0  0.6538370E-09  0.3999996E+04  0.7818609E-02  0.8004547E-01
       -2   -1    0    0    0  501  0.00000000000E+00  0.00000000000E+00  0.21497906316E+04  0.21497906316E+04  0.25500000920E-02 0. -1.
        2   -1    0    0  501    0  0.00000000000E+00  0.00000000000E+00 -0.18606421263E+04  0.18606421263E+04  0.25500000920E-02 0.  1.
    10030    2    1    2    0    0  0.00000000000E+00  0.00000000000E+00  0.28914850531E+03  0.40104327578E+04  0.39999955059E+04 0.  0.
        4    1    3    3  502    0  0.31749382232E+03  0.45588206409E+03  0.20708783796E+04  0.21441011309E+04  0.12699999809E+01 0. -1.
       -4    1    3    3    0  502 -0.31749382232E+03 -0.45588206409E+03 -0.17817298743E+04  0.18663316269E+04  0.12699999809E+01 0.  1.
</event>
<event>
 5   0  0.2078125E-09  0.4000186E+04  0.7818609E-02  0.8004509E-01
       -1   -1    0    0    0  501  0.00000000000E+00  0.00000000000E+00  0.27796287012E+04  0.27796287012E+04  0.50400001928E-02 0.  1.
        1   -1    0    0  501    0  0.00000000000E+00  0.00000000000E+00 -0.14391747191E+04  0.14391747191E+04  0.50400001928E-02 0. -1.
    10030    2    1    2    0    0  0.00000000000E+00  0.00000000000E+00  0.13404539821E+04  0.42188034203E+04  0.40001856733E+04 0.  0.
        3    1    3    3  502    0 -0.92925013611E+02  0.12950170992E+03 -0.14324658026E+04  0.14413063647E+04  0.10100000352E+00 0. -1.
       -3    1    3    3    0  502  0.92925013611E+02 -0.12950170992E+03  0.27729197848E+04  0.27774970556E+04  0.10100000352E+00 0.  1.
</event>
<event>
 5   0  0.2078125E-09  0.3994596E+04  0.7818609E-02  0.8005638E-01
        1   -1    0    0  501    0  0.00000000000E+00  0.00000000000E+00  0.26581373631E+04  0.26581373631E+04  0.50400001928E-02 0.  1.
       -1   -1    0    0    0  501  0.00000000000E+00  0.00000000000E+00 -0.15007501051E+04  0.15007501052E+04  0.50400001928E-02 0. -1.
    10030    2    1    2    0    0  0.00000000000E+00  0.00000000000E+00  0.11573872579E+04  0.41588874682E+04  0.39945963136E+04 0.  0.
        5    1    3    3  502    0 -0.13398793458E+04 -0.11062645213E+04 -0.44674115336E+03  0.17940729084E+04  0.46999998093E+01 0. -1.
       -5    1    3    3    0  502  0.13398793458E+04  0.11062645213E+04  0.16041284113E+04  0.23648145599E+04  0.46999998093E+01 0.  1.
</event>
<event>
 5   0  0.6599276E-09  0.3998416E+04  0.7818609E-02  0.8004866E-01
        2   -1    0    0  501    0  0.00000000000E+00  0.00000000000E+00  0.24456630466E+04  0.24456630466E+04  0.25500000920E-02 0. -1.
       -2   -1    0    0    0  501  0.00000000000E+00  0.00000000000E+00 -0.16342531699E+04  0.16342531699E+04  0.25500000920E-02 0.  1.
    10030    2    1    2    0    0  0.00000000000E+00  0.00000000000E+00  0.81140987671E+03  0.40799162165E+04  0.39984159796E+04 0.  0.
        2    1    3    3  502    0  0.12333829445E+04  0.14015930434E+04 -0.32380551937E+03  0.18948737587E+04  0.25500000920E-02 0. -1.
       -2    1    3    3    0  502 -0.12333829445E+04 -0.14015930434E+04  0.11352153961E+04  0.21850424578E+04  0.25500000920E-02 0.  1.
</event>
<event>
 5   0  0.2078125E-09  0.3999942E+04  0.7818609E-02  0.8004558E-01
        1   -1    0    0  501    0  0.00000000000E+00  0.00000000000E+00  0.15217651928E+04  0.15217651928E+04  0.50400001928E-02 0. -1.
       -1   -1    0    0    0  501  0.00000000000E+00  0.00000000000E+00 -0.26284503274E+04  0.26284503274E+04  0.50400001928E-02 0.  1.
    10030    2    1    2    0    0  0.00000000000E+00  0.00000000000E+00 -0.11066851346E+04  0.41502155202E+04  0.39999421092E+04 0.  0.
        2    1    3    3  502    0  0.76200491976E+03  0.14982499394E+02  0.13651804697E+04  0.15635196474E+04  0.25500000920E-02 0. -1.
       -2    1    3    3    0  502 -0.76200491976E+03 -0.14982499394E+02 -0.24718656042E+04  0.25866958728E+04  0.25500000920E-02 0.  1.
</event>
<event>
 5   0  0.2078125E-09  0.3999555E+04  0.7818609E-02  0.8004636E-01
        1   -1    0    0  501    0  0.00000000000E+00  0.00000000000E+00  0.17165251077E+04  0.17165251078E+04  0.50400001928E-02 0. -1.
       -1   -1    0    0    0  501  0.00000000000E+00  0.00000000000E+00 -0.23297709192E+04  0.23297709192E+04  0.50400001928E-02 0.  1.
    10030    2    1    2    0    0  0.00000000000E+00  0.00000000000E+00 -0.61324581149E+03  0.40462960270E+04  0.39995551144E+04 0.  0.
        2    1    3    3  502    0 -0.17646426984E+04 -0.10864842889E+03  0.63882613609E+03  0.18798582836E+04  0.25500000920E-02 0. -1.
       -2    1    3    3    0  502  0.17646426984E+04  0.10864842889E+03 -0.12520719476E+04  0.21664377434E+04  0.25500000920E-02 0.  1.
</event>
<event>
 5   0  0.2078125E-09  0.4003749E+04  0.7818609E-02  0.8003791E-01
       -1   -1    0    0    0  501  0.00000000000E+00  0.00000000000E+00  0.19498822963E+04  0.19498822963E+04  0.50400001928E-02 0. -1.
        1   -1    0    0  501    0  0.00000000000E+00  0.00000000000E+00 -0.20552526940E+04  0.20552526940E+04  0.50400001928E-02 0.  1.
    10030    2    1    2    0    0  0.00000000000E+00  0.00000000000E+00 -0.10537039776E+03  0.40051349903E+04  0.40037486646E+04 0.  0.
        1    1    3    3  502    0  0.13303293152E+04 -0.14654136543E+04 -0.35326815469E+03  0.20104754797E+04  0.50400001928E-02 0.  1.
       -1    1    3    3    0  502 -0.13303293152E+04  0.14654136543E+04  0.24789775693E+03  0.19946595106E+04  0.50400001928E-02 0. -1.
</event>
<event>
 5   0  0.6599276E-09  0.4000214E+04  0.7818609E-02  0.8004503E-01
        2   -1    0    0  501    0  0.00000000000E+00  0.00000000000E+00  0.19848332902E+04  0.19848332902E+04  0.25500000920E-02 0. -1.
       -2   -1    0    0    0  501  0.00000000000E+00  0.00000000000E+00 -0.20154986826E+04  0.20154986826E+04  0.25500000920E-02 0.  1.
    10030    2    1    2    0    0  0.00000000000E+00  0.00000000000E+00 -0.30665392398E+02  0.40003319729E+04  0.40002144351E+04 0.  0.
        2    1    3    3  502    0  0.93338867049E+03  0.11272703377E+04 -0.13786321034E+04  0.20106166469E+04  0.25500000920E-02 0.  1.
       -2    1    3    3    0  502 -0.93338867049E+03 -0.11272703377E+04  0.13479667110E+04  0.19897153260E+04  0.25500000920E-02 0. -1.
</event>
<event>
 5   0  0.6538370E-09  0.4000186E+04  0.7818609E-02  0.8004509E-01
        2   -1    0    0  501    0  0.00000000000E+00  0.00000000000E+00  0.30971594776E+04  0.30971594776E+04  0.25500000920E-02 0. -1.
       -2   -1    0    0    0  501  0.00000000000E+00  0.00000000000E+00 -0.12916260644E+04  0.12916260644E+04  0.25500000920E-02 0.  1.
    10030    2    1    2    0    0  0.00000000000E+00  0.00000000000E+00  0.18055334132E+04  0.43887855421E+04  0.40001859492E+04 0.  0.
        4    1    3    3  502    0  0.12295340622E+04 -0.15482668870E+04  0.57091707860E+03  0.20578708139E+04  0.12699999809E+01 0.  1.
       -4    1    3    3    0  502 -0.12295340622E+04  0.15482668870E+04  0.12346163346E+04  0.23309147281E+04  0.12699999809E+01 0. -1.
</event>
<event>
 5   0  0.2078125E-09  0.3999517E+04  0.7818609E-02  0.8004644E-01
       -1   -1    0    0    0  501  0.00000000000E+00  0.00000000000E+00  0.19483037973E+04  0.19483037974E+04  0.50400001928E-02 0. -1.
        1   -1    0    0  501    0  0.00000000000E+00  0.00000000000E+00 -0.20525718248E+04  0.20525718248E+04  0.50400001928E-02 0.  1.
    10030    2    1    2    0    0  0.00000000000E+00  0.00000000000E+00 -0.10426802747E+03  0.40008756222E+04  0.39995167111E+04 0.  0.
        3    1    3    3  502    0  0.86326808692E+03 -0.16830985846E+03 -0.18487045453E+04  0.20472587781E+04  0.10100000352E+00 0.  1.
       -3    1    3    3    0  502 -0.86326808692E+03  0.16830985846E+03  0.17444365179E+04  0.19536168441E+04  0.10100000352E+00 0. -1.
</event>
<event>
 5   0  0.6736335E-09  0.4002258E+04  0.7818609E-02  0.8004091E-01
        2   -1    0    0  501    0  0.00000000000E+00  0.00000000000E+00  0.24669083750E+04  0.24669083750E+04  0.25500000920E-02 0. -1.
       -2   -1    0    0    0  501  0.00000000000E+00  0.00000000000E+00 -0.16232939172E+04  0.16232939172E+04  0.25500000920E-02 0.  1.
    10030    2    1    2    0    0  0.00000000000E+00  0.00000000000E+00  0.84361445780E+03  0.40902022922E+04  0.40022580424E+04 0.  0.
        1    1    3    3  502    0 -0.15885927224E+04  0.11513925243E+04  0.19214748756E+02  0.19620654397E+04  0.50400001928E-02 0.  1.
       -1    1    3    3    0  502  0.15885927224E+04 -0.11513925243E+04  0.82439970904E+03  0.21281368526E+04  0.50400001928E-02 0. -1.
</event>
<event>
 5   0  0.2078125E-09  0.4002512E+04  0.7818609E-02  0.8004040E-01
        1   -1    0    0  501    0  0.00000000000E+00  0.00000000000E+00  0.16083021833E+04  0.16083021833E+04  0.50400001928E-02 0.  1.
       -1   -1    0    0    0  501  0.00000000000E+00  0.00000000000E+00 -0.24902195805E+04  0.24902195805E+04  0.50400001928E-02 0. -1.
    10030    2    1    2    0    0  0.00000000000E+00  0.00000000000E+00 -0.88191739722E+03  0.40985217639E+04  0.40025120054E+04 0.  0.
        2    1    3    3  502    0 -0.13065432903E+02 -0.40186448782E+03  0.15665162062E+04  0.16172936642E+04  0.25500000920E-02 0.  1.
       -2    1    3    3    0  502  0.13065432903E+02  0.40186448782E+03 -0.24484336034E+04  0.24812280996E+04  0.25500000920E-02 0. -1.
</event>
<event>
 5   0  0.2078125E-09  0.3999427E+04  0.7818609E-02  0.8004662E-01
       -1   -1    0    0    0  501  0.00000000000E+00  0.00000000000E+00  0.17619589047E+04  0.17619589047E+04  0.50400001928E-02 0. -1.
        1   -1    0    0  501    0  0.00000000000E+00  0.00000000000E+00 -0.22695501704E+04  0.22695501704E+04  0.50400001928E-02 0.  1.
    10030    2    1    2    0    0  0.00000000000E+00  0.00000000000E+00 -0.50759126572E+03  0.40315090752E+04  0.39994270252E+04 0.  0.
        1    1    3    3  502    0 -0.89336542559E+03  0.15020787626E+04  0.72586023700E+03  0.18924099652E+04  0.50400001928E-02 0. -1.
       -1    1    3    3    0  502  0.89336542559E+03 -0.15020787626E+04 -0.12334515027E+04  0.21390991100E+04  0.50400001928E-02 0.  1.
</event>
<event>
 5   0  0.2078125E-09  0.3994990E+04  0.7818609E-02  0.8005558E-01
        1   -1    0    0  501    0  0.00000000000E+00  0.00000000000E+00  0.19655415541E+04  0.19655415541E+04  0.50400001928E-02 0.  1.
       -1   -1    0    0    0  501  0.00000000000E+00  0.00000000000E+00 -0.20299678390E+04  0.20299678390E+04  0.50400001928E-02 0. -1.
    10030    2    1    2    0    0  0.00000000000E+00  0.00000000000E+00 -0.64426284893E+02  0.39955093931E+04  0.39949899329E+04 0.  0.
        3    1    3    3  502    0 -0.50103662102E+03 -0.33820565567E+03 -0.19362898269E+04  0.20284573116E+04  0.10100000352E+00 0. -1.
       -3    1    3    3    0  502  0.50103662102E+03  0.33820565567E+03  0.18718635420E+04  0.19670520815E+04  0.10100000352E+00 0.  1.
</event>
<event>
 5   0  0.2078125E-09  0.4003846E+04  0.7818609E-02  0.8003771E-01
       -1   -1    0    0    0  501  0.00000000000E+00  0.00000000000E+00  0.16563692919E+04  0.16563692919E+04  0.50400001928E-02 0.  1.
        1   -1    0    0  501    0  0.00000000000E+00  0.00000000000E+00 -0.24195671003E+04  0.24195671003E+04  0.50400001928E-02 0. -1.
    10030    2    1    2    0    0  0.00000000000E+00  0.00000000000E+00 -0.76319780837E+03  0.40759363922E+04  0.40038464729E+04 0.  0.
        1    1    3    3  502    0 -0.11984752880E+04 -0.51818549583E+03 -0.19264321984E+04  0.23272301646E+04  0.50400001928E-02 0. -1.
       -1    1    3    3    0  502  0.11984752880E+04  0.51818549583E+03  0.11632343900E+04  0.17487062275E+04  0.50400001928E-02 0.  1.
</event>
<event>
 5   0  0.2078125E-09  0.4000372E+04  0.7818609E-02  0.8004471E-01
       -1   -1    0    0    0  501  0.00000000000E+00  0.00000000000E+00  0.17467551608E+04  0.17467551608E+04  0.50400001928E-02 0.  1.
        1   -1    0    0  501    0  0.00000000000E+00  0.00000000000E+00 -0.22903867067E+04  0.22903867067E+04  0.50400001928E-02 0. -1.
    10030    2    1    2    0    0  0.00000000000E+00  0.00000000000E+00 -0.54363154596E+03  0.40371418675E+04  0.40003723827E+04 0.  0.
        1    1    3    3  502    0  0.46017883084E+03  0.11066731254E+04 -0.18878634987E+04  0.22361839264E+04  0.50400001928E-02 0. -1.
       -1    1    3    3    0  502 -0.46017883084E+03 -0.11066731254E+04  0.13442319527E+04  0.18009579411E+04  0.50400001928E-02 0.  1.
</event>
<event>
 5   0  0.2078125E-09  0.3997051E+04  0.7818609E-02  0.8005142E-01
       -1   -1    0    0    0  501  0.00000000000E+00  0.00000000000E+00  0.17128113954E+04  0.17128113954E+04  0.50400001928E-02 0.  1.
        1   -1    0    0  501    0  0.00000000000E+00  0.00000000000E+00 -0.23318995730E+04  0.23318995730E+04  0.50400001928E-02 0. -1.
    10030    2    1    2    0    0  0.00000000000E+00  0.00000000000E+00 -0.61908817759E+03  0.40447109683E+04  0.39970509936E+04 0.  0.
        2    1    3    3  502    0 -0.16255527550E+04  0.16959276049E+03 -0.14734415193E+04  0.22005029822E+04  0.25500000920E-02 0. -1.
       -2    1    3    3    0  502  0.16255527550E+04 -0.16959276049E+03  0.85435334170E+03  0.18442079862E+04  0.25500000920E-02 0.  1.
</event>
<event>
 5   0  0.2078125E-09  0.4002765E+04  0.7818609E-02  0.8003989E-01
       -1   -1    0    0    0  501  0.00000000000E+00  0.00000000000E+00  0.29906699050E+04  0.29906699050E+04  0.50400001928E-02 0. -1.
        1   -1    0    0  501    0  0.00000000000E+00  0.00000000000E+00 -0.13393424983E+04  0.13393424983E+04  0.50400001928E-02 0.  1.
    10030    2    1    2    0    0  0.00000000000E+00  0.00000000000E+00  0.16513274067E+04  0.43300124033E+04  0.40027646956E+04 0.  0.
        1    1    3    3  502    0 -0.16240085177E+03  0.10402402626E+02  0.29835011546E+04  0.29879359743E+04  0.50400001928E-02 0. -1.
       -1    1    3    3    0  502  0.16240085177E+03 -0.10402402626E+02 -0.13321737479E+04  0.13420764290E+04  0.50400001928E-02 0.  1.
</event>
<event>
 5   0  0.6599276E-09  0.4008654E+04  0.7818609E-02  0.8002803E-01
        2   -1    0    0  501    0  0.00000000000E+00  0.00000000000E+00  0.19921049710E+04  0.19921049710E+04  0.25500000920E-02 0. -1.
       -2   -1    0    0    0  501  0.00000000000E+00  0.00000000000E+00 -0.20166238059E+04  0.20166238059E+04  0.25500000920E-02 0.  1.
    10030    2    1    2    0    0  0.00000000000E+00  0.00000000000E+00 -0.24518834832E+02  0.40087287769E+04  0.40086537931E+04 0.  0.
        2    1    3    3  502    0 -0.84879167920E+03 -0.10984190816E+04 -0.14580922977E+04  0.20132076252E+04  0.25500000920E-02 0.  1.
       -2    1    3    3    0  502  0.84879167920E+03  0.10984190816E+04  0.14335734629E+04  0.19955211517E+04  0.25500000920E-02 0. -1.
</event>
<event>
 5   0  0.2078125E-09  0.4000494E+04  0.7818609E-02  0.8004447E-01
        1   -1    0    0  501    0  0.00000000000E+00  0.00000000000E+00  0.12281038926E+04  0.12281038926E+04  0.50400001928E-02 0.  1.
       -1   -1    0    0    0  501  0.00000000000E+00  0.00000000000E+00 -0.32578586073E+04  0.32578586073E+04  0.50400001928E-02 0. -1.
    10030    2    1    2    0    0  0.00000000000E+00  0.00000000000E+00 -0.20297547147E+04  0.44859624999E+04  0.40004943880E+04 0.  0.
        2    1    3    3  502    0  0.66621744472E+02 -0.19885330494E+04 -0.12454691400E+04  0.23473166647E+04  0.25500000920E-02 0. -1.
       -2    1    3    3    0  502 -0.66621744472E+02  0.19885330494E+04 -0.78428557469E+03  0.21386458352E+04  0.25500000920E-02 0.  1.
</event>
<event>
 5   0  0.2078125E-09  0.4001866E+04  0.7818609E-02  0.8004170E-01
        1   -1    0    0  501    0  0.00000000000E+00  0.00000000000E+00  0.21755613448E+04  0.21755613448E+04  0.50400001928E-02 0.  1.
       -1   -1    0    0    0  501  0.00000000000E+00  0.00000000000E+00 -0.18403217706E+04  0.18403217706E+04  0.50400001928E-02 0. -1.
    10030    2    1    2    0    0  0.00000000000E+00  0.00000000000E+00  0.33523957425E+03  0.40158831154E+04  0.40018660178E+04 0.  0.
        5    1    3    3  502    0  0.13958127893E+04 -0.14281406423E+04  0.41354670989E+02  0.19974011454E+04  0.46999998093E+01 0. -1.
       -5    1    3    3    0  502 -0.13958127893E+04  0.14281406423E+04  0.29388490326E+03  0.20184819700E+04  0.46999998093E+01 0.  1.
</event>
<event>
 5   0  0.6736335E-09  0.4000241E+04  0.7818609E-02  0.8004498E-01
       -2   -1    0    0    0  501  0.00000000000E+00  0.00000000000E+00  0.17285612751E+04  0.17285612751E+04  0.25500000920E-02 0.  1.
        2   -1    0    0  501    0  0.00000000000E+00  0.00000000000E+00 -0.23143416735E+04  0.23143416735E+04  0.25500000920E-02 0. -1.
    10030    2    1    2    0    0  0.00000000000E+00  0.00000000000E+00 -0.58578039840E+03  0.40429029486E+04  0.40002406898E+04 0.  0.
        1    1    3    3  502    0 -0.11204077642E+01 -0.19705791875E+04  0.53250076307E+02  0.19712988510E+04  0.50400001928E-02 0.  1.
       -1    1    3    3    0  502  0.11204077642E+01  0.19705791875E+04 -0.63903047470E+03  0.20716040976E+04  0.50400001928E-02 0. -1.
</event>
<event>
 5   0  0.6736335E-09  0.3999085E+04  0.7818609E-02  0.8004731E-01
        2   -1    0    0  501    0  0.00000000000E+00  0.00000000000E+00  0.17179583364E+04  0.17179583364E+04  0.25500000920E-02 0.  1.
       -2   -1    0    0    0  501  0.00000000000E+00  0.00000000000E+00 -0.23272802153E+04  0.23272802153E+04  0.25500000920E-02 0. -1.
    10030    2    1    2    0    0  0.00000000000E+00  0.00000000000E+00 -0.60932187889E+03  0.40452385516E+04  0.39990851188E+04 0.  0.
        1    1    3    3  502    0 -0.15334867989E+04  0.78452283712E+03 -0.13318172459E+04  0.21773366806E+04  0.50400001928E-02 0. -1.
       -1    1    3    3    0  502  0.15334867989E+04 -0.78452283712E+03  0.72249536698E+03  0.18679018710E+04  0.50400001928E-02 0.  1.
</event>
<event>
 5   0  0.6599276E-09  0.3999035E+04  0.7818609E-02  0.8004741E-01
       -2   -1    0    0    0  501  0.00000000000E+00  0.00000000000E+00  0.20058572429E+04  0.20058572429E+04  0.25500000920E-02 0. -1.
        2   -1    0    0  501    0  0.00000000000E+00  0.00000000000E+00 -0.19931977188E+04  0.19931977188E+04  0.25500000920E-02 0.  1.
    10030    2    1    2    0    0  0.00000000000E+00  0.00000000000E+00  0.12659524133E+02  0.39990549617E+04  0.39990349240E+04 0.  0.
        2    1    3    3  502    0 -0.13549360541E+04 -0.33846582866E+03  0.14373013806E+04  0.20040574060E+04  0.25500000920E-02 0. -1.
       -2    1    3    3    0  502  0.13549360541E+04  0.33846582866E+03 -0.14246418565E+04  0.19949975557E+04  0.25500000920E-02 0.  1.
</event>
<event>
 5   0  0.6547327E-09  0.3996242E+04  0.7818609E-02  0.8005305E-01
       -2   -1    0    0    0  501  0.00000000000E+00  0.00000000000E+00  0.14724570103E+04  0.14724570103E+04  0.25500000920E-02 0. -1.
        2   -1    0    0  501    0  0.00000000000E+00  0.00000000000E+00 -0.27114462977E+04  0.27114462977E+04  0.25500000920E-02 0.  1.
    10030    2    1    2    0    0  0.00000000000E+00  0.00000000000E+00 -0.12389892875E+04  0.41839033080E+04  0.39962422894E+04 0.  0.
        5    1    3    3  502    0 -0.11978789704E+04  0.58946536149E+03  0.93695143086E+03  0.16310375575E+04  0.46999998093E+01 0. -1.
       -5    1    3    3    0  502  0.11978789704E+04 -0.58946536149E+03 -0.21759407183E+04  0.25528657505E+04  0.46999998093E+01 0.  1.
</event>
<event>
 5   0  0.2078125E-09  0.4006629E+04  0.7818609E-02  0.8003211E-01
       -1   -1    0    0    0  501  0.00000000000E+00  0.00000000000E+00  0.25405568952E+04  0.25405568952E+04  0.50400001928E-02 0.  1.
        1   -1    0    0  501    0  0.00000000000E+00  0.00000000000E+00 -0.15796810937E+04  0.15796810937E+04  0.50400001928E-02 0. -1.
    10030    2    1    2    0    0  0.00000000000E+00  0.00000000000E+00  0.96087580144E+03  0.41202379889E+04  0.40066293539E+04 0.  0.
        4    1    3    3  502    0  0.13118501588E+04  0.52019041789E+03 -0.98175122011E+03  0.17191236085E+04  0.12699999809E+01 0. -1.
       -4    1    3    3    0  502 -0.13118501588E+04 -0.52019041789E+03  0.19426270216E+04  0.24011143804E+04  0.12699999809E+01 0.  1.
</event>
<event>
 5   0  0.6736335E-09  0.3999685E+04  0.7818609E-02  0.8004610E-01
       -2   -1    0    0    0  501  0.00000000000E+00  0.00000000000E+00  0.25132972420E+04  0.25132972420E+04  0.25500000920E-02 0. -1.
        2   -1    0    0  501    0  0.00000000000E+00  0.00000000000E+00 -0.15912843130E+04  0.15912843130E+04  0.25500000920E-02 0.  1.
    10030    2    1    2    0    0  0.00000000000E+00  0.00000000000E+00  0.92201292896E+03  0.41045815550E+04  0.39996852252E+04 0.  0.
        1    1    3    3  502    0 -0.93510856456E+03  0.13722539849E+04  0.16046209512E+04  0.23091811154E+04  0.50400001928E-02 0. -1.
       -1    1    3    3    0  502  0.93510856456E+03 -0.13722539849E+04 -0.68260802221E+03  0.17954004397E+04  0.50400001928E-02 0.  1.
</event>
<event>
 5   0  0.2078125E-09  0.4003450E+04  0.7818609E-02  0.8003851E-01
       -1   -1    0    0    0  501  0.00000000000E+00  0.00000000000E+00  0.19640945725E+04  0.19640945725E+04  0.50400001928E-02 0.  1.
        1   -1    0    0  501    0  0.00000000000E+00  0.00000000000E+00 -0.20400759105E+04  0.20400759105E+04  0.50400001928E-02 0. -1.
    10030    2    1    2    0    0  0.00000000000E+00  0.00000000000E+00 -0.75981337991E+02  0.40041704830E+04  0.40034495243E+04 0.  0.
        1    1    3    3  502    0 -0.13720411384E+02 -0.19677914716E+04  0.32883210669E+03  0.19951245775E+04  0.50400001928E-02 0. -1.
       -1    1    3    3    0  502  0.13720411384E+02  0.19677914716E+04 -0.40481344468E+03  0.20090459055E+04  0.50400001928E-02 0.  1.
</event>
<event>
 5   0  0.2078125E-09  0.4000724E+04  0.7818609E-02  0.8004401E-01
       -1   -1    0    0    0  501  0.00000000000E+00  0.00000000000E+00  0.14711733702E+04  0.14711733702E+04  0.50400001928E-02 0. -1.
        1   -1    0    0  501    0  0.00000000000E+00  0.00000000000E+00 -0.27199025496E+04  0.27199025496E+04  0.50400001928E-02 0.  1.
    10030    2    1    2    0    0  0.00000000000E+00  0.00000000000E+00 -0.12487291794E+04  0.41910759199E+04  0.40007240348E+04 0.  0.
        2    1    3    3  502    0  0.14844297376E+04  0.13341092234E+04 -0.76518175952E+03  0.21374943721E+04  0.25500000920E-02 0.  1.
       -2    1    3    3    0  502 -0.14844297376E+04 -0.13341092234E+04 -0.48354741988E+03  0.20535815477E+04  0.25500000920E-02 0. -1.
</event>
<event>
 5   0  0.2078125E-09  0.3999339E+04  0.7818609E-02  0.8004680E-01
        1   -1    0    0  501    0  0.00000000000E+00  0.00000000000E+00  0.28068494786E+04  0.28068494786E+04  0.50400001928E-02 0. -1.
       -1   -1    0    0    0  501  0.00000000000E+00  0.00000000000E+00 -0.14246145466E+04  0.14246145466E+04  0.50400001928E-02 0.  1.
    10030    2    1    2    0    0  0.00000000000E+00  0.00000000000E+00  0.13822349320E+04  0.42314640252E+04  0.39993392441E+04 0.  0.
        3    1    3    3  502    0  0.61567228858E+03 -0.12668555087E+04 -0.81066822292E+03  0.16251640609E+04  0.10100000352E+00 0.  1.
       -3    1    3    3    0  502 -0.61567228858E+03  0.12668555087E+04  0.21929031550E+04  0.26062999643E+04  0.10100000352E+00 0. -1.
</event>
<event>
 5   0  0.2078125E-09  0.3999757E+04  0.7818609E-02  0.8004596E-01
       -1   -1    0    0    0  501  0.00000000000E+00  0.00000000000E+00  0.14709933017E+04  0.14709933017E+04  0.50400001928E-02 0. -1.
        1   -1    0    0  501    0  0.00000000000E+00  0.00000000000E+00 -0.27189200594E+04  0.27189200594E+04  0.50400001928E-02 0.  1.
    10030    2    1    2    0    0  0.00000000000E+00  0.00000000000E+00 -0.12479267578E+04  0.41899133611E+04  0.39997565902E+04 0.  0.
        5    1    3    3  502    0  0.30535648383E+03 -0.75418572983E+03  0.12897593758E+04  0.15249721423E+04  0.46999998093E+01 0. -1.
       -5    1    3    3    0  502 -0.30535648383E+03  0.75418572983E+03 -0.25376861336E+04  0.26649412188E+04  0.46999998093E+01 0.  1.
</event>
<event>
 5   0  0.2078125E-09  0.4000412E+04  0.7818609E-02  0.8004463E-01
        1   -1    0    0  501    0  0.00000000000E+00  0.00000000000E+00  0.26860798413E+04  0.26860798413E+04  0.50400001928E-02 0. -1.
       -1   -1    0    0    0  501  0.00000000000E+00  0.00000000000E+00 -0.14894657107E+04  0.14894657107E+04  0.50400001928E-02 0.  1.
    10030    2    1    2    0    0  0.00000000000E+00  0.00000000000E+00  0.11966141306E+04  0.41755455520E+04  0.40004118887E+04 0.  0.
        2    1    3    3  502    0 -0.83438722992E+03 -0.13273959200E+03  0.24906877162E+04  0.26300850078E+04  0.25500000920E-02 0. -1.
       -2    1    3    3    0  502  0.83438722992E+03  0.13273959200E+03 -0.12940735856E+04  0.15454605442E+04  0.25500000920E-02 0.  1.
</event>
<event>
 5   0  0.6736335E-09  0.3998033E+04  0.7818609E-02  0.8004944E-01
       -2   -1    0    0    0  501  0.00000000000E+00  0.00000000000E+00  0.28430365397E+04  0.28430365397E+04  0.25500000920E-02 0.  1.
        2   -1    0    0  501    0  0.00000000000E+00  0.00000000000E+00 -0.14055627734E+04  0.14055627734E+04  0.25500000920E-02 0. -1.
    10030    2    1    2    0    0  0.00000000000E+00  0.00000000000E+00  0.14374737663E+04  0.42485993131E+04  0.39980326780E+04 0.  0.
        1    1    3    3  502    0 -0.10957138736E+04 -0.16482023078E+04  0.10172449381E+04  0.22252970598E+04  0.50400001928E-02 0. -1.
       -1    1    3    3    0  502  0.10957138736E+04  0.16482023078E+04  0.42022882821E+03  0.20233022533E+04  0.50400001928E-02 0.  1.
</event>
<event>
 5   0  0.6645526E-09  0.3997628E+04  0.7818609E-02  0.8005025E-01
        2   -1    0    0  501    0  0.00000000000E+00  0.00000000000E+00  0.19179575018E+04  0.19179575018E+04  0.25500000920E-02 0.  1.
       -2   -1    0    0    0  501  0.00000000000E+00  0.00000000000E+00 -0.20830795969E+04  0.20830795969E+04  0.25500000920E-02 0. -1.
    10030    2    1    2    0    0  0.00000000000E+00  0.00000000000E+00 -0.16512209510E+03  0.40010370987E+04  0.39976283668E+04 0.  0.
        3    1    3    3  502    0  0.39252331196E+02  0.14696437485E+04  0.12727962488E+04  0.19445831929E+04  0.10100000352E+00 0. -1.
       -3    1    3    3    0  502 -0.39252331196E+02 -0.14696437485E+04 -0.14379183439E+04  0.20564539058E+04  0.10100000352E+00 0.  1.
</event>
<event>
 5   0  0.2078125E-09  0.4000617E+04  0.7818609E-02  0.8004422E-01
        1   -1    0    0  501    0  0.00000000000E+00  0.00000000000E+00  0.11897480740E+04  0.11897480740E+04  0.50400001928E-02 0.  1.
       -1   -1    0    0    0  501  0.00000000000E+00  0.00000000000E+00 -0.33630935678E+04  0.33630935678E+04  0.50400001928E-02 0. -1.
    10030    2    1    2    0    0  0.00000000000E+00  0.00000000000E+00 -0.21733454938E+04  0.45528416419E+04  0.40006170000E+04 0.  0.
        1    1    3    3  502    0  0.19508594339E+02 -0.13839139889E+04 -0.27301919485E+04  0.30609715108E+04  0.50400001928E-02 0. -1.
       -1    1    3    3    0  502 -0.19508594339E+02  0.13839139889E+04  0.55684645473E+03  0.14918701311E+04  0.50400001928E-02 0.  1.
</event>
<event>
 5   0  0.2078125E-09  0.4002381E+04  0.7818609E-02  0.8004066E-01
       -1   -1    0    0    0  501  0.00000000000E+00  0.00000000000E+00  0.13379186925E+04  0.13379186925E+04  0.50400001928E-02 0.  1.
        1   -1    0    0  501    0  0.00000000000E+00  0.00000000000E+00 -0.29932783198E+04  0.29932783198E+04  0.50400001928E-02 0. -1.
    10030    2    1    2    0    0  0.00000000000E+00  0.00000000000E+00 -0.16553596273E+04  0.43311970123E+04  0.40023807994E+04 0.  0.
        2    1    3    3  502    0 -0.36738242049E+03  0.19510690218E+04 -0.10995632903E+04  0.22695108724E+04  0.25500000920E-02 0.  1.
       -2    1    3    3    0  502  0.36738242049E+03 -0.19510690218E+04 -0.55579633704E+03  0.20616861398E+04  0.25500000920E-02 0. -1.
</event>
<event>
 5   0  0.2078125E-09  0.4000342E+04  0.7818609E-02  0.8004478E-01
       -1   -1    0    0    0  501  0.00000000000E+00  0.00000000000E+00  0.23770026983E+04  0.23770026983E+04  0.50400001928E-02 0. -1.
        1   -1    0    0  501    0  0.00000000000E+00  0.00000000000E+00 -0.16830793486E+04  0.16830793486E+04  0.50400001928E-02 0.  1.
    10030    2    1    2    0    0  0.00000000000E+00  0.00000000000E+00  0.69392334968E+03  0.40600820469E+04  0.40003420619E+04 0.  0.
        1    1    3    3  502    0  0.12371053949E+04  0.10590647306E+04 -0.83168898164E+03  0.18285935644E+04  0.50400001928E-02 0.  1.
       -1    1    3    3    0  502 -0.12371053949E+04 -0.10590647306E+04  0.15256123313E+04  0.22314884824E+04  0.50400001928E-02 0. -1.
</event>
<event>
 5   0  0.2078125E-09  0.3999769E+04  0.7818609E-02  0.8004593E-01
        1   -1    0    0  501    0  0.00000000000E+00  0.00000000000E+00  0.20441872715E+04  0.20441872715E+04  0.50400001928E-02 0. -1.
       -1   -1    0    0    0  501  0.00000000000E+00  0.00000000000E+00 -0.19565423384E+04  0.19565423384E+04  0.50400001928E-02 0.  1.
    10030    2    1    2    0    0  0.00000000000E+00  0.00000000000E+00  0.87644933065E+02  0.40007296099E+04  0.39997694656E+04 0.  0.
        4    1    3    3  502    0 -0.25646372277E+03 -0.76562407424E+03  0.18739019278E+04  0.20404567901E+04  0.12699999809E+01 0. -1.
       -4    1    3    3    0  502  0.25646372277E+03  0.76562407424E+03 -0.17862569948E+04  0.19602728199E+04  0.12699999809E+01 0.  1.
</event>
<event>
 5   0  0.2078125E-09  0.4000415E+04  0.7818609E-02  0.8004463E-01
        1   -1    0    0  501    0  0.00000000000E+00  0.00000000000E+00  0.15600206107E+04  0.15600206107E+04  0.50400001928E-02 0.  1.
       -1   -1    0    0    0  501  0.00000000000E+00  0.00000000000E+00 -0.25646002511E+04  0.25646002511E+04  0.50400001928E-02 0. -1.
    10030    2    1    2    0    0  0.00000000000E+00  0.00000000000E+00 -0.10045796404E+04  0.41246208619E+04  0.40004146035E+04 0.  0.
        5    1    3    3  502    0  0.70245514875E+03 -0.13313011487E+04  0.85580132224E+03  0.17315380382E+04  0.46999998093E+01 0.  1.
       -5    1    3    3    0  502 -0.70245514875E+03  0.13313011487E+04 -0.18603809627E+04  0.23930828237E+04  0.46999998093E+01 0. -1.
</event>
<event>
 5   0  0.6736335E-09  0.3999670E+04  0.7818609E-02  0.8004613E-01
       -2   -1    0    0    0  501  0.00000000000E+00  0.00000000000E+00  0.24123203774E+04  0.24123203774E+04  0.25500000920E-02 0. -1.
        2   -1    0    0  501    0  0.00000000000E+00  0.00000000000E+00 -0.16578810579E+04  0.16578810579E+04  0.25500000920E-02 0.  1.
    10030    2    1    2    0    0  0.00000000000E+00  0.00000000000E+00  0.75443931952E+03  0.40702014353E+04  0.39996701160E+04 0.  0.
        1    1    3    3  502    0 -0.14163670799E+04  0.14052776759E+04  0.23903403725E+03  0.20094870794E+04  0.50400001928E-02 0. -1.
       -1    1    3    3    0  502  0.14163670799E+04 -0.14052776759E+04  0.51540528227E+03  0.20607143559E+04  0.50400001928E-02 0.  1.
</event>
<event>
 5   0  0.2078125E-09  0.3999644E+04  0.7818609E-02  0.8004618E-01
        1   -1    0    0  501    0  0.00000000000E+00  0.00000000000E+00  0.17885607851E+04  0.17885607851E+04  0.50400001928E-02 0.  1.
       -1   -1    0    0    0  501  0.00000000000E+00  0.00000000000E+00 -0.22360368591E+04  0.22360368591E+04  0.50400001928E-02 0. -1.
    10030    2    1    2    0    0  0.00000000000E+00  0.00000000000E+00 -0.44747607401E+03  0.40245976443E+04  0.39996439043E+04 0.  0.
        5    1    3    3  502    0  0.65871607796E+03 -0.13565076162E+04  0.10979429788E+04  0.18653473293E+04  0.46999998093E+01 0.  1.
       -5    1    3    3    0  502 -0.65871607796E+03  0.13565076162E+04 -0.15454190528E+04  0.21592503150E+04  0.46999998093E+01 0. -1.
</event>
<event>
 5   0  0.6599276E-09  0.4001191E+04  0.7818609E-02  0.8004306E-01
        2   -1    0    0  501    0  0.00000000000E+00  0.00000000000E+00  0.16181057989E+04  0.16181057989E+04  0.25500000920E-02 0.  1.
       -2   -1    0    0    0  501  0.00000000000E+00  0.00000000000E+00 -0.24734981486E+04  0.24734981486E+04  0.25500000920E-02 0. -1.
    10030    2    1    2    0    0  0.00000000000E+00  0.00000000000E+00 -0.85539234968E+03  0.40916039475E+04  0.40011906717E+04 0.  0.
        2    1    3    3  502    0  0.10877078486E+04 -0.20302856816E+02  0.12891887278E+04  0.16868693327E+04  0.25500000920E-02 0.  1.
       -2    1    3    3    0  502 -0.10877078486E+04  0.20302856816E+02 -0.21445810775E+04  0.24047346148E+04  0.25500000920E-02 0. -1.
</event>
<event>
 5   0  0.2078125E-09  0.4002065E+04  0.7818609E-02  0.8004130E-01
       -1   -1    0    0    0  501  0.00000000000E+00  0.00000000000E+00  0.25577509563E+04  0.25577509563E+04  0.50400001928E-02 0.  1.
        1   -1    0    0  501    0  0.00000000000E+00  0.00000000000E+00 -0.15654890437E+04  0.15654890437E+04  0.50400001928E-02 0. -1.
    10030    2    1    2    0    0  0.00000000000E+00  0.00000000000E+00  0.99226191267E+03  0.41232400000E+04  0.40020650162E+04 0.  0.
        4    1    3    3  502    0 -0.18005858277E+04 -0.81432708290E+03  0.82012281607E+03  0.21395889716E+04  0.12699999809E+01 0.  1.
       -4    1    3    3    0  502  0.18005858277E+04  0.81432708290E+03  0.17213909660E+03  0.19836510284E+04  0.12699999809E+01 0. -1.
</event>
<event>
 5   0  0.6645526E-09  0.3999156E+04  0.7818609E-02  0.8004717E-01
        2   -1    0    0  501    0  0.00000000000E+00  0.00000000000E+00  0.30946334054E+04  0.30946334054E+04  0.25500000920E-02 0.  1.
       -2   -1    0    0    0  501  0.00000000000E+00  0.00000000000E+00 -0.12920145201E+04  0.12920145201E+04  0.25500000920E-02 0. -1.
    10030    2    1    2    0    0  0.00000000000E+00  0.00000000000E+00  0.18026188853E+04  0.43866479254E+04  0.39991555579E+04 0.  0.
        3    1    3    3  502    0  0.17174804278E+04  0.56505668769E+03  0.18380354695E+04  0.25782557045E+04  0.10100000352E+00 0.  1.
       -3    1    3    3    0  502 -0.17174804278E+04 -0.56505668769E+03 -0.35416584169E+02  0.18083922210E+04  0.10100000352E+00 0. -1.
</event>
<event>
 5   0  0.2078125E-09  0.3998635E+04  0.7818609E-02  0.8004822E-01
        1   -1    0    0  501    0  0.00000000000E+00  0.00000000000E+00  0.25618431154E+04  0.25618431154E+04  0.50400001928E-02 0.  1.
       -1   -1    0    0    0  501  0.00000000000E+00  0.00000000000E+00 -0.15603102987E+04  0.15603102987E+04  0.50400001928E-02 0. -1.
    10030    2    1    2    0    0  0.00000000000E+00  0.00000000000E+00  0.10015328168E+04  0.41221534141E+04  0.39986348653E+04 0.  0.
        1    1    3    3  502    0 -0.42622874072E+03  0.21978396647E+03  0.25016746576E+04  0.25472243764E+04  0.50400001928E-02 0.  1.
       -1    1    3    3    0  502  0.42622874072E+03 -0.21978396647E+03 -0.15001418408E+04  0.15749290377E+04  0.50400001928E-02 0. -1.
</event>
<event>
 5   0  0.6645526E-09  0.3999077E+04  0.7818609E-02  0.8004733E-01
        2   -1    0    0  501    0  0.00000000000E+00  0.00000000000E+00  0.14429411602E+04  0.14429411602E+04  0.25500000920E-02 0. -1.
       -2   -1    0    0    0  501  0.00000000000E+00  0.00000000000E+00 -0.27708360417E+04  0.27708360417E+04  0.25500000920E-02 0.  1.
    10030    2    1    2    0    0  0.00000000000E+00  0.00000000000E+00 -0.13278948815E+04  0.42137772019E+04  0.39990765798E+04 0.  0.
        3    1    3    3  502    0 -0.55580836093E+03  0.16238585087E+04  0.41695007043E+03  0.17662635029E+04  0.10100000352E+00 0. -1.
       -3    1    3    3    0  502  0.55580836093E+03 -0.16238585087E+04 -0.17448449520E+04  0.24475136990E+04  0.10100000352E+00 0.  1.
</event>
<event>
 5   0  0.2078125E-09  0.3995461E+04  0.7818609E-02  0.8005463E-01
        1   -1    0    0  501    0  0.00000000000E+00  0.00000000000E+00  0.17927594493E+04  0.17927594493E+04  0.50400001928E-02 0.  1.
       -1   -1    0    0    0  501  0.00000000000E+00  0.00000000000E+00 -0.22261360716E+04  0.22261360716E+04  0.50400001928E-02 0. -1.
    10030    2    1    2    0    0  0.00000000000E+00  0.00000000000E+00 -0.43337662238E+03  0.40188955209E+04  0.39954606632E+04 0.  0.
        5    1    3    3  502    0  0.13618638595E+04 -0.37062718875E+02 -0.16863734738E+04  0.21679309030E+04  0.46999998093E+01 0. -1.
       -5    1    3    3    0  502 -0.13618638595E+04  0.37062718875E+02  0.12529968514E+04  0.18509646179E+04  0.46999998093E+01 0.  1.
</event>
<event>
 5   0  0.2078125E-09  0.3993741E+04  0.7818609E-02  0.8005810E-01
        1   -1    0    0  501    0  0.00000000000E+00  0.00000000000E+00  0.24371430108E+04  0.24371430108E+04  0.50400001928E-02 0. -1.
       -1   -1    0    0    0  501  0.00000000000E+00  0.00000000000E+00 -0.16361338801E+04  0.16361338801E+04  0.50400001928E-02 0.  1.
    10030    2    1    2    0    0  0.00000000000E+00  0.00000000000E+00  0.80100913077E+03  0.40732768909E+04  0.39937412288E+04 0.  0.
        5    1    3    3  502    0  0.10929666293E+03  0.12018902340E+04 -0.12220852073E+04  0.17175564733E+04  0.46999998093E+01 0.  1.
       -5    1    3    3    0  502 -0.10929666293E+03 -0.12018902340E+04  0.20230943381E+04  0.23557204176E+04  0.46999998093E+01 0. -1.
</event>
<event>
 5   0  0.2078125E-09  0.3992246E+04  0.7818609E-02  0.8006113E-01
       -1   -1    0    0    0  501  0.00000000000E+00  0.00000000000E+00  0.17545909919E+04  0.17545909919E+04  0.50400001928E-02 0.  1.
        1   -1    0    0  501    0  0.00000000000E+00  0.00000000000E+00 -0.22709032413E+04  0.22709032413E+04  0.50400001928E-02 0. -1.
    10030    2    1    2    0    0  0.00000000000E+00  0.00000000000E+00 -0.51631224941E+03  0.40254942333E+04  0.39922456692E+04 0.  0.
        3    1    3    3  502    0  0.13734251361E+04  0.13476053621E+04  0.27746416320E+03  0.19440481446E+04  0.10100000352E+00 0. -1.
       -3    1    3    3    0  502 -0.13734251361E+04 -0.13476053621E+04 -0.79377641261E+03  0.20814460886E+04  0.10100000352E+00 0.  1.
</event>
<event>
 5   0  0.6547327E-09  0.4000177E+04  0.7818609E-02  0.8004511E-01
       -2   -1    0    0    0  501  0.00000000000E+00  0.00000000000E+00  0.26103704015E+04  0.26103704015E+04  0.25500000920E-02 0. -1.
        2   -1    0    0  501    0  0.00000000000E+00  0.00000000000E+00 -0.15324850680E+04  0.15324850680E+04  0.25500000920E-02 0.  1.
    10030    2    1    2    0    0  0.00000000000E+00  0.00000000000E+00  0.10778853335E+04  0.41428554695E+04  0.40001768273E+04 0.  0.
        5    1    3    3  502    0  0.32657244976E+03 -0.16913779773E+04 -0.51363577585E+03  0.17975685876E+04  0.46999998093E+01 0.  1.
       -5    1    3    3    0  502 -0.32657244976E+03  0.16913779773E+04  0.15915211093E+04  0.23452868819E+04  0.46999998093E+01 0. -1.
</event>
<event>
 5   0  0.6736335E-09  0.3999183E+04  0.7818609E-02  0.8004711E-01
        2   -1    0    0  501    0  0.00000000000E+00  0.00000000000E+00  0.28542178773E+04  0.28542178773E+04  0.25500000920E-02 0. -1.
       -2   -1    0    0    0  501  0.00000000000E+00  0.00000000000E+00 -0.14008623732E+04  0.14008623732E+04  0.25500000920E-02 0.  1.
    10030    2    1    2    0    0  0.00000000000E+00  0.00000000000E+00  0.14533555041E+04  0.42550802505E+04  0.39991831312E+04 0.  0.
        1    1    3    3  502    0 -0.29304830444E+03  0.78532258456E+03 -0.12049084382E+04  0.14677919522E+04  0.50400001928E-02 0.  1.
       -1    1    3    3    0  502  0.29304830444E+03 -0.78532258456E+03  0.26582639423E+04  0.27872882982E+04  0.50400001928E-02 0. -1.
</event>
<event>
 5   0  0.6736335E-09  0.3999697E+04  0.7818609E-02  0.8004608E-01
        2   -1    0    0  501    0  0.00000000000E+00  0.00000000000E+00  0.25708174116E+04  0.25708174116E+04  0.25500000920E-02 0. -1.
       -2   -1    0    0    0  501  0.00000000000E+00  0.00000000000E+00 -0.15556896283E+04  0.15556896283E+04  0.25500000920E-02 0.  1.
    10030    2    1    2    0    0  0.00000000000E+00  0.00000000000E+00  0.10151277833E+04  0.41265070399E+04  0.39996969803E+04 0.  0.
        1    1    3    3  502    0 -0.12207824131E+04 -0.10660349470E+04  0.17163125489E+04  0.23606077552E+04  0.50400001928E-02 0. -1.
       -1    1    3    3    0  502  0.12207824131E+04  0.10660349470E+04 -0.70118476553E+03  0.17658992847E+04  0.50400001928E-02 0.  1.
</event>
<event>
 5   0  0.2078125E-09  0.3999896E+04  0.7818609E-02  0.8004568E-01
       -1   -1    0    0    0  501  0.00000000000E+00  0.00000000000E+00  0.18181064695E+04  0.18181064695E+04  0.50400001928E-02 0.  1.
        1   -1    0    0  501    0  0.00000000000E+00  0.00000000000E+00 -0.21999765372E+04  0.21999765372E+04  0.50400001928E-02 0. -1.
    10030    2    1    2    0    0  0.00000000000E+00  0.00000000000E+00 -0.38187006765E+03  0.40180830067E+04  0.39998957862E+04 0.  0.
        2    1    3    3  502    0  0.28608698796E+03 -0.57062800444E+03 -0.20948971805E+04  0.21899900185E+04  0.25500000920E-02 0. -1.
       -2    1    3    3    0  502 -0.28608698796E+03  0.57062800444E+03  0.17130271129E+04  0.18280929882E+04  0.25500000920E-02 0.  1.
</event>
<event>
 5   0  0.6547327E-09  0.4000447E+04  0.7818609E-02  0.8004456E-01
       -2   -1    0    0    0  501  0.00000000000E+00  0.00000000000E+00  0.25940996848E+04  0.25940996848E+04  0.25500000920E-02 0.  1.
        2   -1    0    0  501    0  0.00000000000E+00  0.00000000000E+00 -0.15423053679E+04  0.15423053679E+04  0.25500000920E-02 0. -1.
    10030    2    1    2    0    0  0.00000000000E+00  0.00000000000E+00  0.10517943169E+04  0.41364050526E+04  0.40004469093E+04 0.  0.
        5    1    3    3  502    0 -0.51045096528E+03  0.24768346684E+03 -0.14573523111E+04  0.15639070101E+04  0.46999998093E+01 0. -1.
       -5    1    3    3    0  502  0.51045096528E+03 -0.24768346684E+03  0.25091466280E+04  0.25724980425E+04  0.46999998093E+01 0.  1.
</event>
<event>
 5   0  0.6599276E-09  0.3999977E+04  0.7818609E-02  0.8004551E-01
       -2   -1    0    0    0  501  0.00000000000E+00  0.00000000000E+00  0.14580195255E+04  0.14580195255E+04  0.25500000920E-02 0.  1.
        2   -1    0    0  501    0  0.00000000000E+00  0.00000000000E+00 -0.27434160813E+04  0.27434160813E+04  0.25500000920E-02 0. -1.
    10030    2    1    2    0    0  0.00000000000E+00  0.00000000000E+00 -0.12853965557E+04  0.42014356068E+04  0.39999771065E+04 0.  0.
        2    1    3    3  502    0 -0.12730201473E+04  0.11750762837E+04 -0.16923117252E+04  0.24218388764E+04  0.25500000920E-02 0. -1.
       -2    1    3    3    0  502  0.12730201473E+04 -0.11750762837E+04  0.40691516946E+03  0.17795967304E+04  0.25500000920E-02 0.  1.
</event>
<event>
 5   0  0.2078125E-09  0.4003143E+04  0.7818609E-02  0.8003913E-01
        1   -1    0    0  501    0  0.00000000000E+00  0.00000000000E+00  0.19177510124E+04  0.19177510124E+04  0.50400001928E-02 0.  1.
       -1   -1    0    0    0  501  0.00000000000E+00  0.00000000000E+00 -0.20890558980E+04  0.20890558980E+04  0.50400001928E-02 0. -1.
    10030    2    1    2    0    0  0.00000000000E+00  0.00000000000E+00 -0.17130488558E+03  0.40068069104E+04  0.40031432966E+04 0.  0.
        5    1    3    3  502    0  0.11059543917E+04 -0.16597283557E+04  0.83124658963E+02  0.19961876490E+04  0.46999998093E+01 0. -1.
       -5    1    3    3    0  502 -0.11059543917E+04  0.16597283557E+04 -0.25442954455E+03  0.20106192614E+04  0.46999998093E+01 0.  1.
</event>
<event>
 5   0  0.2078125E-09  0.4004284E+04  0.7818609E-02  0.8003683E-01
        1   -1    0    0  501    0  0.00000000000E+00  0.00000000000E+00  0.24442044964E+04  0.24442044964E+04  0.50400001928E-02 0.  1.
       -1   -1    0    0    0  501  0.00000000000E+00  0.00000000000E+00 -0.16400317599E+04  0.16400317599E+04  0.50400001928E-02 0. -1.
    10030    2    1    2    0    0  0.00000000000E+00  0.00000000000E+00  0.80417273646E+03  0.40842362563E+04  0.40042842066E+04 0.  0.
        4    1    3    3  502    0 -0.28697302593E+03  0.19712254157E+04  0.60732086870E+03  0.20825281288E+04  0.12699999809E+01 0. -1.
       -4    1    3    3    0  502  0.28697302593E+03 -0.19712254157E+04  0.19685186776E+03  0.20017081275E+04  0.12699999809E+01 0.  1.
</event>
<event>
 5   0  0.2078125E-09  0.4004239E+04  0.7818609E-02  0.8003692E-01
        1   -1    0    0  501    0  0.00000000000E+00  0.00000000000E+00  0.15361741197E+04  0.15361741197E+04  0.50400001928E-02 0.  1.
       -1   -1    0    0    0  501  0.00000000000E+00  0.00000000000E+00 -0.26093929980E+04  0.26093929980E+04  0.50400001928E-02 0. -1.
    10030    2    1    2    0    0  0.00000000000E+00  0.00000000000E+00 -0.10732188783E+04  0.41455671177E+04  0.40042387499E+04 0.  0.
        3    1    3    3  502    0  0.86450498082E+03  0.42688072366E+03 -0.23532156258E+04  0.25430729061E+04  0.10100000352E+00 0. -1.
       -3    1    3    3    0  502 -0.86450498082E+03 -0.42688072366E+03  0.12799967475E+04  0.16024942115E+04  0.10100000352E+00 0.  1.
</event>
<event>
 5   0  0.2078125E-09  0.3999820E+04  0.7818609E-02  0.8004583E-01
       -1   -1    0    0    0  501  0.00000000000E+00  0.00000000000E+00  0.20589294516E+04  0.20589294516E+04  0.50400001928E-02 0. -1.
        1   -1    0    0  501    0  0.00000000000E+00  0.00000000000E+00 -0.19425820295E+04  0.19425820295E+04  0.50400001928E-02 0.  1.
    10030    2    1    2    0    0  0.00000000000E+00  0.00000000000E+00  0.11634742211E+03  0.40015114811E+04  0.39998196723E+04 0.  0.
        5    1    3    3  502    0 -0.13253947818E+03 -0.72399232475E+03 -0.18021519202E+04  0.19466651569E+04  0.46999998093E+01 0.  1.
       -5    1    3    3    0  502  0.13253947818E+03  0.72399232475E+03  0.19184993423E+04  0.20548463242E+04  0.46999998093E+01 0. -1.
</event>
<event>
 5   0  0.6599276E-09  0.4000644E+04  0.7818609E-02  0.8004417E-01
       -2   -1    0    0    0  501  0.00000000000E+00  0.00000000000E+00  0.21486059870E+04  0.21486059870E+04  0.25500000920E-02 0. -1.
        2   -1    0    0  501    0  0.00000000000E+00  0.00000000000E+00 -0.18622715317E+04  0.18622715317E+04  0.25500000920E-02 0.  1.
    10030    2    1    2    0    0  0.00000000000E+00  0.00000000000E+00  0.28633445536E+03  0.40108775187E+04  0.40006438294E+04 0.  0.
        2    1    3    3  502    0 -0.12535342739E+04 -0.11384513564E+04 -0.92438905103E+03  0.19292264731E+04  0.25500000920E-02 0.  1.
       -2    1    3    3    0  502  0.12535342739E+04  0.11384513564E+04  0.12107235064E+04  0.20816510456E+04  0.25500000920E-02 0. -1.
</event>
<event>
 5   0  0.6599276E-09  0.4000510E+04  0.7818609E-02  0.8004444E-01
        2   -1    0    0  501    0  0.00000000000E+00  0.00000000000E+00  0.14694417214E+04  0.14694417214E+04  0.25500000920E-02 0. -1.
       -2   -1    0    0    0  501  0.00000000000E+00  0.00000000000E+00 -0.27228167330E+04  0.27228167330E+04  0.25500000920E-02 0.  1.
    10030    2    1    2    0    0  0.00000000000E+00  0.00000000000E+00 -0.12533750116E+04  0.41922584543E+04  0.40005102210E+04 0.  0.
        2    1    3    3  502    0  0.13791507889E+04  0.17696192245E+03 -0.21335408171E+04  0.25466387335E+04  0.25500000920E-02 0.  1.
       -2    1    3    3    0  502 -0.13791507889E+04 -0.17696192245E+03  0.88016580546E+03  0.16456197209E+04  0.25500000920E-02 0. -1.
</event>
<event>
 5   0  0.2078125E-09  0.3998609E+04  0.7818609E-02  0.8004827E-01
       -1   -1    0    0    0  501  0.00000000000E+00  0.00000000000E+00  0.15174526241E+04  0.15174526241E+04  0.50400001928E-02 0.  1.
        1   -1    0    0  501    0  0.00000000000E+00  0.00000000000E+00 -0.26341637924E+04  0.26341637924E+04  0.50400001928E-02 0. -1.
    10030    2    1    2    0    0  0.00000000000E+00  0.00000000000E+00 -0.11167111683E+04  0.41516164165E+04  0.39986091378E+04 0.  0.
        4    1    3    3  502    0  0.16686041729E+04  0.25138955422E+03  0.55495348224E+03  0.17763478190E+04  0.12699999809E+01 0.  1.
       -4    1    3    3    0  502 -0.16686041729E+04 -0.25138955422E+03 -0.16716646506E+04  0.23752685976E+04  0.12699999809E+01 0. -1.
</event>
<event>
 5   0  0.2078125E-09  0.4002089E+04  0.7818609E-02  0.8004125E-01
       -1   -1    0    0    0  501  0.00000000000E+00  0.00000000000E+00  0.16740343878E+04  0.16740343878E+04  0.50400001928E-02 0. -1.
        1   -1    0    0  501    0  0.00000000000E+00  0.00000000000E+00 -0.23919340752E+04  0.23919340752E+04  0.50400001928E-02 0.  1.
    10030    2    1    2    0    0  0.00000000000E+00  0.00000000000E+00 -0.71789968741E+03  0.40659684631E+04  0.40020894020E+04 0.  0.
        3    1    3    3  502    0  0.42448263456E+03  0.41121397998E+03  0.15833434792E+04  0.16900470489E+04  0.10100000352E+00 0. -1.
       -3    1    3    3    0  502 -0.42448263456E+03 -0.41121397998E+03 -0.23012431666E+04  0.23759214142E+04  0.10100000352E+00 0.  1.
</event>
<event>
 5   0  0.2078125E-09  0.4001166E+04  0.7818609E-02  0.8004311E-01
        1   -1    0    0  501    0  0.00000000000E+00  0.00000000000E+00  0.27326342441E+04  0.27326342441E+04  0.50400001928E-02 0.  1.
       -1   -1    0    0    0  501  0.00000000000E+00  0.00000000000E+00 -0.14646422271E+04  0.14646422271E+04  0.50400001928E-02 0. -1.
    10030    2    1    2    0    0  0.00000000000E+00  0.00000000000E+00  0.12679920170E+04  0.41972764712E+04  0.40011655828E+04 0.  0.
        1    1    3    3  502    0  0.12884958200E+04  0.10876233321E+04 -0.49542932537E+03  0.17574402428E+04  0.50400001928E-02 0. -1.
       -1    1    3    3    0  502 -0.12884958200E+04 -0.10876233321E+04  0.17634213424E+04  0.24398362284E+04  0.50400001928E-02 0.  1.
</event>
<event>
 5   0  0.2078125E-09  0.4000114E+04  0.7818609E-02  0.8004524E-01
       -1   -1    0    0    0  501  0.00000000000E+00  0.00000000000E+00  0.18165410278E+04  0.18165410278E+04  0.50400001928E-02 0. -1.
        1   -1    0    0  501    0  0.00000000000E+00  0.00000000000E+00 -0.22021127968E+04  0.22021127968E+04  0.50400001928E-02 0.  1.
    10030    2    1    2    0    0  0.00000000000E+00  0.00000000000E+00 -0.38557176904E+03  0.40186538246E+04  0.40001141200E+04 0.  0.
        5    1    3    3  502    0  0.10550360099E+04  0.25226419969E+03  0.14953198528E+04  0.18473607555E+04  0.46999998093E+01 0. -1.
       -5    1    3    3    0  502 -0.10550360099E+04 -0.25226419969E+03 -0.18808916219E+04  0.21712930691E+04  0.46999998093E+01 0.  1.
</event>
<event>
 5   0  0.6538370E-09  0.3995378E+04  0.7818609E-02  0.8005480E-01
       -2   -1    0    0    0  501  0.00000000000E+00  0.00000000000E+00  0.17701262212E+04  0.17701262212E+04  0.25500000920E-02 0.  1.
        2   -1    0    0  501    0  0.00000000000E+00  0.00000000000E+00 -0.22545068650E+04  0.22545068650E+04  0.25500000920E-02 0. -1.
    10030    2    1    2    0    0  0.00000000000E+00  0.00000000000E+00 -0.48438064382E+03  0.40246330862E+04  0.39953781886E+04 0.  0.
        4    1    3    3  502    0 -0.71613008570E+03  0.14984991339E+04 -0.13604622983E+04  0.21469050356E+04  0.12699999809E+01 0. -1.
       -4    1    3    3    0  502  0.71613008570E+03 -0.14984991339E+04  0.87608165443E+03  0.18777280506E+04  0.12699999809E+01 0.  1.
</event>
<event>
 5   0  0.6645526E-09  0.4000888E+04  0.7818609E-02  0.8004367E-01
       -2   -1    0    0    0  501  0.00000000000E+00  0.00000000000E+00  0.24746474004E+04  0.24746474004E+04  0.25500000920E-02 0. -1.
        2   -1    0    0  501    0  0.00000000000E+00  0.00000000000E+00 -0.16171098562E+04  0.16171098562E+04  0.25500000920E-02 0.  1.
    10030    2    1    2    0    0  0.00000000000E+00  0.00000000000E+00  0.85753754413E+03  0.40917572566E+04  0.40008882523E+04 0.  0.
        3    1    3    3  502    0 -0.20004122029E+04 -0.98456099411E+01  0.42309533981E+03  0.20446896083E+04  0.10100000352E+00 0.  1.
       -3    1    3    3    0  502  0.20004122029E+04  0.98456099411E+01  0.43444220433E+03  0.20470676483E+04  0.10100000352E+00 0. -1.
</event>
<event>
 5   0  0.6736335E-09  0.4001487E+04  0.7818609E-02  0.8004247E-01
        2   -1    0    0  501    0  0.00000000000E+00  0.00000000000E+00  0.24833269618E+04  0.24833269618E+04  0.25500000920E-02 0. -1.
       -2   -1    0    0    0  501  0.00000000000E+00  0.00000000000E+00 -0.16119404003E+04  0.16119404003E+04  0.25500000920E-02 0.  1.
    10030    2    1    2    0    0  0.00000000000E+00  0.00000000000E+00  0.87138656156E+03  0.40952673621E+04  0.40014872519E+04 0.  0.
        1    1    3    3  502    0 -0.60784343984E+03  0.17013012328E+04 -0.44414981968E+03  0.18604216174E+04  0.50400001928E-02 0.  1.
       -1    1    3    3    0  502  0.60784343984E+03 -0.17013012328E+04  0.13155363812E+04  0.22348457447E+04  0.50400001928E-02 0. -1.
</event>
<event>
 5   0  0.6645526E-09  0.4000529E+04  0.7818609E-02  0.8004440E-01
       -2   -1    0    0    0  501  0.00000000000E+00  0.00000000000E+00  0.13518492315E+04  0.13518492315E+04  0.25500000920E-02 0. -1.
        2   -1    0    0  501    0  0.00000000000E+00  0.00000000000E+00 -0.29596927196E+04  0.29596927196E+04  0.25500000920E-02 0.  1.
    10030    2    1    2    0    0  0.00000000000E+00  0.00000000000E+00 -0.16078434880E+04  0.43115419511E+04  0.40005291293E+04 0.  0.
        3    1    3    3  502    0  0.51205054553E+03  0.18996247141E+04 -0.11929384263E+04  0.23008415666E+04  0.10100000352E+00 0.  1.
       -3    1    3    3    0  502 -0.51205054553E+03 -0.18996247141E+04 -0.41490506174E+03  0.20107003845E+04  0.10100000352E+00 0. -1.
</event>
<event>
 5   0  0.6547327E-09  0.3998357E+04  0.7818609E-02  0.8004878E-01
       -2   -1    0    0    0  501  0.00000000000E+00  0.00000000000E+00  0.23633414743E+04  0.23633414743E+04  0.25500000920E-02 0.  1.
        2   -1    0    0  501    0  0.00000000000E+00  0.00000000000E+00 -0.16911284033E+04  0.16911284033E+04  0.25500000920E-02 0. -1.
    10030    2    1    2    0    0  0.00000000000E+00  0.00000000000E+00  0.67221307102E+03  0.40544698777E+04  0.39983566094E+04 0.  0.
        5    1    3    3  502    0 -0.46771636893E+03  0.15555510099E+04  0.15178779954E+04  0.22231673902E+04  0.46999998093E+01 0.  1.
       -5    1    3    3    0  502  0.46771636893E+03 -0.15555510099E+04 -0.84566492437E+03  0.18313024874E+04  0.46999998093E+01 0. -1.
</event>
<event>
 5   0  0.6547327E-09  0.3995735E+04  0.7818609E-02  0.8005408E-01
        2   -1    0    0  501    0  0.00000000000E+00  0.00000000000E+00  0.16628017609E+04  0.16628017609E+04  0.25500000920E-02 0. -1.
       -2   -1    0    0    0  501  0.00000000000E+00  0.00000000000E+00 -0.24004509885E+04  0.24004509885E+04  0.25500000920E-02 0.  1.
    10030    2    1    2    0    0  0.00000000000E+00  0.00000000000E+00 -0.73764922757E+03  0.40632527494E+04  0.39957347914E+04 0.  0.
        5    1    3    3  502    0  0.16122516719E+04  0.77626117699E+03 -0.12723855005E+04  0.21956602243E+04  0.46999998093E+01 0.  1.
       -5    1    3    3    0  502 -0.16122516719E+04 -0.77626117699E+03  0.53473627291E+03  0.18675925252E+04  0.46999998093E+01 0. -1.
</event>
<event>
 5   0  0.2078125E-09  0.3999302E+04  0.7818609E-02  0.8004687E-01
        1   -1    0    0  501    0  0.00000000000E+00  0.00000000000E+00  0.24457422797E+04  0.24457422798E+04  0.50400001928E-02 0.  1.
       -1   -1    0    0    0  501  0.00000000000E+00  0.00000000000E+00 -0.16349242564E+04  0.16349242564E+04  0.50400001928E-02 0. -1.
    10030    2    1    2    0    0  0.00000000000E+00  0.00000000000E+00  0.81081802338E+03  0.40806665361E+04  0.39993016280E+04 0.  0.
        3    1    3    3  502    0  0.13609008907E+04 -0.35036055973E+02 -0.10890825039E+04  0.17433816191E+04  0.10100000352E+00 0. -1.
       -3    1    3    3    0  502 -0.13609008907E+04  0.35036055973E+02  0.18999005273E+04  0.23372849170E+04  0.10100000352E+00 0.  1.
</event>
<event>
 5   0  0.6736335E-09  0.4000381E+04  0.7818609E-02  0.8004470E-01
        2   -1    0    0  501    0  0.00000000000E+00  0.00000000000E+00  0.17942873037E+04  0.17942873037E+04  0.25500000920E-02 0. -1.
       -2   -1    0    0    0  501  0.00000000000E+00  0.00000000000E+00 -0.22297217988E+04  0.22297217988E+04  0.25500000920E-02 0.  1.
    10030    2    1    2    0    0  0.00000000000E+00  0.00000000000E+00 -0.43543449511E+03  0.40240091026E+04  0.40003807391E+04 0.  0.
        1    1    3    3  502    0 -0.89227650709E+03  0.12401755377E+04 -0.15162988582E+04  0.21525229283E+04  0.50400001928E-02 0.  1.
       -1    1    3    3    0  502  0.89227650709E+03 -0.12401755377E+04  0.10808643631E+04  0.18714861743E+04  0.50400001928E-02 0. -1.
</event>
<event>
 5   0  0.2078125E-09  0.3999183E+04  0.7818609E-02  0.8004711E-01
        1   -1    0    0  501    0  0.00000000000E+00  0.00000000000E+00  0.22201936899E+04  0.22201936899E+04  0.50400001928E-02 0.  1.
       -1   -1    0    0    0  501  0.00000000000E+00  0.00000000000E+00 -0.18009091650E+04  0.18009091650E+04  0.50400001928E-02 0. -1.
    10030    2    1    2    0    0  0.00000000000E+00  0.00000000000E+00  0.41928452493E+03  0.40211028549E+04  0.39991834988E+04 0.  0.
        5    1    3    3  502    0  0.18599593410E+04  0.94552550317E+02  0.94161315951E+03  0.20868747847E+04  0.46999998093E+01 0.  1.
       -5    1    3    3    0  502 -0.18599593410E+04 -0.94552550317E+02 -0.52232863458E+03  0.19342280702E+04  0.46999998093E+01 0. -1.
</event>
<event>
 5   0  0.2078125E-09  0.4013286E+04  0.7818609E-02  0.8001872E-01
        1   -1    0    0  501    0  0.00000000000E+00  0.00000000000E+00  0.20461229287E+04  0.20461229287E+04  0.50400001928E-02 0.  1.
       -1   -1    0    0    0  501  0.00000000000E+00  0.00000000000E+00 -0.19679248843E+04  0.19679248843E+04  0.50400001928E-02 0. -1.
    10030    2    1    2    0    0  0.00000000000E+00  0.00000000000E+00  0.78198044401E+02  0.40140478129E+04  0.40132860489E+04 0.  0.
        2    1    3    3  502    0  0.17207751671E+04 -0.83740736425E+03  0.64278459153E+03  0.20187843620E+04  0.25500000920E-02 0. -1.
       -2    1    3    3    0  502 -0.17207751671E+04  0.83740736425E+03 -0.56458654713E+03  0.19952634509E+04  0.25500000920E-02 0.  1.
</event>
<event>
 5   0  0.2078125E-09  0.3998615E+04  0.7818609E-02  0.8004826E-01
        1   -1    0    0  501    0  0.00000000000E+00  0.00000000000E+00  0.16188259691E+04  0.16188259691E+04  0.50400001928E-02 0. -1.
       -1   -1    0    0    0  501  0.00000000000E+00  0.00000000000E+00 -0.24692154464E+04  0.24692154464E+04  0.50400001928E-02 0.  1.
    10030    2    1    2    0    0  0.00000000000E+00  0.00000000000E+00 -0.85038947733E+03  0.40880414155E+04  0.39986148041E+04 0.  0.
        4    1    3    3  502    0  0.19856724121E+04  0.22797244978E+03 -0.37550626398E+03  0.20336845708E+04  0.12699999809E+01 0. -1.
       -4    1    3    3    0  502 -0.19856724121E+04 -0.22797244978E+03 -0.47488321334E+03  0.20543568447E+04  0.12699999809E+01 0.  1.
</event>
<event>
 5   0  0.6538370E-09  0.4002633E+04  0.7818609E-02  0.8004016E-01
       -2   -1    0    0    0  501  0.00000000000E+00  0.00000000000E+00  0.27046855564E+04  0.27046855564E+04  0.25500000920E-02 0.  1.
        2   -1    0    0  501    0  0.00000000000E+00  0.00000000000E+00 -0.14808626775E+04  0.14808626775E+04  0.25500000920E-02 0. -1.
    10030    2    1    2    0    0  0.00000000000E+00  0.00000000000E+00  0.12238228789E+04  0.41855482338E+04  0.40026330807E+04 0.  0.
        4    1    3    3  502    0  0.15563725425E+04  0.41770957949E+03  0.18529445748E+04  0.24556428881E+04  0.12699999809E+01 0.  1.
       -4    1    3    3    0  502 -0.15563725425E+04 -0.41770957949E+03 -0.62912169587E+03  0.17299053457E+04  0.12699999809E+01 0. -1.
</event>
<event>
 5   0  0.2078125E-09  0.3998043E+04  0.7818609E-02  0.8004941E-01
        1   -1    0    0  501    0  0.00000000000E+00  0.00000000000E+00  0.13356951501E+04  0.13356951501E+04  0.50400001928E-02 0. -1.
       -1   -1    0    0    0  501  0.00000000000E+00  0.00000000000E+00 -0.29917660829E+04  0.29917660829E+04  0.50400001928E-02 0.  1.
    10030    2    1    2    0    0  0.00000000000E+00  0.00000000000E+00 -0.16560709329E+04  0.43274612330E+04  0.39980432450E+04 0.  0.
        5    1    3    3  502    0 -0.92731409865E+03 -0.16286986734E+04 -0.15806654060E+04  0.24517536626E+04  0.46999998093E+01 0.  1.
       -5    1    3    3    0  502  0.92731409865E+03  0.16286986734E+04 -0.75405526903E+02  0.18757075705E+04  0.46999998093E+01 0. -1.
</event>
<event>
 5   0  0.2078125E-09  0.3999990E+04  0.7818609E-02  0.8004549E-01
       -3   -1    0    0    0  501  0.00000000000E+00  0.00000000000E+00  0.20896507545E+04  0.20896507570E+04  0.10100000352E+00 0.  1.
        3   -1    0    0  501    0  0.00000000000E+00  0.00000000000E+00 -0.19141861902E+04  0.19141861928E+04  0.10100000352E+00 0. -1.
    10030    2    1    2    0    0  0.00000000000E+00  0.00000000000E+00  0.17546456438E+03  0.40038369498E+04  0.39999903134E+04 0.  0.
        2    1    3    3  502    0 -0.17758178966E+04 -0.32684051348E+03  0.94857485123E+03  0.20396441286E+04  0.25500000920E-02 0.  1.
       -2    1    3    3    0  502  0.17758178966E+04  0.32684051348E+03 -0.77311028685E+03  0.19641928212E+04  0.25500000920E-02 0. -1.
</event>
<event>
 5   0  0.6547327E-09  0.4000644E+04  0.7818609E-02  0.8004417E-01
       -2   -1    0    0    0  501  0.00000000000E+00  0.00000000000E+00  0.21976825046E+04  0.21976825046E+04  0.25500000920E-02 0. -1.
        2   -1    0    0  501    0  0.00000000000E+00  0.00000000000E+00 -0.18206853843E+04  0.18206853843E+04  0.25500000920E-02 0.  1.
    10030    2    1    2    0    0  0.00000000000E+00  0.00000000000E+00  0.37699712030E+03  0.40183678888E+04  0.40006441558E+04 0.  0.
        5    1    3    3  502    0 -0.11853384402E+04 -0.15555006248E+04  0.61066634567E+03  0.20487910794E+04  0.46999998093E+01 0. -1.
       -5    1    3    3    0  502  0.11853384402E+04  0.15555006248E+04 -0.23366922537E+03  0.19695768094E+04  0.46999998093E+01 0.  1.
</event>
<event>
 5   0  0.6736335E-09  0.4000333E+04  0.7818609E-02  0.8004479E-01
       -2   -1    0    0    0  501  0.00000000000E+00  0.00000000000E+00  0.12961158093E+04  0.12961158093E+04  0.25500000920E-02 0.  1.
        2   -1    0    0  501    0  0.00000000000E+00  0.00000000000E+00 -0.30866584395E+04  0.30866584395E+04  0.25500000920E-02 0. -1.
    10030    2    1    2    0    0  0.00000000000E+00  0.00000000000E+00 -0.17905426303E+04  0.43827742488E+04  0.40003333867E+04 0.  0.
        1    1    3    3  502    0 -0.88714864317E+03  0.35160302092E+03 -0.28211672429E+04  0.29781944214E+04  0.50400001928E-02 0. -1.
       -1    1    3    3    0  502  0.88714864317E+03 -0.35160302092E+03  0.10306246126E+04  0.14045798274E+04  0.50400001928E-02 0.  1.
</event>
<event>
 5   0  0.2078125E-09  0.4006473E+04  0.7818609E-02  0.8003242E-01
       -1   -1    0    0    0  501  0.00000000000E+00  0.00000000000E+00  0.22880505468E+04  0.22880505468E+04  0.50400001928E-02 0.  1.
        1   -1    0    0  501    0  0.00000000000E+00  0.00000000000E+00 -0.17538762046E+04  0.17538762046E+04  0.50400001928E-02 0. -1.
    10030    2    1    2    0    0  0.00000000000E+00  0.00000000000E+00  0.53417434223E+03  0.40419267515E+04  0.40064734663E+04 0.  0.
        2    1    3    3  502    0 -0.73543411661E+03  0.50537130642E+03 -0.15422980409E+04  0.17818380242E+04  0.25500000920E-02 0. -1.
       -2    1    3    3    0  502  0.73543411661E+03 -0.50537130642E+03  0.20764723832E+04  0.22600887273E+04  0.25500000920E-02 0.  1.
</event>
<event>
 5   0  0.6547327E-09  0.3998097E+04  0.7818609E-02  0.8004931E-01
       -2   -1    0    0    0  501  0.00000000000E+00  0.00000000000E+00  0.15527838755E+04  0.15527838755E+04  0.25500000920E-02 0.  1.
        2   -1    0    0  501    0  0.00000000000E+00  0.00000000000E+00 -0.25735675765E+04  0.25735675765E+04  0.25500000920E-02 0. -1.
    10030    2    1    2    0    0  0.00000000000E+00  0.00000000000E+00 -0.10207837010E+04  0.41263514520E+04  0.39980966648E+04 0.  0.
        5    1    3    3  502    0  0.52544045017E+03  0.64348293261E+03  0.13661803654E+04  0.15989461629E+04  0.46999998093E+01 0.  1.
       -5    1    3    3    0  502 -0.52544045017E+03 -0.64348293261E+03 -0.23869640663E+04  0.25274052891E+04  0.46999998093E+01 0. -1.
</event>
<event>
 5   0  0.6736335E-09  0.3994694E+04  0.7818609E-02  0.8005618E-01
       -2   -1    0    0    0  501  0.00000000000E+00  0.00000000000E+00  0.13658527320E+04  0.13658527320E+04  0.25500000920E-02 0. -1.
        2   -1    0    0  501    0  0.00000000000E+00  0.00000000000E+00 -0.29208083992E+04  0.29208083992E+04  0.25500000920E-02 0.  1.
    10030    2    1    2    0    0  0.00000000000E+00  0.00000000000E+00 -0.15549556672E+04  0.42866611313E+04  0.39946935461E+04 0.  0.
        1    1    3    3  502    0 -0.36295779572E+03  0.19613986464E+04 -0.66714718014E+03  0.21033089102E+04  0.50400001928E-02 0. -1.
       -1    1    3    3    0  502  0.36295779572E+03 -0.19613986464E+04 -0.88780848706E+03  0.21833522211E+04  0.50400001928E-02 0.  1.
</event>
<event>
 5   0  0.6736335E-09  0.4000323E+04  0.7818609E-02  0.8004481E-01
        2   -1    0    0  501    0  0.00000000000E+00  0.00000000000E+00  0.21272560926E+04  0.21272560926E+04  0.25500000920E-02 0. -1.
       -2   -1    0    0    0  501  0.00000000000E+00  0.00000000000E+00 -0.18806607365E+04  0.18806607365E+04  0.25500000920E-02 0.  1.
    10030    2    1    2    0    0  0.00000000000E+00  0.00000000000E+00  0.24659535615E+03  0.40079168291E+04  0.40003234918E+04 0.  0.
        1    1    3    3  502    0  0.18261844014E+04  0.72411098883E+03 -0.25339580983E+03  0.19807815701E+04  0.50400001928E-02 0. -1.
       -1    1    3    3    0  502 -0.18261844014E+04 -0.72411098883E+03  0.49999116598E+03  0.20271352590E+04  0.50400001928E-02 0.  1.
</event>
<event>
 5   0  0.6645526E-09  0.4000263E+04  0.7818609E-02  0.8004493E-01
       -2   -1    0    0    0  501  0.00000000000E+00  0.00000000000E+00  0.16223282092E+04  0.16223282092E+04  0.25500000920E-02 0. -1.
        2   -1    0    0  501    0  0.00000000000E+00  0.00000000000E+00 -0.24659168744E+04  0.24659168744E+04  0.25500000920E-02 0.  1.
    10030    2    1    2    0    0  0.00000000000E+00  0.00000000000E+00 -0.84358866520E+03  0.40882450836E+04  0.40002632448E+04 0.  0.
        3    1    3    3  502    0  0.10519180931E+04  0.92437058111E+03  0.10377383025E+04  0.17429553754E+04  0.10100000352E+00 0. -1.
       -3    1    3    3    0  502 -0.10519180931E+04 -0.92437058111E+03 -0.18813269678E+04  0.23452897082E+04  0.10100000352E+00 0.  1.
</event>
<event>
 5   0  0.2078125E-09  0.4000832E+04  0.7818609E-02  0.8004379E-01
        1   -1    0    0  501    0  0.00000000000E+00  0.00000000000E+00  0.13081841498E+04  0.13081841498E+04  0.50400001928E-02 0. -1.
       -1   -1    0    0    0  501  0.00000000000E+00  0.00000000000E+00 -0.30589458076E+04  0.30589458076E+04  0.50400001928E-02 0.  1.
    10030    2    1    2    0    0  0.00000000000E+00  0.00000000000E+00 -0.17507616578E+04  0.43671299575E+04  0.40008321238E+04 0.  0.
        4    1    3    3  502    0  0.10903933393E+04 -0.62743007365E+03  0.82234288029E+03  0.15029556073E+04  0.12699999809E+01 0. -1.
       -4    1    3    3    0  502 -0.10903933393E+04  0.62743007365E+03 -0.25731045381E+04  0.28641743502E+04  0.12699999809E+01 0.  1.
</event>
<event>
 5   0  0.2078125E-09  0.4001129E+04  0.7818609E-02  0.8004319E-01
       -1   -1    0    0    0  501  0.00000000000E+00  0.00000000000E+00  0.15015175416E+04  0.15015175416E+04  0.50400001928E-02 0.  1.
        1   -1    0    0  501    0  0.00000000000E+00  0.00000000000E+00 -0.26654756028E+04  0.26654756028E+04  0.50400001928E-02 0. -1.
    10030    2    1    2    0    0  0.00000000000E+00  0.00000000000E+00 -0.11639580612E+04  0.41669931444E+04  0.40011290279E+04 0.  0.
        4    1    3    3  502    0 -0.12152668054E+04  0.14459994791E+04  0.10448779831E+03  0.18917471329E+04  0.12699999809E+01 0.  1.
       -4    1    3    3    0  502  0.12152668054E+04 -0.14459994791E+04 -0.12684458595E+04  0.22752460116E+04  0.12699999809E+01 0. -1.
</event>
<event>
 5   0  0.2078125E-09  0.3998938E+04  0.7818609E-02  0.8004761E-01
        1   -1    0    0  501    0  0.00000000000E+00  0.00000000000E+00  0.22664630753E+04  0.22664630753E+04  0.50400001928E-02 0. -1.
       -1   -1    0    0    0  501  0.00000000000E+00  0.00000000000E+00 -0.17639277262E+04  0.17639277262E+04  0.50400001928E-02 0.  1.
    10030    2    1    2    0    0  0.00000000000E+00  0.00000000000E+00  0.50253534915E+03  0.40303908015E+04  0.39989383886E+04 0.  0.
        3    1    3    3  502    0  0.15347198824E+04  0.93692986669E+03  0.11326020488E+04  0.21250859050E+04  0.10100000352E+00 0. -1.
       -3    1    3    3    0  502 -0.15347198824E+04 -0.93692986669E+03 -0.63006669962E+03  0.19053048965E+04  0.10100000352E+00 0.  1.
</event>
<event>
 5   0  0.6547327E-09  0.3999777E+04  0.7818609E-02  0.8004592E-01
       -2   -1    0    0    0  501  0.00000000000E+00  0.00000000000E+00  0.19452043702E+04  0.19452043702E+04  0.25500000920E-02 0.  1.
        2   -1    0    0  501    0  0.00000000000E+00  0.00000000000E+00 -0.20561100772E+04  0.20561100772E+04  0.25500000920E-02 0. -1.
    10030    2    1    2    0    0  0.00000000000E+00  0.00000000000E+00 -0.11090570693E+03  0.40013144474E+04  0.39997771477E+04 0.  0.
        5    1    3    3  502    0  0.19949234683E+04  0.14002984308E+03 -0.69748778683E+02  0.20010534684E+04  0.46999998093E+01 0.  1.
       -5    1    3    3    0  502 -0.19949234683E+04 -0.14002984308E+03 -0.41156928251E+02  0.20002609790E+04  0.46999998093E+01 0. -1.
</event>
<event>
 5   0  0.2078125E-09  0.3997897E+04  0.7818609E-02  0.8004971E-01
       -1   -1    0    0    0  501  0.00000000000E+00  0.00000000000E+00  0.16140838211E+04  0.16140838211E+04  0.50400001928E-02 0.  1.
        1   -1    0    0  501    0  0.00000000000E+00  0.00000000000E+00 -0.24755807999E+04  0.24755807999E+04  0.50400001928E-02 0. -1.
    10030    2    1    2    0    0  0.00000000000E+00  0.00000000000E+00 -0.86149697876E+03  0.40896646210E+04  0.39978969056E+04 0.  0.
        3    1    3    3  502    0 -0.15445441215E+04 -0.71957057310E+03 -0.14999172589E+04  0.22700550977E+04  0.10100000352E+00 0. -1.
       -3    1    3    3    0  502  0.15445441215E+04  0.71957057310E+03  0.63842028011E+03  0.18196095233E+04  0.10100000352E+00 0.  1.
</event>
<event>
 5   0  0.6547327E-09  0.4002315E+04  0.7818609E-02  0.8004080E-01
        2   -1    0    0  501    0  0.00000000000E+00  0.00000000000E+00  0.16444303885E+04  0.16444303885E+04  0.25500000920E-02 0. -1.
       -2   -1    0    0    0  501  0.00000000000E+00  0.00000000000E+00 -0.24352691764E+04  0.24352691764E+04  0.25500000920E-02 0.  1.
    10030    2    1    2    0    0  0.00000000000E+00  0.00000000000E+00 -0.79083878785E+03  0.40796995649E+04  0.40023146492E+04 0.  0.
        5    1    3    3  502    0  0.15496921258E+03 -0.18930869580E+04 -0.10375315882E+04  0.21643215043E+04  0.46999998093E+01 0.  1.
       -5    1    3    3    0  502 -0.15496921258E+03  0.18930869580E+04  0.24669280038E+03  0.19153780606E+04  0.46999998093E+01 0. -1.
</event>
<event>
 5   0  0.6736335E-09  0.4001374E+04  0.7818609E-02  0.8004269E-01
       -2   -1    0    0    0  501  0.00000000000E+00  0.00000000000E+00  0.24649214171E+04  0.24649214171E+04  0.25500000920E-02 0.  1.
        2   -1    0    0  501    0  0.00000000000E+00  0.00000000000E+00 -0.16238846501E+04  0.16238846501E+04  0.25500000920E-02 0. -1.
    10030    2    1    2    0    0  0.00000000000E+00  0.00000000000E+00  0.84103676699E+03  0.40888060671E+04  0.40013737905E+04 0.  0.
        1    1    3    3  502    0  0.10581339821E+04 -0.15011161414E+04  0.12314267353E+04  0.22112008047E+04  0.50400001928E-02 0.  1.
       -1    1    3    3    0  502 -0.10581339821E+04  0.15011161414E+04 -0.39038996830E+03  0.18776052624E+04  0.50400001928E-02 0. -1.
</event>
<event>
 5   0  0.6538370E-09  0.3994657E+04  0.7818609E-02  0.8005625E-01
       -2   -1    0    0    0  501  0.00000000000E+00  0.00000000000E+00  0.20564764087E+04  0.20564764087E+04  0.25500000920E-02 0. -1.
        2   -1    0    0  501    0  0.00000000000E+00  0.00000000000E+00 -0.19398815251E+04  0.19398815251E+04  0.25500000920E-02 0.  1.
    10030    2    1    2    0    0  0.00000000000E+00  0.00000000000E+00  0.11659488358E+03  0.39963579338E+04  0.39946567272E+04 0.  0.
        4    1    3    3  502    0  0.73711783985E+03 -0.10171526689E+04 -0.14952246930E+04  0.19528545151E+04  0.12699999809E+01 0.  1.
       -4    1    3    3    0  502 -0.73711783985E+03  0.10171526689E+04  0.16118195766E+04  0.20435034187E+04  0.12699999809E+01 0. -1.
</event>
<event>
 5   0  0.6547327E-09  0.3998544E+04  0.7818609E-02  0.8004840E-01
       -2   -1    0    0    0  501  0.00000000000E+00  0.00000000000E+00  0.25994139696E+04  0.25994139696E+04  0.25500000920E-02 0. -1.
        2   -1    0    0  501    0  0.00000000000E+00  0.00000000000E+00 -0.15376880626E+04  0.15376880626E+04  0.25500000920E-02 0.  1.
    10030    2    1    2    0    0  0.00000000000E+00  0.00000000000E+00  0.10617259070E+04  0.41371020323E+04  0.39985436504E+04 0.  0.
        5    1    3    3  502    0  0.19717063788E+04 -0.79040410376E+02  0.19849583002E+03  0.19832539210E+04  0.46999998093E+01 0. -1.
       -5    1    3    3    0  502 -0.19717063788E+04  0.79040410376E+02  0.86323007700E+03  0.21538481113E+04  0.46999998093E+01 0.  1.
</event>
<event>
 5   0  0.2078125E-09  0.3998944E+04  0.7818609E-02  0.8004760E-01
        1   -1    0    0  501    0  0.00000000000E+00  0.00000000000E+00  0.14413603477E+04  0.14413603477E+04  0.50400001928E-02 0.  1.
       -1   -1    0    0    0  501  0.00000000000E+00  0.00000000000E+00 -0.27736911594E+04  0.27736911594E+04  0.50400001928E-02 0. -1.
    10030    2    1    2    0    0  0.00000000000E+00  0.00000000000E+00 -0.13323308117E+04  0.42150515071E+04  0.39989440876E+04 0.  0.
        4    1    3    3  502    0 -0.96885831664E+03 -0.14628882296E+02  0.11773481144E+04  0.15248116727E+04  0.12699999809E+01 0.  1.
       -4    1    3    3    0  502  0.96885831664E+03  0.14628882296E+02 -0.25096789261E+04  0.26902398344E+04  0.12699999809E+01 0. -1.
</event>
<event>
 5   0  0.6736335E-09  0.3998838E+04  0.7818609E-02  0.8004781E-01
       -2   -1    0    0    0  501  0.00000000000E+00  0.00000000000E+00  0.22188200115E+04  0.22188200115E+04  0.25500000920E-02 0. -1.
        2   -1    0    0  501    0  0.00000000000E+00  0.00000000000E+00 -0.18017127452E+04  0.18017127452E+04  0.25500000920E-02 0.  1.
    10030    2    1    2    0    0  0.00000000000E+00  0.00000000000E+00  0.41710726627E+03  0.40205327568E+04  0.39988379783E+04 0.  0.
        1    1    3    3  502    0  0.83362622292E+03 -0.15799291341E+04 -0.69440981053E+03  0.19165890883E+04  0.50400001928E-02 0.  1.
       -1    1    3    3    0  502 -0.83362622292E+03  0.15799291341E+04  0.11115170768E+04  0.21039436685E+04  0.50400001928E-02 0. -1.
</event>
<event>
 5   0  0.2078125E-09  0.3997509E+04  0.7818609E-02  0.8005049E-01
        1   -1    0    0  501    0  0.00000000000E+00  0.00000000000E+00  0.14099405604E+04  0.14099405604E+04  0.50400001928E-02 0.  1.
       -1   -1    0    0    0  501  0.00000000000E+00  0.00000000000E+00 -0.28334668520E+04  0.28334668520E+04  0.50400001928E-02 0. -1.
    10030    2    1    2    0    0  0.00000000000E+00  0.00000000000E+00 -0.14235262915E+04  0.42434074124E+04  0.39975091451E+04 0.  0.
        1    1    3    3  502    0 -0.19298841296E+04 -0.48959280371E+03 -0.89825731543E+03  0.21842664837E+04  0.50400001928E-02 0.  1.
       -1    1    3    3    0  502  0.19298841296E+04  0.48959280371E+03 -0.52526897610E+03  0.20591409287E+04  0.50400001928E-02 0. -1.
</event>
<event>
 5   0  0.2078125E-09  0.3996014E+04  0.7818609E-02  0.8005351E-01
        1   -1    0    0  501    0  0.00000000000E+00  0.00000000000E+00  0.27976645464E+04  0.27976645464E+04  0.50400001928E-02 0.  1.
       -1   -1    0    0    0  501  0.00000000000E+00  0.00000000000E+00 -0.14269158818E+04  0.14269158818E+04  0.50400001928E-02 0. -1.
    10030    2    1    2    0    0  0.00000000000E+00  0.00000000000E+00  0.13707486646E+04  0.42245804282E+04  0.39960140006E+04 0.  0.
        2    1    3    3  502    0 -0.80404982877E+03  0.95919507933E+03  0.23318506497E+04  0.26465220158E+04  0.25500000920E-02 0.  1.
       -2    1    3    3    0  502  0.80404982877E+03 -0.95919507933E+03 -0.96110198508E+03  0.15780584124E+04  0.25500000920E-02 0. -1.
</event>
<event>
 5   0  0.2078125E-09  0.3999264E+04  0.7818609E-02  0.8004695E-01
       -1   -1    0    0    0  501  0.00000000000E+00  0.00000000000E+00  0.17570674766E+04  0.17570674766E+04  0.50400001928E-02 0. -1.
        1   -1    0    0  501    0  0.00000000000E+00  0.00000000000E+00 -0.22756825974E+04  0.22756825974E+04  0.50400001928E-02 0.  1.
    10030    2    1    2    0    0  0.00000000000E+00  0.00000000000E+00 -0.51861512082E+03  0.40327500739E+04  0.39992638717E+04 0.  0.
        2    1    3    3  502    0  0.86122228847E+03 -0.14219872420E+04  0.86120156100E+03  0.18722766022E+04  0.25500000920E-02 0. -1.
       -2    1    3    3    0  502 -0.86122228847E+03  0.14219872420E+04 -0.13798166818E+04  0.21604734717E+04  0.25500000920E-02 0.  1.
</event>
<event>
 5   0  0.2078125E-09  0.3995070E+04  0.7818609E-02  0.8005542E-01
        1   -1    0    0  501    0  0.00000000000E+00  0.00000000000E+00  0.16004794709E+04  0.16004794709E+04  0.50400001928E-02 0.  1.
       -1   -1    0    0    0  501  0.00000000000E+00  0.00000000000E+00 -0.24930936255E+04  0.24930936255E+04  0.50400001928E-02 0. -1.
    10030    2    1    2    0    0  0.00000000000E+00  0.00000000000E+00 -0.89261415465E+03  0.40935730964E+04  0.39950695447E+04 0.  0.
        1    1    3    3  502    0 -0.17151923229E+03 -0.10115747549E+04 -0.22024623736E+04  0.24297207327E+04  0.50400001928E-02 0. -1.
       -1    1    3    3    0  502  0.17151923229E+03  0.10115747549E+04  0.13098482189E+04  0.16638523638E+04  0.50400001928E-02 0.  1.
</event>
<event>
 5   0  0.2078125E-09  0.4002581E+04  0.7818609E-02  0.8004026E-01
       -1   -1    0    0    0  501  0.00000000000E+00  0.00000000000E+00  0.20836940591E+04  0.20836940591E+04  0.50400001928E-02 0.  1.
        1   -1    0    0  501    0  0.00000000000E+00  0.00000000000E+00 -0.19221459389E+04  0.19221459389E+04  0.50400001928E-02 0. -1.
    10030    2    1    2    0    0  0.00000000000E+00  0.00000000000E+00  0.16154812017E+03  0.40058399980E+04  0.40025812039E+04 0.  0.
        4    1    3    3  502    0  0.72815061029E+01 -0.38959262268E+03 -0.18838134624E+04  0.19236918168E+04  0.12699999809E+01 0. -1.
       -4    1    3    3    0  502 -0.72815061029E+01  0.38959262268E+03  0.20453615826E+04  0.20821481812E+04  0.12699999809E+01 0.  1.
</event>
<event>
 5   0  0.6538370E-09  0.4002204E+04  0.7818609E-02  0.8004102E-01
       -2   -1    0    0    0  501  0.00000000000E+00  0.00000000000E+00  0.24531440959E+04  0.24531440959E+04  0.25500000920E-02 0.  1.
        2   -1    0    0  501    0  0.00000000000E+00  0.00000000000E+00 -0.16323582973E+04  0.16323582973E+04  0.25500000920E-02 0. -1.
    10030    2    1    2    0    0  0.00000000000E+00  0.00000000000E+00  0.82078579858E+03  0.40855023931E+04  0.40022044522E+04 0.  0.
        4    1    3    3  502    0  0.48079988247E+03  0.15027761639E+03  0.23873618614E+04  0.24399283102E+04  0.12699999809E+01 0.  1.
       -4    1    3    3    0  502 -0.48079988247E+03 -0.15027761639E+03 -0.15665760628E+04  0.16455740829E+04  0.12699999809E+01 0. -1.
</event>
<event>
 5   0  0.6599276E-09  0.3997094E+04  0.7818609E-02  0.8005133E-01
        2   -1    0    0  501    0  0.00000000000E+00  0.00000000000E+00  0.30136842116E+04  0.30136842116E+04  0.25500000920E-02 0. -1.
       -2   -1    0    0    0  501  0.00000000000E+00  0.00000000000E+00 -0.13253514588E+04  0.13253514588E+04  0.25500000920E-02 0.  1.
    10030    2    1    2    0    0  0.00000000000E+00  0.00000000000E+00  0.16883327529E+04  0.43390356704E+04  0.39970943277E+04 0.  0.
        2    1    3    3  502    0  0.52194473169E+03 -0.12216643568E+04 -0.77664749782E+03  0.15388539370E+04  0.25500000920E-02 0.  1.
       -2    1    3    3    0  502 -0.52194473169E+03  0.12216643568E+04  0.24649802507E+04  0.28001817334E+04  0.25500000920E-02 0. -1.
</event>
<event>
 5   0  0.2078125E-09  0.4000002E+04  0.7818609E-02  0.8004546E-01
       -1   -1    0    0    0  501  0.00000000000E+00  0.00000000000E+00  0.30509403814E+04  0.30509403814E+04  0.50400001928E-02 0. -1.
        1   -1    0    0  501    0  0.00000000000E+00  0.00000000000E+00 -0.13110726897E+04  0.13110726897E+04  0.50400001928E-02 0.  1.
    10030    2    1    2    0    0  0.00000000000E+00  0.00000000000E+00  0.17398676917E+04  0.43620130710E+04  0.40000023059E+04 0.  0.
        5    1    3    3  502    0  0.15159456517E+04  0.10343840440E+04  0.17368257978E+04  0.25267820467E+04  0.46999998093E+01 0. -1.
       -5    1    3    3    0  502 -0.15159456517E+04 -0.10343840440E+04  0.30418938732E+01  0.18352310243E+04  0.46999998093E+01 0.  1.
</event>
<event>
 5   0  0.6599276E-09  0.4000264E+04  0.7818609E-02  0.8004493E-01
       -2   -1    0    0    0  501  0.00000000000E+00  0.00000000000E+00  0.15343122731E+04  0.15343122731E+04  0.25500000920E-02 0. -1.
        2   -1    0    0  501    0  0.00000000000E+00  0.00000000000E+00 -0.26073748386E+04  0.26073748386E+04  0.25500000920E-02 0.  1.
    10030    2    1    2    0    0  0.00000000000E+00  0.00000000000E+00 -0.10730625655E+04  0.41416871118E+04  0.40002635991E+04 0.  0.
        2    1    3    3  502    0 -0.52218150272E+03  0.27309138309E+03 -0.25154586122E+04  0.25835604222E+04  0.25500000920E-02 0.  1.
       -2    1    3    3    0  502  0.52218150272E+03 -0.27309138309E+03  0.14423960467E+04  0.15581266896E+04  0.25500000920E-02 0. -1.
</event>
<event>
 5   0  0.2078125E-09  0.4000397E+04  0.7818609E-02  0.8004467E-01
       -3   -1    0    0    0  501  0.00000000000E+00  0.00000000000E+00  0.22477131843E+04  0.22477131866E+04  0.10100000352E+00 0.  1.
        3   -1    0    0  501    0  0.00000000000E+00  0.00000000000E+00 -0.17799393467E+04  0.17799393496E+04  0.10100000352E+00 0. -1.
    10030    2    1    2    0    0  0.00000000000E+00  0.00000000000E+00  0.46777383761E+03  0.40276525361E+04  0.40003965539E+04 0.  0.
        5    1    3    3  502    0  0.96329221980E+03 -0.81552999665E+03  0.17961517154E+04  0.21952685828E+04  0.46999998093E+01 0.  1.
       -5    1    3    3    0  502 -0.96329221980E+03  0.81552999665E+03 -0.13283778778E+04  0.18323839533E+04  0.46999998093E+01 0. -1.
</event>
<event>
 5   0  0.6736335E-09  0.4000616E+04  0.7818609E-02  0.8004422E-01
       -2   -1    0    0    0  501  0.00000000000E+00  0.00000000000E+00  0.27258741686E+04  0.27258741686E+04  0.25500000920E-02 0. -1.
        2   -1    0    0  501    0  0.00000000000E+00  0.00000000000E+00 -0.14678713266E+04  0.14678713266E+04  0.25500000920E-02 0.  1.
    10030    2    1    2    0    0  0.00000000000E+00  0.00000000000E+00  0.12580028419E+04  0.41937454952E+04  0.40006162186E+04 0.  0.
        1    1    3    3  502    0  0.37422863012E+03  0.61405394748E+03  0.25856910014E+04  0.26838232566E+04  0.50400001928E-02 0. -1.
       -1    1    3    3    0  502 -0.37422863012E+03 -0.61405394748E+03 -0.13276881594E+04  0.15099222386E+04  0.50400001928E-02 0.  1.
</event>
<event>
 5   0  0.6538370E-09  0.4000295E+04  0.7818609E-02  0.8004487E-01
       -2   -1    0    0    0  501  0.00000000000E+00  0.00000000000E+00  0.18280266518E+04  0.18280266518E+04  0.25500000920E-02 0.  1.
        2   -1    0    0  501    0  0.00000000000E+00  0.00000000000E+00 -0.21884751592E+04  0.21884751592E+04  0.25500000920E-02 0. -1.
    10030    2    1    2    0    0  0.00000000000E+00  0.00000000000E+00 -0.36044850737E+03  0.40165018109E+04  0.40002954479E+04 0.  0.
        4    1    3    3  502    0 -0.14698265493E+04  0.60340799346E+03  0.10396455948E+04  0.18987774665E+04  0.12699999809E+01 0.  1.
       -4    1    3    3    0  502  0.14698265493E+04 -0.60340799346E+03 -0.14000941021E+04  0.21177243445E+04  0.12699999809E+01 0. -1.
</event>
<event>
 5   0  0.2078125E-09  0.3991096E+04  0.7818609E-02  0.8006345E-01
        1   -1    0    0  501    0  0.00000000000E+00  0.00000000000E+00  0.13462697871E+04  0.13462697871E+04  0.50400001928E-02 0. -1.
       -1   -1    0    0    0  501  0.00000000000E+00  0.00000000000E+00 -0.29579600290E+04  0.29579600290E+04  0.50400001928E-02 0.  1.
    10030    2    1    2    0    0  0.00000000000E+00  0.00000000000E+00 -0.16116902419E+04  0.43042298161E+04  0.39910961995E+04 0.  0.
        5    1    3    3  502    0  0.89635106593E+03  0.27328309258E+03  0.10942196095E+04  0.14406483005E+04  0.46999998093E+01 0. -1.
       -5    1    3    3    0  502 -0.89635106593E+03 -0.27328309258E+03 -0.27059098514E+04  0.28635815155E+04  0.46999998093E+01 0.  1.
</event>
<event>
 5   0  0.6538370E-09  0.3995393E+04  0.7818609E-02  0.8005477E-01
        2   -1    0    0  501    0  0.00000000000E+00  0.00000000000E+00  0.15042067564E+04  0.15042067564E+04  0.25500000920E-02 0. -1.
       -2   -1    0    0    0  501  0.00000000000E+00  0.00000000000E+00 -0.26530866114E+04  0.26530866114E+04  0.25500000920E-02 0.  1.
    10030    2    1    2    0    0  0.00000000000E+00  0.00000000000E+00 -0.11488798551E+04  0.41572933678E+04  0.39953927497E+04 0.  0.
        4    1    3    3  502    0 -0.43567565173E+03  0.17986775157E+04 -0.13570722192E+04  0.22949293453E+04  0.12699999809E+01 0.  1.
       -4    1    3    3    0  502  0.43567565173E+03 -0.17986775157E+04  0.20819236409E+03  0.18623640225E+04  0.12699999809E+01 0. -1.
</event>
<event>
 5   0  0.6547327E-09  0.3999961E+04  0.7818609E-02  0.8004554E-01
       -2   -1    0    0    0  501  0.00000000000E+00  0.00000000000E+00  0.15255903602E+04  0.15255903602E+04  0.25500000920E-02 0.  1.
        2   -1    0    0  501    0  0.00000000000E+00  0.00000000000E+00 -0.26218849482E+04  0.26218849482E+04  0.25500000920E-02 0. -1.
    10030    2    1    2    0    0  0.00000000000E+00  0.00000000000E+00 -0.10962945880E+04  0.41474753084E+04  0.39999612010E+04 0.  0.
        5    1    3    3  502    0 -0.11369997147E+04 -0.15351805137E+04 -0.11618821610E+04  0.22359650728E+04  0.46999998093E+01 0. -1.
       -5    1    3    3    0  502  0.11369997147E+04  0.15351805137E+04  0.65587572937E+02  0.19115102356E+04  0.46999998093E+01 0.  1.
</event>
<event>
 5   0  0.6736335E-09  0.4000726E+04  0.7818609E-02  0.8004400E-01
       -2   -1    0    0    0  501  0.00000000000E+00  0.00000000000E+00  0.20515788716E+04  0.20515788716E+04  0.25500000920E-02 0.  1.
        2   -1    0    0  501    0  0.00000000000E+00  0.00000000000E+00 -0.19504255583E+04  0.19504255583E+04  0.25500000920E-02 0. -1.
    10030    2    1    2    0    0  0.00000000000E+00  0.00000000000E+00  0.10115331333E+03  0.40020044299E+04  0.40007258671E+04 0.  0.
        1    1    3    3  502    0  0.18166784748E+04 -0.55445485073E+03 -0.57708781612E+03  0.19851375795E+04  0.50400001928E-02 0.  1.
       -1    1    3    3    0  502 -0.18166784748E+04  0.55445485073E+03  0.67824112945E+03  0.20168668503E+04  0.50400001928E-02 0. -1.
</event>
<event>
 5   0  0.2078125E-09  0.4004920E+04  0.7818609E-02  0.8003555E-01
       -1   -1    0    0    0  501  0.00000000000E+00  0.00000000000E+00  0.18027681979E+04  0.18027681979E+04  0.50400001928E-02 0. -1.
        1   -1    0    0  501    0  0.00000000000E+00  0.00000000000E+00 -0.22242717929E+04  0.22242717929E+04  0.50400001928E-02 0.  1.
    10030    2    1    2    0    0  0.00000000000E+00  0.00000000000E+00 -0.42150359497E+03  0.40270399908E+04  0.40049201998E+04 0.  0.
        4    1    3    3  502    0  0.47100371968E+03 -0.15679999272E+04 -0.13701058499E+04  0.21348676607E+04  0.12699999809E+01 0.  1.
       -4    1    3    3    0  502 -0.47100371968E+03  0.15679999272E+04  0.94860225494E+03  0.18921723301E+04  0.12699999809E+01 0. -1.
</event>
<event>
 5   0  0.6736335E-09  0.4001245E+04  0.7818609E-02  0.8004295E-01
        2   -1    0    0  501    0  0.00000000000E+00  0.00000000000E+00  0.23398625745E+04  0.23398625745E+04  0.25500000920E-02 0. -1.
       -2   -1    0    0    0  501  0.00000000000E+00  0.00000000000E+00 -0.17105665548E+04  0.17105665548E+04  0.25500000920E-02 0.  1.
    10030    2    1    2    0    0  0.00000000000E+00  0.00000000000E+00  0.62929601967E+03  0.40504291292E+04  0.40012451375E+04 0.  0.
        1    1    3    3  502    0 -0.11233728556E+04  0.70345239719E+03  0.18316274658E+04  0.22609004890E+04  0.50400001928E-02 0. -1.
       -1    1    3    3    0  502  0.11233728556E+04 -0.70345239719E+03 -0.12023314461E+04  0.17895286402E+04  0.50400001928E-02 0.  1.
</event>
<event>
 5   0  0.2078125E-09  0.4000208E+04  0.7818609E-02  0.8004505E-01
       -1   -1    0    0    0  501  0.00000000000E+00  0.00000000000E+00  0.20993886001E+04  0.20993886001E+04  0.50400001928E-02 0. -1.
        1   -1    0    0  501    0  0.00000000000E+00  0.00000000000E+00 -0.19055144977E+04  0.19055144977E+04  0.50400001928E-02 0.  1.
    10030    2    1    2    0    0  0.00000000000E+00  0.00000000000E+00  0.19387410242E+03  0.40049030979E+04  0.40002077016E+04 0.  0.
        2    1    3    3  502    0 -0.39071969979E+03 -0.18854533284E+04 -0.44482590023E+03  0.19762252450E+04  0.25500000920E-02 0.  1.
       -2    1    3    3    0  502  0.39071969979E+03  0.18854533284E+04  0.63870000266E+03  0.20286778529E+04  0.25500000920E-02 0. -1.
</event>
<event>
 5   0  0.6645526E-09  0.3995760E+04  0.7818609E-02  0.8005402E-01
        2   -1    0    0  501    0  0.00000000000E+00  0.00000000000E+00  0.20882490999E+04  0.20882490999E+04  0.25500000920E-02 0. -1.
       -2   -1    0    0    0  501  0.00000000000E+00  0.00000000000E+00 -0.19114220764E+04  0.19114220764E+04  0.25500000920E-02 0.  1.
    10030    2    1    2    0    0  0.00000000000E+00  0.00000000000E+00  0.17682702355E+03  0.39996711763E+04  0.39957604686E+04 0.  0.
        3    1    3    3  502    0 -0.16214654567E+04  0.26563239311E+03 -0.10492791079E+04  0.19495377535E+04  0.10100000352E+00 0.  1.
       -3    1    3    3    0  502  0.16214654567E+04 -0.26563239311E+03  0.12261061315E+04  0.20501334229E+04  0.10100000352E+00 0. -1.
</event>
<event>
 5   0  0.2078125E-09  0.4000744E+04  0.7818609E-02  0.8004396E-01
        1   -1    0    0  501    0  0.00000000000E+00  0.00000000000E+00  0.13927252123E+04  0.13927252123E+04  0.50400001928E-02 0. -1.
       -1   -1    0    0    0  501  0.00000000000E+00  0.00000000000E+00 -0.28731354313E+04  0.28731354313E+04  0.50400001928E-02 0.  1.
    10030    2    1    2    0    0  0.00000000000E+00  0.00000000000E+00 -0.14804102189E+04  0.42658606436E+04  0.40007440076E+04 0.  0.
        4    1    3    3  502    0 -0.10257851936E+04  0.15168549295E+04  0.11838959844E+03  0.18349664440E+04  0.12699999809E+01 0. -1.
       -4    1    3    3    0  502  0.10257851936E+04 -0.15168549295E+04 -0.15987998174E+04  0.24308941996E+04  0.12699999809E+01 0.  1.
</event>
<event>
 5   0  0.2078125E-09  0.4000784E+04  0.7818609E-02  0.8004389E-01
        1   -1    0    0  501    0  0.00000000000E+00  0.00000000000E+00  0.18118039308E+04  0.18118039308E+04  0.50400001928E-02 0. -1.
       -1   -1    0    0    0  501  0.00000000000E+00  0.00000000000E+00 -0.22086093961E+04  0.22086093961E+04  0.50400001928E-02 0.  1.
    10030    2    1    2    0    0  0.00000000000E+00  0.00000000000E+00 -0.39680546522E+03  0.40204133269E+04  0.40007835160E+04 0.  0.
        1    1    3    3  502    0 -0.15785000156E+04  0.12165129419E+04 -0.24344491348E+02  0.19930275190E+04  0.50400001928E-02 0. -1.
       -1    1    3    3    0  502  0.15785000156E+04 -0.12165129419E+04 -0.37246097387E+03  0.20273858079E+04  0.50400001928E-02 0.  1.
</event>
<event>
 5   0  0.6736335E-09  0.3999992E+04  0.7818609E-02  0.8004548E-01
       -2   -1    0    0    0  501  0.00000000000E+00  0.00000000000E+00  0.22309082160E+04  0.22309082160E+04  0.25500000920E-02 0. -1.
        2   -1    0    0  501    0  0.00000000000E+00  0.00000000000E+00 -0.17929844740E+04  0.17929844740E+04  0.25500000920E-02 0.  1.
    10030    2    1    2    0    0  0.00000000000E+00  0.00000000000E+00  0.43792374195E+03  0.40238926900E+04  0.39999918971E+04 0.  0.
        1    1    3    3  502    0 -0.19419043630E+04 -0.24858934076E+03 -0.19237569562E+03  0.19671801198E+04  0.50400001928E-02 0.  1.
       -1    1    3    3    0  502  0.19419043630E+04  0.24858934076E+03  0.63029943756E+03  0.20567125702E+04  0.50400001928E-02 0. -1.
</event>
<event>
 5   0  0.6538370E-09  0.3999408E+04  0.7818609E-02  0.8004666E-01
        2   -1    0    0  501    0  0.00000000000E+00  0.00000000000E+00  0.12269744628E+04  0.12269744628E+04  0.25500000920E-02 0.  1.
       -2   -1    0    0    0  501  0.00000000000E+00  0.00000000000E+00 -0.32590870665E+04  0.32590870665E+04  0.25500000920E-02 0. -1.
    10030    2    1    2    0    0  0.00000000000E+00  0.00000000000E+00 -0.20321126037E+04  0.44860615293E+04  0.39994082576E+04 0.  0.
        4    1    3    3  502    0  0.93781842759E+03 -0.12678880335E+03 -0.29920106309E+04  0.31381058032E+04  0.12699999809E+01 0. -1.
       -4    1    3    3    0  502 -0.93781842759E+03  0.12678880335E+03  0.95989802728E+03  0.13479557261E+04  0.12699999809E+01 0.  1.
</event>
<event>
 5   0  0.6736335E-09  0.3999522E+04  0.7818609E-02  0.8004643E-01
       -2   -1    0    0    0  501  0.00000000000E+00  0.00000000000E+00  0.17870985157E+04  0.17870985157E+04  0.25500000920E-02 0.  1.
        2   -1    0    0  501    0  0.00000000000E+00  0.00000000000E+00 -0.22377297805E+04  0.22377297805E+04  0.25500000920E-02 0. -1.
    10030    2    1    2    0    0  0.00000000000E+00  0.00000000000E+00 -0.45063126486E+03  0.40248282962E+04  0.39995217561E+04 0.  0.
        1    1    3    3  502    0 -0.18525176760E+04  0.49801141572E+03 -0.79387409668E+03  0.20760715767E+04  0.50400001928E-02 0.  1.
       -1    1    3    3    0  502  0.18525176760E+04 -0.49801141572E+03  0.34324283182E+03  0.19487567195E+04  0.50400001928E-02 0. -1.
</event>
<event>
 5   0  0.6645526E-09  0.4001720E+04  0.7818609E-02  0.8004200E-01
       -2   -1    0    0    0  501  0.00000000000E+00  0.00000000000E+00  0.29978123469E+04  0.29978123469E+04  0.25500000920E-02 0.  1.
        2   -1    0    0  501    0  0.00000000000E+00  0.00000000000E+00 -0.13354540895E+04  0.13354540895E+04  0.25500000920E-02 0. -1.
    10030    2    1    2    0    0  0.00000000000E+00  0.00000000000E+00  0.16623582574E+04  0.43332664364E+04  0.40017200093E+04 0.  0.
        3    1    3    3  502    0  0.14920035875E+04  0.93539295016E+03 -0.19747576971E+03  0.17720133651E+04  0.10100000352E+00 0.  1.
       -3    1    3    3    0  502 -0.14920035875E+04 -0.93539295016E+03  0.18598340271E+04  0.25612530713E+04  0.10100000352E+00 0. -1.
</event>
<event>
 5   0  0.2078125E-09  0.4001857E+04  0.7818609E-02  0.8004172E-01
       -1   -1    0    0    0  501  0.00000000000E+00  0.00000000000E+00  0.23141727579E+04  0.23141727579E+04  0.50400001928E-02 0. -1.
        1   -1    0    0  501    0  0.00000000000E+00  0.00000000000E+00 -0.17300843079E+04  0.17300843079E+04  0.50400001928E-02 0.  1.
    10030    2    1    2    0    0  0.00000000000E+00  0.00000000000E+00  0.58408844997E+03  0.40442570658E+04  0.40018565562E+04 0.  0.
        1    1    3    3  502    0  0.11626329267E+04  0.10233175363E+04  0.15722812471E+04  0.22070256959E+04  0.50400001928E-02 0. -1.
       -1    1    3    3    0  502 -0.11626329267E+04 -0.10233175363E+04 -0.98819279711E+03  0.18372313699E+04  0.50400001928E-02 0.  1.
</event>
<event>
 5   0  0.2078125E-09  0.4000432E+04  0.7818609E-02  0.8004459E-01
       -1   -1    0    0    0  501  0.00000000000E+00  0.00000000000E+00  0.12190145613E+04  0.12190145613E+04  0.50400001928E-02 0. -1.
        1   -1    0    0  501    0  0.00000000000E+00  0.00000000000E+00 -0.32820482900E+04  0.32820482900E+04  0.50400001928E-02 0.  1.
    10030    2    1    2    0    0  0.00000000000E+00  0.00000000000E+00 -0.20630337287E+04  0.45010628513E+04  0.40004323048E+04 0.  0.
        1    1    3    3  502    0 -0.95009069314E+03  0.19124488094E+03  0.93720168614E+03  0.13481817126E+04  0.50400001928E-02 0. -1.
       -1    1    3    3    0  502  0.95009069314E+03 -0.19124488094E+03 -0.30002354149E+04  0.31528811386E+04  0.50400001928E-02 0.  1.
</event>
<event>
 5   0  0.2078125E-09  0.3999972E+04  0.7818609E-02  0.8004552E-01
       -1   -1    0    0    0  501  0.00000000000E+00  0.00000000000E+00  0.15428115820E+04  0.15428115820E+04  0.50400001928E-02 0. -1.
        1   -1    0    0  501    0  0.00000000000E+00  0.00000000000E+00 -0.25926326961E+04  0.25926326961E+04  0.50400001928E-02 0.  1.
    10030    2    1    2    0    0  0.00000000000E+00  0.00000000000E+00 -0.10498211141E+04  0.41354442781E+04  0.39999718756E+04 0.  0.
        3    1    3    3  502    0  0.12273008791E+04  0.12198593107E+04 -0.15616797664E+04  0.23309156760E+04  0.10100000352E+00 0.  1.
       -3    1    3    3    0  502 -0.12273008791E+04 -0.12198593107E+04  0.51185865222E+03  0.18045286021E+04  0.10100000352E+00 0. -1.
</event>
<event>
 5   0  0.2078125E-09  0.3999391E+04  0.7818609E-02  0.8004669E-01
        1   -1    0    0  501    0  0.00000000000E+00  0.00000000000E+00  0.17820381013E+04  0.17820381013E+04  0.50400001928E-02 0.  1.
       -1   -1    0    0    0  501  0.00000000000E+00  0.00000000000E+00 -0.22439374274E+04  0.22439374274E+04  0.50400001928E-02 0. -1.
    10030    2    1    2    0    0  0.00000000000E+00  0.00000000000E+00 -0.46189932614E+03  0.40259755288E+04  0.39993909500E+04 0.  0.
        5    1    3    3  502    0 -0.15129963272E+04 -0.67073523288E+03  0.89888173467E+03  0.18833624456E+04  0.46999998093E+01 0.  1.
       -5    1    3    3    0  502  0.15129963272E+04  0.67073523288E+03 -0.13607810608E+04  0.21426130831E+04  0.46999998093E+01 0. -1.
</event>
<event>
 5   0  0.2078125E-09  0.4011709E+04  0.7818609E-02  0.8002189E-01
       -1   -1    0    0    0  501  0.00000000000E+00  0.00000000000E+00  0.32887049087E+04  0.32887049087E+04  0.50400001928E-02 0.  1.
        1   -1    0    0  501    0  0.00000000000E+00  0.00000000000E+00 -0.12234151498E+04  0.12234151498E+04  0.50400001928E-02 0. -1.
    10030    2    1    2    0    0  0.00000000000E+00  0.00000000000E+00  0.20652897589E+04  0.45121200585E+04  0.40117085679E+04 0.  0.
        5    1    3    3  502    0 -0.18984479041E+04 -0.37206016619E+03  0.16287517546E+04  0.25289103542E+04  0.46999998093E+01 0.  1.
       -5    1    3    3    0  502  0.18984479041E+04  0.37206016619E+03  0.43653800436E+03  0.19832097042E+04  0.46999998093E+01 0. -1.
</event>
<event>
 5   0  0.6538370E-09  0.4002074E+04  0.7818609E-02  0.8004128E-01
        2   -1    0    0  501    0  0.00000000000E+00  0.00000000000E+00  0.18000647845E+04  0.18000647845E+04  0.25500000920E-02 0.  1.
       -2   -1    0    0    0  501  0.00000000000E+00  0.00000000000E+00 -0.22244471264E+04  0.22244471264E+04  0.25500000920E-02 0. -1.
    10030    2    1    2    0    0  0.00000000000E+00  0.00000000000E+00 -0.42438234190E+03  0.40245119109E+04  0.40020739309E+04 0.  0.
        4    1    3    3  502    0  0.10314587651E+04 -0.12049150033E+04  0.10146570988E+04  0.18828855489E+04  0.12699999809E+01 0.  1.
       -4    1    3    3    0  502 -0.10314587651E+04  0.12049150033E+04 -0.14390394407E+04  0.21416263619E+04  0.12699999809E+01 0. -1.
</event>
<event>
 5   0  0.6736335E-09  0.4004267E+04  0.7818609E-02  0.8003686E-01
       -2   -1    0    0    0  501  0.00000000000E+00  0.00000000000E+00  0.19497807591E+04  0.19497807591E+04  0.25500000920E-02 0. -1.
        2   -1    0    0  501    0  0.00000000000E+00  0.00000000000E+00 -0.20558914583E+04  0.20558914583E+04  0.25500000920E-02 0.  1.
    10030    2    1    2    0    0  0.00000000000E+00  0.00000000000E+00 -0.10611069920E+03  0.40056722175E+04  0.40042665288E+04 0.  0.
        1    1    3    3  502    0  0.30039840749E+03  0.18915229097E+04 -0.63673210100E+03  0.20182977703E+04  0.50400001928E-02 0. -1.
       -1    1    3    3    0  502 -0.30039840749E+03 -0.18915229097E+04  0.53062140180E+03  0.19873744472E+04  0.50400001928E-02 0.  1.
</event>
<event>
 5   0  0.2078125E-09  0.4002814E+04  0.7818609E-02  0.8003979E-01
        1   -1    0    0  501    0  0.00000000000E+00  0.00000000000E+00  0.15202712188E+04  0.15202712188E+04  0.50400001928E-02 0. -1.
       -1   -1    0    0    0  501  0.00000000000E+00  0.00000000000E+00 -0.26348122827E+04  0.26348122827E+04  0.50400001928E-02 0.  1.
    10030    2    1    2    0    0  0.00000000000E+00  0.00000000000E+00 -0.11145410639E+04  0.41550835014E+04  0.40028136505E+04 0.  0.
        2    1    3    3  502    0  0.11272593190E+04 -0.13434825755E+04  0.44376367405E+03  0.18090288006E+04  0.25500000920E-02 0. -1.
       -2    1    3    3    0  502 -0.11272593190E+04  0.13434825755E+04 -0.15583047379E+04  0.23460547008E+04  0.25500000920E-02 0.  1.
</event>
<event>
 5   0  0.6547327E-09  0.3999768E+04  0.7818609E-02  0.8004593E-01
       -2   -1    0    0    0  501  0.00000000000E+00  0.00000000000E+00  0.29860413312E+04  0.29860413312E+04  0.25500000920E-02 0.  1.
        2   -1    0    0  501    0  0.00000000000E+00  0.00000000000E+00 -0.13394110367E+04  0.13394110367E+04  0.25500000920E-02 0. -1.
    10030    2    1    2    0    0  0.00000000000E+00  0.00000000000E+00  0.16466302945E+04  0.43254523680E+04  0.39997683509E+04 0.  0.
        5    1    3    3  502    0  0.12715738460E+04  0.18920401717E+03  0.24799860837E+04  0.27933942205E+04  0.46999998093E+01 0.  1.
       -5    1    3    3    0  502 -0.12715738460E+04 -0.18920401717E+03 -0.83335578918E+03  0.15320581475E+04  0.46999998093E+01 0. -1.
</event>
<event>
 5   0  0.2078125E-09  0.4002419E+04  0.7818609E-02  0.8004059E-01
        1   -1    0    0  501    0  0.00000000000E+00  0.00000000000E+00  0.24521706667E+04  0.24521706667E+04  0.50400001928E-02 0. -1.
       -1   -1    0    0    0  501  0.00000000000E+00  0.00000000000E+00 -0.16331811268E+04  0.16331811268E+04  0.50400001928E-02 0.  1.
    10030    2    1    2    0    0  0.00000000000E+00  0.00000000000E+00  0.81898953987E+03  0.40853517936E+04  0.40024186951E+04 0.  0.
        2    1    3    3  502    0 -0.29792875627E+03  0.16295531176E+04  0.15555391617E+04  0.22724231539E+04  0.25500000920E-02 0. -1.
       -2    1    3    3    0  502  0.29792875627E+03 -0.16295531176E+04 -0.73654962180E+03  0.18129286396E+04  0.25500000920E-02 0.  1.
</event>
<event>
 5   0  0.6599276E-09  0.3998606E+04  0.7818609E-02  0.8004828E-01
        2   -1    0    0  501    0  0.00000000000E+00  0.00000000000E+00  0.17279375641E+04  0.17279375641E+04  0.25500000920E-02 0.  1.
       -2   -1    0    0    0  501  0.00000000000E+00  0.00000000000E+00 -0.23132850567E+04  0.23132850567E+04  0.25500000920E-02 0. -1.
    10030    2    1    2    0    0  0.00000000000E+00  0.00000000000E+00 -0.58534749260E+03  0.40412226208E+04  0.39986058300E+04 0.  0.
        2    1    3    3  502    0 -0.21454203578E+02  0.12648087659E+03 -0.23091210414E+04  0.23126819234E+04  0.25500000920E-02 0. -1.
       -2    1    3    3    0  502  0.21454203578E+02 -0.12648087659E+03  0.17237735488E+04  0.17285406974E+04  0.25500000920E-02 0.  1.
</event>
<event>
 5   0  0.6645526E-09  0.4003435E+04  0.7818609E-02  0.8003854E-01
       -2   -1    0    0    0  501  0.00000000000E+00  0.00000000000E+00  0.15981036625E+04  0.15981036625E+04  0.25500000920E-02 0.  1.
        2   -1    0    0  501    0  0.00000000000E+00  0.00000000000E+00 -0.25072674312E+04  0.25072674312E+04  0.25500000920E-02 0. -1.
    10030    2    1    2    0    0  0.00000000000E+00  0.00000000000E+00 -0.90916376869E+03  0.41053710937E+04  0.40034351573E+04 0.  0.
        3    1    3    3  502    0 -0.53800202214E+03  0.18249055824E+04  0.18347206144E+03  0.19113839405E+04  0.10100000352E+00 0.  1.
       -3    1    3    3    0  502  0.53800202214E+03 -0.18249055824E+04 -0.10926358301E+04  0.21939871531E+04  0.10100000352E+00 0. -1.
</event>
<event>
 5   0  0.6736335E-09  0.3998865E+04  0.7818609E-02  0.8004776E-01
        2   -1    0    0  501    0  0.00000000000E+00  0.00000000000E+00  0.22298734402E+04  0.22298734402E+04  0.25500000920E-02 0.  1.
       -2   -1    0    0    0  501  0.00000000000E+00  0.00000000000E+00 -0.17928058353E+04  0.17928058353E+04  0.25500000920E-02 0. -1.
    10030    2    1    2    0    0  0.00000000000E+00  0.00000000000E+00  0.43706760491E+03  0.40226792755E+04  0.39988648968E+04 0.  0.
        1    1    3    3  502    0 -0.18568531727E+04 -0.69939206680E+03 -0.29260464604E+02  0.19844165749E+04  0.50400001928E-02 0.  1.
       -1    1    3    3    0  502  0.18568531727E+04  0.69939206680E+03  0.46632806952E+03  0.20382627006E+04  0.50400001928E-02 0. -1.
</event>
<event>
 5   0  0.6538370E-09  0.3998526E+04  0.7818609E-02  0.8004844E-01
        2   -1    0    0  501    0  0.00000000000E+00  0.00000000000E+00  0.18968679232E+04  0.18968679232E+04  0.25500000920E-02 0. -1.
       -2   -1    0    0    0  501  0.00000000000E+00  0.00000000000E+00 -0.21071855214E+04  0.21071855214E+04  0.25500000920E-02 0.  1.
    10030    2    1    2    0    0  0.00000000000E+00  0.00000000000E+00 -0.21031759816E+03  0.40040534445E+04  0.39985260403E+04 0.  0.
        4    1    3    3  502    0  0.18434630122E+04 -0.60576946311E+03  0.37689890089E+03  0.19767060768E+04  0.12699999809E+01 0. -1.
       -4    1    3    3    0  502 -0.18434630122E+04  0.60576946311E+03 -0.58721649905E+03  0.20273473677E+04  0.12699999809E+01 0.  1.
</event>
<event>
 5   0  0.2078125E-09  0.3978525E+04  0.7818609E-02  0.8008893E-01
        1   -1    0    0  501    0  0.00000000000E+00  0.00000000000E+00  0.28182608643E+04  0.28182608643E+04  0.50400001928E-02 0.  1.
       -1   -1    0    0    0  501  0.00000000000E+00  0.00000000000E+00 -0.14041159663E+04  0.14041159663E+04  0.50400001928E-02 0. -1.
    10030    2    1    2    0    0  0.00000000000E+00  0.00000000000E+00  0.14141448980E+04  0.42223768307E+04  0.39785248909E+04 0.  0.
        5    1    3    3  502    0 -0.50006472718E+03 -0.10714010994E+04  0.24048670650E+04  0.26798083397E+04  0.46999998093E+01 0.  1.
       -5    1    3    3    0  502  0.50006472718E+03  0.10714010994E+04 -0.99072216695E+03  0.15425684910E+04  0.46999998093E+01 0. -1.
</event>
<event>
 5   0  0.2078125E-09  0.3999946E+04  0.7818609E-02  0.8004557E-01
        1   -1    0    0  501    0  0.00000000000E+00  0.00000000000E+00  0.19609571630E+04  0.19609571630E+04  0.50400001928E-02 0. -1.
       -1   -1    0    0    0  501  0.00000000000E+00  0.00000000000E+00 -0.20397650250E+04  0.20397650250E+04  0.50400001928E-02 0.  1.
    10030    2    1    2    0    0  0.00000000000E+00  0.00000000000E+00 -0.78807861978E+02  0.40007221879E+04  0.39999459179E+04 0.  0.
        4    1    3    3  502    0  0.94096291090E+03  0.18022216013E+03 -0.17953069354E+04  0.20349495895E+04  0.12699999809E+01 0.  1.
       -4    1    3    3    0  502 -0.94096291090E+03 -0.18022216013E+03  0.17164990734E+04  0.19657725984E+04  0.12699999809E+01 0. -1.
</event>
<event>
 5   0  0.6645526E-09  0.3999954E+04  0.7818609E-02  0.8004556E-01
       -2   -1    0    0    0  501  0.00000000000E+00  0.00000000000E+00  0.22981613192E+04  0.22981613192E+04  0.25500000920E-02 0.  1.
        2   -1    0    0  501    0  0.00000000000E+00  0.00000000000E+00 -0.17404818413E+04  0.17404818413E+04  0.25500000920E-02 0. -1.
    10030    2    1    2    0    0  0.00000000000E+00  0.00000000000E+00  0.55767947788E+03  0.40386431604E+04  0.39999540219E+04 0.  0.
        3    1    3    3  502    0 -0.15569716445E+04 -0.55946552073E+03  0.14134283656E+04  0.21759922163E+04  0.10100000352E+00 0.  1.
       -3    1    3    3    0  502  0.15569716445E+04  0.55946552073E+03 -0.85574888776E+03  0.18626509441E+04  0.10100000352E+00 0. -1.
</event>
<event>
 5   0  0.6599276E-09  0.4000445E+04  0.7818609E-02  0.8004457E-01
       -2   -1    0    0    0  501  0.00000000000E+00  0.00000000000E+00  0.29950238321E+04  0.29950238321E+04  0.25500000920E-02 0.  1.
        2   -1    0    0  501    0  0.00000000000E+00  0.00000000000E+00 -0.13358460125E+04  0.13358460125E+04  0.25500000920E-02 0. -1.
    10030    2    1    2    0    0  0.00000000000E+00  0.00000000000E+00  0.16591778196E+04  0.43308698446E+04  0.40004452969E+04 0.  0.
        2    1    3    3  502    0  0.10745684543E+04  0.10258768621E+04  0.22795293650E+04  0.27209143362E+04  0.25500000920E-02 0.  1.
       -2    1    3    3    0  502 -0.10745684543E+04 -0.10258768621E+04 -0.62035154538E+03  0.16099555084E+04  0.25500000920E-02 0. -1.
</event>
<event>
 5   0  0.6547327E-09  0.4001818E+04  0.7818609E-02  0.8004180E-01
       -2   -1    0    0    0  501  0.00000000000E+00  0.00000000000E+00  0.17594204378E+04  0.17594204378E+04  0.25500000920E-02 0.  1.
        2   -1    0    0  501    0  0.00000000000E+00  0.00000000000E+00 -0.22755432872E+04  0.22755432872E+04  0.25500000920E-02 0. -1.
    10030    2    1    2    0    0  0.00000000000E+00  0.00000000000E+00 -0.51612284938E+03  0.40349637249E+04  0.40018182700E+04 0.  0.
        5    1    3    3  502    0 -0.15777836381E+03  0.11986569094E+04 -0.18656139260E+04  0.22231081417E+04  0.46999998093E+01 0. -1.
       -5    1    3    3    0  502  0.15777836381E+03 -0.11986569094E+04  0.13494910767E+04  0.18118555833E+04  0.46999998093E+01 0.  1.
</event>
<event>
 5   0  0.2078125E-09  0.4000304E+04  0.7818609E-02  0.8004485E-01
       -1   -1    0    0    0  501  0.00000000000E+00  0.00000000000E+00  0.15694517123E+04  0.15694517123E+04  0.50400001928E-02 0. -1.
        1   -1    0    0  501    0  0.00000000000E+00  0.00000000000E+00 -0.25490485230E+04  0.25490485231E+04  0.50400001928E-02 0.  1.
    10030    2    1    2    0    0  0.00000000000E+00  0.00000000000E+00 -0.97959681079E+03  0.41185002353E+04  0.40003042730E+04 0.  0.
        4    1    3    3  502    0  0.11996653011E+03  0.14463166224E+03  0.15603434476E+04  0.15716181385E+04  0.12699999809E+01 0. -1.
       -4    1    3    3    0  502 -0.11996653011E+03 -0.14463166224E+03 -0.25399402584E+04  0.25468820968E+04  0.12699999809E+01 0.  1.
</event>
<event>
 5   0  0.2078125E-09  0.4001944E+04  0.7818609E-02  0.8004155E-01
       -1   -1    0    0    0  501  0.00000000000E+00  0.00000000000E+00  0.18030177145E+04  0.18030177145E+04  0.50400001928E-02 0. -1.
        1   -1    0    0  501    0  0.00000000000E+00  0.00000000000E+00 -0.22206595309E+04  0.22206595309E+04  0.50400001928E-02 0.  1.
    10030    2    1    2    0    0  0.00000000000E+00  0.00000000000E+00 -0.41764181639E+03  0.40236772454E+04  0.40019437638E+04 0.  0.
        3    1    3    3  502    0 -0.11916628933E+04 -0.41501408548E+03  0.13525425516E+04  0.18497752584E+04  0.10100000352E+00 0. -1.
       -3    1    3    3    0  502  0.11916628933E+04  0.41501408548E+03 -0.17701843680E+04  0.21739019870E+04  0.10100000352E+00 0.  1.
</event>
<event>
 5   0  0.6599276E-09  0.4002820E+04  0.7818609E-02  0.8003978E-01
        2   -1    0    0  501    0  0.00000000000E+00  0.00000000000E+00  0.15483012931E+04  0.15483012931E+04  0.25500000920E-02 0.  1.
       -2   -1    0    0    0  501  0.00000000000E+00  0.00000000000E+00 -0.25871200769E+04  0.25871200769E+04  0.25500000920E-02 0. -1.
    10030    2    1    2    0    0  0.00000000000E+00  0.00000000000E+00 -0.10388187837E+04  0.41354213700E+04  0.40028196864E+04 0.  0.
        2    1    3    3  502    0 -0.17471012626E+04 -0.32076462277E+03  0.43330440431E+03  0.18283887639E+04  0.25500000920E-02 0.  1.
       -2    1    3    3    0  502  0.17471012626E+04  0.32076462277E+03 -0.14721231880E+04  0.23070326061E+04  0.25500000920E-02 0. -1.
</event>
<event>
 5   0  0.2078125E-09  0.4000059E+04  0.7818609E-02  0.8004535E-01
       -1   -1    0    0    0  501  0.00000000000E+00  0.00000000000E+00  0.23542573108E+04  0.23542573108E+04  0.50400001928E-02 0.  1.
        1   -1    0    0  501    0  0.00000000000E+00  0.00000000000E+00 -0.16990996677E+04  0.16990996677E+04  0.50400001928E-02 0. -1.
    10030    2    1    2    0    0  0.00000000000E+00  0.00000000000E+00  0.65515764316E+03  0.40533569785E+04  0.40000589068E+04 0.  0.
        4    1    3    3  502    0  0.98992618931E+03  0.16515668680E+04  0.87560764448E+03  0.21152582206E+04  0.12699999809E+01 0.  1.
       -4    1    3    3    0  502 -0.98992618931E+03 -0.16515668680E+04 -0.22045000131E+03  0.19380987580E+04  0.12699999809E+01 0. -1.
</event>
<event>
 5   0  0.6538370E-09  0.3998929E+04  0.7818609E-02  0.8004763E-01
        2   -1    0    0  501    0  0.00000000000E+00  0.00000000000E+00  0.15841944207E+04  0.15841944207E+04  0.25500000920E-02 0.  1.
       -2   -1    0    0    0  501  0.00000000000E+00  0.00000000000E+00 -0.25235912362E+04  0.25235912362E+04  0.25500000920E-02 0. -1.
    10030    2    1    2    0    0  0.00000000000E+00  0.00000000000E+00 -0.93939681548E+03  0.41077856569E+04  0.39989294350E+04 0.  0.
        4    1    3    3  502    0 -0.11708495946E+04 -0.82779803808E+03 -0.19010859846E+04  0.23812324327E+04  0.12699999809E+01 0. -1.
       -4    1    3    3    0  502  0.11708495946E+04  0.82779803808E+03  0.96168916908E+03  0.17265532241E+04  0.12699999809E+01 0.  1.
</event>
<event>
 5   0  0.2078125E-09  0.4000443E+04  0.7818609E-02  0.8004457E-01
        1   -1    0    0  501    0  0.00000000000E+00  0.00000000000E+00  0.30609418161E+04  0.30609418161E+04  0.50400001928E-02 0. -1.
       -1   -1    0    0    0  501  0.00000000000E+00  0.00000000000E+00 -0.13070764873E+04  0.13070764873E+04  0.50400001928E-02 0.  1.
    10030    2    1    2    0    0  0.00000000000E+00  0.00000000000E+00  0.17538653288E+04  0.43680183035E+04  0.40004425140E+04 0.  0.
        5    1    3    3  502    0 -0.68633574028E+03  0.33236990337E+03 -0.11421185524E+04  0.13733111005E+04  0.46999998093E+01 0.  1.
       -5    1    3    3    0  502  0.68633574028E+03 -0.33236990337E+03  0.28959838812E+04  0.29947072030E+04  0.46999998093E+01 0. -1.
</event>
<event>
 5   0  0.6645526E-09  0.4001121E+04  0.7818609E-02  0.8004320E-01
        2   -1    0    0  501    0  0.00000000000E+00  0.00000000000E+00  0.22274029681E+04  0.22274029681E+04  0.25500000920E-02 0. -1.
       -2   -1    0    0    0  501  0.00000000000E+00  0.00000000000E+00 -0.17968203455E+04  0.17968203455E+04  0.25500000920E-02 0.  1.
    10030    2    1    2    0    0  0.00000000000E+00  0.00000000000E+00  0.43058262258E+03  0.40242233135E+04  0.40011213281E+04 0.  0.
        3    1    3    3  502    0 -0.18975860697E+04 -0.60260759218E+03  0.18523898224E+02  0.19910579969E+04  0.10100000352E+00 0. -1.
       -3    1    3    3    0  502  0.18975860697E+04  0.60260759218E+03  0.41205872436E+03  0.20331653166E+04  0.10100000352E+00 0.  1.
</event>
<event>
 5   0  0.6736335E-09  0.4003490E+04  0.7818609E-02  0.8003843E-01
       -2   -1    0    0    0  501  0.00000000000E+00  0.00000000000E+00  0.18455310710E+04  0.18455310710E+04  0.25500000920E-02 0. -1.
        2   -1    0    0  501    0  0.00000000000E+00  0.00000000000E+00 -0.21711815184E+04  0.21711815184E+04  0.25500000920E-02 0.  1.
    10030    2    1    2    0    0  0.00000000000E+00  0.00000000000E+00 -0.32565044734E+03  0.40167125894E+04  0.40034899540E+04 0.  0.
        1    1    3    3  502    0 -0.61864380684E+03  0.10817266218E+03  0.17441262300E+04  0.18537523542E+04  0.50400001928E-02 0. -1.
       -1    1    3    3    0  502  0.61864380684E+03 -0.10817266218E+03 -0.20697766774E+04  0.21629602351E+04  0.50400001928E-02 0.  1.
</event>
<event>
 5   0  0.2078125E-09  0.3998790E+04  0.7818609E-02  0.8004791E-01
        1   -1    0    0  501    0  0.00000000000E+00  0.00000000000E+00  0.26128178510E+04  0.26128178510E+04  0.50400001928E-02 0. -1.
       -1   -1    0    0    0  501  0.00000000000E+00  0.00000000000E+00 -0.15299881058E+04  0.15299881058E+04  0.50400001928E-02 0.  1.
    10030    2    1    2    0    0  0.00000000000E+00  0.00000000000E+00  0.10828297452E+04  0.41428059569E+04  0.39987899344E+04 0.  0.
        3    1    3    3  502    0  0.17581382893E+04  0.86750334119E+03  0.13489559809E+03  0.19651486264E+04  0.10100000352E+00 0.  1.
       -3    1    3    3    0  502 -0.17581382893E+04 -0.86750334119E+03  0.94793414711E+03  0.21776573304E+04  0.10100000352E+00 0. -1.
</event>
<event>
 5   0  0.2078125E-09  0.3998124E+04  0.7818609E-02  0.8004925E-01
       -1   -1    0    0    0  501  0.00000000000E+00  0.00000000000E+00  0.13158764194E+04  0.13158764194E+04  0.50400001928E-02 0. -1.
        1   -1    0    0  501    0  0.00000000000E+00  0.00000000000E+00 -0.30369478575E+04  0.30369478575E+04  0.50400001928E-02 0.  1.
    10030    2    1    2    0    0  0.00000000000E+00  0.00000000000E+00 -0.17210714381E+04  0.43528242769E+04  0.39981235962E+04 0.  0.
        4    1    3    3  502    0  0.17734398912E+03  0.19051545311E+04 -0.14908470613E+04  0.24256321343E+04  0.12699999809E+01 0.  1.
       -4    1    3    3    0  502 -0.17734398912E+03 -0.19051545311E+04 -0.23022437676E+03  0.19271921426E+04  0.12699999809E+01 0. -1.
</event>
<event>
 5   0  0.2078125E-09  0.3999916E+04  0.7818609E-02  0.8004564E-01
       -1   -1    0    0    0  501  0.00000000000E+00  0.00000000000E+00  0.14538464337E+04  0.14538464337E+04  0.50400001928E-02 0. -1.
        1   -1    0    0  501    0  0.00000000000E+00  0.00000000000E+00 -0.27512065751E+04  0.27512065751E+04  0.50400001928E-02 0.  1.
    10030    2    1    2    0    0  0.00000000000E+00  0.00000000000E+00 -0.12973601414E+04  0.42050530087E+04  0.39999159328E+04 0.  0.
        4    1    3    3  502    0  0.17593011570E+04 -0.11167615332E+03 -0.16416958123E+04  0.24088957797E+04  0.12699999809E+01 0.  1.
       -4    1    3    3    0  502 -0.17593011570E+04  0.11167615332E+03  0.34433567091E+03  0.17961572291E+04  0.12699999809E+01 0. -1.
</event>
<event>
 5   0  0.2078125E-09  0.4005402E+04  0.7818609E-02  0.8003458E-01
        1   -1    0    0  501    0  0.00000000000E+00  0.00000000000E+00  0.19198824248E+04  0.19198824248E+04  0.50400001928E-02 0.  1.
       -1   -1    0    0    0  501  0.00000000000E+00  0.00000000000E+00 -0.20890922874E+04  0.20890922875E+04  0.50400001928E-02 0. -1.
    10030    2    1    2    0    0  0.00000000000E+00  0.00000000000E+00 -0.16920986264E+03  0.40089747123E+04  0.40054021354E+04 0.  0.
        4    1    3    3  502    0  0.94201203965E+03 -0.70590953293E+03  0.15370608723E+04  0.19360404669E+04  0.12699999809E+01 0.  1.
       -4    1    3    3    0  502 -0.94201203965E+03  0.70590953293E+03 -0.17062707350E+04  0.20729342453E+04  0.12699999809E+01 0. -1.
</event>
<event>
 5   0  0.2078125E-09  0.4000445E+04  0.7818609E-02  0.8004457E-01
        1   -1    0    0  501    0  0.00000000000E+00  0.00000000000E+00  0.16579292548E+04  0.16579292549E+04  0.50400001928E-02 0.  1.
       -1   -1    0    0    0  501  0.00000000000E+00  0.00000000000E+00 -0.24131853593E+04  0.24131853593E+04  0.50400001928E-02 0. -1.
    10030    2    1    2    0    0  0.00000000000E+00  0.00000000000E+00 -0.75525610446E+03  0.40711146142E+04  0.40004452775E+04 0.  0.
        3    1    3    3  502    0 -0.17439007421E+03  0.12863495964E+04  0.11710244003E+04  0.17482578009E+04  0.10100000352E+00 0.  1.
       -3    1    3    3    0  502  0.17439007421E+03 -0.12863495964E+04 -0.19262805047E+04  0.23228568133E+04  0.10100000352E+00 0. -1.
</event>
<event>
 5   0  0.6547327E-09  0.4000711E+04  0.7818609E-02  0.8004403E-01
        2   -1    0    0  501    0  0.00000000000E+00  0.00000000000E+00  0.25763249762E+04  0.25763249762E+04  0.25500000920E-02 0.  1.
       -2   -1    0    0    0  501  0.00000000000E+00  0.00000000000E+00 -0.15531512584E+04  0.15531512584E+04  0.25500000920E-02 0. -1.
    10030    2    1    2    0    0  0.00000000000E+00  0.00000000000E+00  0.10231737178E+04  0.41294762346E+04  0.40007111262E+04 0.  0.
        5    1    3    3  502    0 -0.30816803333E+03  0.15485786351E+04  0.17792590519E+04  0.23788333674E+04  0.46999998093E+01 0.  1.
       -5    1    3    3    0  502  0.30816803333E+03 -0.15485786351E+04 -0.75608533419E+03  0.17506428672E+04  0.46999998093E+01 0. -1.
</event>
<event>
 5   0  0.6599276E-09  0.3999986E+04  0.7818609E-02  0.8004549E-01
       -2   -1    0    0    0  501  0.00000000000E+00  0.00000000000E+00  0.15996255173E+04  0.15996255173E+04  0.25500000920E-02 0.  1.
        2   -1    0    0  501    0  0.00000000000E+00  0.00000000000E+00 -0.25005681633E+04  0.25005681633E+04  0.25500000920E-02 0. -1.
    10030    2    1    2    0    0  0.00000000000E+00  0.00000000000E+00 -0.90094264593E+03  0.41001936806E+04  0.39999863209E+04 0.  0.
        2    1    3    3  502    0 -0.55718103820E+03  0.11447181772E+04  0.11306167715E+04  0.17026816199E+04  0.25500000920E-02 0.  1.
       -2    1    3    3    0  502  0.55718103820E+03 -0.11447181772E+04 -0.20315594175E+04  0.23975120607E+04  0.25500000920E-02 0. -1.
</event>
<event>
 5   0  0.2078125E-09  0.3999990E+04  0.7818609E-02  0.8004549E-01
       -1   -1    0    0    0  501  0.00000000000E+00  0.00000000000E+00  0.26270730412E+04  0.26270730412E+04  0.50400001928E-02 0. -1.
        1   -1    0    0  501    0  0.00000000000E+00  0.00000000000E+00 -0.15225992231E+04  0.15225992231E+04  0.50400001928E-02 0.  1.
    10030    2    1    2    0    0  0.00000000000E+00  0.00000000000E+00  0.11044738181E+04  0.41496722642E+04  0.39999896857E+04 0.  0.
        2    1    3    3  502    0 -0.44001875775E+02  0.19775438132E+04  0.24560286602E+03  0.19932226333E+04  0.25500000920E-02 0.  1.
       -2    1    3    3    0  502  0.44001875775E+02 -0.19775438132E+04  0.85887095208E+03  0.21564496309E+04  0.25500000920E-02 0. -1.
</event>
<event>
 5   0  0.2078125E-09  0.3999209E+04  0.7818609E-02  0.8004706E-01
       -1   -1    0    0    0  501  0.00000000000E+00  0.00000000000E+00  0.19585711114E+04  0.19585711114E+04  0.50400001928E-02 0.  1.
        1   -1    0    0  501    0  0.00000000000E+00  0.00000000000E+00 -0.20414973832E+04  0.20414973832E+04  0.50400001928E-02 0. -1.
    10030    2    1    2    0    0  0.00000000000E+00  0.00000000000E+00 -0.82926271823E+02  0.40000684945E+04  0.39992088211E+04 0.  0.
        1    1    3    3  502    0 -0.16394404639E+04 -0.10910913703E+04  0.30527027138E+03  0.19928460432E+04  0.50400001928E-02 0.  1.
       -1    1    3    3    0  502  0.16394404639E+04  0.10910913703E+04 -0.38819654320E+03  0.20072224514E+04  0.50400001928E-02 0. -1.
</event>
<event>
 5   0  0.2078125E-09  0.4000333E+04  0.7818609E-02  0.8004479E-01
        1   -1    0    0  501    0  0.00000000000E+00  0.00000000000E+00  0.25922567925E+04  0.25922567925E+04  0.50400001928E-02 0.  1.
       -1   -1    0    0    0  501  0.00000000000E+00  0.00000000000E+00 -0.15433135862E+04  0.15433135862E+04  0.50400001928E-02 0. -1.
    10030    2    1    2    0    0  0.00000000000E+00  0.00000000000E+00  0.10489432062E+04  0.41355703787E+04  0.40003325496E+04 0.  0.
        3    1    3    3  502    0 -0.19555738965E+04 -0.10381665470E+03  0.94519147745E+03  0.21744962869E+04  0.10100000352E+00 0.  1.
       -3    1    3    3    0  502  0.19555738965E+04  0.10381665470E+03  0.10375172877E+03  0.19610740918E+04  0.10100000352E+00 0. -1.
</event>
<event>
 5   0  0.2078125E-09  0.3999798E+04  0.7818609E-02  0.8004587E-01
        1   -1    0    0  501    0  0.00000000000E+00  0.00000000000E+00  0.29709447494E+04  0.29709447494E+04  0.50400001928E-02 0. -1.
       -1   -1    0    0    0  501  0.00000000000E+00  0.00000000000E+00 -0.13462369871E+04  0.13462369871E+04  0.50400001928E-02 0.  1.
    10030    2    1    2    0    0  0.00000000000E+00  0.00000000000E+00  0.16247077622E+04  0.43171817365E+04  0.39997978491E+04 0.  0.
        1    1    3    3  502    0 -0.85865209483E+03  0.63430454610E+03 -0.10129830039E+04  0.14716522155E+04  0.50400001928E-02 0.  1.
       -1    1    3    3    0  502  0.85865209483E+03 -0.63430454610E+03  0.26376907661E+04  0.28455295210E+04  0.50400001928E-02 0. -1.
</event>
<event>
 5   0  0.2078125E-09  0.4000849E+04  0.7818609E-02  0.8004375E-01
       -1   -1    0    0    0  501  0.00000000000E+00  0.00000000000E+00  0.28322319918E+04  0.28322319918E+04  0.50400001928E-02 0.  1.
        1   -1    0    0  501    0  0.00000000000E+00  0.00000000000E+00 -0.14129134160E+04  0.14129134160E+04  0.50400001928E-02 0. -1.
    10030    2    1    2    0    0  0.00000000000E+00  0.00000000000E+00  0.14193185758E+04  0.42451454079E+04  0.40008491992E+04 0.  0.
        4    1    3    3  502    0 -0.54438105787E+03  0.81711266851E+03 -0.11396557759E+04  0.15042741604E+04  0.12699999809E+01 0. -1.
       -4    1    3    3    0  502  0.54438105787E+03 -0.81711266851E+03  0.25589743517E+04  0.27408712474E+04  0.12699999809E+01 0.  1.
</event>
<event>
 5   0  0.2078125E-09  0.4000252E+04  0.7818609E-02  0.8004496E-01
       -1   -1    0    0    0  501  0.00000000000E+00  0.00000000000E+00  0.16340349480E+04  0.16340349480E+04  0.50400001928E-02 0.  1.
        1   -1    0    0  501    0  0.00000000000E+00  0.00000000000E+00 -0.24482368235E+04  0.24482368235E+04  0.50400001928E-02 0. -1.
    10030    2    1    2    0    0  0.00000000000E+00  0.00000000000E+00 -0.81420187555E+03  0.40822717716E+04  0.40002522574E+04 0.  0.
        4    1    3    3  502    0 -0.19294968845E+04 -0.43006970896E+03 -0.96584760665E+02  0.19792039841E+04  0.12699999809E+01 0.  1.
       -4    1    3    3    0  502  0.19294968845E+04  0.43006970896E+03 -0.71761711488E+03  0.21030677874E+04  0.12699999809E+01 0. -1.
</event>
<event>
 5   0  0.2078125E-09  0.3996283E+04  0.7818609E-02  0.8005297E-01
       -1   -1    0    0    0  501  0.00000000000E+00  0.00000000000E+00  0.18912203113E+04  0.18912203113E+04  0.50400001928E-02 0. -1.
        1   -1    0    0  501    0  0.00000000000E+00  0.00000000000E+00 -0.21111071507E+04  0.21111071507E+04  0.50400001928E-02 0.  1.
    10030    2    1    2    0    0  0.00000000000E+00  0.00000000000E+00 -0.21988683940E+03  0.40023274620E+04  0.39962826340E+04 0.  0.
        3    1    3    3  502    0  0.74011876795E+03  0.65404322071E+03 -0.18495279842E+04  0.20967360587E+04  0.10100000352E+00 0.  1.
       -3    1    3    3    0  502 -0.74011876795E+03 -0.65404322071E+03  0.16296411448E+04  0.19055914033E+04  0.10100000352E+00 0. -1.
</event>
<event>
 5   0  0.6599276E-09  0.4002637E+04  0.7818609E-02  0.8004015E-01
       -2   -1    0    0    0  501  0.00000000000E+00  0.00000000000E+00  0.14021612606E+04  0.14021612606E+04  0.25500000920E-02 0.  1.
        2   -1    0    0  501    0  0.00000000000E+00  0.00000000000E+00 -0.28565009490E+04  0.28565009490E+04  0.25500000920E-02 0. -1.
    10030    2    1    2    0    0  0.00000000000E+00  0.00000000000E+00 -0.14543396885E+04  0.42586622096E+04  0.40026366168E+04 0.  0.
        2    1    3    3  502    0 -0.24483080762E+03  0.19737429174E+04 -0.96429723880E+03  0.22103104744E+04  0.25500000920E-02 0.  1.
       -2    1    3    3    0  502  0.24483080762E+03 -0.19737429174E+04 -0.49004244968E+03  0.20483517352E+04  0.25500000920E-02 0. -1.
</event>
<event>
 5   0  0.6736335E-09  0.3999030E+04  0.7818609E-02  0.8004742E-01
        2   -1    0    0  501    0  0.00000000000E+00  0.00000000000E+00  0.12033076860E+04  0.12033076860E+04  0.25500000920E-02 0. -1.
       -2   -1    0    0    0  501  0.00000000000E+00  0.00000000000E+00 -0.33225585265E+04  0.33225585265E+04  0.25500000920E-02 0.  1.
    10030    2    1    2    0    0  0.00000000000E+00  0.00000000000E+00 -0.21192508405E+04  0.45258662125E+04  0.39990299885E+04 0.  0.
        1    1    3    3  502    0 -0.82118070875E+03 -0.16680644374E+04 -0.18922695806E+04  0.26528213075E+04  0.50400001928E-02 0. -1.
       -1    1    3    3    0  502  0.82118070875E+03  0.16680644374E+04 -0.22698125986E+03  0.18730449050E+04  0.50400001928E-02 0.  1.
</event>
<event>
 5   0  0.2078125E-09  0.3999758E+04  0.7818609E-02  0.8004595E-01
       -1   -1    0    0    0  501  0.00000000000E+00  0.00000000000E+00  0.14083465931E+04  0.14083465931E+04  0.50400001928E-02 0.  1.
        1   -1    0    0  501    0  0.00000000000E+00  0.00000000000E+00 -0.28398669363E+04  0.28398669363E+04  0.50400001928E-02 0. -1.
    10030    2    1    2    0    0  0.00000000000E+00  0.00000000000E+00 -0.14315203432E+04  0.42482135294E+04  0.39997584550E+04 0.  0.
        3    1    3    3  502    0  0.11023385370E+03  0.17993766402E+04  0.20382085704E+03  0.18142355822E+04  0.10100000352E+00 0.  1.
       -3    1    3    3    0  502 -0.11023385370E+03 -0.17993766402E+04 -0.16353412002E+04  0.24339779471E+04  0.10100000352E+00 0. -1.
</event>
<event>
 5   0  0.6736335E-09  0.3999743E+04  0.7818609E-02  0.8004598E-01
        2   -1    0    0  501    0  0.00000000000E+00  0.00000000000E+00  0.16522492763E+04  0.16522492763E+04  0.25500000920E-02 0.  1.
       -2   -1    0    0    0  501  0.00000000000E+00  0.00000000000E+00 -0.24206310564E+04  0.24206310564E+04  0.25500000920E-02 0. -1.
    10030    2    1    2    0    0  0.00000000000E+00  0.00000000000E+00 -0.76838178015E+03  0.40728803327E+04  0.39997429473E+04 0.  0.
        1    1    3    3  502    0  0.12605645878E+04  0.91893926351E+03 -0.16584780708E+04  0.22768447381E+04  0.50400001928E-02 0. -1.
       -1    1    3    3    0  502 -0.12605645878E+04 -0.91893926351E+03  0.89009629067E+03  0.17960355945E+04  0.50400001928E-02 0.  1.
</event>
<event>
 5   0  0.2078125E-09  0.4003357E+04  0.7818609E-02  0.8003870E-01
       -1   -1    0    0    0  501  0.00000000000E+00  0.00000000000E+00  0.27339522200E+04  0.27339522200E+04  0.50400001928E-02 0.  1.
        1   -1    0    0  501    0  0.00000000000E+00  0.00000000000E+00 -0.14655404379E+04  0.14655404379E+04  0.50400001928E-02 0. -1.
    10030    2    1    2    0    0  0.00000000000E+00  0.00000000000E+00  0.12684117822E+04  0.41994926579E+04  0.40033573578E+04 0.  0.
        1    1    3    3  502    0 -0.13097114081E+04  0.80662769284E+03 -0.70945726369E+03  0.16939072632E+04  0.50400001928E-02 0. -1.
       -1    1    3    3    0  502  0.13097114081E+04 -0.80662769284E+03  0.19778690459E+04  0.25055853947E+04  0.50400001928E-02 0.  1.
</event>
<event>
 5   0  0.6547327E-09  0.4002727E+04  0.7818609E-02  0.8003997E-01
       -2   -1    0    0    0  501  0.00000000000E+00  0.00000000000E+00  0.20009400886E+04  0.20009400886E+04  0.25500000920E-02 0. -1.
        2   -1    0    0  501    0  0.00000000000E+00  0.00000000000E+00 -0.20017869533E+04  0.20017869533E+04  0.25500000920E-02 0.  1.
    10030    2    1    2    0    0  0.00000000000E+00  0.00000000000E+00 -0.84686473432E+00  0.40027270418E+04  0.40027269523E+04 0.  0.
        5    1    3    3  502    0  0.35341866414E+02  0.63412405622E+03  0.18974889651E+04  0.20009619759E+04  0.46999998093E+01 0. -1.
       -5    1    3    3    0  502 -0.35341866414E+02 -0.63412405622E+03 -0.18983358299E+04  0.20017650659E+04  0.46999998093E+01 0.  1.
</event>
<event>
 5   0  0.2078125E-09  0.3999558E+04  0.7818609E-02  0.8004636E-01
        1   -1    0    0  501    0  0.00000000000E+00  0.00000000000E+00  0.24695435607E+04  0.24695435607E+04  0.50400001928E-02 0.  1.
       -1   -1    0    0    0  501  0.00000000000E+00  0.00000000000E+00 -0.16193744310E+04  0.16193744310E+04  0.50400001928E-02 0. -1.
    10030    2    1    2    0    0  0.00000000000E+00  0.00000000000E+00  0.85016912971E+03  0.40889179917E+04  0.39995578247E+04 0.  0.
        2    1    3    3  502    0  0.57509143105E+03 -0.19026130475E+04  0.65011405546E+03  0.20912471991E+04  0.25500000920E-02 0.  1.
       -2    1    3    3    0  502 -0.57509143105E+03  0.19026130475E+04  0.20005507425E+03  0.19976707926E+04  0.25500000920E-02 0. -1.
</event>
<event>
 5   0  0.6645526E-09  0.3986591E+04  0.7818609E-02  0.8007257E-01
        2   -1    0    0  501    0  0.00000000000E+00  0.00000000000E+00  0.24477674665E+04  0.24477674665E+04  0.25500000920E-02 0. -1.
       -2   -1    0    0    0  501  0.00000000000E+00  0.00000000000E+00 -0.16232040498E+04  0.16232040498E+04  0.25500000920E-02 0.  1.
    10030    2    1    2    0    0  0.00000000000E+00  0.00000000000E+00  0.82456341667E+03  0.40709715163E+04  0.39865905557E+04 0.  0.
        3    1    3    3  502    0  0.36770785871E+03 -0.16587137902E+04  0.14767883507E+04  0.22510984763E+04  0.10100000352E+00 0. -1.
       -3    1    3    3    0  502 -0.36770785871E+03  0.16587137902E+04 -0.65222493401E+03  0.18198730400E+04  0.10100000352E+00 0.  1.
</event>
<event>
 5   0  0.6599276E-09  0.4000126E+04  0.7818609E-02  0.8004521E-01
       -2   -1    0    0    0  501  0.00000000000E+00  0.00000000000E+00  0.21139372962E+04  0.21139372962E+04  0.25500000920E-02 0.  1.
        2   -1    0    0  501    0  0.00000000000E+00  0.00000000000E+00 -0.18923228613E+04  0.18923228613E+04  0.25500000920E-02 0. -1.
    10030    2    1    2    0    0  0.00000000000E+00  0.00000000000E+00  0.22161443489E+03  0.40062601575E+04  0.40001259345E+04 0.  0.
        2    1    3    3  502    0 -0.42520471423E+03 -0.19144652366E+03 -0.18371177954E+04  0.18953766419E+04  0.25500000920E-02 0. -1.
       -2    1    3    3    0  502  0.42520471423E+03  0.19144652366E+03  0.20587322303E+04  0.21108835156E+04  0.25500000920E-02 0.  1.
</event>
<event>
 5   0  0.2078125E-09  0.4001755E+04  0.7818609E-02  0.8004193E-01
        1   -1    0    0  501    0  0.00000000000E+00  0.00000000000E+00  0.19991004481E+04  0.19991004481E+04  0.50400001928E-02 0. -1.
       -1   -1    0    0    0  501  0.00000000000E+00  0.00000000000E+00 -0.20026560728E+04  0.20026560729E+04  0.50400001928E-02 0.  1.
    10030    2    1    2    0    0  0.00000000000E+00  0.00000000000E+00 -0.35556247537E+01  0.40017565210E+04  0.40017549413E+04 0.  0.
        2    1    3    3  502    0  0.11404658910E+04 -0.45866543301E+03  0.15769799880E+04  0.19994755089E+04  0.25500000920E-02 0. -1.
       -2    1    3    3    0  502 -0.11404658910E+04  0.45866543301E+03 -0.15805356128E+04  0.20022810121E+04  0.25500000920E-02 0.  1.
</event>
<event>
 5   0  0.6547327E-09  0.3999361E+04  0.7818609E-02  0.8004675E-01
        2   -1    0    0  501    0  0.00000000000E+00  0.00000000000E+00  0.22533186544E+04  0.22533186544E+04  0.25500000920E-02 0. -1.
       -2   -1    0    0    0  501  0.00000000000E+00  0.00000000000E+00 -0.17745924154E+04  0.17745924154E+04  0.25500000920E-02 0.  1.
    10030    2    1    2    0    0  0.00000000000E+00  0.00000000000E+00  0.47872623901E+03  0.40279110699E+04  0.39993610458E+04 0.  0.
        5    1    3    3  502    0 -0.12955464437E+03  0.12216017674E+04 -0.13497487416E+04  0.18250860362E+04  0.46999998093E+01 0.  1.
       -5    1    3    3    0  502  0.12955464437E+03 -0.12216017674E+04  0.18284749806E+04  0.22028250336E+04  0.46999998093E+01 0. -1.
</event>
<event>
 5   0  0.6547327E-09  0.4000405E+04  0.7818609E-02  0.8004465E-01
        2   -1    0    0  501    0  0.00000000000E+00  0.00000000000E+00  0.31281008328E+04  0.31281008328E+04  0.25500000920E-02 0. -1.
       -2   -1    0    0    0  501  0.00000000000E+00  0.00000000000E+00 -0.12789903425E+04  0.12789903425E+04  0.25500000920E-02 0.  1.
    10030    2    1    2    0    0  0.00000000000E+00  0.00000000000E+00  0.18491104903E+04  0.44070911753E+04  0.40004053572E+04 0.  0.
        5    1    3    3  502    0 -0.11665982702E+04 -0.15182593096E+04  0.15619267391E+04  0.24709714858E+04  0.46999998093E+01 0. -1.
       -5    1    3    3    0  502  0.11665982702E+04  0.15182593096E+04  0.28718375117E+03  0.19361196895E+04  0.46999998093E+01 0.  1.
</event>
<event>
 5   0  0.6645526E-09  0.3998137E+04  0.7818609E-02  0.8004922E-01
       -2   -1    0    0    0  501  0.00000000000E+00  0.00000000000E+00  0.26373970662E+04  0.26373970662E+04  0.25500000920E-02 0.  1.
        2   -1    0    0  501    0  0.00000000000E+00  0.00000000000E+00 -0.15152344545E+04  0.15152344545E+04  0.25500000920E-02 0. -1.
    10030    2    1    2    0    0  0.00000000000E+00  0.00000000000E+00  0.11221626117E+04  0.41526315207E+04  0.39981370187E+04 0.  0.
        3    1    3    3  502    0 -0.96906555772E+03 -0.13156146325E+04 -0.63509162813E+03  0.17530748138E+04  0.10100000352E+00 0. -1.
       -3    1    3    3    0  502  0.96906555772E+03  0.13156146325E+04  0.17572542398E+04  0.23995567070E+04  0.10100000352E+00 0.  1.
</event>
<event>
 5   0  0.6736335E-09  0.3999493E+04  0.7818609E-02  0.8004649E-01
       -2   -1    0    0    0  501  0.00000000000E+00  0.00000000000E+00  0.20419243610E+04  0.20419243610E+04  0.25500000920E-02 0. -1.
        2   -1    0    0  501    0  0.00000000000E+00  0.00000000000E+00 -0.19584402300E+04  0.19584402300E+04  0.25500000920E-02 0.  1.
    10030    2    1    2    0    0  0.00000000000E+00  0.00000000000E+00  0.83484130998E+02  0.40003645910E+04  0.39994933755E+04 0.  0.
        1    1    3    3  502    0  0.60853470215E+02 -0.56866418118E+03  0.19583809481E+04  0.20401808826E+04  0.50400001928E-02 0. -1.
       -1    1    3    3    0  502 -0.60853470215E+02  0.56866418118E+03 -0.18748968171E+04  0.19601837084E+04  0.50400001928E-02 0.  1.
</event>
<event>
 5   0  0.2078125E-09  0.4000885E+04  0.7818609E-02  0.8004368E-01
        1   -1    0    0  501    0  0.00000000000E+00  0.00000000000E+00  0.17177290317E+04  0.17177290317E+04  0.50400001928E-02 0. -1.
       -1   -1    0    0    0  501  0.00000000000E+00  0.00000000000E+00 -0.23296864678E+04  0.23296864678E+04  0.50400001928E-02 0.  1.
    10030    2    1    2    0    0  0.00000000000E+00  0.00000000000E+00 -0.61195743604E+03  0.40474154995E+04  0.40008849424E+04 0.  0.
        5    1    3    3  502    0  0.15199943046E+04 -0.11464412876E+04  0.31519647677E+03  0.19297878694E+04  0.46999998093E+01 0. -1.
       -5    1    3    3    0  502 -0.15199943046E+04  0.11464412876E+04 -0.92715391281E+03  0.21176276301E+04  0.46999998093E+01 0.  1.
</event>
<event>
 5   0  0.2078125E-09  0.4003178E+04  0.7818609E-02  0.8003906E-01
        1   -1    0    0  501    0  0.00000000000E+00  0.00000000000E+00  0.18350840594E+04  0.18350840594E+04  0.50400001928E-02 0.  1.
       -1   -1    0    0    0  501  0.00000000000E+00  0.00000000000E+00 -0.21832016615E+04  0.21832016615E+04  0.50400001928E-02 0. -1.
    10030    2    1    2    0    0  0.00000000000E+00  0.00000000000E+00 -0.34811760210E+03  0.40182857209E+04  0.40031780212E+04 0.  0.
        3    1    3    3  502    0 -0.44250683089E+03 -0.19518744302E+04 -0.20122513159E+03  0.20114963710E+04  0.10100000352E+00 0. -1.
       -3    1    3    3    0  502  0.44250683089E+03  0.19518744302E+04 -0.14689247051E+03  0.20067893499E+04  0.10100000352E+00 0.  1.
</event>
<event>
 5   0  0.6599276E-09  0.3999066E+04  0.7818609E-02  0.8004735E-01
        2   -1    0    0  501    0  0.00000000000E+00  0.00000000000E+00  0.21737868011E+04  0.21737868011E+04  0.25500000920E-02 0. -1.
       -2   -1    0    0    0  501  0.00000000000E+00  0.00000000000E+00 -0.18392477070E+04  0.18392477071E+04  0.25500000920E-02 0.  1.
    10030    2    1    2    0    0  0.00000000000E+00  0.00000000000E+00  0.33453909410E+03  0.40130345082E+04  0.39990660858E+04 0.  0.
        2    1    3    3  502    0 -0.12515734751E+04  0.96008296755E+03  0.14003565369E+04  0.21093112380E+04  0.25500000920E-02 0. -1.
       -2    1    3    3    0  502  0.12515734751E+04 -0.96008296755E+03 -0.10658174428E+04  0.19037232702E+04  0.25500000920E-02 0.  1.
</event>
<event>
 5   0  0.2078125E-09  0.3999561E+04  0.7818609E-02  0.8004635E-01
        1   -1    0    0  501    0  0.00000000000E+00  0.00000000000E+00  0.13625376808E+04  0.13625376808E+04  0.50400001928E-02 0.  1.
       -1   -1    0    0    0  501  0.00000000000E+00  0.00000000000E+00 -0.29350540185E+04  0.29350540185E+04  0.50400001928E-02 0. -1.
    10030    2    1    2    0    0  0.00000000000E+00  0.00000000000E+00 -0.15725163377E+04  0.42975916992E+04  0.39995608235E+04 0.  0.
        2    1    3    3  502    0  0.14363631063E+04  0.10960970230E+04  0.13466780449E+03  0.18118231355E+04  0.25500000920E-02 0.  1.
       -2    1    3    3    0  502 -0.14363631063E+04 -0.10960970230E+04 -0.17071841422E+04  0.24857685637E+04  0.25500000920E-02 0. -1.
</event>
<event>
 5   0  0.6736335E-09  0.4000103E+04  0.7818609E-02  0.8004526E-01
        2   -1    0    0  501    0  0.00000000000E+00  0.00000000000E+00  0.17622472812E+04  0.17622472812E+04  0.25500000920E-02 0. -1.
       -2   -1    0    0    0  501  0.00000000000E+00  0.00000000000E+00 -0.22699454348E+04  0.22699454348E+04  0.25500000920E-02 0.  1.
    10030    2    1    2    0    0  0.00000000000E+00  0.00000000000E+00 -0.50769815354E+03  0.40321927160E+04  0.40001025841E+04 0.  0.
        1    1    3    3  502    0  0.37970616663E+03  0.19501907272E+04 -0.48544102814E+03  0.20452563745E+04  0.50400001928E-02 0. -1.
       -1    1    3    3    0  502 -0.37970616663E+03 -0.19501907272E+04 -0.22257125399E+02  0.19869363415E+04  0.50400001928E-02 0.  1.
</event>
<event>
 5   0  0.6547327E-09  0.3999166E+04  0.7818609E-02  0.8004715E-01
       -2   -1    0    0    0  501  0.00000000000E+00  0.00000000000E+00  0.20345406838E+04  0.20345406838E+04  0.25500000920E-02 0. -1.
        2   -1    0    0  501    0  0.00000000000E+00  0.00000000000E+00 -0.19652259114E+04  0.19652259114E+04  0.25500000920E-02 0.  1.
    10030    2    1    2    0    0  0.00000000000E+00  0.00000000000E+00  0.69314772425E+02  0.39997665952E+04  0.39991659478E+04 0.  0.
        5    1    3    3  502    0  0.14414147435E+04  0.15144497717E+03  0.14124338633E+04  0.20237597566E+04  0.46999998093E+01 0. -1.
       -5    1    3    3    0  502 -0.14414147435E+04 -0.15144497717E+03 -0.13431190909E+04  0.19760068386E+04  0.46999998093E+01 0.  1.
</event>
<event>
 5   0  0.2078125E-09  0.3991772E+04  0.7818609E-02  0.8006208E-01
        1   -1    0    0  501    0  0.00000000000E+00  0.00000000000E+00  0.17385903096E+04  0.17385903096E+04  0.50400001928E-02 0. -1.
       -1   -1    0    0    0  501  0.00000000000E+00  0.00000000000E+00 -0.22912591795E+04  0.22912591795E+04  0.50400001928E-02 0.  1.
    10030    2    1    2    0    0  0.00000000000E+00  0.00000000000E+00 -0.55266886992E+03  0.40298494891E+04  0.39917720408E+04 0.  0.
        5    1    3    3  502    0 -0.88269916006E+03 -0.17757915999E+04 -0.50419814699E+03  0.20461748398E+04  0.46999998093E+01 0.  1.
       -5    1    3    3    0  502  0.88269916006E+03  0.17757915999E+04 -0.48470722930E+02  0.19836746494E+04  0.46999998093E+01 0. -1.
</event>
<event>
 5   0  0.2078125E-09  0.4000171E+04  0.7818609E-02  0.8004512E-01
        1   -1    0    0  501    0  0.00000000000E+00  0.00000000000E+00  0.25322727043E+04  0.25322727043E+04  0.50400001928E-02 0.  1.
       -1   -1    0    0    0  501  0.00000000000E+00  0.00000000000E+00 -0.15797440565E+04  0.15797440565E+04  0.50400001928E-02 0. -1.
    10030    2    1    2    0    0  0.00000000000E+00  0.00000000000E+00  0.95252864786E+03  0.41120167608E+04  0.40001713734E+04 0.  0.
        5    1    3    3  502    0  0.55976591162E+03  0.76294631365E+03  0.22876035296E+04  0.24755962821E+04  0.46999998093E+01 0.  1.
       -5    1    3    3    0  502 -0.55976591162E+03 -0.76294631365E+03 -0.13350748817E+04  0.16364204787E+04  0.46999998093E+01 0. -1.
</event>
<event>
 5   0  0.6736335E-09  0.3998777E+04  0.7818609E-02  0.8004793E-01
       -2   -1    0    0    0  501  0.00000000000E+00  0.00000000000E+00  0.27178573567E+04  0.27178573567E+04  0.25500000920E-02 0. -1.
        2   -1    0    0  501    0  0.00000000000E+00  0.00000000000E+00 -0.14708480583E+04  0.14708480583E+04  0.25500000920E-02 0.  1.
    10030    2    1    2    0    0  0.00000000000E+00  0.00000000000E+00  0.12470092984E+04  0.41887054151E+04  0.39987774211E+04 0.  0.
        1    1    3    3  502    0  0.90397318261E+03  0.14167331510E+04  0.17581203045E+04  0.24321363738E+04  0.50400001928E-02 0. -1.
       -1    1    3    3    0  502 -0.90397318261E+03 -0.14167331510E+04 -0.51111100602E+03  0.17565690412E+04  0.50400001928E-02 0.  1.
</event>
<event>
 5   0  0.6538370E-09  0.3999920E+04  0.7818609E-02  0.8004563E-01
        2   -1    0    0  501    0  0.00000000000E+00  0.00000000000E+00  0.22301320706E+04  0.22301320706E+04  0.25500000920E-02 0. -1.
       -2   -1    0    0    0  501  0.00000000000E+00  0.00000000000E+00 -0.17935443712E+04  0.17935443712E+04  0.25500000920E-02 0.  1.
    10030    2    1    2    0    0  0.00000000000E+00  0.00000000000E+00  0.43658769937E+03  0.40236764418E+04  0.39999204103E+04 0.  0.
        4    1    3    3  502    0 -0.28512669414E+03  0.68754106860E+03  0.20856131128E+04  0.22144510882E+04  0.12699999809E+01 0. -1.
       -4    1    3    3    0  502  0.28512669414E+03 -0.68754106860E+03 -0.16490254135E+04  0.18092253535E+04  0.12699999809E+01 0.  1.
</event>
<event>
 5   0  0.2078125E-09  0.3998745E+04  0.7818609E-02  0.8004800E-01
       -1   -1    0    0    0  501  0.00000000000E+00  0.00000000000E+00  0.18307325474E+04  0.18307325474E+04  0.50400001928E-02 0. -1.
        1   -1    0    0  501    0  0.00000000000E+00  0.00000000000E+00 -0.21835470487E+04  0.21835470488E+04  0.50400001928E-02 0.  1.
    10030    2    1    2    0    0  0.00000000000E+00  0.00000000000E+00 -0.35281450139E+03  0.40142795961E+04  0.39987451286E+04 0.  0.
        2    1    3    3  502    0 -0.18084602056E+04 -0.85214240745E+03 -0.20507784042E+03  0.20096596524E+04  0.25500000920E-02 0.  1.
       -2    1    3    3    0  502  0.18084602056E+04  0.85214240745E+03 -0.14773666096E+03  0.20046199437E+04  0.25500000920E-02 0. -1.
</event>
<event>
 5   0  0.2078125E-09  0.3996678E+04  0.7818609E-02  0.8005217E-01
       -1   -1    0    0    0  501  0.00000000000E+00  0.00000000000E+00  0.18508331837E+04  0.18508331837E+04  0.50400001928E-02 0. -1.
        1   -1    0    0  501    0  0.00000000000E+00  0.00000000000E+00 -0.21576004464E+04  0.21576004464E+04  0.50400001928E-02 0.  1.
    10030    2    1    2    0    0  0.00000000000E+00  0.00000000000E+00 -0.30676726273E+03  0.40084336301E+04  0.39966778721E+04 0.  0.
        4    1    3    3  502    0  0.13887949472E+04  0.13465213949E+04 -0.65634210345E+03  0.20427084574E+04  0.12699999809E+01 0.  1.
       -4    1    3    3    0  502 -0.13887949472E+04 -0.13465213949E+04  0.34957484072E+03  0.19657251727E+04  0.12699999809E+01 0. -1.
</event>
<event>
 5   0  0.6645526E-09  0.4003492E+04  0.7818609E-02  0.8003842E-01
        2   -1    0    0  501    0  0.00000000000E+00  0.00000000000E+00  0.15825227568E+04  0.15825227568E+04  0.25500000920E-02 0. -1.
       -2   -1    0    0    0  501  0.00000000000E+00  0.00000000000E+00 -0.25320252152E+04  0.25320252152E+04  0.25500000920E-02 0.  1.
    10030    2    1    2    0    0  0.00000000000E+00  0.00000000000E+00 -0.94950245847E+03  0.41145479720E+04  0.40034922374E+04 0.  0.
        3    1    3    3  502    0  0.52833707890E+03  0.11882800598E+04  0.10892504756E+04  0.16963537892E+04  0.10100000352E+00 0. -1.
       -3    1    3    3    0  502 -0.52833707890E+03 -0.11882800598E+04 -0.20387529340E+04  0.24181941828E+04  0.10100000352E+00 0.  1.
</event>
<event>
 5   0  0.2078125E-09  0.4000278E+04  0.7818609E-02  0.8004491E-01
        1   -1    0    0  501    0  0.00000000000E+00  0.00000000000E+00  0.26290685752E+04  0.26290685752E+04  0.50400001928E-02 0. -1.
       -1   -1    0    0    0  501  0.00000000000E+00  0.00000000000E+00 -0.15216627421E+04  0.15216627421E+04  0.50400001928E-02 0.  1.
    10030    2    1    2    0    0  0.00000000000E+00  0.00000000000E+00  0.11074058331E+04  0.41507313173E+04  0.40002778390E+04 0.  0.
        1    1    3    3  502    0 -0.12440573725E+03 -0.18727419670E+04  0.12710188013E+04  0.22667439326E+04  0.50400001928E-02 0.  1.
       -1    1    3    3    0  502  0.12440573725E+03  0.18727419670E+04 -0.16361296821E+03  0.18839873848E+04  0.50400001928E-02 0. -1.
</event>
<event>
 5   0  0.6645526E-09  0.4000773E+04  0.7818609E-02  0.8004391E-01
       -2   -1    0    0    0  501  0.00000000000E+00  0.00000000000E+00  0.15900984521E+04  0.15900984521E+04  0.25500000920E-02 0.  1.
        2   -1    0    0  501    0  0.00000000000E+00  0.00000000000E+00 -0.25165402098E+04  0.25165402098E+04  0.25500000920E-02 0. -1.
    10030    2    1    2    0    0  0.00000000000E+00  0.00000000000E+00 -0.92644175773E+03  0.41066386619E+04  0.40007732713E+04 0.  0.
        3    1    3    3  502    0  0.39205682185E+03  0.16702510640E+04 -0.15190795936E+04  0.22915169627E+04  0.10100000352E+00 0. -1.
       -3    1    3    3    0  502 -0.39205682185E+03 -0.16702510640E+04  0.59263783589E+03  0.18151216992E+04  0.10100000352E+00 0.  1.
</event>
<event>
 5   0  0.2078125E-09  0.3998199E+04  0.7818609E-02  0.8004910E-01
       -1   -1    0    0    0  501  0.00000000000E+00  0.00000000000E+00  0.22214950104E+04  0.22214950104E+04  0.50400001928E-02 0. -1.
        1   -1    0    0  501    0  0.00000000000E+00  0.00000000000E+00 -0.17989678913E+04  0.17989678913E+04  0.50400001928E-02 0.  1.
    10030    2    1    2    0    0  0.00000000000E+00  0.00000000000E+00  0.42252711911E+03  0.40204629017E+04  0.39981986916E+04 0.  0.
        2    1    3    3  502    0  0.44841901659E+03 -0.13656583392E+04  0.16083511282E+04  0.21570571771E+04  0.25500000920E-02 0. -1.
       -2    1    3    3    0  502 -0.44841901659E+03  0.13656583392E+04 -0.11858240091E+04  0.18634057246E+04  0.25500000920E-02 0.  1.
</event>
<event>
 5   0  0.6736335E-09  0.3998882E+04  0.7818609E-02  0.8004772E-01
        2   -1    0    0  501    0  0.00000000000E+00  0.00000000000E+00  0.14300289486E+04  0.14300289486E+04  0.25500000920E-02 0.  1.
       -2   -1    0    0    0  501  0.00000000000E+00  0.00000000000E+00 -0.27955825018E+04  0.27955825018E+04  0.25500000920E-02 0. -1.
    10030    2    1    2    0    0  0.00000000000E+00  0.00000000000E+00 -0.13655535533E+04  0.42256114504E+04  0.39988817966E+04 0.  0.
        1    1    3    3  502    0 -0.14962436291E+04 -0.13638600472E+03  0.71127128752E+03  0.16623035175E+04  0.50400001928E-02 0.  1.
       -1    1    3    3    0  502  0.14962436291E+04  0.13638600472E+03 -0.20768248408E+04  0.25633079329E+04  0.50400001928E-02 0. -1.
</event>
<event>
 5   0  0.6599276E-09  0.4001921E+04  0.7818609E-02  0.8004159E-01
        2   -1    0    0  501    0  0.00000000000E+00  0.00000000000E+00  0.14813270767E+04  0.14813270767E+04  0.25500000920E-02 0.  1.
       -2   -1    0    0    0  501  0.00000000000E+00  0.00000000000E+00 -0.27028762068E+04  0.27028762068E+04  0.25500000920E-02 0. -1.
    10030    2    1    2    0    0  0.00000000000E+00  0.00000000000E+00 -0.12215491301E+04  0.41842032835E+04  0.40019213936E+04 0.  0.
        2    1    3    3  502    0  0.19704185151E+04 -0.31908738095E+03 -0.75669445505E+03  0.21347019416E+04  0.25500000920E-02 0. -1.
       -2    1    3    3    0  502 -0.19704185151E+04  0.31908738095E+03 -0.46485467501E+03  0.20495013418E+04  0.25500000920E-02 0.  1.
</event>
<event>
 5   0  0.2078125E-09  0.4001524E+04  0.7818609E-02  0.8004239E-01
        1   -1    0    0  501    0  0.00000000000E+00  0.00000000000E+00  0.21374030462E+04  0.21374030462E+04  0.50400001928E-02 0.  1.
       -1   -1    0    0    0  501  0.00000000000E+00  0.00000000000E+00 -0.18728559398E+04  0.18728559398E+04  0.50400001928E-02 0. -1.
    10030    2    1    2    0    0  0.00000000000E+00  0.00000000000E+00  0.26454710640E+03  0.40102589860E+04  0.40015237052E+04 0.  0.
        4    1    3    3  502    0  0.15312936450E+04 -0.12767077864E+04 -0.36031671026E+02  0.19940268036E+04  0.12699999809E+01 0. -1.
       -4    1    3    3    0  502 -0.15312936450E+04  0.12767077864E+04  0.30057877743E+03  0.20162321824E+04  0.12699999809E+01 0.  1.
</event>
<event>
 5   0  0.6538370E-09  0.4007732E+04  0.7818609E-02  0.8002989E-01
       -2   -1    0    0    0  501  0.00000000000E+00  0.00000000000E+00  0.15825534404E+04  0.15825534404E+04  0.25500000920E-02 0.  1.
        2   -1    0    0  501    0  0.00000000000E+00  0.00000000000E+00 -0.25373421214E+04  0.25373421214E+04  0.25500000920E-02 0. -1.
    10030    2    1    2    0    0  0.00000000000E+00  0.00000000000E+00 -0.95478868100E+03  0.41198955618E+04  0.40077322783E+04 0.  0.
        4    1    3    3  502    0 -0.12974912035E+02 -0.83611187601E+03  0.13946218284E+04  0.16261067230E+04  0.12699999809E+01 0.  1.
       -4    1    3    3    0  502  0.12974912035E+02  0.83611187601E+03 -0.23494105094E+04  0.24937888387E+04  0.12699999809E+01 0. -1.
</event>
<event>
 5   0  0.6547327E-09  0.4000521E+04  0.7818609E-02  0.8004441E-01
       -2   -1    0    0    0  501  0.00000000000E+00  0.00000000000E+00  0.18486350366E+04  0.18486350366E+04  0.25500000920E-02 0.  1.
        2   -1    0    0  501    0  0.00000000000E+00  0.00000000000E+00 -0.21643223577E+04  0.21643223577E+04  0.25500000920E-02 0. -1.
    10030    2    1    2    0    0  0.00000000000E+00  0.00000000000E+00 -0.31568732108E+03  0.40129573943E+04  0.40005210365E+04 0.  0.
        5    1    3    3  502    0  0.76709162497E+03 -0.57968042707E+03 -0.19173091872E+04  0.21448905725E+04  0.46999998093E+01 0. -1.
       -5    1    3    3    0  502 -0.76709162497E+03  0.57968042707E+03  0.16016218661E+04  0.18680668218E+04  0.46999998093E+01 0.  1.
</event>
<event>
 5   0  0.2078125E-09  0.3999768E+04  0.7818609E-02  0.8004593E-01
        1   -1    0    0  501    0  0.00000000000E+00  0.00000000000E+00  0.19112833172E+04  0.19112833172E+04  0.50400001928E-02 0.  1.
       -1   -1    0    0    0  501  0.00000000000E+00  0.00000000000E+00 -0.20925916316E+04  0.20925916316E+04  0.50400001928E-02 0. -1.
    10030    2    1    2    0    0  0.00000000000E+00  0.00000000000E+00 -0.18130831438E+03  0.40038749489E+04  0.39997677309E+04 0.  0.
        1    1    3    3  502    0  0.45974687271E+03 -0.95826516760E+03  0.16051622155E+04  0.19251454637E+04  0.50400001928E-02 0.  1.
       -1    1    3    3    0  502 -0.45974687271E+03  0.95826516760E+03 -0.17864705299E+04  0.20787294852E+04  0.50400001928E-02 0. -1.
</event>
<event>
 5   0  0.6538370E-09  0.4001565E+04  0.7818609E-02  0.8004231E-01
       -2   -1    0    0    0  501  0.00000000000E+00  0.00000000000E+00  0.28663645235E+04  0.28663645235E+04  0.25500000920E-02 0. -1.
        2   -1    0    0  501    0  0.00000000000E+00  0.00000000000E+00 -0.13965881377E+04  0.13965881377E+04  0.25500000920E-02 0.  1.
    10030    2    1    2    0    0  0.00000000000E+00  0.00000000000E+00  0.14697763858E+04  0.42629526613E+04  0.40015650398E+04 0.  0.
        4    1    3    3  502    0  0.48594856552E+03  0.17401280082E+04 -0.18087779281E+03  0.18157394863E+04  0.12699999809E+01 0.  1.
       -4    1    3    3    0  502 -0.48594856552E+03 -0.17401280082E+04  0.16506541786E+04  0.24472131749E+04  0.12699999809E+01 0. -1.
</event>
<event>
 5   0  0.2078125E-09  0.3998799E+04  0.7818609E-02  0.8004789E-01
        1   -1    0    0  501    0  0.00000000000E+00  0.00000000000E+00  0.24706666909E+04  0.24706666909E+04  0.50400001928E-02 0. -1.
       -1   -1    0    0    0  501  0.00000000000E+00  0.00000000000E+00 -0.16180245200E+04  0.16180245200E+04  0.50400001928E-02 0.  1.
    10030    2    1    2    0    0  0.00000000000E+00  0.00000000000E+00  0.85264217088E+03  0.40886912109E+04  0.39987994631E+04 0.  0.
        5    1    3    3  502    0 -0.82184546930E+03 -0.91678493527E+03  0.20370601097E+04  0.23802438055E+04  0.46999998093E+01 0. -1.
       -5    1    3    3    0  502  0.82184546930E+03  0.91678493527E+03 -0.11844179389E+04  0.17084474053E+04  0.46999998093E+01 0.  1.
</event>
<event>
 5   0  0.2078125E-09  0.3998633E+04  0.7818609E-02  0.8004822E-01
        1   -1    0    0  501    0  0.00000000000E+00  0.00000000000E+00  0.21755693469E+04  0.21755693469E+04  0.50400001928E-02 0. -1.
       -1   -1    0    0    0  501  0.00000000000E+00  0.00000000000E+00 -0.18373429979E+04  0.18373429979E+04  0.50400001928E-02 0.  1.
    10030    2    1    2    0    0  0.00000000000E+00  0.00000000000E+00  0.33822634906E+03  0.40129123448E+04  0.39986333195E+04 0.  0.
        2    1    3    3  502    0  0.11076025881E+04  0.16295747654E+04  0.50939580844E+03  0.20351367273E+04  0.25500000920E-02 0. -1.
       -2    1    3    3    0  502 -0.11076025881E+04 -0.16295747654E+04 -0.17116945938E+03  0.19777756175E+04  0.25500000920E-02 0.  1.
</event>
<event>
 5   0  0.2078125E-09  0.4003952E+04  0.7818609E-02  0.8003750E-01
       -1   -1    0    0    0  501  0.00000000000E+00  0.00000000000E+00  0.28960466174E+04  0.28960466174E+04  0.50400001928E-02 0. -1.
        1   -1    0    0  501    0  0.00000000000E+00  0.00000000000E+00 -0.13839237857E+04  0.13839237857E+04  0.50400001928E-02 0.  1.
    10030    2    1    2    0    0  0.00000000000E+00  0.00000000000E+00  0.15121228317E+04  0.42799704031E+04  0.40039519469E+04 0.  0.
        2    1    3    3  502    0 -0.18748443849E+04  0.64344070109E+03  0.10562221269E+04  0.22460326322E+04  0.25500000920E-02 0.  1.
       -2    1    3    3    0  502  0.18748443849E+04 -0.64344070109E+03  0.45590070479E+03  0.20339377709E+04  0.25500000920E-02 0. -1.
</event>
<event>
 5   0  0.2078125E-09  0.4000390E+04  0.7818609E-02  0.8004468E-01
       -1   -1    0    0    0  501  0.00000000000E+00  0.00000000000E+00  0.15244518844E+04  0.15244518844E+04  0.50400001928E-02 0.  1.
        1   -1    0    0  501    0  0.00000000000E+00  0.00000000000E+00 -0.26244052539E+04  0.26244052539E+04  0.50400001928E-02 0. -1.
    10030    2    1    2    0    0  0.00000000000E+00  0.00000000000E+00 -0.10999533695E+04  0.41488571383E+04  0.40003897484E+04 0.  0.
        3    1    3    3  502    0  0.14353654260E+04 -0.11147675642E+04  0.31636919438E+03  0.18447412030E+04  0.10100000352E+00 0.  1.
       -3    1    3    3    0  502 -0.14353654260E+04  0.11147675642E+04 -0.14163225639E+04  0.23041159354E+04  0.10100000352E+00 0. -1.
</event>
<event>
 5   0  0.2078125E-09  0.4000691E+04  0.7818609E-02  0.8004407E-01
       -3   -1    0    0    0  501  0.00000000000E+00  0.00000000000E+00  0.21152780862E+04  0.21152780886E+04  0.10100000352E+00 0.  1.
        3   -1    0    0  501    0  0.00000000000E+00  0.00000000000E+00 -0.18916578216E+04  0.18916578243E+04  0.10100000352E+00 0. -1.
    10030    2    1    2    0    0  0.00000000000E+00  0.00000000000E+00  0.22362026456E+03  0.40069359129E+04  0.40006911137E+04 0.  0.
        4    1    3    3  502    0 -0.44525496313E+02 -0.17816135703E+04  0.10216615652E+04  0.20542452143E+04  0.12699999809E+01 0.  1.
       -4    1    3    3    0  502  0.44525496313E+02  0.17816135703E+04 -0.79804130067E+03  0.19526906986E+04  0.12699999809E+01 0. -1.
</event>
<event>
 5   0  0.2078125E-09  0.4000409E+04  0.7818609E-02  0.8004464E-01
        1   -1    0    0  501    0  0.00000000000E+00  0.00000000000E+00  0.13604133330E+04  0.13604133330E+04  0.50400001928E-02 0.  1.
       -1   -1    0    0    0  501  0.00000000000E+00  0.00000000000E+00 -0.29408842450E+04  0.29408842450E+04  0.50400001928E-02 0. -1.
    10030    2    1    2    0    0  0.00000000000E+00  0.00000000000E+00 -0.15804709120E+04  0.43012975781E+04  0.40004090480E+04 0.  0.
        2    1    3    3  502    0 -0.10518953072E+04  0.11926864004E+04  0.51420553576E+03  0.16713443451E+04  0.25500000920E-02 0.  1.
       -2    1    3    3    0  502  0.10518953072E+04 -0.11926864004E+04 -0.20946764477E+04  0.26299532330E+04  0.25500000920E-02 0. -1.
</event>
<event>
 5   0  0.6538370E-09  0.4001234E+04  0.7818609E-02  0.8004298E-01
       -2   -1    0    0    0  501  0.00000000000E+00  0.00000000000E+00  0.27076324176E+04  0.27076324176E+04  0.25500000920E-02 0. -1.
        2   -1    0    0  501    0  0.00000000000E+00  0.00000000000E+00 -0.14782167677E+04  0.14782167677E+04  0.25500000920E-02 0.  1.
    10030    2    1    2    0    0  0.00000000000E+00  0.00000000000E+00  0.12294156499E+04  0.41858491854E+04  0.40012336301E+04 0.  0.
        4    1    3    3  502    0  0.39189611199E+03  0.19091878030E+04  0.10870782817E+04  0.22316633781E+04  0.12699999809E+01 0. -1.
       -4    1    3    3    0  502 -0.39189611199E+03 -0.19091878030E+04  0.14233736825E+03  0.19541858072E+04  0.12699999809E+01 0.  1.
</event>
<event>
 5   0  0.6538370E-09  0.4008020E+04  0.7818609E-02  0.8002931E-01
       -2   -1    0    0    0  501  0.00000000000E+00  0.00000000000E+00  0.16592911704E+04  0.16592911704E+04  0.25500000920E-02 0.  1.
        2   -1    0    0  501    0  0.00000000000E+00  0.00000000000E+00 -0.24203443844E+04  0.24203443844E+04  0.25500000920E-02 0. -1.
    10030    2    1    2    0    0  0.00000000000E+00  0.00000000000E+00 -0.76105321405E+03  0.40796355548E+04  0.40080199931E+04 0.  0.
        4    1    3    3  502    0 -0.23211292573E+03 -0.17935680595E+04 -0.12592549189E+04  0.22037439412E+04  0.12699999809E+01 0. -1.
       -4    1    3    3    0  502  0.23211292573E+03  0.17935680595E+04  0.49820170489E+03  0.18758916136E+04  0.12699999809E+01 0.  1.
</event>
<event>
 5   0  0.6736335E-09  0.4000349E+04  0.7818609E-02  0.8004476E-01
        2   -1    0    0  501    0  0.00000000000E+00  0.00000000000E+00  0.18056326862E+04  0.18056326862E+04  0.25500000920E-02 0. -1.
       -2   -1    0    0    0  501  0.00000000000E+00  0.00000000000E+00 -0.22156765692E+04  0.22156765692E+04  0.25500000920E-02 0.  1.
    10030    2    1    2    0    0  0.00000000000E+00  0.00000000000E+00 -0.41004388305E+03  0.40213092554E+04  0.40003490025E+04 0.  0.
        1    1    3    3  502    0  0.16058304389E+04  0.11483280032E+04 -0.52818643832E+03  0.20436069864E+04  0.50400001928E-02 0.  1.
       -1    1    3    3    0  502 -0.16058304389E+04 -0.11483280032E+04  0.11814255527E+03  0.19777022690E+04  0.50400001928E-02 0. -1.
</event>
<event>
 5   0  0.2078125E-09  0.4000544E+04  0.7818609E-02  0.8004437E-01
        1   -1    0    0  501    0  0.00000000000E+00  0.00000000000E+00  0.15390384801E+04  0.15390384801E+04  0.50400001928E-02 0.  1.
       -1   -1    0    0    0  501  0.00000000000E+00  0.00000000000E+00 -0.25997320897E+04  0.25997320897E+04  0.50400001928E-02 0. -1.
    10030    2    1    2    0    0  0.00000000000E+00  0.00000000000E+00 -0.10606936096E+04  0.41387705697E+04  0.40005438250E+04 0.  0.
        4    1    3    3  502    0 -0.21379130584E+03 -0.19616452700E+04 -0.86927466251E+03  0.21562464932E+04  0.12699999809E+01 0. -1.
       -4    1    3    3    0  502  0.21379130584E+03  0.19616452700E+04 -0.19141894710E+03  0.19825240765E+04  0.12699999809E+01 0.  1.
</event>
<event>
 5   0  0.2078125E-09  0.3996517E+04  0.7818609E-02  0.8005249E-01
        1   -1    0    0  501    0  0.00000000000E+00  0.00000000000E+00  0.28540500898E+04  0.28540500898E+04  0.50400001928E-02 0. -1.
       -1   -1    0    0    0  501  0.00000000000E+00  0.00000000000E+00 -0.13990776390E+04  0.13990776390E+04  0.50400001928E-02 0.  1.
    10030    2    1    2    0    0  0.00000000000E+00  0.00000000000E+00  0.14549724508E+04  0.42531277288E+04  0.39965173144E+04 0.  0.
        4    1    3    3  502    0  0.74478808517E+03  0.14906075812E+04 -0.44624255043E+03  0.17250374719E+04  0.12699999809E+01 0.  1.
       -4    1    3    3    0  502 -0.74478808517E+03 -0.14906075812E+04  0.19012150013E+04  0.25280902568E+04  0.12699999809E+01 0. -1.
</event>
<event>
 5   0  0.6547327E-09  0.3999983E+04  0.7818609E-02  0.8004550E-01
        2   -1    0    0  501    0  0.00000000000E+00  0.00000000000E+00  0.14197439986E+04  0.14197439987E+04  0.25500000920E-02 0.  1.
       -2   -1    0    0    0  501  0.00000000000E+00  0.00000000000E+00 -0.28173855321E+04  0.28173855321E+04  0.25500000920E-02 0. -1.
    10030    2    1    2    0    0  0.00000000000E+00  0.00000000000E+00 -0.13976415334E+04  0.42371295307E+04  0.39999831005E+04 0.  0.
        5    1    3    3  502    0  0.44597257352E+03  0.15522183973E+04 -0.19484518346E+04  0.25307627568E+04  0.46999998093E+01 0.  1.
       -5    1    3    3    0  502 -0.44597257352E+03 -0.15522183973E+04  0.55081030117E+03  0.17063667739E+04  0.46999998093E+01 0. -1.
</event>
<event>
 5   0  0.2078125E-09  0.4002453E+04  0.7818609E-02  0.8004052E-01
       -3   -1    0    0    0  501  0.00000000000E+00  0.00000000000E+00  0.13546219779E+04  0.13546219817E+04  0.10100000352E+00 0.  1.
        3   -1    0    0  501    0  0.00000000000E+00  0.00000000000E+00 -0.29564764342E+04  0.29564764359E+04  0.10100000352E+00 0. -1.
    10030    2    1    2    0    0  0.00000000000E+00  0.00000000000E+00 -0.16018544563E+04  0.43110984176E+04  0.40024532311E+04 0.  0.
        2    1    3    3  502    0 -0.72623079003E+03 -0.44252874538E+03 -0.27521587433E+04  0.28805590775E+04  0.25500000920E-02 0. -1.
       -2    1    3    3    0  502  0.72623079003E+03  0.44252874538E+03  0.11503042870E+04  0.14305393401E+04  0.25500000920E-02 0.  1.
</event>
<event>
 5   0  0.6599276E-09  0.4001206E+04  0.7818609E-02  0.8004303E-01
       -2   -1    0    0    0  501  0.00000000000E+00  0.00000000000E+00  0.23856360458E+04  0.23856360458E+04  0.25500000920E-02 0. -1.
        2   -1    0    0  501    0  0.00000000000E+00  0.00000000000E+00 -0.16777125196E+04  0.16777125196E+04  0.25500000920E-02 0.  1.
    10030    2    1    2    0    0  0.00000000000E+00  0.00000000000E+00  0.70792352622E+03  0.40633485655E+04  0.40012055490E+04 0.  0.
        2    1    3    3  502    0  0.11402574361E+04  0.87499572434E+03  0.17671953703E+04  0.22778902552E+04  0.25500000920E-02 0. -1.
       -2    1    3    3    0  502 -0.11402574361E+04 -0.87499572434E+03 -0.10592718440E+04  0.17854583103E+04  0.25500000920E-02 0.  1.
</event>
<event>
 5   0  0.2078125E-09  0.3999742E+04  0.7818609E-02  0.8004599E-01
        1   -1    0    0  501    0  0.00000000000E+00  0.00000000000E+00  0.24151163939E+04  0.24151163939E+04  0.50400001928E-02 0.  1.
       -1   -1    0    0    0  501  0.00000000000E+00  0.00000000000E+00 -0.16560209392E+04  0.16560209392E+04  0.50400001928E-02 0. -1.
    10030    2    1    2    0    0  0.00000000000E+00  0.00000000000E+00  0.75909545470E+03  0.40711373331E+04  0.39997416511E+04 0.  0.
        3    1    3    3  502    0 -0.29043033891E+03  0.24836752728E+03 -0.16185122143E+04  0.16630147349E+04  0.10100000352E+00 0. -1.
       -3    1    3    3    0  502  0.29043033891E+03 -0.24836752728E+03  0.23776076690E+04  0.24081225983E+04  0.10100000352E+00 0.  1.
</event>
<event>
 5   0  0.6645526E-09  0.4005256E+04  0.7818609E-02  0.8003487E-01
       -2   -1    0    0    0  501  0.00000000000E+00  0.00000000000E+00  0.25722705244E+04  0.25722705244E+04  0.25500000920E-02 0.  1.
        2   -1    0    0  501    0  0.00000000000E+00  0.00000000000E+00 -0.15591357150E+04  0.15591357150E+04  0.25500000920E-02 0. -1.
    10030    2    1    2    0    0  0.00000000000E+00  0.00000000000E+00  0.10131348094E+04  0.41314062394E+04  0.40052559685E+04 0.  0.
        3    1    3    3  502    0  0.13044030034E+04 -0.10703832019E+04 -0.60598213224E+03  0.17928752742E+04  0.10100000352E+00 0. -1.
       -3    1    3    3    0  502 -0.13044030034E+04  0.10703832019E+04  0.16191169416E+04  0.23385309652E+04  0.10100000352E+00 0.  1.
</event>
<event>
 5   0  0.6538370E-09  0.4000320E+04  0.7818609E-02  0.8004482E-01
       -2   -1    0    0    0  501  0.00000000000E+00  0.00000000000E+00  0.20639097330E+04  0.20639097330E+04  0.25500000920E-02 0.  1.
        2   -1    0    0  501    0  0.00000000000E+00  0.00000000000E+00 -0.19383790071E+04  0.19383790071E+04  0.25500000920E-02 0. -1.
    10030    2    1    2    0    0  0.00000000000E+00  0.00000000000E+00  0.12553072590E+03  0.40022887402E+04  0.40003196368E+04 0.  0.
        4    1    3    3  502    0 -0.12418562570E+04  0.14394222213E+04 -0.55922738543E+03  0.19816357323E+04  0.12699999809E+01 0. -1.
       -4    1    3    3    0  502  0.12418562570E+04 -0.14394222213E+04  0.68475811133E+03  0.20206530078E+04  0.12699999809E+01 0.  1.
</event>
<event>
 5   0  0.6538370E-09  0.4000149E+04  0.7818609E-02  0.8004516E-01
       -2   -1    0    0    0  501  0.00000000000E+00  0.00000000000E+00  0.25411661161E+04  0.25411661161E+04  0.25500000920E-02 0. -1.
        2   -1    0    0  501    0  0.00000000000E+00  0.00000000000E+00 -0.15741979416E+04  0.15741979416E+04  0.25500000920E-02 0.  1.
    10030    2    1    2    0    0  0.00000000000E+00  0.00000000000E+00  0.96696817449E+03  0.41153640577E+04  0.40001492318E+04 0.  0.
        4    1    3    3  502    0  0.12443791982E+04  0.68956818382E+03  0.19297892248E+04  0.23975136984E+04  0.12699999809E+01 0. -1.
       -4    1    3    3    0  502 -0.12443791982E+04 -0.68956818382E+03 -0.96282105031E+03  0.17178503593E+04  0.12699999809E+01 0.  1.
</event>
<event>
 5   0  0.2078125E-09  0.3999901E+04  0.7818609E-02  0.8004566E-01
       -1   -1    0    0    0  501  0.00000000000E+00  0.00000000000E+00  0.24389961100E+04  0.24389961100E+04  0.50400001928E-02 0. -1.
        1   -1    0    0  501    0  0.00000000000E+00  0.00000000000E+00 -0.16399379383E+04  0.16399379383E+04  0.50400001928E-02 0.  1.
    10030    2    1    2    0    0  0.00000000000E+00  0.00000000000E+00  0.79905817167E+03  0.40789340483E+04  0.39999011248E+04 0.  0.
        2    1    3    3  502    0 -0.84249202674E+03 -0.13595851015E+03 -0.14449448835E+04  0.16781368383E+04  0.25500000920E-02 0.  1.
       -2    1    3    3    0  502  0.84249202674E+03  0.13595851015E+03  0.22440030552E+04  0.24007972100E+04  0.25500000920E-02 0. -1.
</event>
<event>
 5   0  0.6736335E-09  0.3998720E+04  0.7818609E-02  0.8004805E-01
       -2   -1    0    0    0  501  0.00000000000E+00  0.00000000000E+00  0.14193391651E+04  0.14193391651E+04  0.25500000920E-02 0. -1.
        2   -1    0    0  501    0  0.00000000000E+00  0.00000000000E+00 -0.28164102532E+04  0.28164102532E+04  0.25500000920E-02 0.  1.
    10030    2    1    2    0    0  0.00000000000E+00  0.00000000000E+00 -0.13970710882E+04  0.42357494183E+04  0.39987204840E+04 0.  0.
        1    1    3    3  502    0 -0.13330908905E+04 -0.51606388315E+03  0.78217501129E+03  0.16294940939E+04  0.50400001928E-02 0. -1.
       -1    1    3    3    0  502  0.13330908905E+04  0.51606388315E+03 -0.21792460995E+04  0.26062553244E+04  0.50400001928E-02 0.  1.
</event>
<event>
 5   0  0.2078125E-09  0.3998790E+04  0.7818609E-02  0.8004791E-01
        1   -1    0    0  501    0  0.00000000000E+00  0.00000000000E+00  0.13139646151E+04  0.13139646151E+04  0.50400001928E-02 0. -1.
       -1   -1    0    0    0  501  0.00000000000E+00  0.00000000000E+00 -0.30423806974E+04  0.30423806974E+04  0.50400001928E-02 0.  1.
    10030    2    1    2    0    0  0.00000000000E+00  0.00000000000E+00 -0.17284160824E+04  0.43563453125E+04  0.39987901080E+04 0.  0.
        3    1    3    3  502    0 -0.11832840569E+04 -0.12744764957E+04 -0.19388874123E+04  0.26045605973E+04  0.10100000352E+00 0.  1.
       -3    1    3    3    0  502  0.11832840569E+04  0.12744764957E+04  0.21047132998E+03  0.17517847152E+04  0.10100000352E+00 0. -1.
</event>
<event>
 5   0  0.2078125E-09  0.4009249E+04  0.7818609E-02  0.8002683E-01
        3   -1    0    0  501    0  0.00000000000E+00  0.00000000000E+00  0.19923826465E+04  0.19923826491E+04  0.10100000352E+00 0.  1.
       -3   -1    0    0    0  501  0.00000000000E+00  0.00000000000E+00 -0.20169418192E+04  0.20169418217E+04  0.10100000352E+00 0. -1.
    10030    2    1    2    0    0  0.00000000000E+00  0.00000000000E+00 -0.24559172685E+02  0.40093244708E+04  0.40092492513E+04 0.  0.
        3    1    3    3  502    0 -0.13031804975E+03  0.14770458643E+04  0.13367722614E+04  0.19963985996E+04  0.10100000352E+00 0.  1.
       -3    1    3    3    0  502  0.13031804975E+03 -0.14770458643E+04 -0.13613314341E+04  0.20129258712E+04  0.10100000352E+00 0. -1.
</event>
<event>
 5   0  0.6736335E-09  0.4002037E+04  0.7818609E-02  0.8004136E-01
        2   -1    0    0  501    0  0.00000000000E+00  0.00000000000E+00  0.29985206236E+04  0.29985206236E+04  0.25500000920E-02 0.  1.
       -2   -1    0    0    0  501  0.00000000000E+00  0.00000000000E+00 -0.13353501907E+04  0.13353501907E+04  0.25500000920E-02 0. -1.
    10030    2    1    2    0    0  0.00000000000E+00  0.00000000000E+00  0.16631704329E+04  0.43338708143E+04  0.40020370246E+04 0.  0.
        1    1    3    3  502    0 -0.15017684883E+03 -0.18312838304E+04  0.16897042749E+04  0.24962480025E+04  0.50400001928E-02 0.  1.
       -1    1    3    3    0  502  0.15017684883E+03  0.18312838304E+04 -0.26533841974E+02  0.18376228118E+04  0.50400001928E-02 0. -1.
</event>
<event>
 5   0  0.2078125E-09  0.4000187E+04  0.7818609E-02  0.8004509E-01
       -1   -1    0    0    0  501  0.00000000000E+00  0.00000000000E+00  0.20593645370E+04  0.20593645370E+04  0.50400001928E-02 0.  1.
        1   -1    0    0  501    0  0.00000000000E+00  0.00000000000E+00 -0.19425283716E+04  0.19425283717E+04  0.50400001928E-02 0. -1.
    10030    2    1    2    0    0  0.00000000000E+00  0.00000000000E+00  0.11683616538E+03  0.40018929087E+04  0.40001870160E+04 0.  0.
        5    1    3    3  502    0  0.16606420913E+04  0.93084618322E+03 -0.55515022119E+03  0.19830331894E+04  0.46999998093E+01 0.  1.
       -5    1    3    3    0  502 -0.16606420913E+04 -0.93084618322E+03  0.67198638657E+03  0.20188597193E+04  0.46999998093E+01 0. -1.
</event>
<event>
 5   0  0.2078125E-09  0.4002394E+04  0.7818609E-02  0.8004064E-01
       -1   -1    0    0    0  501  0.00000000000E+00  0.00000000000E+00  0.22459214815E+04  0.22459214815E+04  0.50400001928E-02 0. -1.
        1   -1    0    0  501    0  0.00000000000E+00  0.00000000000E+00 -0.17831383100E+04  0.17831383100E+04  0.50400001928E-02 0.  1.
    10030    2    1    2    0    0  0.00000000000E+00  0.00000000000E+00  0.46278317147E+03  0.40290597915E+04  0.40023936013E+04 0.  0.
        5    1    3    3  502    0  0.74666814884E+03 -0.12154860975E+04  0.16442548684E+04  0.21768132533E+04  0.46999998093E+01 0. -1.
       -5    1    3    3    0  502 -0.74666814884E+03  0.12154860975E+04 -0.11814716969E+04  0.18522465382E+04  0.46999998093E+01 0.  1.
</event>
<event>
 5   0  0.2078125E-09  0.4000117E+04  0.7818609E-02  0.8004523E-01
        1   -1    0    0  501    0  0.00000000000E+00  0.00000000000E+00  0.16536812920E+04  0.16536812921E+04  0.50400001928E-02 0.  1.
       -1   -1    0    0    0  501  0.00000000000E+00  0.00000000000E+00 -0.24189872242E+04  0.24189872242E+04  0.50400001928E-02 0. -1.
    10030    2    1    2    0    0  0.00000000000E+00  0.00000000000E+00 -0.76530593214E+03  0.40726685162E+04  0.40001169575E+04 0.  0.
        4    1    3    3  502    0 -0.48192086480E+02 -0.57531256383E+03 -0.23323063330E+04  0.24026987882E+04  0.12699999809E+01 0. -1.
       -4    1    3    3    0  502  0.48192086480E+02  0.57531256383E+03  0.15670004008E+04  0.16699697280E+04  0.12699999809E+01 0.  1.
</event>
<event>
 5   0  0.6547327E-09  0.3997941E+04  0.7818609E-02  0.8004962E-01
       -2   -1    0    0    0  501  0.00000000000E+00  0.00000000000E+00  0.16281860565E+04  0.16281860565E+04  0.25500000920E-02 0.  1.
        2   -1    0    0  501    0  0.00000000000E+00  0.00000000000E+00 -0.24541936522E+04  0.24541936522E+04  0.25500000920E-02 0. -1.
    10030    2    1    2    0    0  0.00000000000E+00  0.00000000000E+00 -0.82600759572E+03  0.40823797086E+04  0.39979414124E+04 0.  0.
        5    1    3    3  502    0  0.11294961150E+04  0.13113003193E+04 -0.14344263428E+04  0.22478592091E+04  0.46999998093E+01 0. -1.
       -5    1    3    3    0  502 -0.11294961150E+04 -0.13113003193E+04  0.60841874705E+03  0.18345204995E+04  0.46999998093E+01 0.  1.
</event>
<event>
 5   0  0.6736335E-09  0.4000048E+04  0.7818609E-02  0.8004537E-01
        2   -1    0    0  501    0  0.00000000000E+00  0.00000000000E+00  0.24656204750E+04  0.24656204750E+04  0.25500000920E-02 0. -1.
       -2   -1    0    0    0  501  0.00000000000E+00  0.00000000000E+00 -0.16223487175E+04  0.16223487175E+04  0.25500000920E-02 0.  1.
    10030    2    1    2    0    0  0.00000000000E+00  0.00000000000E+00  0.84327175747E+03  0.40879691925E+04  0.40000481074E+04 0.  0.
        1    1    3    3  502    0  0.12697287026E+04 -0.15355902561E+04  0.24507333292E+03  0.20075630379E+04  0.50400001928E-02 0.  1.
       -1    1    3    3    0  502 -0.12697287026E+04  0.15355902561E+04  0.59819842456E+03  0.20804061545E+04  0.50400001928E-02 0. -1.
</event>
<event>
 5   0  0.2078125E-09  0.4000572E+04  0.7818609E-02  0.8004431E-01
        1   -1    0    0  501    0  0.00000000000E+00  0.00000000000E+00  0.16698049425E+04  0.16698049425E+04  0.50400001928E-02 0. -1.
       -1   -1    0    0    0  501  0.00000000000E+00  0.00000000000E+00 -0.23961749075E+04  0.23961749076E+04  0.50400001928E-02 0.  1.
    10030    2    1    2    0    0  0.00000000000E+00  0.00000000000E+00 -0.72636996507E+03  0.40659798500E+04  0.40005723109E+04 0.  0.
        2    1    3    3  502    0 -0.10829317218E+02  0.88382761460E+03 -0.21869239713E+04  0.23587931199E+04  0.25500000920E-02 0.  1.
       -2    1    3    3    0  502  0.10829317218E+02 -0.88382761460E+03  0.14605540062E+04  0.17071867301E+04  0.25500000920E-02 0. -1.
</event>
<event>
 5   0  0.2078125E-09  0.4001348E+04  0.7818609E-02  0.8004275E-01
       -1   -1    0    0    0  501  0.00000000000E+00  0.00000000000E+00  0.14887995813E+04  0.14887995813E+04  0.50400001928E-02 0.  1.
        1   -1    0    0  501    0  0.00000000000E+00  0.00000000000E+00 -0.26885393372E+04  0.26885393372E+04  0.50400001928E-02 0. -1.
    10030    2    1    2    0    0  0.00000000000E+00  0.00000000000E+00 -0.11997397559E+04  0.41773389185E+04  0.40013478927E+04 0.  0.
        5    1    3    3  502    0  0.51488186577E+03 -0.15860167725E+04 -0.17539889340E+04  0.24201346675E+04  0.46999998093E+01 0. -1.
       -5    1    3    3    0  502 -0.51488186577E+03  0.15860167725E+04  0.55424917812E+03  0.17572042510E+04  0.46999998093E+01 0.  1.
</event>
<event>
 5   0  0.6645526E-09  0.3999150E+04  0.7818609E-02  0.8004718E-01
       -2   -1    0    0    0  501  0.00000000000E+00  0.00000000000E+00  0.21539289177E+04  0.21539289177E+04  0.25500000920E-02 0.  1.
        2   -1    0    0  501    0  0.00000000000E+00  0.00000000000E+00 -0.18562825167E+04  0.18562825167E+04  0.25500000920E-02 0. -1.
    10030    2    1    2    0    0  0.00000000000E+00  0.00000000000E+00  0.29764640099E+03  0.40102114344E+04  0.39991502058E+04 0.  0.
        3    1    3    3  502    0 -0.28953784951E+03 -0.91834150748E+03 -0.16084842741E+04  0.18746746280E+04  0.10100000352E+00 0. -1.
       -3    1    3    3    0  502  0.28953784951E+03  0.91834150748E+03  0.19061306751E+04  0.21355368064E+04  0.10100000352E+00 0.  1.
</event>
<event>
 5   0  0.6736335E-09  0.3999709E+04  0.7818609E-02  0.8004605E-01
       -2   -1    0    0    0  501  0.00000000000E+00  0.00000000000E+00  0.20513641018E+04  0.20513641018E+04  0.25500000920E-02 0. -1.
        2   -1    0    0  501    0  0.00000000000E+00  0.00000000000E+00 -0.19496379498E+04  0.19496379498E+04  0.25500000920E-02 0.  1.
    10030    2    1    2    0    0  0.00000000000E+00  0.00000000000E+00  0.10172615191E+03  0.40010020516E+04  0.39997086403E+04 0.  0.
        1    1    3    3  502    0  0.10702647595E+04 -0.59452746476E+03 -0.15309413364E+04  0.19602833819E+04  0.50400001928E-02 0.  1.
       -1    1    3    3    0  502 -0.10702647595E+04  0.59452746476E+03  0.16326674883E+04  0.20407186697E+04  0.50400001928E-02 0. -1.
</event>
<event>
 5   0  0.2078125E-09  0.3990603E+04  0.7818609E-02  0.8006445E-01
        1   -1    0    0  501    0  0.00000000000E+00  0.00000000000E+00  0.25139539761E+04  0.25139539761E+04  0.50400001928E-02 0. -1.
       -1   -1    0    0    0  501  0.00000000000E+00  0.00000000000E+00 -0.15836521858E+04  0.15836521858E+04  0.50400001928E-02 0.  1.
    10030    2    1    2    0    0  0.00000000000E+00  0.00000000000E+00  0.93030179022E+03  0.40976061619E+04  0.39906033175E+04 0.  0.
        2    1    3    3  502    0 -0.56679732716E+03 -0.25770538595E+03  0.24116488425E+04  0.24907270858E+04  0.25500000920E-02 0. -1.
       -2    1    3    3    0  502  0.56679732716E+03  0.25770538595E+03 -0.14813470523E+04  0.16068790762E+04  0.25500000920E-02 0.  1.
</event>
<event>
 5   0  0.2078125E-09  0.3999837E+04  0.7818609E-02  0.8004579E-01
        1   -1    0    0  501    0  0.00000000000E+00  0.00000000000E+00  0.22580730223E+04  0.22580730223E+04  0.50400001928E-02 0.  1.
       -1   -1    0    0    0  501  0.00000000000E+00  0.00000000000E+00 -0.17712772736E+04  0.17712772737E+04  0.50400001928E-02 0. -1.
    10030    2    1    2    0    0  0.00000000000E+00  0.00000000000E+00  0.48679574863E+03  0.40293502959E+04  0.39998367100E+04 0.  0.
        5    1    3    3  502    0  0.28900554914E+03 -0.17636027106E+04  0.11477033938E+04  0.21239265285E+04  0.46999998093E+01 0.  1.
       -5    1    3    3    0  502 -0.28900554914E+03  0.17636027106E+04 -0.66090764514E+03  0.19054237675E+04  0.46999998093E+01 0. -1.
</event>
<event>
 5   0  0.2078125E-09  0.4000532E+04  0.7818609E-02  0.8004439E-01
       -1   -1    0    0    0  501  0.00000000000E+00  0.00000000000E+00  0.16601576198E+04  0.16601576198E+04  0.50400001928E-02 0. -1.
        1   -1    0    0  501    0  0.00000000000E+00  0.00000000000E+00 -0.24100505572E+04  0.24100505572E+04  0.50400001928E-02 0.  1.
    10030    2    1    2    0    0  0.00000000000E+00  0.00000000000E+00 -0.74989293740E+03  0.40702081770E+04  0.40005318629E+04 0.  0.
        2    1    3    3  502    0 -0.67150178543E+03  0.17443430974E+04 -0.10996845784E+04  0.21686294430E+04  0.25500000920E-02 0. -1.
       -2    1    3    3    0  502  0.67150178543E+03 -0.17443430974E+04  0.34979164103E+03  0.19015787339E+04  0.25500000920E-02 0.  1.
</event>
<event>
 5   0  0.2078125E-09  0.3994796E+04  0.7818609E-02  0.8005597E-01
        3   -1    0    0  501    0  0.00000000000E+00  0.00000000000E+00  0.18293896050E+04  0.18293896078E+04  0.10100000352E+00 0.  1.
       -3   -1    0    0    0  501  0.00000000000E+00  0.00000000000E+00 -0.21808364252E+04  0.21808364276E+04  0.10100000352E+00 0. -1.
    10030    2    1    2    0    0  0.00000000000E+00  0.00000000000E+00 -0.35144682019E+03  0.40102260354E+04  0.39947963637E+04 0.  0.
        1    1    3    3  502    0 -0.51366845859E+03  0.40977469100E+03 -0.20692296317E+04  0.21710554695E+04  0.50400001928E-02 0. -1.
       -1    1    3    3    0  502  0.51366845859E+03 -0.40977469100E+03  0.17177828115E+04  0.18391705659E+04  0.50400001928E-02 0.  1.
</event>
<event>
 5   0  0.2078125E-09  0.3999057E+04  0.7818609E-02  0.8004737E-01
        1   -1    0    0  501    0  0.00000000000E+00  0.00000000000E+00  0.18442452072E+04  0.18442452072E+04  0.50400001928E-02 0.  1.
       -1   -1    0    0    0  501  0.00000000000E+00  0.00000000000E+00 -0.21678866904E+04  0.21678866904E+04  0.50400001928E-02 0. -1.
    10030    2    1    2    0    0  0.00000000000E+00  0.00000000000E+00 -0.32364148319E+03  0.40121318975E+04  0.39990572081E+04 0.  0.
        2    1    3    3  502    0 -0.18574544264E+04 -0.67291583511E+03 -0.47131265046E+03  0.20310313345E+04  0.25500000920E-02 0.  1.
       -2    1    3    3    0  502  0.18574544264E+04  0.67291583511E+03  0.14767116727E+03  0.19811005630E+04  0.25500000920E-02 0. -1.
</event>
<event>
 5   0  0.6645526E-09  0.4003361E+04  0.7818609E-02  0.8003869E-01
        2   -1    0    0  501    0  0.00000000000E+00  0.00000000000E+00  0.23105718526E+04  0.23105718526E+04  0.25500000920E-02 0. -1.
       -2   -1    0    0    0  501  0.00000000000E+00  0.00000000000E+00 -0.17340840405E+04  0.17340840405E+04  0.25500000920E-02 0.  1.
    10030    2    1    2    0    0  0.00000000000E+00  0.00000000000E+00  0.57648781213E+03  0.40446558931E+04  0.40033614746E+04 0.  0.
        3    1    3    3  502    0 -0.19755831602E+04 -0.18440951917E+03  0.21340822296E+02  0.19842860515E+04  0.10100000352E+00 0.  1.
       -3    1    3    3    0  502  0.19755831602E+04  0.18440951917E+03  0.55514698983E+03  0.20603698416E+04  0.10100000352E+00 0. -1.
</event>
<event>
 5   0  0.6599276E-09  0.3999037E+04  0.7818609E-02  0.8004741E-01
       -2   -1    0    0    0  501  0.00000000000E+00  0.00000000000E+00  0.17770823892E+04  0.17770823892E+04  0.25500000920E-02 0. -1.
        2   -1    0    0  501    0  0.00000000000E+00  0.00000000000E+00 -0.22497966544E+04  0.22497966544E+04  0.25500000920E-02 0.  1.
    10030    2    1    2    0    0  0.00000000000E+00  0.00000000000E+00 -0.47271426517E+03  0.40268790436E+04  0.39990368910E+04 0.  0.
        2    1    3    3  502    0  0.63095451861E+03  0.17856041667E+04 -0.88237512780E+03  0.20892754033E+04  0.25500000920E-02 0.  1.
       -2    1    3    3    0  502 -0.63095451861E+03 -0.17856041667E+04  0.40966086262E+03  0.19376036403E+04  0.25500000920E-02 0. -1.
</event>
<event>
 5   0  0.6736335E-09  0.4000518E+04  0.7818609E-02  0.8004442E-01
       -2   -1    0    0    0  501  0.00000000000E+00  0.00000000000E+00  0.25863036641E+04  0.25863036641E+04  0.25500000920E-02 0.  1.
        2   -1    0    0  501    0  0.00000000000E+00  0.00000000000E+00 -0.15470095773E+04  0.15470095773E+04  0.25500000920E-02 0. -1.
    10030    2    1    2    0    0  0.00000000000E+00  0.00000000000E+00  0.10392940869E+04  0.41333132414E+04  0.40005182355E+04 0.  0.
        1    1    3    3  502    0  0.66761829200E+03 -0.12573953868E+04  0.19713787077E+04  0.24316848792E+04  0.50400001928E-02 0.  1.
       -1    1    3    3    0  502 -0.66761829200E+03  0.12573953868E+04 -0.93208462083E+03  0.17016283622E+04  0.50400001928E-02 0. -1.
</event>
<event>
 5   0  0.2078125E-09  0.3999552E+04  0.7818609E-02  0.8004637E-01
       -1   -1    0    0    0  501  0.00000000000E+00  0.00000000000E+00  0.19619912975E+04  0.19619912975E+04  0.50400001928E-02 0.  1.
        1   -1    0    0  501    0  0.00000000000E+00  0.00000000000E+00 -0.20382886563E+04  0.20382886563E+04  0.50400001928E-02 0. -1.
    10030    2    1    2    0    0  0.00000000000E+00  0.00000000000E+00 -0.76297358858E+02  0.40002799538E+04  0.39995522777E+04 0.  0.
        2    1    3    3  502    0  0.18302869435E+04 -0.58796953999E+02  0.76555039671E+03  0.19848110206E+04  0.25500000920E-02 0. -1.
       -2    1    3    3    0  502 -0.18302869435E+04  0.58796953999E+02 -0.84184775556E+03  0.20154689333E+04  0.25500000920E-02 0.  1.
</event>
<event>
 5   0  0.6538370E-09  0.3999566E+04  0.7818609E-02  0.8004634E-01
        2   -1    0    0  501    0  0.00000000000E+00  0.00000000000E+00  0.21689068637E+04  0.21689068637E+04  0.25500000920E-02 0. -1.
       -2   -1    0    0    0  501  0.00000000000E+00  0.00000000000E+00 -0.18438464828E+04  0.18438464828E+04  0.25500000920E-02 0.  1.
    10030    2    1    2    0    0  0.00000000000E+00  0.00000000000E+00  0.32506038089E+03  0.40127533465E+04  0.39995656225E+04 0.  0.
        4    1    3    3  502    0 -0.84280934983E+03 -0.16181511403E+04  0.98400276275E+03  0.20729215526E+04  0.12699999809E+01 0. -1.
       -4    1    3    3    0  502  0.84280934983E+03  0.16181511403E+04 -0.65894238186E+03  0.19398317939E+04  0.12699999809E+01 0.  1.
</event>
<event>
 5   0  0.2078125E-09  0.3996319E+04  0.7818609E-02  0.8005290E-01
       -1   -1    0    0    0  501  0.00000000000E+00  0.00000000000E+00  0.27283859143E+04  0.27283859143E+04  0.50400001928E-02 0.  1.
        1   -1    0    0  501    0  0.00000000000E+00  0.00000000000E+00 -0.14633712731E+04  0.14633712731E+04  0.50400001928E-02 0. -1.
    10030    2    1    2    0    0  0.00000000000E+00  0.00000000000E+00  0.12650146412E+04  0.41917571874E+04  0.39963190908E+04 0.  0.
        1    1    3    3  502    0 -0.12855764980E+04  0.56570070951E+03  0.21232502533E+04  0.25457642984E+04  0.50400001928E-02 0.  1.
       -1    1    3    3    0  502  0.12855764980E+04 -0.56570070951E+03 -0.85823561206E+03  0.16459928890E+04  0.50400001928E-02 0. -1.
</event>
<event>
 5   0  0.2078125E-09  0.4000389E+04  0.7818609E-02  0.8004468E-01
       -1   -1    0    0    0  501  0.00000000000E+00  0.00000000000E+00  0.23884084793E+04  0.23884084793E+04  0.50400001928E-02 0.  1.
        1   -1    0    0  501    0  0.00000000000E+00  0.00000000000E+00 -0.16750814038E+04  0.16750814038E+04  0.50400001928E-02 0. -1.
    10030    2    1    2    0    0  0.00000000000E+00  0.00000000000E+00  0.71332707548E+03  0.40634898831E+04  0.40003892952E+04 0.  0.
        4    1    3    3  502    0 -0.28187665210E+02 -0.13628032687E+04 -0.11302395045E+04  0.17707259088E+04  0.12699999809E+01 0. -1.
       -4    1    3    3    0  502  0.28187665210E+02  0.13628032687E+04  0.18435665800E+04  0.22927639742E+04  0.12699999809E+01 0.  1.
</event>
<event>
 5   0  0.6645526E-09  0.3997088E+04  0.7818609E-02  0.8005134E-01
        2   -1    0    0  501    0  0.00000000000E+00  0.00000000000E+00  0.16075404625E+04  0.16075404625E+04  0.25500000920E-02 0. -1.
       -2   -1    0    0    0  501  0.00000000000E+00  0.00000000000E+00 -0.24846510683E+04  0.24846510683E+04  0.25500000920E-02 0.  1.
    10030    2    1    2    0    0  0.00000000000E+00  0.00000000000E+00 -0.87711060584E+03  0.40921915307E+04  0.39970875034E+04 0.  0.
        3    1    3    3  502    0 -0.85427725766E+03 -0.17884916195E+04 -0.70094458842E+03  0.21023356611E+04  0.10100000352E+00 0. -1.
       -3    1    3    3    0  502  0.85427725766E+03  0.17884916195E+04 -0.17616601742E+03  0.19898558696E+04  0.10100000352E+00 0.  1.
</event>
<event>
 5   0  0.2078125E-09  0.4001751E+04  0.7818609E-02  0.8004193E-01
       -1   -1    0    0    0  501  0.00000000000E+00  0.00000000000E+00  0.20771991354E+04  0.20771991354E+04  0.50400001928E-02 0. -1.
        1   -1    0    0  501    0  0.00000000000E+00  0.00000000000E+00 -0.19273561097E+04  0.19273561097E+04  0.50400001928E-02 0.  1.
    10030    2    1    2    0    0  0.00000000000E+00  0.00000000000E+00  0.14984302569E+03  0.40045552451E+04  0.40017508392E+04 0.  0.
        5    1    3    3  502    0 -0.47135643185E+03 -0.19233494134E+04 -0.21168887793E+03  0.19915531936E+04  0.46999998093E+01 0.  1.
       -5    1    3    3    0  502  0.47135643185E+03  0.19233494134E+04  0.36153190362E+03  0.20130020515E+04  0.46999998093E+01 0. -1.
</event>
<event>
 5   0  0.6645526E-09  0.4001358E+04  0.7818609E-02  0.8004273E-01
       -2   -1    0    0    0  501  0.00000000000E+00  0.00000000000E+00  0.14116427841E+04  0.14116427841E+04  0.25500000920E-02 0.  1.
        2   -1    0    0  501    0  0.00000000000E+00  0.00000000000E+00 -0.28355027291E+04  0.28355027291E+04  0.25500000920E-02 0. -1.
    10030    2    1    2    0    0  0.00000000000E+00  0.00000000000E+00 -0.14238599450E+04  0.42471455132E+04  0.40013582529E+04 0.  0.
        3    1    3    3  502    0 -0.11361684665E+04  0.14909846826E+04  0.30160008547E+02  0.18747863196E+04  0.10100000352E+00 0.  1.
       -3    1    3    3    0  502  0.11361684665E+04 -0.14909846826E+04 -0.14540199535E+04  0.23723591936E+04  0.10100000352E+00 0. -1.
</event>
<event>
 5   0  0.2078125E-09  0.4000292E+04  0.7818609E-02  0.8004488E-01
        1   -1    0    0  501    0  0.00000000000E+00  0.00000000000E+00  0.23916872480E+04  0.23916872480E+04  0.50400001928E-02 0.  1.
       -1   -1    0    0    0  501  0.00000000000E+00  0.00000000000E+00 -0.16727040671E+04  0.16727040671E+04  0.50400001928E-02 0. -1.
    10030    2    1    2    0    0  0.00000000000E+00  0.00000000000E+00  0.71898318092E+03  0.40643913151E+04  0.40002924828E+04 0.  0.
        1    1    3    3  502    0 -0.17814012451E+04 -0.22344129492E+02  0.12832885126E+04  0.21956135960E+04  0.50400001928E-02 0.  1.
       -1    1    3    3    0  502  0.17814012451E+04  0.22344129492E+02 -0.56430533167E+03  0.18687777191E+04  0.50400001928E-02 0. -1.
</event>
<event>
 5   0  0.2078125E-09  0.3999760E+04  0.7818609E-02  0.8004595E-01
        3   -1    0    0  501    0  0.00000000000E+00  0.00000000000E+00  0.23420605895E+04  0.23420605917E+04  0.10100000352E+00 0. -1.
       -3   -1    0    0    0  501  0.00000000000E+00  0.00000000000E+00 -0.17076931185E+04  0.17076931215E+04  0.10100000352E+00 0.  1.
    10030    2    1    2    0    0  0.00000000000E+00  0.00000000000E+00  0.63436747099E+03  0.40497537132E+04  0.39997603740E+04 0.  0.
        3    1    3    3  502    0 -0.10794751636E+04  0.16540017817E+04 -0.63814553908E+00  0.19750921346E+04  0.10100000352E+00 0.  1.
       -3    1    3    3    0  502  0.10794751636E+04 -0.16540017817E+04  0.63500561653E+03  0.20746615786E+04  0.10100000352E+00 0. -1.
</event>
<event>
 5   0  0.6547327E-09  0.4001300E+04  0.7818609E-02  0.8004284E-01
       -2   -1    0    0    0  501  0.00000000000E+00  0.00000000000E+00  0.19931480756E+04  0.19931480756E+04  0.25500000920E-02 0.  1.
        2   -1    0    0  501    0  0.00000000000E+00  0.00000000000E+00 -0.20081802054E+04  0.20081802054E+04  0.25500000920E-02 0. -1.
    10030    2    1    2    0    0  0.00000000000E+00  0.00000000000E+00 -0.15032129823E+02  0.40013282810E+04  0.40013000446E+04 0.  0.
        5    1    3    3  502    0  0.82483776486E+03  0.12437468145E+04  0.13249027885E+04  0.19956585294E+04  0.46999998093E+01 0. -1.
       -5    1    3    3    0  502 -0.82483776486E+03 -0.12437468145E+04 -0.13399349184E+04  0.20056697516E+04  0.46999998093E+01 0.  1.
</event>
<event>
 5   0  0.2078125E-09  0.3994601E+04  0.7818609E-02  0.8005637E-01
       -1   -1    0    0    0  501  0.00000000000E+00  0.00000000000E+00  0.17046579730E+04  0.17046579730E+04  0.50400001928E-02 0.  1.
        1   -1    0    0  501    0  0.00000000000E+00  0.00000000000E+00 -0.23401818663E+04  0.23401818663E+04  0.50400001928E-02 0. -1.
    10030    2    1    2    0    0  0.00000000000E+00  0.00000000000E+00 -0.63552389329E+03  0.40448398393E+04  0.39946011950E+04 0.  0.
        1    1    3    3  502    0  0.47371504177E+03  0.87979197759E+03 -0.20688960114E+04  0.22975575228E+04  0.50400001928E-02 0. -1.
       -1    1    3    3    0  502 -0.47371504177E+03 -0.87979197759E+03  0.14333721181E+04  0.17472823165E+04  0.50400001928E-02 0.  1.
</event>
<event>
 5   0  0.6547327E-09  0.3998742E+04  0.7818609E-02  0.8004800E-01
        2   -1    0    0  501    0  0.00000000000E+00  0.00000000000E+00  0.26146764155E+04  0.26146764155E+04  0.25500000920E-02 0. -1.
       -2   -1    0    0    0  501  0.00000000000E+00  0.00000000000E+00 -0.15288641537E+04  0.15288641537E+04  0.25500000920E-02 0.  1.
    10030    2    1    2    0    0  0.00000000000E+00  0.00000000000E+00  0.10858122618E+04  0.41435405693E+04  0.39987423250E+04 0.  0.
        5    1    3    3  502    0  0.18942149551E+03  0.26755861201E+03 -0.15008199564E+04  0.15362131184E+04  0.46999998093E+01 0.  1.
       -5    1    3    3    0  502 -0.18942149551E+03 -0.26755861201E+03  0.25866322182E+04  0.26073274509E+04  0.46999998093E+01 0. -1.
</event>
<event>
 5   0  0.2078125E-09  0.4000215E+04  0.7818609E-02  0.8004503E-01
        1   -1    0    0  501    0  0.00000000000E+00  0.00000000000E+00  0.28625490661E+04  0.28625490661E+04  0.50400001928E-02 0. -1.
       -1   -1    0    0    0  501  0.00000000000E+00  0.00000000000E+00 -0.13975059581E+04  0.13975059581E+04  0.50400001928E-02 0.  1.
    10030    2    1    2    0    0  0.00000000000E+00  0.00000000000E+00  0.14650431080E+04  0.42600550243E+04  0.40002146819E+04 0.  0.
        2    1    3    3  502    0  0.39716283632E+03 -0.45417262541E+03 -0.12982862584E+04  0.14316278501E+04  0.25500000920E-02 0.  1.
       -2    1    3    3    0  502 -0.39716283632E+03  0.45417262541E+03  0.27633293664E+04  0.28284271742E+04  0.25500000920E-02 0. -1.
</event>
<event>
 5   0  0.2078125E-09  0.4000256E+04  0.7818609E-02  0.8004495E-01
        1   -1    0    0  501    0  0.00000000000E+00  0.00000000000E+00  0.19668122153E+04  0.19668122153E+04  0.50400001928E-02 0.  1.
       -1   -1    0    0    0  501  0.00000000000E+00  0.00000000000E+00 -0.20340086180E+04  0.20340086180E+04  0.50400001928E-02 0. -1.
    10030    2    1    2    0    0  0.00000000000E+00  0.00000000000E+00 -0.67196402714E+02  0.40008208332E+04  0.40002564897E+04 0.  0.
        3    1    3    3  502    0 -0.53787742213E+03  0.15668748461E+04  0.10873204042E+04  0.19815838555E+04  0.10100000352E+00 0.  1.
       -3    1    3    3    0  502  0.53787742213E+03 -0.15668748461E+04 -0.11545168069E+04  0.20192369778E+04  0.10100000352E+00 0. -1.
</event>
<event>
 5   0  0.2078125E-09  0.4000723E+04  0.7818609E-02  0.8004401E-01
       -1   -1    0    0    0  501  0.00000000000E+00  0.00000000000E+00  0.26969235429E+04  0.26969235429E+04  0.50400001928E-02 0. -1.
        1   -1    0    0  501    0  0.00000000000E+00  0.00000000000E+00 -0.14837073770E+04  0.14837073770E+04  0.50400001928E-02 0.  1.
    10030    2    1    2    0    0  0.00000000000E+00  0.00000000000E+00  0.12132161659E+04  0.41806309199E+04  0.40007226127E+04 0.  0.
        5    1    3    3  502    0 -0.50327479074E+03  0.13438433163E+04  0.20629150315E+04  0.25129347168E+04  0.46999998093E+01 0. -1.
       -5    1    3    3    0  502  0.50327479074E+03 -0.13438433163E+04 -0.84969886560E+03  0.16676962031E+04  0.46999998093E+01 0.  1.
</event>
<event>
 5   0  0.6599276E-09  0.4001468E+04  0.7818609E-02  0.8004250E-01
       -2   -1    0    0    0  501  0.00000000000E+00  0.00000000000E+00  0.18216959331E+04  0.18216959331E+04  0.25500000920E-02 0. -1.
        2   -1    0    0  501    0  0.00000000000E+00  0.00000000000E+00 -0.21973679980E+04  0.21973679981E+04  0.25500000920E-02 0.  1.
    10030    2    1    2    0    0  0.00000000000E+00  0.00000000000E+00 -0.37567206495E+03  0.40190639312E+04  0.40014679034E+04 0.  0.
        2    1    3    3  502    0 -0.18590999876E+04  0.10216114468E+02 -0.93039702610E+03  0.20789410187E+04  0.25500000920E-02 0.  1.
       -2    1    3    3    0  502  0.18590999876E+04 -0.10216114468E+02  0.55472496115E+03  0.19401229125E+04  0.25500000920E-02 0. -1.
</event>
<event>
 5   0  0.6736335E-09  0.3998498E+04  0.7818609E-02  0.8004850E-01
        2   -1    0    0  501    0  0.00000000000E+00  0.00000000000E+00  0.20879685965E+04  0.20879685965E+04  0.25500000920E-02 0.  1.
       -2   -1    0    0    0  501  0.00000000000E+00  0.00000000000E+00 -0.19142987450E+04  0.19142987450E+04  0.25500000920E-02 0. -1.
    10030    2    1    2    0    0  0.00000000000E+00  0.00000000000E+00  0.17366985147E+03  0.40022673415E+04  0.39984975497E+04 0.  0.
        1    1    3    3  502    0 -0.77896049116E+03  0.16277896442E+04 -0.77450941392E+03  0.19637574710E+04  0.50400001928E-02 0. -1.
       -1    1    3    3    0  502  0.77896049116E+03 -0.16277896442E+04  0.94817926538E+03  0.20385098705E+04  0.50400001928E-02 0.  1.
</event>
<event>
 5   0  0.2078125E-09  0.3999706E+04  0.7818609E-02  0.8004606E-01
        1   -1    0    0  501    0  0.00000000000E+00  0.00000000000E+00  0.21380931857E+04  0.21380931857E+04  0.50400001928E-02 0. -1.
       -1   -1    0    0    0  501  0.00000000000E+00  0.00000000000E+00 -0.18705512267E+04  0.18705512267E+04  0.50400001928E-02 0.  1.
    10030    2    1    2    0    0  0.00000000000E+00  0.00000000000E+00  0.26754195900E+03  0.40086444125E+04  0.39997064050E+04 0.  0.
        1    1    3    3  502    0 -0.53847189721E+03 -0.17134470086E+04  0.10152591282E+04  0.20631538316E+04  0.50400001928E-02 0. -1.
       -1    1    3    3    0  502  0.53847189721E+03  0.17134470086E+04 -0.74771716922E+03  0.19454905809E+04  0.50400001928E-02 0.  1.
</event>
<event>
 5   0  0.2078125E-09  0.4000211E+04  0.7818609E-02  0.8004504E-01
        1   -1    0    0  501    0  0.00000000000E+00  0.00000000000E+00  0.17624686067E+04  0.17624686067E+04  0.50400001928E-02 0. -1.
       -1   -1    0    0    0  501  0.00000000000E+00  0.00000000000E+00 -0.22697837251E+04  0.22697837251E+04  0.50400001928E-02 0.  1.
    10030    2    1    2    0    0  0.00000000000E+00  0.00000000000E+00 -0.50731511842E+03  0.40322523318E+04  0.40002112741E+04 0.  0.
        3    1    3    3  502    0 -0.53990864594E+03  0.17276214492E+04  0.60418507072E+03  0.19081972717E+04  0.10100000352E+00 0. -1.
       -3    1    3    3    0  502  0.53990864594E+03 -0.17276214492E+04 -0.11115001891E+04  0.21240550601E+04  0.10100000352E+00 0.  1.
</event>
<event>
 5   0  0.2078125E-09  0.4000114E+04  0.7818609E-02  0.8004524E-01
        1   -1    0    0  501    0  0.00000000000E+00  0.00000000000E+00  0.15066592283E+04  0.15066592283E+04  0.50400001928E-02 0. -1.
       -1   -1    0    0    0  501  0.00000000000E+00  0.00000000000E+00 -0.26550316018E+04  0.26550316018E+04  0.50400001928E-02 0.  1.
    10030    2    1    2    0    0  0.00000000000E+00  0.00000000000E+00 -0.11483723735E+04  0.41616908301E+04  0.40001139306E+04 0.  0.
        3    1    3    3  502    0 -0.89353098780E+03  0.91473356010E+03  0.10258195516E+04  0.16393415979E+04  0.10100000352E+00 0. -1.
       -3    1    3    3    0  502  0.89353098780E+03 -0.91473356010E+03 -0.21741919250E+04  0.25223492322E+04  0.10100000352E+00 0.  1.
</event>
<event>
 5   0  0.2078125E-09  0.4002234E+04  0.7818609E-02  0.8004096E-01
       -1   -1    0    0    0  501  0.00000000000E+00  0.00000000000E+00  0.21543429352E+04  0.21543429352E+04  0.50400001928E-02 0. -1.
        1   -1    0    0  501    0  0.00000000000E+00  0.00000000000E+00 -0.18587893711E+04  0.18587893711E+04  0.50400001928E-02 0.  1.
    10030    2    1    2    0    0  0.00000000000E+00  0.00000000000E+00  0.29555356407E+03  0.40131323063E+04  0.40022342508E+04 0.  0.
        4    1    3    3  502    0 -0.18183542564E+04 -0.78716854182E+03  0.42857793289E+03  0.20272462042E+04  0.12699999809E+01 0. -1.
       -4    1    3    3    0  502  0.18183542564E+04  0.78716854182E+03 -0.13302436882E+03  0.19858861021E+04  0.12699999809E+01 0.  1.
</event>
<event>
 5   0  0.6736335E-09  0.4008807E+04  0.7818609E-02  0.8002772E-01
       -2   -1    0    0    0  501  0.00000000000E+00  0.00000000000E+00  0.16494596343E+04  0.16494596343E+04  0.25500000920E-02 0. -1.
        2   -1    0    0  501    0  0.00000000000E+00  0.00000000000E+00 -0.24357266480E+04  0.24357266480E+04  0.25500000920E-02 0.  1.
    10030    2    1    2    0    0  0.00000000000E+00  0.00000000000E+00 -0.78626701378E+03  0.40851862823E+04  0.40088066983E+04 0.  0.
        1    1    3    3  502    0  0.55316224359E+03 -0.18274738867E+04  0.22839148216E+03  0.19229695638E+04  0.50400001928E-02 0. -1.
       -1    1    3    3    0  502 -0.55316224359E+03  0.18274738867E+04 -0.10146584959E+04  0.21622167185E+04  0.50400001928E-02 0.  1.
</event>
<event>
 5   0  0.6645526E-09  0.4000929E+04  0.7818609E-02  0.8004359E-01
       -2   -1    0    0    0  501  0.00000000000E+00  0.00000000000E+00  0.25301818780E+04  0.25301818780E+04  0.25500000920E-02 0.  1.
        2   -1    0    0  501    0  0.00000000000E+00  0.00000000000E+00 -0.15816486525E+04  0.15816486525E+04  0.25500000920E-02 0. -1.
    10030    2    1    2    0    0  0.00000000000E+00  0.00000000000E+00  0.94853322541E+03  0.41118305305E+04  0.40009292710E+04 0.  0.
        3    1    3    3  502    0 -0.19228085880E+02 -0.18676709439E+04  0.12105712617E+04  0.22257689152E+04  0.10100000352E+00 0. -1.
       -3    1    3    3    0  502  0.19228085880E+02  0.18676709439E+04 -0.26203803627E+03  0.18860616153E+04  0.10100000352E+00 0.  1.
</event>
<event>
 5   0  0.2078125E-09  0.3998824E+04  0.7818609E-02  0.8004784E-01
       -1   -1    0    0    0  501  0.00000000000E+00  0.00000000000E+00  0.21258609855E+04  0.21258609856E+04  0.50400001928E-02 0.  1.
        1   -1    0    0  501    0  0.00000000000E+00  0.00000000000E+00 -0.18804841820E+04  0.18804841820E+04  0.50400001928E-02 0. -1.
    10030    2    1    2    0    0  0.00000000000E+00  0.00000000000E+00  0.24537680357E+03  0.40063451675E+04  0.39988238053E+04 0.  0.
        3    1    3    3  502    0  0.13548443343E+04  0.11873130505E+04 -0.74631405657E+03  0.19499487509E+04  0.10100000352E+00 0. -1.
       -3    1    3    3    0  502 -0.13548443343E+04 -0.11873130505E+04  0.99169086014E+03  0.20563964166E+04  0.10100000352E+00 0.  1.
</event>
<event>
 5   0  0.6538370E-09  0.4003296E+04  0.7818609E-02  0.8003882E-01
       -2   -1    0    0    0  501  0.00000000000E+00  0.00000000000E+00  0.14262145547E+04  0.14262145547E+04  0.25500000920E-02 0.  1.
        2   -1    0    0  501    0  0.00000000000E+00  0.00000000000E+00 -0.28092515065E+04  0.28092515065E+04  0.25500000920E-02 0. -1.
    10030    2    1    2    0    0  0.00000000000E+00  0.00000000000E+00 -0.13830369518E+04  0.42354660612E+04  0.40032963349E+04 0.  0.
        4    1    3    3  502    0  0.19127688134E+04  0.45011061520E+03 -0.10948208061E+04  0.22494262179E+04  0.12699999809E+01 0. -1.
       -4    1    3    3    0  502 -0.19127688134E+04 -0.45011061520E+03 -0.28821614578E+03  0.19860398433E+04  0.12699999809E+01 0.  1.
</event>
<event>
 5   0  0.2078125E-09  0.3998148E+04  0.7818609E-02  0.8004920E-01
        1   -1    0    0  501    0  0.00000000000E+00  0.00000000000E+00  0.27870958206E+04  0.27870958206E+04  0.50400001928E-02 0.  1.
       -1   -1    0    0    0  501  0.00000000000E+00  0.00000000000E+00 -0.14338570180E+04  0.14338570180E+04  0.50400001928E-02 0. -1.
    10030    2    1    2    0    0  0.00000000000E+00  0.00000000000E+00  0.13532388026E+04  0.42209528386E+04  0.39981480224E+04 0.  0.
        5    1    3    3  502    0  0.74712580383E+03  0.14672016868E+04 -0.52031481255E+03  0.17267389353E+04  0.46999998093E+01 0. -1.
       -5    1    3    3    0  502 -0.74712580383E+03 -0.14672016868E+04  0.18735536151E+04  0.24942139033E+04  0.46999998093E+01 0.  1.
</event>
<event>
 5   0  0.2078125E-09  0.4007415E+04  0.7818609E-02  0.8003052E-01
       -1   -1    0    0    0  501  0.00000000000E+00  0.00000000000E+00  0.28316540503E+04  0.28316540503E+04  0.50400001928E-02 0.  1.
        1   -1    0    0  501    0  0.00000000000E+00  0.00000000000E+00 -0.14178441002E+04  0.14178441002E+04  0.50400001928E-02 0. -1.
    10030    2    1    2    0    0  0.00000000000E+00  0.00000000000E+00  0.14138099501E+04  0.42494981505E+04  0.40074151215E+04 0.  0.
        5    1    3    3  502    0 -0.14939459614E+04  0.27093981344E+03  0.20933824425E+04  0.25860307536E+04  0.46999998093E+01 0.  1.
       -5    1    3    3    0  502  0.14939459614E+04 -0.27093981344E+03 -0.67957249239E+03  0.16634673969E+04  0.46999998093E+01 0. -1.
</event>
<event>
 5   0  0.6645526E-09  0.3998826E+04  0.7818609E-02  0.8004784E-01
       -2   -1    0    0    0  501  0.00000000000E+00  0.00000000000E+00  0.31300446386E+04  0.31300446386E+04  0.25500000920E-02 0. -1.
        2   -1    0    0  501    0  0.00000000000E+00  0.00000000000E+00 -0.12771867124E+04  0.12771867124E+04  0.25500000920E-02 0.  1.
    10030    2    1    2    0    0  0.00000000000E+00  0.00000000000E+00  0.18528579262E+04  0.44072313511E+04  0.39988255385E+04 0.  0.
        3    1    3    3  502    0  0.18899962902E+04  0.52702782254E+03  0.50270692472E+03  0.20254773672E+04  0.10100000352E+00 0.  1.
       -3    1    3    3    0  502 -0.18899962902E+04 -0.52702782254E+03  0.13501510015E+04  0.23817539839E+04  0.10100000352E+00 0. -1.
</event>
<event>
 5   0  0.2078125E-09  0.3998927E+04  0.7818609E-02  0.8004763E-01
       -1   -1    0    0    0  501  0.00000000000E+00  0.00000000000E+00  0.24082748459E+04  0.24082748459E+04  0.50400001928E-02 0. -1.
        1   -1    0    0  501    0  0.00000000000E+00  0.00000000000E+00 -0.16600493870E+04  0.16600493870E+04  0.50400001928E-02 0.  1.
    10030    2    1    2    0    0  0.00000000000E+00  0.00000000000E+00  0.74822545890E+03  0.40683242329E+04  0.39989274470E+04 0.  0.
        4    1    3    3  502    0  0.78542077208E+03  0.10279134916E+04  0.19251558861E+04  0.23194220690E+04  0.12699999809E+01 0. -1.
       -4    1    3    3    0  502 -0.78542077208E+03 -0.10279134916E+04 -0.11769304272E+04  0.17489021639E+04  0.12699999809E+01 0.  1.
</event>
<event>
 5   0  0.2078125E-09  0.3999251E+04  0.7818609E-02  0.8004698E-01
       -1   -1    0    0    0  501  0.00000000000E+00  0.00000000000E+00  0.12040453243E+04  0.12040453243E+04  0.50400001928E-02 0.  1.
        1   -1    0    0  501    0  0.00000000000E+00  0.00000000000E+00 -0.33208898255E+04  0.33208898255E+04  0.50400001928E-02 0. -1.
    10030    2    1    2    0    0  0.00000000000E+00  0.00000000000E+00 -0.21168445011E+04  0.45249351498E+04  0.39992508634E+04 0.  0.
        3    1    3    3  502    0  0.13628704382E+04 -0.13728064323E+04 -0.48540501914E+03  0.19944000037E+04  0.10100000352E+00 0. -1.
       -3    1    3    3    0  502 -0.13628704382E+04  0.13728064323E+04 -0.16314394820E+04  0.25305351461E+04  0.10100000352E+00 0.  1.
</event>
<event>
 5   0  0.6599276E-09  0.3999714E+04  0.7818609E-02  0.8004604E-01
        2   -1    0    0  501    0  0.00000000000E+00  0.00000000000E+00  0.30528604216E+04  0.30528604216E+04  0.25500000920E-02 0.  1.
       -2   -1    0    0    0  501  0.00000000000E+00  0.00000000000E+00 -0.13100593835E+04  0.13100593835E+04  0.25500000920E-02 0. -1.
    10030    2    1    2    0    0  0.00000000000E+00  0.00000000000E+00  0.17428010380E+04  0.43629198051E+04  0.39997142108E+04 0.  0.
        2    1    3    3  502    0 -0.55669367443E+03  0.19186350874E+04  0.77166466592E+03  0.21416196680E+04  0.25500000920E-02 0. -1.
       -2    1    3    3    0  502  0.55669367443E+03 -0.19186350874E+04  0.97113637210E+03  0.22213001371E+04  0.25500000920E-02 0.  1.
</event>
<event>
 5   0  0.2078125E-09  0.3999833E+04  0.7818609E-02  0.8004580E-01
       -1   -1    0    0    0  501  0.00000000000E+00  0.00000000000E+00  0.15361248898E+04  0.15361248898E+04  0.50400001928E-02 0. -1.
        1   -1    0    0  501    0  0.00000000000E+00  0.00000000000E+00 -0.26037378380E+04  0.26037378380E+04  0.50400001928E-02 0.  1.
    10030    2    1    2    0    0  0.00000000000E+00  0.00000000000E+00 -0.10676129482E+04  0.41398627278E+04  0.39998332462E+04 0.  0.
        1    1    3    3  502    0  0.74364458719E+03  0.12351183052E+04  0.90077027627E+03  0.16999739970E+04  0.50400001928E-02 0. -1.
       -1    1    3    3    0  502 -0.74364458719E+03 -0.12351183052E+04 -0.19683832245E+04  0.24398887308E+04  0.50400001928E-02 0.  1.
</event>
<event>
 5   0  0.6736335E-09  0.4000329E+04  0.7818609E-02  0.8004480E-01
        2   -1    0    0  501    0  0.00000000000E+00  0.00000000000E+00  0.24669776111E+04  0.24669776111E+04  0.25500000920E-02 0. -1.
       -2   -1    0    0    0  501  0.00000000000E+00  0.00000000000E+00 -0.16216841989E+04  0.16216841989E+04  0.25500000920E-02 0.  1.
    10030    2    1    2    0    0  0.00000000000E+00  0.00000000000E+00  0.84529341222E+03  0.40886618100E+04  0.40003292920E+04 0.  0.
        1    1    3    3  502    0  0.68437146323E+03 -0.74466048675E+03  0.21863738240E+04  0.24089653461E+04  0.50400001928E-02 0. -1.
       -1    1    3    3    0  502 -0.68437146323E+03  0.74466048675E+03 -0.13410804118E+04  0.16796964640E+04  0.50400001928E-02 0.  1.
</event>
<event>
 5   0  0.2078125E-09  0.4001804E+04  0.7818609E-02  0.8004183E-01
       -1   -1    0    0    0  501  0.00000000000E+00  0.00000000000E+00  0.20144884989E+04  0.20144884989E+04  0.50400001928E-02 0. -1.
        1   -1    0    0  501    0  0.00000000000E+00  0.00000000000E+00 -0.19874068078E+04  0.19874068079E+04  0.50400001928E-02 0.  1.
    10030    2    1    2    0    0  0.00000000000E+00  0.00000000000E+00  0.27081691061E+02  0.40018953068E+04  0.40018036719E+04 0.  0.
        2    1    3    3  502    0 -0.41732472189E+03 -0.18939782734E+04  0.50578634308E+03  0.20042787851E+04  0.25500000920E-02 0. -1.
       -2    1    3    3    0  502  0.41732472189E+03  0.18939782734E+04 -0.47870465202E+03  0.19976165216E+04  0.25500000920E-02 0.  1.
</event>
<event>
 5   0  0.2078125E-09  0.4001644E+04  0.7818609E-02  0.8004215E-01
       -1   -1    0    0    0  501  0.00000000000E+00  0.00000000000E+00  0.28287242318E+04  0.28287242318E+04  0.50400001928E-02 0.  1.
        1   -1    0    0  501    0  0.00000000000E+00  0.00000000000E+00 -0.14152274238E+04  0.14152274238E+04  0.50400001928E-02 0. -1.
    10030    2    1    2    0    0  0.00000000000E+00  0.00000000000E+00  0.14134968080E+04  0.42439516556E+04  0.40016437159E+04 0.  0.
        4    1    3    3  502    0  0.15001359958E+04 -0.87514108260E+03  0.17603878756E+04  0.24729025468E+04  0.12699999809E+01 0.  1.
       -4    1    3    3    0  502 -0.15001359958E+04  0.87514108260E+03 -0.34689106758E+03  0.17710491088E+04  0.12699999809E+01 0. -1.
</event>
<event>
 5   0  0.6645526E-09  0.3998426E+04  0.7818609E-02  0.8004864E-01
       -2   -1    0    0    0  501  0.00000000000E+00  0.00000000000E+00  0.27557620788E+04  0.27557620788E+04  0.25500000920E-02 0.  1.
        2   -1    0    0  501    0  0.00000000000E+00  0.00000000000E+00 -0.14503618075E+04  0.14503618075E+04  0.25500000920E-02 0. -1.
    10030    2    1    2    0    0  0.00000000000E+00  0.00000000000E+00  0.13054002714E+04  0.42061238863E+04  0.39984257250E+04 0.  0.
        3    1    3    3  502    0  0.18548436465E+03 -0.48119475009E+03 -0.13791879619E+04  0.14724511134E+04  0.10100000352E+00 0. -1.
       -3    1    3    3    0  502 -0.18548436465E+03  0.48119475009E+03  0.26845882332E+04  0.27336727729E+04  0.10100000352E+00 0.  1.
</event>
<event>
 5   0  0.2078125E-09  0.4000917E+04  0.7818609E-02  0.8004361E-01
       -1   -1    0    0    0  501  0.00000000000E+00  0.00000000000E+00  0.13714737327E+04  0.13714737327E+04  0.50400001928E-02 0.  1.
        1   -1    0    0  501    0  0.00000000000E+00  0.00000000000E+00 -0.29179086833E+04  0.29179086833E+04  0.50400001928E-02 0. -1.
    10030    2    1    2    0    0  0.00000000000E+00  0.00000000000E+00 -0.15464349506E+04  0.42893824159E+04  0.40009174515E+04 0.  0.
        3    1    3    3  502    0  0.10059872612E+04  0.16846064803E+04 -0.35533817724E+03  0.19940347523E+04  0.10100000352E+00 0.  1.
       -3    1    3    3    0  502 -0.10059872612E+04 -0.16846064803E+04 -0.11910967733E+04  0.22953476636E+04  0.10100000352E+00 0. -1.
</event>
<event>
 5   0  0.6599276E-09  0.3999466E+04  0.7818609E-02  0.8004654E-01
       -2   -1    0    0    0  501  0.00000000000E+00  0.00000000000E+00  0.17147777346E+04  0.17147777346E+04  0.25500000920E-02 0.  1.
        2   -1    0    0  501    0  0.00000000000E+00  0.00000000000E+00 -0.23320415625E+04  0.23320415625E+04  0.25500000920E-02 0. -1.
    10030    2    1    2    0    0  0.00000000000E+00  0.00000000000E+00 -0.61726382793E+03  0.40468192971E+04  0.39994664382E+04 0.  0.
        2    1    3    3  502    0 -0.12949769078E+04 -0.14896475140E+04 -0.63323863556E+03  0.20729221108E+04  0.25500000920E-02 0. -1.
       -2    1    3    3    0  502  0.12949769078E+04  0.14896475140E+04  0.15974807629E+02  0.19738971863E+04  0.25500000920E-02 0.  1.
</event>
<event>
 5   0  0.6645526E-09  0.4000374E+04  0.7818609E-02  0.8004471E-01
        2   -1    0    0  501    0  0.00000000000E+00  0.00000000000E+00  0.17153974634E+04  0.17153974634E+04  0.25500000920E-02 0.  1.
       -2   -1    0    0    0  501  0.00000000000E+00  0.00000000000E+00 -0.23322575650E+04  0.23322575650E+04  0.25500000920E-02 0. -1.
    10030    2    1    2    0    0  0.00000000000E+00  0.00000000000E+00 -0.61686010166E+03  0.40476550284E+04  0.40003743380E+04 0.  0.
        3    1    3    3  502    0 -0.15832049935E+03  0.13451987536E+04  0.11807406375E+04  0.17968788302E+04  0.10100000352E+00 0.  1.
       -3    1    3    3    0  502  0.15832049935E+03 -0.13451987536E+04 -0.17976007391E+04  0.22507761983E+04  0.10100000352E+00 0. -1.
</event>
<event>
 5   0  0.6599276E-09  0.3999496E+04  0.7818609E-02  0.8004648E-01
        2   -1    0    0  501    0  0.00000000000E+00  0.00000000000E+00  0.21186095301E+04  0.21186095301E+04  0.25500000920E-02 0.  1.
       -2   -1    0    0    0  501  0.00000000000E+00  0.00000000000E+00 -0.18875550209E+04  0.18875550209E+04  0.25500000920E-02 0. -1.
    10030    2    1    2    0    0  0.00000000000E+00  0.00000000000E+00  0.23105450923E+03  0.40061645510E+04  0.39994959962E+04 0.  0.
        2    1    3    3  502    0 -0.11459088138E+04 -0.15592764199E+04 -0.38983560649E+03  0.19739356026E+04  0.25500000920E-02 0.  1.
       -2    1    3    3    0  502  0.11459088138E+04  0.15592764199E+04  0.62089011572E+03  0.20322289484E+04  0.25500000920E-02 0. -1.
</event>
<event>
 5   0  0.6599276E-09  0.3999579E+04  0.7818609E-02  0.8004631E-01
        2   -1    0    0  501    0  0.00000000000E+00  0.00000000000E+00  0.30210633368E+04  0.30210633368E+04  0.25500000920E-02 0.  1.
       -2   -1    0    0    0  501  0.00000000000E+00  0.00000000000E+00 -0.13237585917E+04  0.13237585917E+04  0.25500000920E-02 0. -1.
    10030    2    1    2    0    0  0.00000000000E+00  0.00000000000E+00  0.16973047451E+04  0.43448219285E+04  0.39995792520E+04 0.  0.
        2    1    3    3  502    0 -0.37013184249E+03 -0.19474259619E+04  0.11354347997E+04  0.22844425233E+04  0.25500000920E-02 0.  1.
       -2    1    3    3    0  502  0.37013184249E+03  0.19474259619E+04  0.56186994545E+03  0.20603794052E+04  0.25500000920E-02 0. -1.
</event>
<event>
 5   0  0.2078125E-09  0.3999037E+04  0.7818609E-02  0.8004741E-01
        3   -1    0    0  501    0  0.00000000000E+00  0.00000000000E+00  0.17660985219E+04  0.17660985248E+04  0.10100000352E+00 0. -1.
       -3   -1    0    0    0  501  0.00000000000E+00  0.00000000000E+00 -0.22637891083E+04  0.22637891105E+04  0.10100000352E+00 0.  1.
    10030    2    1    2    0    0  0.00000000000E+00  0.00000000000E+00 -0.49769058639E+03  0.40298876353E+04  0.39990371883E+04 0.  0.
        4    1    3    3  502    0  0.25352265874E+03 -0.49310820746E+03 -0.21847703698E+04  0.22540303069E+04  0.12699999809E+01 0.  1.
       -4    1    3    3    0  502 -0.25352265874E+03  0.49310820746E+03  0.16870797834E+04  0.17758573285E+04  0.12699999809E+01 0. -1.
</event>
<event>
 5   0  0.2078125E-09  0.4000250E+04  0.7818609E-02  0.8004496E-01
        1   -1    0    0  501    0  0.00000000000E+00  0.00000000000E+00  0.24157535569E+04  0.24157535569E+04  0.50400001928E-02 0. -1.
       -1   -1    0    0    0  501  0.00000000000E+00  0.00000000000E+00 -0.16560050520E+04  0.16560050520E+04  0.50400001928E-02 0.  1.
    10030    2    1    2    0    0  0.00000000000E+00  0.00000000000E+00  0.75974850486E+03  0.40717586090E+04  0.40002500396E+04 0.  0.
        1    1    3    3  502    0  0.16364193586E+04  0.92712726860E+03 -0.31278032739E+03  0.19066370453E+04  0.50400001928E-02 0.  1.
       -1    1    3    3    0  502 -0.16364193586E+04 -0.92712726860E+03  0.10725288322E+04  0.21651215636E+04  0.50400001928E-02 0. -1.
</event>
<event>
 5   0  0.6599276E-09  0.4010544E+04  0.7818609E-02  0.8002423E-01
        2   -1    0    0  501    0  0.00000000000E+00  0.00000000000E+00  0.18346718776E+04  0.18346718776E+04  0.25500000920E-02 0.  1.
       -2   -1    0    0    0  501  0.00000000000E+00  0.00000000000E+00 -0.21917352604E+04  0.21917352604E+04  0.25500000920E-02 0. -1.
    10030    2    1    2    0    0  0.00000000000E+00  0.00000000000E+00 -0.35706338274E+03  0.40264071380E+04  0.40105436267E+04 0.  0.
        2    1    3    3  502    0  0.74623476024E+03  0.37721256547E+03 -0.20083653128E+04  0.21754739407E+04  0.25500000920E-02 0. -1.
       -2    1    3    3    0  502 -0.74623476024E+03 -0.37721256547E+03  0.16513019300E+04  0.18509331974E+04  0.25500000920E-02 0.  1.
</event>
<event>
 5   0  0.6599276E-09  0.3997616E+04  0.7818609E-02  0.8005028E-01
        2   -1    0    0  501    0  0.00000000000E+00  0.00000000000E+00  0.23366841122E+04  0.23366841122E+04  0.25500000920E-02 0.  1.
       -2   -1    0    0    0  501  0.00000000000E+00  0.00000000000E+00 -0.17097872281E+04  0.17097872281E+04  0.25500000920E-02 0. -1.
    10030    2    1    2    0    0  0.00000000000E+00  0.00000000000E+00  0.62689688406E+03  0.40464713403E+04  0.39976156149E+04 0.  0.
        2    1    3    3  502    0  0.35599614884E+03  0.14677654858E+04  0.16387100129E+04  0.22285509386E+04  0.25500000920E-02 0.  1.
       -2    1    3    3    0  502 -0.35599614884E+03 -0.14677654858E+04 -0.10118131288E+04  0.18179204018E+04  0.25500000920E-02 0. -1.
</event>
<event>
 5   0  0.6645526E-09  0.4000977E+04  0.7818609E-02  0.8004349E-01
        2   -1    0    0  501    0  0.00000000000E+00  0.00000000000E+00  0.27242980970E+04  0.27242980970E+04  0.25500000920E-02 0.  1.
       -2   -1    0    0    0  501  0.00000000000E+00  0.00000000000E+00 -0.14689857127E+04  0.14689857127E+04  0.25500000920E-02 0. -1.
    10030    2    1    2    0    0  0.00000000000E+00  0.00000000000E+00  0.12553123843E+04  0.41932838096E+04  0.40009773713E+04 0.  0.
        3    1    3    3  502    0 -0.14106933387E+04 -0.13998633643E+04  0.86729854846E+03  0.21683818660E+04  0.10100000352E+00 0.  1.
       -3    1    3    3    0  502  0.14106933387E+04  0.13998633643E+04  0.38801383583E+03  0.20249019436E+04  0.10100000352E+00 0. -1.
</event>
<event>
 5   0  0.2078125E-09  0.3999754E+04  0.7818609E-02  0.8004596E-01
        1   -1    0    0  501    0  0.00000000000E+00  0.00000000000E+00  0.22691796869E+04  0.22691796869E+04  0.50400001928E-02 0.  1.
       -1   -1    0    0    0  501  0.00000000000E+00  0.00000000000E+00 -0.17625350898E+04  0.17625350898E+04  0.50400001928E-02 0. -1.
    10030    2    1    2    0    0  0.00000000000E+00  0.00000000000E+00  0.50664459718E+03  0.40317147767E+04  0.39997544041E+04 0.  0.
        2    1    3    3  502    0  0.93975193855E+02  0.48350707180E+03  0.22070822368E+04  0.22613762238E+04  0.25500000920E-02 0.  1.
       -2    1    3    3    0  502 -0.93975193855E+02 -0.48350707180E+03 -0.17004376396E+04  0.17703385529E+04  0.25500000920E-02 0. -1.
</event>
<event>
 5   0  0.2078125E-09  0.3997909E+04  0.7818609E-02  0.8004969E-01
        1   -1    0    0  501    0  0.00000000000E+00  0.00000000000E+00  0.25603450752E+04  0.25603450752E+04  0.50400001928E-02 0. -1.
       -1   -1    0    0    0  501  0.00000000000E+00  0.00000000000E+00 -0.15606562630E+04  0.15606562630E+04  0.50400001928E-02 0.  1.
    10030    2    1    2    0    0  0.00000000000E+00  0.00000000000E+00  0.99968881218E+03  0.41210013382E+04  0.39979087418E+04 0.  0.
        1    1    3    3  502    0  0.94113456326E+03 -0.70540750372E+03  0.21659278380E+04  0.24646657810E+04  0.50400001928E-02 0. -1.
       -1    1    3    3    0  502 -0.94113456326E+03  0.70540750372E+03 -0.11662390259E+04  0.16563355572E+04  0.50400001928E-02 0.  1.
</event>
<event>
 5   0  0.6599276E-09  0.3999595E+04  0.7818609E-02  0.8004628E-01
       -2   -1    0    0    0  501  0.00000000000E+00  0.00000000000E+00  0.21921602915E+04  0.21921602915E+04  0.25500000920E-02 0. -1.
        2   -1    0    0  501    0  0.00000000000E+00  0.00000000000E+00 -0.18243141625E+04  0.18243141625E+04  0.25500000920E-02 0.  1.
    10030    2    1    2    0    0  0.00000000000E+00  0.00000000000E+00  0.36784612899E+03  0.40164744539E+04  0.39995945125E+04 0.  0.
        2    1    3    3  502    0 -0.50813310725E+03 -0.18612719140E+04  0.71212455272E+03  0.20566122073E+04  0.25500000920E-02 0. -1.
       -2    1    3    3    0  502  0.50813310725E+03  0.18612719140E+04 -0.34427842373E+03  0.19598622466E+04  0.25500000920E-02 0.  1.
</event>
<event>
 5   0  0.6547327E-09  0.4012708E+04  0.7818609E-02  0.8001988E-01
        2   -1    0    0  501    0  0.00000000000E+00  0.00000000000E+00  0.24704895116E+04  0.24704895116E+04  0.25500000920E-02 0. -1.
       -2   -1    0    0    0  501  0.00000000000E+00  0.00000000000E+00 -0.16294163152E+04  0.16294163152E+04  0.25500000920E-02 0.  1.
    10030    2    1    2    0    0  0.00000000000E+00  0.00000000000E+00  0.84107319644E+03  0.40999058268E+04  0.40127077724E+04 0.  0.
        5    1    3    3  502    0 -0.11642323628E+04  0.15694908512E+04  0.88505363728E+03  0.21452460366E+04  0.46999998093E+01 0. -1.
       -5    1    3    3    0  502  0.11642323628E+04 -0.15694908512E+04 -0.43980440841E+02  0.19546597903E+04  0.46999998093E+01 0.  1.
</event>
<event>
 5   0  0.2078125E-09  0.4000044E+04  0.7818609E-02  0.8004538E-01
       -1   -1    0    0    0  501  0.00000000000E+00  0.00000000000E+00  0.12954307502E+04  0.12954307502E+04  0.50400001928E-02 0.  1.
        1   -1    0    0  501    0  0.00000000000E+00  0.00000000000E+00 -0.30878444529E+04  0.30878444529E+04  0.50400001928E-02 0. -1.
    10030    2    1    2    0    0  0.00000000000E+00  0.00000000000E+00 -0.17924137027E+04  0.43832752031E+04  0.40000443279E+04 0.  0.
        2    1    3    3  502    0  0.18836166428E+04 -0.32873072707E+03 -0.15389262827E+04  0.24544591362E+04  0.25500000920E-02 0. -1.
       -2    1    3    3    0  502 -0.18836166428E+04  0.32873072707E+03 -0.25348742006E+03  0.19288160669E+04  0.25500000920E-02 0.  1.
</event>
<event>
 5   0  0.2078125E-09  0.3999770E+04  0.7818609E-02  0.8004593E-01
        1   -1    0    0  501    0  0.00000000000E+00  0.00000000000E+00  0.20886933525E+04  0.20886933525E+04  0.50400001928E-02 0.  1.
       -1   -1    0    0    0  501  0.00000000000E+00  0.00000000000E+00 -0.19148527845E+04  0.19148527845E+04  0.50400001928E-02 0. -1.
    10030    2    1    2    0    0  0.00000000000E+00  0.00000000000E+00  0.17384056794E+03  0.40035461370E+04  0.39997701344E+04 0.  0.
        5    1    3    3  502    0 -0.18773332910E+04  0.54264500286E+03  0.51237956697E+03  0.20202472114E+04  0.46999998093E+01 0. -1.
       -5    1    3    3    0  502  0.18773332910E+04 -0.54264500286E+03 -0.33853899903E+03  0.19832989256E+04  0.46999998093E+01 0.  1.
</event>
<event>
 5   0  0.6538370E-09  0.4007632E+04  0.7818609E-02  0.8003009E-01
        2   -1    0    0  501    0  0.00000000000E+00  0.00000000000E+00  0.25858459235E+04  0.25858459235E+04  0.25500000920E-02 0. -1.
       -2   -1    0    0    0  501  0.00000000000E+00  0.00000000000E+00 -0.15527912099E+04  0.15527912099E+04  0.25500000920E-02 0.  1.
    10030    2    1    2    0    0  0.00000000000E+00  0.00000000000E+00  0.10330547136E+04  0.41386371333E+04  0.40076321288E+04 0.  0.
        4    1    3    3  502    0  0.85016706782E+03 -0.17672589399E+04  0.94142456174E+03  0.21753781332E+04  0.12699999809E+01 0. -1.
       -4    1    3    3    0  502 -0.85016706782E+03  0.17672589399E+04  0.91630151871E+02  0.19632590001E+04  0.12699999809E+01 0.  1.
</event>
<event>
 5   0  0.2078125E-09  0.3996787E+04  0.7818609E-02  0.8005195E-01
        1   -1    0    0  501    0  0.00000000000E+00  0.00000000000E+00  0.12723201814E+04  0.12723201814E+04  0.50400001928E-02 0.  1.
       -1   -1    0    0    0  501  0.00000000000E+00  0.00000000000E+00 -0.31388141548E+04  0.31388141549E+04  0.50400001928E-02 0. -1.
    10030    2    1    2    0    0  0.00000000000E+00  0.00000000000E+00 -0.18664939735E+04  0.44111343362E+04  0.39967870070E+04 0.  0.
        3    1    3    3  502    0  0.17458753463E+04 -0.88683477605E+03 -0.13733608728E+04  0.23917936245E+04  0.10100000352E+00 0. -1.
       -3    1    3    3    0  502 -0.17458753463E+04  0.88683477605E+03 -0.49313310070E+03  0.20193407118E+04  0.10100000352E+00 0.  1.
</event>
<event>
 5   0  0.2078125E-09  0.4000344E+04  0.7818609E-02  0.8004477E-01
        1   -1    0    0  501    0  0.00000000000E+00  0.00000000000E+00  0.26264046921E+04  0.26264046922E+04  0.50400001928E-02 0. -1.
       -1   -1    0    0    0  501  0.00000000000E+00  0.00000000000E+00 -0.15232568574E+04  0.15232568574E+04  0.50400001928E-02 0.  1.
    10030    2    1    2    0    0  0.00000000000E+00  0.00000000000E+00  0.11031478348E+04  0.41496615495E+04  0.40003444639E+04 0.  0.
        2    1    3    3  502    0 -0.47670224026E+03  0.83529611062E+03  0.23708097099E+04  0.25584572107E+04  0.25500000920E-02 0. -1.
       -2    1    3    3    0  502  0.47670224026E+03 -0.83529611062E+03 -0.12676618751E+04  0.15912043388E+04  0.25500000920E-02 0.  1.
</event>
<event>
 5   0  0.6599276E-09  0.3999620E+04  0.7818609E-02  0.8004623E-01
        2   -1    0    0  501    0  0.00000000000E+00  0.00000000000E+00  0.26221375186E+04  0.26221375186E+04  0.25500000920E-02 0.  1.
       -2   -1    0    0    0  501  0.00000000000E+00  0.00000000000E+00 -0.15251831513E+04  0.15251831513E+04  0.25500000920E-02 0. -1.
    10030    2    1    2    0    0  0.00000000000E+00  0.00000000000E+00  0.10969543673E+04  0.41473206699E+04  0.39996199638E+04 0.  0.
        2    1    3    3  502    0 -0.10430869454E+04 -0.51975192517E+03  0.22336274806E+04  0.25193777330E+04  0.25500000920E-02 0.  1.
       -2    1    3    3    0  502  0.10430869454E+04  0.51975192517E+03 -0.11366731133E+04  0.16279429369E+04  0.25500000920E-02 0. -1.
</event>
<event>
 5   0  0.6645526E-09  0.4000296E+04  0.7818609E-02  0.8004487E-01
        2   -1    0    0  501    0  0.00000000000E+00  0.00000000000E+00  0.12022491867E+04  0.12022491867E+04  0.25500000920E-02 0. -1.
       -2   -1    0    0    0  501  0.00000000000E+00  0.00000000000E+00 -0.33275889502E+04  0.33275889502E+04  0.25500000920E-02 0.  1.
    10030    2    1    2    0    0  0.00000000000E+00  0.00000000000E+00 -0.21253397635E+04  0.45298381369E+04  0.40002955436E+04 0.  0.
        3    1    3    3  502    0 -0.92935633105E+02  0.16712551852E+04  0.17719646382E+03  0.16831902812E+04  0.10100000352E+00 0. -1.
       -3    1    3    3    0  502  0.92935633105E+02 -0.16712551852E+04 -0.23025362273E+04  0.28466478557E+04  0.10100000352E+00 0.  1.
</event>
<event>
 5   0  0.2078125E-09  0.3999820E+04  0.7818609E-02  0.8004583E-01
       -1   -1    0    0    0  501  0.00000000000E+00  0.00000000000E+00  0.16539551158E+04  0.16539551158E+04  0.50400001928E-02 0.  1.
        1   -1    0    0  501    0  0.00000000000E+00  0.00000000000E+00 -0.24182278315E+04  0.24182278315E+04  0.50400001928E-02 0. -1.
    10030    2    1    2    0    0  0.00000000000E+00  0.00000000000E+00 -0.76427271571E+03  0.40721829473E+04  0.39998201425E+04 0.  0.
        4    1    3    3  502    0 -0.18769187375E+04 -0.67283988291E+03 -0.54019067922E+03  0.20657553190E+04  0.12699999809E+01 0. -1.
       -4    1    3    3    0  502  0.18769187375E+04  0.67283988291E+03 -0.22408203649E+03  0.20064276282E+04  0.12699999809E+01 0.  1.
</event>
<event>
 5   0  0.6645526E-09  0.3996319E+04  0.7818609E-02  0.8005290E-01
       -2   -1    0    0    0  501  0.00000000000E+00  0.00000000000E+00  0.15782804821E+04  0.15782804821E+04  0.25500000920E-02 0.  1.
        2   -1    0    0  501    0  0.00000000000E+00  0.00000000000E+00 -0.25297408035E+04  0.25297408035E+04  0.25500000920E-02 0. -1.
    10030    2    1    2    0    0  0.00000000000E+00  0.00000000000E+00 -0.95146032141E+03  0.41080212856E+04  0.39963185734E+04 0.  0.
        3    1    3    3  502    0 -0.87990164029E+03 -0.12742514095E+04  0.82238035717E+03  0.17533547882E+04  0.10100000352E+00 0.  1.
       -3    1    3    3    0  502  0.87990164029E+03  0.12742514095E+04 -0.17738406786E+04  0.23546664975E+04  0.10100000352E+00 0. -1.
</event>
<event>
 5   0  0.2078125E-09  0.4000973E+04  0.7818609E-02  0.8004350E-01
       -1   -1    0    0    0  501  0.00000000000E+00  0.00000000000E+00  0.13928592378E+04  0.13928592378E+04  0.50400001928E-02 0. -1.
        1   -1    0    0  501    0  0.00000000000E+00  0.00000000000E+00 -0.28731873291E+04  0.28731873291E+04  0.50400001928E-02 0.  1.
    10030    2    1    2    0    0  0.00000000000E+00  0.00000000000E+00 -0.14803280913E+04  0.42660465669E+04  0.40009726384E+04 0.  0.
        3    1    3    3  502    0 -0.18360425327E+04 -0.76288460416E+03 -0.97594907405E+03  0.22148412373E+04  0.10100000352E+00 0.  1.
       -3    1    3    3    0  502  0.18360425327E+04  0.76288460416E+03 -0.50437901724E+03  0.20512053296E+04  0.10100000352E+00 0. -1.
</event>
<event>
 5   0  0.6599276E-09  0.3999810E+04  0.7818609E-02  0.8004585E-01
        2   -1    0    0  501    0  0.00000000000E+00  0.00000000000E+00  0.16585032600E+04  0.16585032600E+04  0.25500000920E-02 0.  1.
       -2   -1    0    0    0  501  0.00000000000E+00  0.00000000000E+00 -0.24115838564E+04  0.24115838564E+04  0.25500000920E-02 0. -1.
    10030    2    1    2    0    0  0.00000000000E+00  0.00000000000E+00 -0.75308059639E+03  0.40700871165E+04  0.39998098394E+04 0.  0.
        2    1    3    3  502    0 -0.14924566622E+04  0.11915249500E+04  0.22757516503E+03  0.19232652055E+04  0.25500000920E-02 0.  1.
       -2    1    3    3    0  502  0.14924566622E+04 -0.11915249500E+04 -0.98065576142E+03  0.21468219110E+04  0.25500000920E-02 0. -1.
</event>
<event>
 5   0  0.6645526E-09  0.3999858E+04  0.7818609E-02  0.8004575E-01
       -2   -1    0    0    0  501  0.00000000000E+00  0.00000000000E+00  0.15756904351E+04  0.15756904351E+04  0.25500000920E-02 0. -1.
        2   -1    0    0  501    0  0.00000000000E+00  0.00000000000E+00 -0.25383895610E+04  0.25383895610E+04  0.25500000920E-02 0.  1.
    10030    2    1    2    0    0  0.00000000000E+00  0.00000000000E+00 -0.96269912592E+03  0.41140799962E+04  0.39998580735E+04 0.  0.
        3    1    3    3  502    0 -0.16477414288E+04  0.79964866497E+03 -0.13075476670E+04  0.22503712394E+04  0.10100000352E+00 0.  1.
       -3    1    3    3    0  502  0.16477414288E+04 -0.79964866497E+03  0.34484854107E+03  0.18637087568E+04  0.10100000352E+00 0. -1.
</event>
<event>
 5   0  0.6736335E-09  0.4006622E+04  0.7818609E-02  0.8003212E-01
        2   -1    0    0  501    0  0.00000000000E+00  0.00000000000E+00  0.13682222633E+04  0.13682222633E+04  0.25500000920E-02 0.  1.
       -2   -1    0    0    0  501  0.00000000000E+00  0.00000000000E+00 -0.29331896263E+04  0.29331896263E+04  0.25500000920E-02 0. -1.
    10030    2    1    2    0    0  0.00000000000E+00  0.00000000000E+00 -0.15649673631E+04  0.43014118896E+04  0.40066221929E+04 0.  0.
        1    1    3    3  502    0 -0.19125526825E+03 -0.37388236599E+03  0.13204338535E+04  0.13856089501E+04  0.50400001928E-02 0.  1.
       -1    1    3    3    0  502  0.19125526825E+03  0.37388236599E+03 -0.28854012166E+04  0.29158029395E+04  0.50400001928E-02 0. -1.
</event>
<event>
 5   0  0.2078125E-09  0.3998607E+04  0.7818609E-02  0.8004828E-01
       -1   -1    0    0    0  501  0.00000000000E+00  0.00000000000E+00  0.23500180081E+04  0.23500180081E+04  0.50400001928E-02 0.  1.
        1   -1    0    0  501    0  0.00000000000E+00  0.00000000000E+00 -0.17009293863E+04  0.17009293863E+04  0.50400001928E-02 0. -1.
    10030    2    1    2    0    0  0.00000000000E+00  0.00000000000E+00  0.64908862182E+03  0.40509473943E+04  0.39986071016E+04 0.  0.
        1    1    3    3  502    0  0.10071956933E+04 -0.12790691144E+04  0.15002319796E+04  0.22138556766E+04  0.50400001928E-02 0.  1.
       -1    1    3    3    0  502 -0.10071956933E+04  0.12790691144E+04 -0.85114335778E+03  0.18370917178E+04  0.50400001928E-02 0. -1.
</event>
<event>
 5   0  0.6645526E-09  0.4000153E+04  0.7818609E-02  0.8004516E-01
        2   -1    0    0  501    0  0.00000000000E+00  0.00000000000E+00  0.22653013188E+04  0.22653013189E+04  0.25500000920E-02 0.  1.
       -2   -1    0    0    0  501  0.00000000000E+00  0.00000000000E+00 -0.17659047683E+04  0.17659047683E+04  0.25500000920E-02 0. -1.
    10030    2    1    2    0    0  0.00000000000E+00  0.00000000000E+00  0.49939655058E+03  0.40312060871E+04  0.40001531973E+04 0.  0.
        3    1    3    3  502    0  0.38680362985E+03 -0.10968747446E+04  0.18894605236E+04  0.22187411598E+04  0.10100000352E+00 0.  1.
       -3    1    3    3    0  502 -0.38680362985E+03  0.10968747446E+04 -0.13900639731E+04  0.18124649274E+04  0.10100000352E+00 0. -1.
</event>
<event>
 5   0  0.2078125E-09  0.4007505E+04  0.7818609E-02  0.8003034E-01
       -1   -1    0    0    0  501  0.00000000000E+00  0.00000000000E+00  0.22317226853E+04  0.22317226853E+04  0.50400001928E-02 0.  1.
        1   -1    0    0  501    0  0.00000000000E+00  0.00000000000E+00 -0.17990696563E+04  0.17990696563E+04  0.50400001928E-02 0. -1.
    10030    2    1    2    0    0  0.00000000000E+00  0.00000000000E+00  0.43265302900E+03  0.40307923416E+04  0.40075052411E+04 0.  0.
        4    1    3    3  502    0 -0.14488917729E+04  0.32093707227E+03 -0.11378755860E+04  0.18700402231E+04  0.12699999809E+01 0. -1.
       -4    1    3    3    0  502  0.14488917729E+04 -0.32093707227E+03  0.15705286150E+04  0.21607521184E+04  0.12699999809E+01 0.  1.
</event>
<event>
 5   0  0.6547327E-09  0.3998034E+04  0.7818609E-02  0.8004943E-01
       -2   -1    0    0    0  501  0.00000000000E+00  0.00000000000E+00  0.20350225168E+04  0.20350225168E+04  0.25500000920E-02 0. -1.
        2   -1    0    0  501    0  0.00000000000E+00  0.00000000000E+00 -0.19636487691E+04  0.19636487691E+04  0.25500000920E-02 0.  1.
    10030    2    1    2    0    0  0.00000000000E+00  0.00000000000E+00  0.71373747644E+02  0.39986712859E+04  0.39980342471E+04 0.  0.
        5    1    3    3  502    0 -0.70301911235E+03 -0.99682003228E+02 -0.18332668071E+04  0.19659760045E+04  0.46999998093E+01 0.  1.
       -5    1    3    3    0  502  0.70301911235E+03  0.99682003228E+02  0.19046405548E+04  0.20326952814E+04  0.46999998093E+01 0. -1.
</event>
<event>
 5   0  0.2078125E-09  0.3995026E+04  0.7818609E-02  0.8005551E-01
        1   -1    0    0  501    0  0.00000000000E+00  0.00000000000E+00  0.20479767804E+04  0.20479767804E+04  0.50400001928E-02 0.  1.
       -1   -1    0    0    0  501  0.00000000000E+00  0.00000000000E+00 -0.19482922507E+04  0.19482922507E+04  0.50400001928E-02 0. -1.
    10030    2    1    2    0    0  0.00000000000E+00  0.00000000000E+00  0.99684529681E+02  0.39962690311E+04  0.39950255523E+04 0.  0.
        4    1    3    3  502    0 -0.85212893794E+03  0.32048437995E+03  0.18283781579E+04  0.20424990247E+04  0.12699999809E+01 0.  1.
       -4    1    3    3    0  502  0.85212893794E+03 -0.32048437995E+03 -0.17286936283E+04  0.19537700064E+04  0.12699999809E+01 0. -1.
</event>
<event>
 5   0  0.2078125E-09  0.3978632E+04  0.7818609E-02  0.8008871E-01
       -1   -1    0    0    0  501  0.00000000000E+00  0.00000000000E+00  0.23122651985E+04  0.23122651985E+04  0.50400001928E-02 0. -1.
        1   -1    0    0  501    0  0.00000000000E+00  0.00000000000E+00 -0.17114721888E+04  0.17114721888E+04  0.50400001928E-02 0.  1.
    10030    2    1    2    0    0  0.00000000000E+00  0.00000000000E+00  0.60079300972E+03  0.40237373872E+04  0.39786317147E+04 0.  0.
        5    1    3    3  502    0  0.87085375925E+03 -0.26405729474E+03 -0.14886248742E+04  0.17447460076E+04  0.46999998093E+01 0.  1.
       -5    1    3    3    0  502 -0.87085375925E+03  0.26405729474E+03  0.20894178839E+04  0.22789913797E+04  0.46999998093E+01 0. -1.
</event>
<event>
 5   0  0.6736335E-09  0.4025690E+04  0.7818609E-02  0.7999384E-01
       -2   -1    0    0    0  501  0.00000000000E+00  0.00000000000E+00  0.16508534258E+04  0.16508534258E+04  0.25500000920E-02 0.  1.
        2   -1    0    0  501    0  0.00000000000E+00  0.00000000000E+00 -0.24542124124E+04  0.24542124124E+04  0.25500000920E-02 0. -1.
    10030    2    1    2    0    0  0.00000000000E+00  0.00000000000E+00 -0.80335898658E+03  0.41050658382E+04  0.40256899874E+04 0.  0.
        1    1    3    3  502    0 -0.30041992422E+03 -0.97638555346E+03 -0.21702245265E+04  0.23986361490E+04  0.50400001928E-02 0. -1.
       -1    1    3    3    0  502  0.30041992422E+03  0.97638555346E+03  0.13668655399E+04  0.17064296892E+04  0.50400001928E-02 0.  1.
</event>
<event>
 5   0  0.6538370E-09  0.4002904E+04  0.7818609E-02  0.8003961E-01
       -2   -1    0    0    0  501  0.00000000000E+00  0.00000000000E+00  0.24252565557E+04  0.24252565557E+04  0.25500000920E-02 0. -1.
        2   -1    0    0  501    0  0.00000000000E+00  0.00000000000E+00 -0.16517055567E+04  0.16517055567E+04  0.25500000920E-02 0.  1.
    10030    2    1    2    0    0  0.00000000000E+00  0.00000000000E+00  0.77355099901E+03  0.40769621124E+04  0.40029038108E+04 0.  0.
        4    1    3    3  502    0  0.45304120911E+03 -0.84008190849E+03 -0.14049831559E+04  0.16985179514E+04  0.12699999809E+01 0.  1.
       -4    1    3    3    0  502 -0.45304120911E+03  0.84008190849E+03  0.21785341549E+04  0.23784441610E+04  0.12699999809E+01 0. -1.
</event>
<event>
 5   0  0.6645526E-09  0.3989911E+04  0.7818609E-02  0.8006585E-01
        2   -1    0    0  501    0  0.00000000000E+00  0.00000000000E+00  0.16928870732E+04  0.16928870732E+04  0.25500000920E-02 0. -1.
       -2   -1    0    0    0  501  0.00000000000E+00  0.00000000000E+00 -0.23509234014E+04  0.23509234014E+04  0.25500000920E-02 0.  1.
    10030    2    1    2    0    0  0.00000000000E+00  0.00000000000E+00 -0.65803632824E+03  0.40438104746E+04  0.39899111951E+04 0.  0.
        3    1    3    3  502    0  0.18437031075E+04 -0.66467711376E+03 -0.70662471799E+03  0.20833519425E+04  0.10100000352E+00 0.  1.
       -3    1    3    3    0  502 -0.18437031075E+04  0.66467711376E+03  0.48588389746E+02  0.19604585321E+04  0.10100000352E+00 0. -1.
</event>
<event>
 5   0  0.2078125E-09  0.3999402E+04  0.7818609E-02  0.8004667E-01
        1   -1    0    0  501    0  0.00000000000E+00  0.00000000000E+00  0.25522151195E+04  0.25522151195E+04  0.50400001928E-02 0. -1.
       -1   -1    0    0    0  501  0.00000000000E+00  0.00000000000E+00 -0.15667970692E+04  0.15667970692E+04  0.50400001928E-02 0.  1.
    10030    2    1    2    0    0  0.00000000000E+00  0.00000000000E+00  0.98541805031E+03  0.41190121887E+04  0.39994015398E+04 0.  0.
        4    1    3    3  502    0  0.96699423931E+02  0.88497828877E+03 -0.13514472511E+04  0.16183166055E+04  0.12699999809E+01 0.  1.
       -4    1    3    3    0  502 -0.96699423931E+02 -0.88497828877E+03  0.23368653014E+04  0.25006955832E+04  0.12699999809E+01 0. -1.
</event>
<event>
 5   0  0.2078125E-09  0.4000721E+04  0.7818609E-02  0.8004401E-01
        1   -1    0    0  501    0  0.00000000000E+00  0.00000000000E+00  0.22580037500E+04  0.22580037500E+04  0.50400001928E-02 0. -1.
       -1   -1    0    0    0  501  0.00000000000E+00  0.00000000000E+00 -0.17721148550E+04  0.17721148550E+04  0.50400001928E-02 0.  1.
    10030    2    1    2    0    0  0.00000000000E+00  0.00000000000E+00  0.48588889500E+03  0.40301186050E+04  0.40007209291E+04 0.  0.
        2    1    3    3  502    0 -0.40673295667E+03 -0.11066603798E+04  0.18707744269E+04  0.22113176729E+04  0.25500000920E-02 0. -1.
       -2    1    3    3    0  502  0.40673295667E+03  0.11066603798E+04 -0.13848855319E+04  0.18188009321E+04  0.25500000920E-02 0.  1.
</event>
<event>
 5   0  0.6547327E-09  0.3998097E+04  0.7818609E-02  0.8004930E-01
        2   -1    0    0  501    0  0.00000000000E+00  0.00000000000E+00  0.27430304374E+04  0.27430304374E+04  0.25500000920E-02 0.  1.
       -2   -1    0    0    0  501  0.00000000000E+00  0.00000000000E+00 -0.14568543216E+04  0.14568543216E+04  0.25500000920E-02 0. -1.
    10030    2    1    2    0    0  0.00000000000E+00  0.00000000000E+00  0.12861761159E+04  0.41998847590E+04  0.39980974210E+04 0.  0.
        5    1    3    3  502    0 -0.16650831400E+04 -0.46823829654E+03  0.16958803382E+04  0.24223503415E+04  0.46999998093E+01 0. -1.
       -5    1    3    3    0  502  0.16650831400E+04  0.46823829654E+03 -0.40970422235E+03  0.17775344175E+04  0.46999998093E+01 0.  1.
</event>
<event>
 5   0  0.2078125E-09  0.4002070E+04  0.7818609E-02  0.8004129E-01
       -1   -1    0    0    0  501  0.00000000000E+00  0.00000000000E+00  0.34047450629E+04  0.34047450629E+04  0.50400001928E-02 0.  1.
        1   -1    0    0  501    0  0.00000000000E+00  0.00000000000E+00 -0.11760471796E+04  0.11760471796E+04  0.50400001928E-02 0. -1.
    10030    2    1    2    0    0  0.00000000000E+00  0.00000000000E+00  0.22286978833E+04  0.45807922424E+04  0.40020698786E+04 0.  0.
        1    1    3    3  502    0  0.98736525175E+02  0.97647559262E+03 -0.88163063573E+03  0.13192899841E+04  0.50400001928E-02 0. -1.
       -1    1    3    3    0  502 -0.98736525175E+02 -0.97647559262E+03  0.31103285191E+04  0.32615022583E+04  0.50400001928E-02 0.  1.
</event>
<event>
 5   0  0.6645526E-09  0.4000244E+04  0.7818609E-02  0.8004497E-01
       -2   -1    0    0    0  501  0.00000000000E+00  0.00000000000E+00  0.26269134829E+04  0.26269134829E+04  0.25500000920E-02 0. -1.
        2   -1    0    0  501    0  0.00000000000E+00  0.00000000000E+00 -0.15228854410E+04  0.15228854410E+04  0.25500000920E-02 0.  1.
    10030    2    1    2    0    0  0.00000000000E+00  0.00000000000E+00  0.11040280418E+04  0.41497989239E+04  0.40002441415E+04 0.  0.
        3    1    3    3  502    0  0.74277459809E+03 -0.40939099048E+03  0.24311366988E+04  0.25748282943E+04  0.10100000352E+00 0. -1.
       -3    1    3    3    0  502 -0.74277459809E+03  0.40939099048E+03 -0.13271086569E+04  0.15749706296E+04  0.10100000352E+00 0.  1.
</event>
<event>
 5   0  0.2078125E-09  0.3997213E+04  0.7818609E-02  0.8005109E-01
       -1   -1    0    0    0  501  0.00000000000E+00  0.00000000000E+00  0.17220275961E+04  0.17220275961E+04  0.50400001928E-02 0.  1.
        1   -1    0    0  501    0  0.00000000000E+00  0.00000000000E+00 -0.23196071290E+04  0.23196071290E+04  0.50400001928E-02 0. -1.
    10030    2    1    2    0    0  0.00000000000E+00  0.00000000000E+00 -0.59757953290E+03  0.40416347251E+04  0.39972127731E+04 0.  0.
        2    1    3    3  502    0  0.95844171000E+03 -0.99222823138E+03 -0.17609937889E+04  0.22370128518E+04  0.25500000920E-02 0. -1.
       -2    1    3    3    0  502 -0.95844171000E+03  0.99222823138E+03  0.11634142560E+04  0.18046218733E+04  0.25500000920E-02 0.  1.
</event>
<event>
 5   0  0.2078125E-09  0.3998511E+04  0.7818609E-02  0.8004847E-01
       -1   -1    0    0    0  501  0.00000000000E+00  0.00000000000E+00  0.28049241999E+04  0.28049241999E+04  0.50400001928E-02 0. -1.
        1   -1    0    0  501    0  0.00000000000E+00  0.00000000000E+00 -0.14250016693E+04  0.14250016693E+04  0.50400001928E-02 0.  1.
    10030    2    1    2    0    0  0.00000000000E+00  0.00000000000E+00  0.13799225306E+04  0.42299258692E+04  0.39985105562E+04 0.  0.
        4    1    3    3  502    0  0.57573280298E+03 -0.83295636874E+03 -0.11336807279E+04  0.15200388740E+04  0.12699999809E+01 0.  1.
       -4    1    3    3    0  502 -0.57573280298E+03  0.83295636874E+03  0.25136032585E+04  0.27098869952E+04  0.12699999809E+01 0. -1.
</event>
<event>
 5   0  0.6538370E-09  0.4001521E+04  0.7818609E-02  0.8004240E-01
        2   -1    0    0  501    0  0.00000000000E+00  0.00000000000E+00  0.18499544032E+04  0.18499544032E+04  0.25500000920E-02 0. -1.
       -2   -1    0    0    0  501  0.00000000000E+00  0.00000000000E+00 -0.21638596531E+04  0.21638596531E+04  0.25500000920E-02 0.  1.
    10030    2    1    2    0    0  0.00000000000E+00  0.00000000000E+00 -0.31390524982E+03  0.40138140563E+04  0.40015205576E+04 0.  0.
        4    1    3    3  502    0  0.14462138805E+02 -0.88586443446E+03  0.16424580255E+04  0.18661819119E+04  0.12699999809E+01 0. -1.
       -4    1    3    3    0  502 -0.14462138805E+02  0.88586443446E+03 -0.19563632754E+04  0.21476321444E+04  0.12699999809E+01 0.  1.
</event>
<event>
 5   0  0.2078125E-09  0.4016872E+04  0.7818609E-02  0.8001152E-01
       -1   -1    0    0    0  501  0.00000000000E+00  0.00000000000E+00  0.14737276608E+04  0.14737276608E+04  0.50400001928E-02 0. -1.
        1   -1    0    0  501    0  0.00000000000E+00  0.00000000000E+00 -0.27371506273E+04  0.27371506273E+04  0.50400001928E-02 0.  1.
    10030    2    1    2    0    0  0.00000000000E+00  0.00000000000E+00 -0.12634229665E+04  0.42108782881E+04  0.40168717138E+04 0.  0.
        5    1    3    3  502    0 -0.11880856424E+04 -0.59258546829E+02 -0.23281197224E+04  0.26144258645E+04  0.46999998093E+01 0.  1.
       -5    1    3    3    0  502  0.11880856424E+04  0.59258546829E+02  0.10646967559E+04  0.15964524237E+04  0.46999998093E+01 0. -1.
</event>
<event>
 5   0  0.6599276E-09  0.3997362E+04  0.7818609E-02  0.8005079E-01
        2   -1    0    0  501    0  0.00000000000E+00  0.00000000000E+00  0.17404816384E+04  0.17404816384E+04  0.25500000920E-02 0. -1.
       -2   -1    0    0    0  501  0.00000000000E+00  0.00000000000E+00 -0.22951840427E+04  0.22951840427E+04  0.25500000920E-02 0.  1.
    10030    2    1    2    0    0  0.00000000000E+00  0.00000000000E+00 -0.55470240427E+03  0.40356656811E+04  0.39973619716E+04 0.  0.
        2    1    3    3  502    0 -0.24156795061E+03  0.13265728772E+04 -0.17668101039E+04  0.22225590243E+04  0.25500000920E-02 0.  1.
       -2    1    3    3    0  502  0.24156795061E+03 -0.13265728772E+04  0.12121076996E+04  0.18131066568E+04  0.25500000920E-02 0. -1.
</event>
<event>
 5   0  0.2078125E-09  0.3999659E+04  0.7818609E-02  0.8004615E-01
       -1   -1    0    0    0  501  0.00000000000E+00  0.00000000000E+00  0.17987143993E+04  0.17987143993E+04  0.50400001928E-02 0.  1.
        1   -1    0    0  501    0  0.00000000000E+00  0.00000000000E+00 -0.22234316026E+04  0.22234316026E+04  0.50400001928E-02 0. -1.
    10030    2    1    2    0    0  0.00000000000E+00  0.00000000000E+00 -0.42471720334E+03  0.40221460019E+04  0.39996592052E+04 0.  0.
        4    1    3    3  502    0 -0.19440488050E+04  0.88225986632E+02  0.25089088555E+03  0.19621563215E+04  0.12699999809E+01 0.  1.
       -4    1    3    3    0  502  0.19440488050E+04 -0.88225986632E+02 -0.67560808889E+03  0.20599896804E+04  0.12699999809E+01 0. -1.
</event>
<event>
 5   0  0.2078125E-09  0.3998948E+04  0.7818609E-02  0.8004759E-01
       -1   -1    0    0    0  501  0.00000000000E+00  0.00000000000E+00  0.26028362122E+04  0.26028362122E+04  0.50400001928E-02 0. -1.
        1   -1    0    0  501    0  0.00000000000E+00  0.00000000000E+00 -0.15359767292E+04  0.15359767292E+04  0.50400001928E-02 0.  1.
    10030    2    1    2    0    0  0.00000000000E+00  0.00000000000E+00  0.10668594830E+04  0.41388129414E+04  0.39989477875E+04 0.  0.
        1    1    3    3  502    0 -0.21629107217E+03  0.80832356588E+03 -0.13460489965E+04  0.15849342940E+04  0.50400001928E-02 0.  1.
       -1    1    3    3    0  502  0.21629107217E+03 -0.80832356588E+03  0.24129084795E+04  0.25538786474E+04  0.50400001928E-02 0. -1.
</event>
<event>
 5   0  0.6599276E-09  0.4002304E+04  0.7818609E-02  0.8004082E-01
        2   -1    0    0  501    0  0.00000000000E+00  0.00000000000E+00  0.13763125316E+04  0.13763125316E+04  0.25500000920E-02 0. -1.
       -2   -1    0    0    0  501  0.00000000000E+00  0.00000000000E+00 -0.29096663892E+04  0.29096663892E+04  0.25500000920E-02 0.  1.
    10030    2    1    2    0    0  0.00000000000E+00  0.00000000000E+00 -0.15333538576E+04  0.42859789208E+04  0.40023044933E+04 0.  0.
        2    1    3    3  502    0  0.17621668021E+03  0.18862457068E+04 -0.76284487502E+02  0.18959943322E+04  0.25500000920E-02 0. -1.
       -2    1    3    3    0  502 -0.17621668021E+03 -0.18862457068E+04 -0.14570693701E+04  0.23899845886E+04  0.25500000920E-02 0.  1.
</event>
<event>
 5   0  0.6538370E-09  0.3997340E+04  0.7818609E-02  0.8005083E-01
       -2   -1    0    0    0  501  0.00000000000E+00  0.00000000000E+00  0.20995091715E+04  0.20995091715E+04  0.25500000920E-02 0. -1.
        2   -1    0    0  501    0  0.00000000000E+00  0.00000000000E+00 -0.19026739719E+04  0.19026739720E+04  0.25500000920E-02 0.  1.
    10030    2    1    2    0    0  0.00000000000E+00  0.00000000000E+00  0.19683519954E+03  0.40021831434E+04  0.39973398427E+04 0.  0.
        4    1    3    3  502    0  0.34570800760E+03  0.10351150020E+04  0.17748724813E+04  0.20835429037E+04  0.12699999809E+01 0. -1.
       -4    1    3    3    0  502 -0.34570800760E+03 -0.10351150020E+04 -0.15780372818E+04  0.19186402397E+04  0.12699999809E+01 0.  1.
</event>
<event>
 5   0  0.2078125E-09  0.3999281E+04  0.7818609E-02  0.8004692E-01
        1   -1    0    0  501    0  0.00000000000E+00  0.00000000000E+00  0.19452400672E+04  0.19452400672E+04  0.50400001928E-02 0. -1.
       -1   -1    0    0    0  501  0.00000000000E+00  0.00000000000E+00 -0.20555622678E+04  0.20555622678E+04  0.50400001928E-02 0.  1.
    10030    2    1    2    0    0  0.00000000000E+00  0.00000000000E+00 -0.11032220068E+03  0.40008023350E+04  0.39992809774E+04 0.  0.
        2    1    3    3  502    0 -0.17860355617E+04  0.79075136952E+03 -0.48351942120E+03  0.20122131564E+04  0.25500000920E-02 0.  1.
       -2    1    3    3    0  502  0.17860355617E+04 -0.79075136952E+03  0.37319722053E+03  0.19885891786E+04  0.25500000920E-02 0. -1.
</event>
<event>
 5   0  0.2078125E-09  0.4000098E+04  0.7818609E-02  0.8004527E-01
        1   -1    0    0  501    0  0.00000000000E+00  0.00000000000E+00  0.22250879040E+04  0.22250879040E+04  0.50400001928E-02 0.  1.
       -1   -1    0    0    0  501  0.00000000000E+00  0.00000000000E+00 -0.17977695210E+04  0.17977695210E+04  0.50400001928E-02 0. -1.
    10030    2    1    2    0    0  0.00000000000E+00  0.00000000000E+00  0.42731838300E+03  0.40228574249E+04  0.40000976064E+04 0.  0.
        3    1    3    3  502    0 -0.16247897902E+04 -0.29054868584E+03  0.13496145770E+04  0.21320928492E+04  0.10100000352E+00 0.  1.
       -3    1    3    3    0  502  0.16247897902E+04  0.29054868584E+03 -0.92229619398E+03  0.18907645757E+04  0.10100000352E+00 0. -1.
</event>
<event>
 5   0  0.2078125E-09  0.4002555E+04  0.7818609E-02  0.8004031E-01
        1   -1    0    0  501    0  0.00000000000E+00  0.00000000000E+00  0.34061197360E+04  0.34061197360E+04  0.50400001928E-02 0. -1.
       -1   -1    0    0    0  501  0.00000000000E+00  0.00000000000E+00 -0.11758577313E+04  0.11758577313E+04  0.50400001928E-02 0.  1.
    10030    2    1    2    0    0  0.00000000000E+00  0.00000000000E+00  0.22302620047E+04  0.45819774673E+04  0.40025552964E+04 0.  0.
        1    1    3    3  502    0 -0.48329354586E+03 -0.15941322178E+04 -0.15461820876E+03  0.16729426081E+04  0.50400001928E-02 0.  1.
       -1    1    3    3    0  502  0.48329354586E+03  0.15941322178E+04  0.23848802135E+04  0.29090348592E+04  0.50400001928E-02 0. -1.
</event>
<event>
 5   0  0.6538370E-09  0.4000039E+04  0.7818609E-02  0.8004539E-01
        2   -1    0    0  501    0  0.00000000000E+00  0.00000000000E+00  0.15964995629E+04  0.15964995629E+04  0.25500000920E-02 0.  1.
       -2   -1    0    0    0  501  0.00000000000E+00  0.00000000000E+00 -0.25055297392E+04  0.25055297392E+04  0.25500000920E-02 0. -1.
    10030    2    1    2    0    0  0.00000000000E+00  0.00000000000E+00 -0.90903017629E+03  0.41020293021E+04  0.40000385665E+04 0.  0.
        4    1    3    3  502    0 -0.11992285099E+04 -0.11642421636E+04 -0.15809140638E+04  0.23006302886E+04  0.12699999809E+01 0. -1.
       -4    1    3    3    0  502  0.11992285099E+04  0.11642421636E+04  0.67188388753E+03  0.18013990135E+04  0.12699999809E+01 0.  1.
</event>
<event>
 5   0  0.2078125E-09  0.4001023E+04  0.7818609E-02  0.8004340E-01
        1   -1    0    0  501    0  0.00000000000E+00  0.00000000000E+00  0.22937674842E+04  0.22937674842E+04  0.50400001928E-02 0.  1.
       -1   -1    0    0    0  501  0.00000000000E+00  0.00000000000E+00 -0.17447478313E+04  0.17447478313E+04  0.50400001928E-02 0. -1.
    10030    2    1    2    0    0  0.00000000000E+00  0.00000000000E+00  0.54901965286E+03  0.40385153155E+04  0.40010227911E+04 0.  0.
        3    1    3    3  502    0  0.19829521618E+04  0.23641067187E+03  0.39418115335E+03  0.20355264856E+04  0.10100000352E+00 0.  1.
       -3    1    3    3    0  502 -0.19829521618E+04 -0.23641067187E+03  0.15483849951E+03  0.20029888299E+04  0.10100000352E+00 0. -1.
</event>
<event>
 5   0  0.2078125E-09  0.4000108E+04  0.7818609E-02  0.8004525E-01
       -1   -1    0    0    0  501  0.00000000000E+00  0.00000000000E+00  0.24809510932E+04  0.24809510932E+04  0.50400001928E-02 0.  1.
        1   -1    0    0  501    0  0.00000000000E+00  0.00000000000E+00 -0.16123722524E+04  0.16123722524E+04  0.50400001928E-02 0. -1.
    10030    2    1    2    0    0  0.00000000000E+00  0.00000000000E+00  0.86857884077E+03  0.40933233456E+04  0.40001083497E+04 0.  0.
        1    1    3    3  502    0  0.17744486960E+04  0.89196199971E+03  0.19223481972E+03  0.19952991278E+04  0.50400001928E-02 0. -1.
       -1    1    3    3    0  502 -0.17744486960E+04 -0.89196199971E+03  0.67634402105E+03  0.20980242178E+04  0.50400001928E-02 0.  1.
</event>
<event>
 5   0  0.2078125E-09  0.4000120E+04  0.7818609E-02  0.8004522E-01
        1   -1    0    0  501    0  0.00000000000E+00  0.00000000000E+00  0.17603425915E+04  0.17603425915E+04  0.50400001928E-02 0.  1.
       -1   -1    0    0    0  501  0.00000000000E+00  0.00000000000E+00 -0.22724217728E+04  0.22724217728E+04  0.50400001928E-02 0. -1.
    10030    2    1    2    0    0  0.00000000000E+00  0.00000000000E+00 -0.51207918128E+03  0.40327643642E+04  0.40001204144E+04 0.  0.
        1    1    3    3  502    0 -0.49673740571E+03 -0.19304590103E+04 -0.42114662582E+03  0.20373474228E+04  0.50400001928E-02 0. -1.
       -1    1    3    3    0  502  0.49673740571E+03  0.19304590103E+04 -0.90932555464E+02  0.19954169415E+04  0.50400001928E-02 0.  1.
</event>
<event>
 5   0  0.6538370E-09  0.4002181E+04  0.7818609E-02  0.8004107E-01
       -2   -1    0    0    0  501  0.00000000000E+00  0.00000000000E+00  0.14678834314E+04  0.14678834314E+04  0.25500000920E-02 0.  1.
        2   -1    0    0  501    0  0.00000000000E+00  0.00000000000E+00 -0.27279851382E+04  0.27279851382E+04  0.25500000920E-02 0. -1.
    10030    2    1    2    0    0  0.00000000000E+00  0.00000000000E+00 -0.12601017067E+04  0.41958685696E+04  0.40021814979E+04 0.  0.
        4    1    3    3  502    0 -0.11203857565E+03  0.17555785901E+04 -0.16300209707E+04  0.23982449429E+04  0.12699999809E+01 0.  1.
       -4    1    3    3    0  502  0.11203857565E+03 -0.17555785901E+04  0.36991926401E+03  0.17976236267E+04  0.12699999809E+01 0. -1.
</event>
<event>
 5   0  0.6645526E-09  0.4000018E+04  0.7818609E-02  0.8004543E-01
        2   -1    0    0  501    0  0.00000000000E+00  0.00000000000E+00  0.30908986680E+04  0.30908986680E+04  0.25500000920E-02 0.  1.
       -2   -1    0    0    0  501  0.00000000000E+00  0.00000000000E+00 -0.12941336587E+04  0.12941336587E+04  0.25500000920E-02 0. -1.
    10030    2    1    2    0    0  0.00000000000E+00  0.00000000000E+00  0.17967650093E+04  0.43850323267E+04  0.40000180009E+04 0.  0.
        3    1    3    3  502    0 -0.17227860298E+04  0.91651484915E+03  0.41797238088E+03  0.19956683328E+04  0.10100000352E+00 0. -1.
       -3    1    3    3    0  502  0.17227860298E+04 -0.91651484915E+03  0.13787926284E+04  0.23893639939E+04  0.10100000352E+00 0.  1.
</event>
<event>
 5   0  0.6547327E-09  0.4001029E+04  0.7818609E-02  0.8004339E-01
       -2   -1    0    0    0  501  0.00000000000E+00  0.00000000000E+00  0.15794089311E+04  0.15794089311E+04  0.25500000920E-02 0.  1.
        2   -1    0    0  501    0  0.00000000000E+00  0.00000000000E+00 -0.25338967651E+04  0.25338967651E+04  0.25500000920E-02 0. -1.
    10030    2    1    2    0    0  0.00000000000E+00  0.00000000000E+00 -0.95448783399E+03  0.41133056962E+04  0.40010294582E+04 0.  0.
        5    1    3    3  502    0 -0.50769093640E+03 -0.15906972135E+04 -0.16099653136E+04  0.23194995394E+04  0.46999998093E+01 0. -1.
       -5    1    3    3    0  502  0.50769093640E+03  0.15906972135E+04  0.65547747963E+03  0.17938061569E+04  0.46999998093E+01 0.  1.
</event>
<event>
 5   0  0.6645526E-09  0.4009735E+04  0.7818609E-02  0.8002586E-01
        2   -1    0    0  501    0  0.00000000000E+00  0.00000000000E+00  0.13790022579E+04  0.13790022579E+04  0.25500000920E-02 0. -1.
       -2   -1    0    0    0  501  0.00000000000E+00  0.00000000000E+00 -0.29147837363E+04  0.29147837363E+04  0.25500000920E-02 0.  1.
    10030    2    1    2    0    0  0.00000000000E+00  0.00000000000E+00 -0.15357814784E+04  0.42937859942E+04  0.40097348310E+04 0.  0.
        3    1    3    3  502    0 -0.75614232168E+02 -0.19171268128E+04 -0.14495920882E+03  0.19240857338E+04  0.10100000352E+00 0. -1.
       -3    1    3    3    0  502  0.75614232168E+02  0.19171268128E+04 -0.13908222695E+04  0.23697002604E+04  0.10100000352E+00 0.  1.
</event>
<event>
 5   0  0.2078125E-09  0.4000667E+04  0.7818609E-02  0.8004412E-01
        1   -1    0    0  501    0  0.00000000000E+00  0.00000000000E+00  0.15588980355E+04  0.15588980355E+04  0.50400001928E-02 0. -1.
       -1   -1    0    0    0  501  0.00000000000E+00  0.00000000000E+00 -0.25667712660E+04  0.25667712660E+04  0.50400001928E-02 0.  1.
    10030    2    1    2    0    0  0.00000000000E+00  0.00000000000E+00 -0.10078732305E+04  0.41256693015E+04  0.40006672864E+04 0.  0.
        5    1    3    3  502    0 -0.54037997500E+03  0.18772868415E+04 -0.94760728563E+03  0.21712204081E+04  0.46999998093E+01 0. -1.
       -5    1    3    3    0  502  0.54037997500E+03 -0.18772868415E+04 -0.60265944864E+02  0.19544488934E+04  0.46999998093E+01 0.  1.
</event>
<event>
 5   0  0.6547327E-09  0.4000209E+04  0.7818609E-02  0.8004504E-01
        2   -1    0    0  501    0  0.00000000000E+00  0.00000000000E+00  0.19833026950E+04  0.19833026950E+04  0.25500000920E-02 0.  1.
       -2   -1    0    0    0  501  0.00000000000E+00  0.00000000000E+00 -0.20170483020E+04  0.20170483020E+04  0.25500000920E-02 0. -1.
    10030    2    1    2    0    0  0.00000000000E+00  0.00000000000E+00 -0.33745606973E+02  0.40003509970E+04  0.40002086612E+04 0.  0.
        5    1    3    3  502    0  0.17888935519E+02  0.84611632108E+03  0.17954174932E+04  0.19848876310E+04  0.46999998093E+01 0.  1.
       -5    1    3    3    0  502 -0.17888935519E+02 -0.84611632108E+03 -0.18291631002E+04  0.20154633660E+04  0.46999998093E+01 0. -1.
</event>
<event>
 5   0  0.6599276E-09  0.3999117E+04  0.7818609E-02  0.8004725E-01
       -2   -1    0    0    0  501  0.00000000000E+00  0.00000000000E+00  0.20631560693E+04  0.20631560693E+04  0.25500000920E-02 0.  1.
        2   -1    0    0  501    0  0.00000000000E+00  0.00000000000E+00 -0.19379216363E+04  0.19379216363E+04  0.25500000920E-02 0. -1.
    10030    2    1    2    0    0  0.00000000000E+00  0.00000000000E+00  0.12523443306E+03  0.40010777056E+04  0.39991172954E+04 0.  0.
        2    1    3    3  502    0 -0.69474640370E+03  0.18393636905E+04 -0.30129648103E+03  0.19891482903E+04  0.25500000920E-02 0.  1.
       -2    1    3    3    0  502  0.69474640370E+03 -0.18393636905E+04  0.42653091409E+03  0.20119294153E+04  0.25500000920E-02 0. -1.
</event>
<event>
 5   0  0.6547327E-09  0.3999776E+04  0.7818609E-02  0.8004592E-01
        2   -1    0    0  501    0  0.00000000000E+00  0.00000000000E+00  0.13980687282E+04  0.13980687282E+04  0.25500000920E-02 0.  1.
       -2   -1    0    0    0  501  0.00000000000E+00  0.00000000000E+00 -0.28607685559E+04  0.28607685559E+04  0.25500000920E-02 0. -1.
    10030    2    1    2    0    0  0.00000000000E+00  0.00000000000E+00 -0.14626998277E+04  0.42588372841E+04  0.39997755221E+04 0.  0.
        5    1    3    3  502    0 -0.12437600910E+04 -0.15519456595E+04 -0.50786385704E+03  0.20526622424E+04  0.46999998093E+01 0.  1.
       -5    1    3    3    0  502  0.12437600910E+04  0.15519456595E+04 -0.95483597066E+03  0.22061750418E+04  0.46999998093E+01 0. -1.
</event>
<event>
 5   0  0.2078125E-09  0.3998097E+04  0.7818609E-02  0.8004931E-01
        1   -1    0    0  501    0  0.00000000000E+00  0.00000000000E+00  0.28081393776E+04  0.28081393776E+04  0.50400001928E-02 0.  1.
       -1   -1    0    0    0  501  0.00000000000E+00  0.00000000000E+00 -0.14230755854E+04  0.14230755854E+04  0.50400001928E-02 0. -1.
    10030    2    1    2    0    0  0.00000000000E+00  0.00000000000E+00  0.13850637923E+04  0.42312149630E+04  0.39980968416E+04 0.  0.
        1    1    3    3  502    0  0.13093376427E+04 -0.36356475938E+03  0.22441887260E+04  0.26235333874E+04  0.50400001928E-02 0.  1.
       -1    1    3    3    0  502 -0.13093376427E+04  0.36356475938E+03 -0.85912493373E+03  0.16076815756E+04  0.50400001928E-02 0. -1.
</event>
<event>
 5   0  0.6599276E-09  0.4000465E+04  0.7818609E-02  0.8004453E-01
        2   -1    0    0  501    0  0.00000000000E+00  0.00000000000E+00  0.34812112629E+04  0.34812112629E+04  0.25500000920E-02 0. -1.
       -2   -1    0    0    0  501  0.00000000000E+00  0.00000000000E+00 -0.11492922414E+04  0.11492922414E+04  0.25500000920E-02 0.  1.
    10030    2    1    2    0    0  0.00000000000E+00  0.00000000000E+00  0.23319190215E+04  0.46305035043E+04  0.40004645205E+04 0.  0.
        2    1    3    3  502    0  0.16085789670E+04  0.11877710098E+04  0.11069066799E+04  0.22855127790E+04  0.25500000920E-02 0. -1.
       -2    1    3    3    0  502 -0.16085789670E+04 -0.11877710098E+04  0.12250123416E+04  0.23449907253E+04  0.25500000920E-02 0.  1.
</event>
<event>
 5   0  0.2078125E-09  0.4000377E+04  0.7818609E-02  0.8004471E-01
       -1   -1    0    0    0  501  0.00000000000E+00  0.00000000000E+00  0.28228548897E+04  0.28228548897E+04  0.50400001928E-02 0. -1.
        1   -1    0    0  501    0  0.00000000000E+00  0.00000000000E+00 -0.14172721938E+04  0.14172721938E+04  0.50400001928E-02 0.  1.
    10030    2    1    2    0    0  0.00000000000E+00  0.00000000000E+00  0.14055826959E+04  0.42401270835E+04  0.40003768534E+04 0.  0.
        5    1    3    3  502    0  0.11925149825E+04 -0.45827661081E+03  0.23340614136E+04  0.26608220925E+04  0.46999998093E+01 0. -1.
       -5    1    3    3    0  502 -0.11925149825E+04  0.45827661081E+03 -0.92847871762E+03  0.15793049910E+04  0.46999998093E+01 0.  1.
</event>
<event>
 5   0  0.2078125E-09  0.3999323E+04  0.7818609E-02  0.8004683E-01
       -1   -1    0    0    0  501  0.00000000000E+00  0.00000000000E+00  0.15526922575E+04  0.15526922575E+04  0.50400001928E-02 0. -1.
        1   -1    0    0  501    0  0.00000000000E+00  0.00000000000E+00 -0.25752986451E+04  0.25752986451E+04  0.50400001928E-02 0.  1.
    10030    2    1    2    0    0  0.00000000000E+00  0.00000000000E+00 -0.10226063876E+04  0.41279909026E+04  0.39993230762E+04 0.  0.
        5    1    3    3  502    0  0.53206209921E+03  0.10466610605E+04  0.11594248638E+04  0.16501144075E+04  0.46999998093E+01 0. -1.
       -5    1    3    3    0  502 -0.53206209921E+03 -0.10466610605E+04 -0.21820312514E+04  0.24778764951E+04  0.46999998093E+01 0.  1.
</event>
<event>
 5   0  0.6538370E-09  0.3995236E+04  0.7818609E-02  0.8005508E-01
       -2   -1    0    0    0  501  0.00000000000E+00  0.00000000000E+00  0.19351267838E+04  0.19351267838E+04  0.25500000920E-02 0.  1.
        2   -1    0    0  501    0  0.00000000000E+00  0.00000000000E+00 -0.20621274723E+04  0.20621274723E+04  0.25500000920E-02 0. -1.
    10030    2    1    2    0    0  0.00000000000E+00  0.00000000000E+00 -0.12700068854E+03  0.39972542561E+04  0.39952362149E+04 0.  0.
        4    1    3    3  502    0 -0.12837106501E+04 -0.45146971468E+03  0.13996810198E+04  0.19521389567E+04  0.12699999809E+01 0.  1.
       -4    1    3    3    0  502  0.12837106501E+04  0.45146971468E+03 -0.15266817083E+04  0.20451152994E+04  0.12699999809E+01 0. -1.
</event>
<event>
 5   0  0.2078125E-09  0.4000632E+04  0.7818609E-02  0.8004419E-01
        1   -1    0    0  501    0  0.00000000000E+00  0.00000000000E+00  0.16273313354E+04  0.16273313354E+04  0.50400001928E-02 0.  1.
       -1   -1    0    0    0  501  0.00000000000E+00  0.00000000000E+00 -0.24587894014E+04  0.24587894014E+04  0.50400001928E-02 0. -1.
    10030    2    1    2    0    0  0.00000000000E+00  0.00000000000E+00 -0.83145806597E+03  0.40861207368E+04  0.40006324700E+04 0.  0.
        5    1    3    3  502    0  0.76106213616E+03  0.17546223256E+04  0.18273364129E+03  0.19212831010E+04  0.46999998093E+01 0. -1.
       -5    1    3    3    0  502 -0.76106213616E+03 -0.17546223256E+04 -0.10141917073E+04  0.21648376358E+04  0.46999998093E+01 0.  1.
</event>
<event>
 5   0  0.2078125E-09  0.4001897E+04  0.7818609E-02  0.8004164E-01
        1   -1    0    0  501    0  0.00000000000E+00  0.00000000000E+00  0.24968625857E+04  0.24968625857E+04  0.50400001928E-02 0. -1.
       -1   -1    0    0    0  501  0.00000000000E+00  0.00000000000E+00 -0.16035301927E+04  0.16035301927E+04  0.50400001928E-02 0.  1.
    10030    2    1    2    0    0  0.00000000000E+00  0.00000000000E+00  0.89333239304E+03  0.41003927784E+04  0.40018968218E+04 0.  0.
        1    1    3    3  502    0 -0.14452318130E+04 -0.36160476766E+03  0.18153356227E+04  0.23483816606E+04  0.50400001928E-02 0. -1.
       -1    1    3    3    0  502  0.14452318130E+04  0.36160476766E+03 -0.92200322961E+03  0.17520111177E+04  0.50400001928E-02 0.  1.
</event>
<event>
 5   0  0.2078125E-09  0.4016472E+04  0.7818609E-02  0.8001232E-01
        1   -1    0    0  501    0  0.00000000000E+00  0.00000000000E+00  0.23810179447E+04  0.23810179447E+04  0.50400001928E-02 0.  1.
       -1   -1    0    0    0  501  0.00000000000E+00  0.00000000000E+00 -0.16938180060E+04  0.16938180060E+04  0.50400001928E-02 0. -1.
    10030    2    1    2    0    0  0.00000000000E+00  0.00000000000E+00  0.68719993864E+03  0.40748359507E+04  0.40164716194E+04 0.  0.
        5    1    3    3  502    0 -0.18549603450E+04 -0.63809565188E+03 -0.92701589980E+02  0.19638379814E+04  0.46999998093E+01 0. -1.
       -5    1    3    3    0  502  0.18549603450E+04  0.63809565188E+03  0.77990152862E+03  0.21109979694E+04  0.46999998093E+01 0.  1.
</event>
<event>
 5   0  0.6547327E-09  0.4001173E+04  0.7818609E-02  0.8004310E-01
        2   -1    0    0  501    0  0.00000000000E+00  0.00000000000E+00  0.23293421001E+04  0.23293421001E+04  0.25500000920E-02 0.  1.
       -2   -1    0    0    0  501  0.00000000000E+00  0.00000000000E+00 -0.17182302989E+04  0.17182302989E+04  0.25500000920E-02 0. -1.
    10030    2    1    2    0    0  0.00000000000E+00  0.00000000000E+00  0.61111180116E+03  0.40475723989E+04  0.40011729144E+04 0.  0.
        5    1    3    3  502    0  0.18694839202E+04 -0.48421258437E+03  0.83400457086E+03  0.21035725966E+04  0.46999998093E+01 0.  1.
       -5    1    3    3    0  502 -0.18694839202E+04  0.48421258437E+03 -0.22289276970E+03  0.19439998024E+04  0.46999998093E+01 0. -1.
</event>
<event>
 5   0  0.2078125E-09  0.3998779E+04  0.7818609E-02  0.8004793E-01
        1   -1    0    0  501    0  0.00000000000E+00  0.00000000000E+00  0.26992595485E+04  0.26992595485E+04  0.50400001928E-02 0.  1.
       -1   -1    0    0    0  501  0.00000000000E+00  0.00000000000E+00 -0.14809830211E+04  0.14809830211E+04  0.50400001928E-02 0. -1.
    10030    2    1    2    0    0  0.00000000000E+00  0.00000000000E+00  0.12182765274E+04  0.41802425697E+04  0.39987785940E+04 0.  0.
        1    1    3    3  502    0 -0.60607682119E+03 -0.15479806610E+03  0.25943324928E+04  0.26686799429E+04  0.50400001928E-02 0.  1.
       -1    1    3    3    0  502  0.60607682119E+03  0.15479806610E+03 -0.13760559655E+04  0.15115626267E+04  0.50400001928E-02 0. -1.
</event>
<event>
 5   0  0.6547327E-09  0.3997777E+04  0.7818609E-02  0.8004995E-01
       -2   -1    0    0    0  501  0.00000000000E+00  0.00000000000E+00  0.27261968147E+04  0.27261968147E+04  0.25500000920E-02 0.  1.
        2   -1    0    0  501    0  0.00000000000E+00  0.00000000000E+00 -0.14656148649E+04  0.14656148649E+04  0.25500000920E-02 0. -1.
    10030    2    1    2    0    0  0.00000000000E+00  0.00000000000E+00  0.12605819498E+04  0.41918116796E+04  0.39977766702E+04 0.  0.
        5    1    3    3  502    0  0.18795015189E+04  0.57126307751E+03  0.24266584604E+03  0.19793373300E+04  0.46999998093E+01 0. -1.
       -5    1    3    3    0  502 -0.18795015189E+04 -0.57126307751E+03  0.10179161038E+04  0.22124743496E+04  0.46999998093E+01 0.  1.
</event>
<event>
 5   0  0.2078125E-09  0.3998280E+04  0.7818609E-02  0.8004894E-01
        1   -1    0    0  501    0  0.00000000000E+00  0.00000000000E+00  0.24098259451E+04  0.24098259451E+04  0.50400001928E-02 0. -1.
       -1   -1    0    0    0  501  0.00000000000E+00  0.00000000000E+00 -0.16584438298E+04  0.16584438298E+04  0.50400001928E-02 0.  1.
    10030    2    1    2    0    0  0.00000000000E+00  0.00000000000E+00  0.75138211525E+03  0.40682697749E+04  0.39982801150E+04 0.  0.
        5    1    3    3  502    0  0.70606445035E+03  0.46819801191E+03  0.22181344586E+04  0.23744218144E+04  0.46999998093E+01 0. -1.
       -5    1    3    3    0  502 -0.70606445035E+03 -0.46819801191E+03 -0.14667523433E+04  0.16938479604E+04  0.46999998093E+01 0.  1.
</event>
<event>
 5   0  0.6538370E-09  0.3998699E+04  0.7818609E-02  0.8004809E-01
        2   -1    0    0  501    0  0.00000000000E+00  0.00000000000E+00  0.18876973639E+04  0.18876973639E+04  0.25500000920E-02 0.  1.
       -2   -1    0    0    0  501  0.00000000000E+00  0.00000000000E+00 -0.21176053528E+04  0.21176053528E+04  0.25500000920E-02 0. -1.
    10030    2    1    2    0    0  0.00000000000E+00  0.00000000000E+00 -0.22990798888E+03  0.40053027168E+04  0.39986988096E+04 0.  0.
        4    1    3    3  502    0 -0.13847175732E+04  0.80112139473E+03  0.10862588852E+04  0.19337006555E+04  0.12699999809E+01 0.  1.
       -4    1    3    3    0  502  0.13847175732E+04 -0.80112139473E+03 -0.13161668741E+04  0.20716020612E+04  0.12699999809E+01 0. -1.
</event>
<event>
 5   0  0.2078125E-09  0.3998867E+04  0.7818609E-02  0.8004775E-01
        1   -1    0    0  501    0  0.00000000000E+00  0.00000000000E+00  0.11738271360E+04  0.11738271360E+04  0.50400001928E-02 0.  1.
       -1   -1    0    0    0  501  0.00000000000E+00  0.00000000000E+00 -0.34057264997E+04  0.34057264997E+04  0.50400001928E-02 0. -1.
    10030    2    1    2    0    0  0.00000000000E+00  0.00000000000E+00 -0.22318993638E+04  0.45795536358E+04  0.39988669311E+04 0.  0.
        4    1    3    3  502    0  0.72796693622E+03 -0.15452791057E+04  0.74140348272E+02  0.17097724348E+04  0.12699999809E+01 0.  1.
       -4    1    3    3    0  502 -0.72796693622E+03  0.15452791057E+04 -0.23060397120E+04  0.28697812009E+04  0.12699999809E+01 0. -1.
</event>
<event>
 5   0  0.2078125E-09  0.3999315E+04  0.7818609E-02  0.8004685E-01
        1   -1    0    0  501    0  0.00000000000E+00  0.00000000000E+00  0.24630684309E+04  0.24630684309E+04  0.50400001928E-02 0. -1.
       -1   -1    0    0    0  501  0.00000000000E+00  0.00000000000E+00 -0.16234342629E+04  0.16234342629E+04  0.50400001928E-02 0.  1.
    10030    2    1    2    0    0  0.00000000000E+00  0.00000000000E+00  0.83963416802E+03  0.40865026938E+04  0.39993147826E+04 0.  0.
        2    1    3    3  502    0 -0.16455583198E+04 -0.11361119054E+04  0.41557480596E+03  0.20423797063E+04  0.25500000920E-02 0.  1.
       -2    1    3    3    0  502  0.16455583198E+04  0.11361119054E+04  0.42405936206E+03  0.20441229875E+04  0.25500000920E-02 0. -1.
</event>
<event>
 5   0  0.2078125E-09  0.4006219E+04  0.7818609E-02  0.8003293E-01
       -1   -1    0    0    0  501  0.00000000000E+00  0.00000000000E+00  0.17604043040E+04  0.17604043040E+04  0.50400001928E-02 0.  1.
        1   -1    0    0  501    0  0.00000000000E+00  0.00000000000E+00 -0.22792761875E+04  0.22792761875E+04  0.50400001928E-02 0. -1.
    10030    2    1    2    0    0  0.00000000000E+00  0.00000000000E+00 -0.51887188349E+03  0.40396804915E+04  0.40062189708E+04 0.  0.
        3    1    3    3  502    0  0.10203951134E+03 -0.63379777155E+03  0.16538674692E+04  0.17740882991E+04  0.10100000352E+00 0.  1.
       -3    1    3    3    0  502 -0.10203951134E+03  0.63379777155E+03 -0.21727393527E+04  0.22655921924E+04  0.10100000352E+00 0. -1.
</event>
<event>
 5   0  0.6645526E-09  0.3999320E+04  0.7818609E-02  0.8004684E-01
        2   -1    0    0  501    0  0.00000000000E+00  0.00000000000E+00  0.18915595032E+04  0.18915595032E+04  0.25500000920E-02 0. -1.
       -2   -1    0    0    0  501  0.00000000000E+00  0.00000000000E+00 -0.21139386210E+04  0.21139386210E+04  0.25500000920E-02 0.  1.
    10030    2    1    2    0    0  0.00000000000E+00  0.00000000000E+00 -0.22237911784E+03  0.40054981242E+04  0.39993202862E+04 0.  0.
        3    1    3    3  502    0  0.12597756841E+04 -0.12474195191E+04  0.81519894675E+03  0.19513173919E+04  0.10100000352E+00 0. -1.
       -3    1    3    3    0  502 -0.12597756841E+04  0.12474195191E+04 -0.10375780646E+04  0.20541807324E+04  0.10100000352E+00 0.  1.
</event>
<event>
 5   0  0.2078125E-09  0.3999857E+04  0.7818609E-02  0.8004575E-01
       -1   -1    0    0    0  501  0.00000000000E+00  0.00000000000E+00  0.24813033223E+04  0.24813033223E+04  0.50400001928E-02 0.  1.
        1   -1    0    0  501    0  0.00000000000E+00  0.00000000000E+00 -0.16119411135E+04  0.16119411135E+04  0.50400001928E-02 0. -1.
    10030    2    1    2    0    0  0.00000000000E+00  0.00000000000E+00  0.86936220875E+03  0.40932444358E+04  0.39998574176E+04 0.  0.
        2    1    3    3  502    0  0.22193767764E+03  0.22885010896E+03 -0.15857725152E+04  0.16174990495E+04  0.25500000920E-02 0. -1.
       -2    1    3    3    0  502 -0.22193767764E+03 -0.22885010896E+03  0.24551347240E+04  0.24757453863E+04  0.25500000920E-02 0.  1.
</event>
<event>
 5   0  0.2078125E-09  0.3999984E+04  0.7818609E-02  0.8004550E-01
        1   -1    0    0  501    0  0.00000000000E+00  0.00000000000E+00  0.20586041649E+04  0.20586041649E+04  0.50400001928E-02 0.  1.
       -1   -1    0    0    0  501  0.00000000000E+00  0.00000000000E+00 -0.19430485578E+04  0.19430485578E+04  0.50400001928E-02 0. -1.
    10030    2    1    2    0    0  0.00000000000E+00  0.00000000000E+00  0.11555560709E+03  0.40016527227E+04  0.39999839268E+04 0.  0.
        2    1    3    3  502    0  0.10269392679E+02  0.56139876642E+03  0.19781342738E+04  0.20562804382E+04  0.25500000920E-02 0.  1.
       -2    1    3    3    0  502 -0.10269392679E+02 -0.56139876642E+03 -0.18625786667E+04  0.19453722844E+04  0.25500000920E-02 0. -1.
</event>
<event>
 5   0  0.6547327E-09  0.3998504E+04  0.7818609E-02  0.8004848E-01
       -2   -1    0    0    0  501  0.00000000000E+00  0.00000000000E+00  0.17835100202E+04  0.17835100202E+04  0.25500000920E-02 0.  1.
        2   -1    0    0  501    0  0.00000000000E+00  0.00000000000E+00 -0.22410909348E+04  0.22410909348E+04  0.25500000920E-02 0. -1.
    10030    2    1    2    0    0  0.00000000000E+00  0.00000000000E+00 -0.45758091456E+03  0.40246009550E+04  0.39985037894E+04 0.  0.
        5    1    3    3  502    0 -0.11438924813E+03 -0.11520478944E+04  0.14117822893E+04  0.18257739656E+04  0.46999998093E+01 0.  1.
       -5    1    3    3    0  502  0.11438924813E+03  0.11520478944E+04 -0.18693632039E+04  0.21988269894E+04  0.46999998093E+01 0. -1.
</event>
<event>
 5   0  0.6538370E-09  0.3999157E+04  0.7818609E-02  0.8004717E-01
        2   -1    0    0  501    0  0.00000000000E+00  0.00000000000E+00  0.34700789206E+04  0.34700789206E+04  0.25500000920E-02 0. -1.
       -2   -1    0    0    0  501  0.00000000000E+00  0.00000000000E+00 -0.11522257767E+04  0.11522257767E+04  0.25500000920E-02 0.  1.
    10030    2    1    2    0    0  0.00000000000E+00  0.00000000000E+00  0.23178531439E+04  0.46223046973E+04  0.39991571009E+04 0.  0.
        4    1    3    3  502    0 -0.11572541273E+04  0.16300855579E+04  0.11085889937E+04  0.22859105868E+04  0.12699999809E+01 0. -1.
       -4    1    3    3    0  502  0.11572541273E+04 -0.16300855579E+04  0.12092641503E+04  0.23363941104E+04  0.12699999809E+01 0.  1.
</event>
<event>
 5   0  0.2078125E-09  0.4000323E+04  0.7818609E-02  0.8004481E-01
        1   -1    0    0  501    0  0.00000000000E+00  0.00000000000E+00  0.19661832619E+04  0.19661832619E+04  0.50400001928E-02 0.  1.
       -1   -1    0    0    0  501  0.00000000000E+00  0.00000000000E+00 -0.20347266298E+04  0.20347266298E+04  0.50400001928E-02 0. -1.
    10030    2    1    2    0    0  0.00000000000E+00  0.00000000000E+00 -0.68543367912E+02  0.40009098916E+04  0.40003227079E+04 0.  0.
        2    1    3    3  502    0  0.12320550786E+04 -0.28519742628E+03 -0.15841275368E+04  0.20270069909E+04  0.25500000920E-02 0. -1.
       -2    1    3    3    0  502 -0.12320550786E+04  0.28519742628E+03  0.15155841689E+04  0.19739029007E+04  0.25500000920E-02 0.  1.
</event>
<event>
 5   0  0.2078125E-09  0.3998849E+04  0.7818609E-02  0.8004779E-01
        1   -1    0    0  501    0  0.00000000000E+00  0.00000000000E+00  0.20185603749E+04  0.20185603749E+04  0.50400001928E-02 0.  1.
       -1   -1    0    0    0  501  0.00000000000E+00  0.00000000000E+00 -0.19804703405E+04  0.19804703405E+04  0.50400001928E-02 0. -1.
    10030    2    1    2    0    0  0.00000000000E+00  0.00000000000E+00  0.38090034443E+02  0.39990307154E+04  0.39988493110E+04 0.  0.
        3    1    3    3  502    0 -0.92160103402E+03  0.17249833428E+04  0.43473555212E+03  0.20034747339E+04  0.10100000352E+00 0.  1.
       -3    1    3    3    0  502  0.92160103402E+03 -0.17249833428E+04 -0.39664551768E+03  0.19955559816E+04  0.10100000352E+00 0. -1.
</event>
<event>
 5   0  0.2078125E-09  0.3997394E+04  0.7818609E-02  0.8005072E-01
       -1   -1    0    0    0  501  0.00000000000E+00  0.00000000000E+00  0.15591350898E+04  0.15591350898E+04  0.50400001928E-02 0.  1.
        1   -1    0    0  501    0  0.00000000000E+00  0.00000000000E+00 -0.25621835342E+04  0.25621835342E+04  0.50400001928E-02 0. -1.
    10030    2    1    2    0    0  0.00000000000E+00  0.00000000000E+00 -0.10030484444E+04  0.41213186240E+04  0.39973942786E+04 0.  0.
        5    1    3    3  502    0 -0.16327595524E+04  0.87754792975E+03  0.26916150396E+03  0.18730894614E+04  0.46999998093E+01 0.  1.
       -5    1    3    3    0  502  0.16327595524E+04 -0.87754792975E+03 -0.12722099483E+04  0.22482291626E+04  0.46999998093E+01 0. -1.
</event>
<event>
 5   0  0.6599276E-09  0.3995184E+04  0.7818609E-02  0.8005519E-01
        2   -1    0    0  501    0  0.00000000000E+00  0.00000000000E+00  0.21608941051E+04  0.21608941051E+04  0.25500000920E-02 0.  1.
       -2   -1    0    0    0  501  0.00000000000E+00  0.00000000000E+00 -0.18466307382E+04  0.18466307382E+04  0.25500000920E-02 0. -1.
    10030    2    1    2    0    0  0.00000000000E+00  0.00000000000E+00  0.31426336690E+03  0.40075248433E+04  0.39951838388E+04 0.  0.
        2    1    3    3  502    0  0.15162132219E+04  0.11979182333E+04 -0.35085424931E+03  0.19639270181E+04  0.25500000920E-02 0.  1.
       -2    1    3    3    0  502 -0.15162132219E+04 -0.11979182333E+04  0.66511761622E+03  0.20435978253E+04  0.25500000920E-02 0. -1.
</event>
<event>
 5   0  0.2078125E-09  0.3999461E+04  0.7818609E-02  0.8004655E-01
       -1   -1    0    0    0  501  0.00000000000E+00  0.00000000000E+00  0.20802259691E+04  0.20802259691E+04  0.50400001928E-02 0.  1.
        1   -1    0    0  501    0  0.00000000000E+00  0.00000000000E+00 -0.19223496435E+04  0.19223496435E+04  0.50400001928E-02 0. -1.
    10030    2    1    2    0    0  0.00000000000E+00  0.00000000000E+00  0.15787632562E+03  0.40025756126E+04  0.39994607887E+04 0.  0.
        1    1    3    3  502    0  0.16857015918E+04  0.45082077589E+03  0.10564754335E+04  0.20398454770E+04  0.50400001928E-02 0.  1.
       -1    1    3    3    0  502 -0.16857015918E+04 -0.45082077589E+03 -0.89859910783E+03  0.19627301356E+04  0.50400001928E-02 0. -1.
</event>
<event>
 5   0  0.6547327E-09  0.3999990E+04  0.7818609E-02  0.8004549E-01
       -2   -1    0    0    0  501  0.00000000000E+00  0.00000000000E+00  0.30461339359E+04  0.30461339359E+04  0.25500000920E-02 0.  1.
        2   -1    0    0  501    0  0.00000000000E+00  0.00000000000E+00 -0.13131334834E+04  0.13131334834E+04  0.25500000920E-02 0. -1.
    10030    2    1    2    0    0  0.00000000000E+00  0.00000000000E+00  0.17330004526E+04  0.43592674193E+04  0.39999902331E+04 0.  0.
        5    1    3    3  502    0 -0.18455128767E+04  0.68973360300E+03  0.12413540296E+04  0.23286545768E+04  0.46999998093E+01 0.  1.
       -5    1    3    3    0  502  0.18455128767E+04 -0.68973360300E+03  0.49164642296E+03  0.20306128425E+04  0.46999998093E+01 0. -1.
</event>
<event>
 5   0  0.2078125E-09  0.4004228E+04  0.7818609E-02  0.8003694E-01
       -1   -1    0    0    0  501  0.00000000000E+00  0.00000000000E+00  0.22813891022E+04  0.22813891022E+04  0.50400001928E-02 0. -1.
        1   -1    0    0  501    0  0.00000000000E+00  0.00000000000E+00 -0.17570261257E+04  0.17570261257E+04  0.50400001928E-02 0.  1.
    10030    2    1    2    0    0  0.00000000000E+00  0.00000000000E+00  0.52436297650E+03  0.40384152279E+04  0.40042278934E+04 0.  0.
        3    1    3    3  502    0 -0.69957711877E+03 -0.62419016429E+03  0.20463070331E+04  0.22508651649E+04  0.10100000352E+00 0. -1.
       -3    1    3    3    0  502  0.69957711877E+03  0.62419016429E+03 -0.15219440566E+04  0.17875500631E+04  0.10100000352E+00 0.  1.
</event>
<event>
 5   0  0.6599276E-09  0.3999689E+04  0.7818609E-02  0.8004609E-01
       -2   -1    0    0    0  501  0.00000000000E+00  0.00000000000E+00  0.18366008762E+04  0.18366008762E+04  0.25500000920E-02 0.  1.
        2   -1    0    0  501    0  0.00000000000E+00  0.00000000000E+00 -0.21775974641E+04  0.21775974641E+04  0.25500000920E-02 0. -1.
    10030    2    1    2    0    0  0.00000000000E+00  0.00000000000E+00 -0.34099658787E+03  0.40141983403E+04  0.39996886932E+04 0.  0.
        2    1    3    3  502    0  0.92399473848E+03 -0.17672042981E+04 -0.19619625613E+02  0.19942823867E+04  0.25500000920E-02 0. -1.
       -2    1    3    3    0  502 -0.92399473848E+03  0.17672042981E+04 -0.32137696225E+03  0.20199159537E+04  0.25500000920E-02 0.  1.
</event>
<event>
 5   0  0.6547327E-09  0.4000059E+04  0.7818609E-02  0.8004535E-01
        2   -1    0    0  501    0  0.00000000000E+00  0.00000000000E+00  0.28303206514E+04  0.28303206514E+04  0.25500000920E-02 0. -1.
       -2   -1    0    0    0  501  0.00000000000E+00  0.00000000000E+00 -0.14133089622E+04  0.14133089623E+04  0.25500000920E-02 0.  1.
    10030    2    1    2    0    0  0.00000000000E+00  0.00000000000E+00  0.14170116891E+04  0.42436296136E+04  0.40000587709E+04 0.  0.
        5    1    3    3  502    0  0.14853733927E+04  0.70330513681E+03  0.19177006477E+04  0.25255831199E+04  0.46999998093E+01 0. -1.
       -5    1    3    3    0  502 -0.14853733927E+04 -0.70330513681E+03 -0.50068895862E+03  0.17180464937E+04  0.46999998093E+01 0.  1.
</event>
<event>
 5   0  0.2078125E-09  0.3999856E+04  0.7818609E-02  0.8004576E-01
       -1   -1    0    0    0  501  0.00000000000E+00  0.00000000000E+00  0.14707322966E+04  0.14707322966E+04  0.50400001928E-02 0. -1.
        1   -1    0    0  501    0  0.00000000000E+00  0.00000000000E+00 -0.27195380064E+04  0.27195380064E+04  0.50400001928E-02 0.  1.
    10030    2    1    2    0    0  0.00000000000E+00  0.00000000000E+00 -0.12488057097E+04  0.41902703030E+04  0.39998561864E+04 0.  0.
        1    1    3    3  502    0  0.33629356018E+03  0.29372219866E+03 -0.26666544696E+04  0.27037773852E+04  0.50400001928E-02 0.  1.
       -1    1    3    3    0  502 -0.33629356018E+03 -0.29372219866E+03  0.14178487599E+04  0.14864929178E+04  0.50400001928E-02 0. -1.
</event>
<event>
 5   0  0.2078125E-09  0.4000488E+04  0.7818609E-02  0.8004448E-01
        1   -1    0    0  501    0  0.00000000000E+00  0.00000000000E+00  0.13376212719E+04  0.13376212719E+04  0.50400001928E-02 0. -1.
       -1   -1    0    0    0  501  0.00000000000E+00  0.00000000000E+00 -0.29911134743E+04  0.29911134743E+04  0.50400001928E-02 0.  1.
    10030    2    1    2    0    0  0.00000000000E+00  0.00000000000E+00 -0.16534922024E+04  0.43287347462E+04  0.40004884751E+04 0.  0.
        4    1    3    3  502    0 -0.59464879269E+03  0.18597324347E+04 -0.12968641662E+04  0.23439433001E+04  0.12699999809E+01 0.  1.
       -4    1    3    3    0  502  0.59464879269E+03 -0.18597324347E+04 -0.35662803622E+03  0.19847914461E+04  0.12699999809E+01 0. -1.
</event>
<event>
 5   0  0.6645526E-09  0.4000740E+04  0.7818609E-02  0.8004397E-01
       -2   -1    0    0    0  501  0.00000000000E+00  0.00000000000E+00  0.19666883679E+04  0.19666883679E+04  0.25500000920E-02 0. -1.
        2   -1    0    0  501    0  0.00000000000E+00  0.00000000000E+00 -0.20346280543E+04  0.20346280543E+04  0.25500000920E-02 0.  1.
    10030    2    1    2    0    0  0.00000000000E+00  0.00000000000E+00 -0.67939686329E+02  0.40013164222E+04  0.40007395953E+04 0.  0.
        3    1    3    3  502    0  0.13994825388E+04 -0.12662395835E+04  0.62912292585E+03  0.19893993378E+04  0.10100000352E+00 0.  1.
       -3    1    3    3    0  502 -0.13994825388E+04  0.12662395835E+04 -0.69706261218E+03  0.20119170844E+04  0.10100000352E+00 0. -1.
</event>
<event>
 5   0  0.2078125E-09  0.4003997E+04  0.7818609E-02  0.8003741E-01
        1   -1    0    0  501    0  0.00000000000E+00  0.00000000000E+00  0.26560981714E+04  0.26560981714E+04  0.50400001928E-02 0.  1.
       -1   -1    0    0    0  501  0.00000000000E+00  0.00000000000E+00 -0.15089795250E+04  0.15089795250E+04  0.50400001928E-02 0. -1.
    10030    2    1    2    0    0  0.00000000000E+00  0.00000000000E+00  0.11471186464E+04  0.41650776965E+04  0.40039968817E+04 0.  0.
        5    1    3    3  502    0 -0.19655736877E+04 -0.16983567494E+03  0.21980221231E+03  0.19851093625E+04  0.46999998093E+01 0. -1.
       -5    1    3    3    0  502  0.19655736877E+04  0.16983567494E+03  0.92731643407E+03  0.21799683340E+04  0.46999998093E+01 0.  1.
</event>
<event>
 5   0  0.6736335E-09  0.4000952E+04  0.7818609E-02  0.8004354E-01
        2   -1    0    0  501    0  0.00000000000E+00  0.00000000000E+00  0.17424349931E+04  0.17424349931E+04  0.25500000920E-02 0. -1.
       -2   -1    0    0    0  501  0.00000000000E+00  0.00000000000E+00 -0.22967311402E+04  0.22967311402E+04  0.25500000920E-02 0.  1.
    10030    2    1    2    0    0  0.00000000000E+00  0.00000000000E+00 -0.55429614710E+03  0.40391661333E+04  0.40009522409E+04 0.  0.
        1    1    3    3  502    0 -0.17459051492E+04 -0.21779803571E+03 -0.12382301757E+04  0.21514726916E+04  0.50400001928E-02 0.  1.
       -1    1    3    3    0  502  0.17459051492E+04  0.21779803571E+03  0.68393402862E+03  0.18876934417E+04  0.50400001928E-02 0. -1.
</event>
<event>
 5   0  0.2078125E-09  0.3993466E+04  0.7818609E-02  0.8005866E-01
        1   -1    0    0  501    0  0.00000000000E+00  0.00000000000E+00  0.20974764524E+04  0.20974764524E+04  0.50400001928E-02 0.  1.
       -1   -1    0    0    0  501  0.00000000000E+00  0.00000000000E+00 -0.19008282514E+04  0.19008282514E+04  0.50400001928E-02 0. -1.
    10030    2    1    2    0    0  0.00000000000E+00  0.00000000000E+00  0.19664820105E+03  0.39983047038E+04  0.39934659119E+04 0.  0.
        1    1    3    3  502    0  0.21421346494E+03  0.12452476364E+04  0.16462936550E+04  0.20752859762E+04  0.50400001928E-02 0.  1.
       -1    1    3    3    0  502 -0.21421346494E+03 -0.12452476364E+04 -0.14496454540E+04  0.19230187276E+04  0.50400001928E-02 0. -1.
</event>
<event>
 5   0  0.6599276E-09  0.3999606E+04  0.7818609E-02  0.8004626E-01
        2   -1    0    0  501    0  0.00000000000E+00  0.00000000000E+00  0.27836358460E+04  0.27836358460E+04  0.25500000920E-02 0. -1.
       -2   -1    0    0    0  501  0.00000000000E+00  0.00000000000E+00 -0.14366864067E+04  0.14366864067E+04  0.25500000920E-02 0.  1.
    10030    2    1    2    0    0  0.00000000000E+00  0.00000000000E+00  0.13469494393E+04  0.42203222527E+04  0.39996058712E+04 0.  0.
        2    1    3    3  502    0  0.20074153670E+03 -0.82880303584E+03 -0.12352138543E+04  0.15009879755E+04  0.25500000920E-02 0.  1.
       -2    1    3    3    0  502 -0.20074153670E+03  0.82880303584E+03  0.25821632935E+04  0.27193342772E+04  0.25500000920E-02 0. -1.
</event>
<event>
 5   0  0.2078125E-09  0.3988271E+04  0.7818609E-02  0.8006917E-01
       -1   -1    0    0    0  501  0.00000000000E+00  0.00000000000E+00  0.15647277443E+04  0.15647277443E+04  0.50400001928E-02 0. -1.
        1   -1    0    0  501    0  0.00000000000E+00  0.00000000000E+00 -0.25413853024E+04  0.25413853024E+04  0.50400001928E-02 0.  1.
    10030    2    1    2    0    0  0.00000000000E+00  0.00000000000E+00 -0.97665755806E+03  0.41061130467E+04  0.39882708492E+04 0.  0.
        3    1    3    3  502    0 -0.35732829456E+03 -0.96149139812E+03 -0.22489528694E+04  0.24718289257E+04  0.10100000352E+00 0.  1.
       -3    1    3    3    0  502  0.35732829456E+03  0.96149139812E+03  0.12722953113E+04  0.16342841210E+04  0.10100000352E+00 0. -1.
</event>
<event>
 5   0  0.6538370E-09  0.4000372E+04  0.7818609E-02  0.8004472E-01
       -2   -1    0    0    0  501  0.00000000000E+00  0.00000000000E+00  0.35537337227E+04  0.35537337227E+04  0.25500000920E-02 0.  1.
        2   -1    0    0  501    0  0.00000000000E+00  0.00000000000E+00 -0.11257859915E+04  0.11257859915E+04  0.25500000920E-02 0. -1.
    10030    2    1    2    0    0  0.00000000000E+00  0.00000000000E+00  0.24279477313E+04  0.46795197142E+04  0.40003718040E+04 0.  0.
        4    1    3    3  502    0  0.57347963057E+03 -0.83693680223E+03 -0.80244837163E+03  0.12935482595E+04  0.12699999809E+01 0. -1.
       -4    1    3    3    0  502 -0.57347963057E+03  0.83693680223E+03  0.32303961029E+04  0.33859714547E+04  0.12699999809E+01 0.  1.
</event>
<event>
 5   0  0.6736335E-09  0.4000999E+04  0.7818609E-02  0.8004345E-01
       -2   -1    0    0    0  501  0.00000000000E+00  0.00000000000E+00  0.22091129785E+04  0.22091129785E+04  0.25500000920E-02 0. -1.
        2   -1    0    0  501    0  0.00000000000E+00  0.00000000000E+00 -0.18115862008E+04  0.18115862008E+04  0.25500000920E-02 0.  1.
    10030    2    1    2    0    0  0.00000000000E+00  0.00000000000E+00  0.39752677764E+03  0.40206991793E+04  0.40009991692E+04 0.  0.
        1    1    3    3  502    0 -0.16964188931E+04  0.64177420340E+03  0.10468901184E+04  0.20942039321E+04  0.50400001928E-02 0. -1.
       -1    1    3    3    0  502  0.16964188931E+04 -0.64177420340E+03 -0.64936334081E+03  0.19264952472E+04  0.50400001928E-02 0.  1.
</event>
<event>
 5   0  0.2078125E-09  0.4001694E+04  0.7818609E-02  0.8004205E-01
       -1   -1    0    0    0  501  0.00000000000E+00  0.00000000000E+00  0.21454416053E+04  0.21454416053E+04  0.50400001928E-02 0. -1.
        1   -1    0    0  501    0  0.00000000000E+00  0.00000000000E+00 -0.18659976304E+04  0.18659976304E+04  0.50400001928E-02 0.  1.
    10030    2    1    2    0    0  0.00000000000E+00  0.00000000000E+00  0.27944397492E+03  0.40114392357E+04  0.40016941170E+04 0.  0.
        3    1    3    3  502    0  0.13320497029E+04 -0.26125266332E+01 -0.13569060178E+04  0.19014618554E+04  0.10100000352E+00 0.  1.
       -3    1    3    3    0  502 -0.13320497029E+04  0.26125266332E+01  0.16363499927E+04  0.21099773802E+04  0.10100000352E+00 0. -1.
</event>
<event>
 5   0  0.2078125E-09  0.3999938E+04  0.7818609E-02  0.8004559E-01
        1   -1    0    0  501    0  0.00000000000E+00  0.00000000000E+00  0.24488447087E+04  0.24488447087E+04  0.50400001928E-02 0. -1.
       -1   -1    0    0    0  501  0.00000000000E+00  0.00000000000E+00 -0.16333724995E+04  0.16333724995E+04  0.50400001928E-02 0.  1.
    10030    2    1    2    0    0  0.00000000000E+00  0.00000000000E+00  0.81547220921E+03  0.40822172082E+04  0.39999378008E+04 0.  0.
        5    1    3    3  502    0  0.12190728169E+03  0.18501838583E+04 -0.35722315539E+03  0.18882987496E+04  0.46999998093E+01 0. -1.
       -5    1    3    3    0  502 -0.12190728169E+03 -0.18501838583E+04  0.11726953646E+04  0.21939184586E+04  0.46999998093E+01 0.  1.
</event>
<event>
 5   0  0.2078125E-09  0.4000460E+04  0.7818609E-02  0.8004454E-01
        1   -1    0    0  501    0  0.00000000000E+00  0.00000000000E+00  0.26554316213E+04  0.26554316213E+04  0.50400001928E-02 0.  1.
       -1   -1    0    0    0  501  0.00000000000E+00  0.00000000000E+00 -0.15066930107E+04  0.15066930107E+04  0.50400001928E-02 0. -1.
    10030    2    1    2    0    0  0.00000000000E+00  0.00000000000E+00  0.11487386106E+04  0.41621246321E+04  0.40004601057E+04 0.  0.
        3    1    3    3  502    0 -0.32458152629E+02  0.15825608411E+04 -0.69790033756E+03  0.17299182752E+04  0.10100000352E+00 0.  1.
       -3    1    3    3    0  502  0.32458152629E+02 -0.15825608411E+04  0.18466389482E+04  0.24322063569E+04  0.10100000352E+00 0. -1.
</event>
<event>
 5   0  0.6599276E-09  0.4003704E+04  0.7818609E-02  0.8003800E-01
        2   -1    0    0  501    0  0.00000000000E+00  0.00000000000E+00  0.35056263531E+04  0.35056263531E+04  0.25500000920E-02 0.  1.
       -2   -1    0    0    0  501  0.00000000000E+00  0.00000000000E+00 -0.11431372325E+04  0.11431372325E+04  0.25500000920E-02 0. -1.
    10030    2    1    2    0    0  0.00000000000E+00  0.00000000000E+00  0.23624891206E+04  0.46487635856E+04  0.40037042885E+04 0.  0.
        2    1    3    3  502    0 -0.91828712994E+03  0.14981957903E+04  0.22946873183E+04  0.28902304004E+04  0.25500000920E-02 0.  1.
       -2    1    3    3    0  502  0.91828712994E+03 -0.14981957903E+04  0.67801802355E+02  0.17585331852E+04  0.25500000920E-02 0. -1.
</event>
<event>
 5   0  0.2078125E-09  0.4000764E+04  0.7818609E-02  0.8004392E-01
       -1   -1    0    0    0  501  0.00000000000E+00  0.00000000000E+00  0.15427901825E+04  0.15427901825E+04  0.50400001928E-02 0.  1.
        1   -1    0    0  501    0  0.00000000000E+00  0.00000000000E+00 -0.25936959671E+04  0.25936959671E+04  0.50400001928E-02 0. -1.
    10030    2    1    2    0    0  0.00000000000E+00  0.00000000000E+00 -0.10509057846E+04  0.41364861495E+04  0.40007642641E+04 0.  0.
        3    1    3    3  502    0  0.11185025142E+03 -0.35326697664E+03 -0.25579014840E+04  0.25846021063E+04  0.10100000352E+00 0. -1.
       -3    1    3    3    0  502 -0.11185025142E+03  0.35326697664E+03  0.15069956994E+04  0.15518840433E+04  0.10100000352E+00 0.  1.
</event>
<event>
 5   0  0.6736335E-09  0.3998993E+04  0.7818609E-02  0.8004750E-01
       -2   -1    0    0    0  501  0.00000000000E+00  0.00000000000E+00  0.29790929981E+04  0.29790929981E+04  0.25500000920E-02 0.  1.
        2   -1    0    0  501    0  0.00000000000E+00  0.00000000000E+00 -0.13420146313E+04  0.13420146313E+04  0.25500000920E-02 0. -1.
    10030    2    1    2    0    0  0.00000000000E+00  0.00000000000E+00  0.16370783669E+04  0.43211076294E+04  0.39989930690E+04 0.  0.
        1    1    3    3  502    0 -0.21825533262E+03  0.16788775568E+03  0.29585075119E+04  0.29712940593E+04  0.50400001928E-02 0.  1.
       -1    1    3    3    0  502  0.21825533262E+03 -0.16788775568E+03 -0.13214291450E+04  0.13498135701E+04  0.50400001928E-02 0. -1.
</event>
<event>
 5   0  0.6538370E-09  0.4001562E+04  0.7818609E-02  0.8004232E-01
       -2   -1    0    0    0  501  0.00000000000E+00  0.00000000000E+00  0.17686515129E+04  0.17686515129E+04  0.25500000920E-02 0. -1.
        2   -1    0    0  501    0  0.00000000000E+00  0.00000000000E+00 -0.22633762976E+04  0.22633762976E+04  0.25500000920E-02 0.  1.
    10030    2    1    2    0    0  0.00000000000E+00  0.00000000000E+00 -0.49472478473E+03  0.40320278105E+04  0.40015616517E+04 0.  0.
        4    1    3    3  502    0 -0.17725136218E+04  0.59132201210E+03 -0.96810974951E+03  0.21044487073E+04  0.12699999809E+01 0.  1.
       -4    1    3    3    0  502  0.17725136218E+04 -0.59132201210E+03  0.47338496478E+03  0.19275791032E+04  0.12699999809E+01 0. -1.
</event>
<event>
 5   0  0.2078125E-09  0.4000136E+04  0.7818609E-02  0.8004519E-01
        1   -1    0    0  501    0  0.00000000000E+00  0.00000000000E+00  0.24872440477E+04  0.24872440477E+04  0.50400001928E-02 0.  1.
       -1   -1    0    0    0  501  0.00000000000E+00  0.00000000000E+00 -0.16083152681E+04  0.16083152682E+04  0.50400001928E-02 0. -1.
    10030    2    1    2    0    0  0.00000000000E+00  0.00000000000E+00  0.87892877958E+03  0.40955593159E+04  0.40001362865E+04 0.  0.
        5    1    3    3  502    0  0.11515561257E+04  0.89259273267E+02 -0.12323379831E+04  0.16890019902E+04  0.46999998093E+01 0. -1.
       -5    1    3    3    0  502 -0.11515561257E+04 -0.89259273267E+02  0.21112667627E+04  0.24065573256E+04  0.46999998093E+01 0.  1.
</event>
<event>
 5   0  0.6645526E-09  0.3991211E+04  0.7818609E-02  0.8006322E-01
       -2   -1    0    0    0  501  0.00000000000E+00  0.00000000000E+00  0.17175648168E+04  0.17175648168E+04  0.25500000920E-02 0. -1.
        2   -1    0    0  501    0  0.00000000000E+00  0.00000000000E+00 -0.23186552666E+04  0.23186552666E+04  0.25500000920E-02 0.  1.
    10030    2    1    2    0    0  0.00000000000E+00  0.00000000000E+00 -0.60109044980E+03  0.40362200833E+04  0.39912106975E+04 0.  0.
        3    1    3    3  502    0  0.11439085753E+04 -0.16351708445E+04 -0.31208347325E+03  0.20198283649E+04  0.10100000352E+00 0.  1.
       -3    1    3    3    0  502 -0.11439085753E+04  0.16351708445E+04 -0.28900697656E+03  0.20163917184E+04  0.10100000352E+00 0. -1.
</event>
<event>
 5   0  0.6645526E-09  0.4001839E+04  0.7818609E-02  0.8004176E-01
       -2   -1    0    0    0  501  0.00000000000E+00  0.00000000000E+00  0.22967043026E+04  0.22967043026E+04  0.25500000920E-02 0.  1.
        2   -1    0    0  501    0  0.00000000000E+00  0.00000000000E+00 -0.17432274766E+04  0.17432274766E+04  0.25500000920E-02 0. -1.
    10030    2    1    2    0    0  0.00000000000E+00  0.00000000000E+00  0.55347682594E+03  0.40399317792E+04  0.40018386004E+04 0.  0.
        3    1    3    3  502    0 -0.19286079003E+04  0.25818426197E+03  0.74753640032E+03  0.20844659331E+04  0.10100000352E+00 0.  1.
       -3    1    3    3    0  502  0.19286079003E+04 -0.25818426197E+03 -0.19405957438E+03  0.19554658460E+04  0.10100000352E+00 0. -1.
</event>
<event>
 5   0  0.2078125E-09  0.4000928E+04  0.7818609E-02  0.8004359E-01
       -1   -1    0    0    0  501  0.00000000000E+00  0.00000000000E+00  0.34013644802E+04  0.34013644802E+04  0.50400001928E-02 0.  1.
        1   -1    0    0  501    0  0.00000000000E+00  0.00000000000E+00 -0.11765446105E+04  0.11765446105E+04  0.50400001928E-02 0. -1.
    10030    2    1    2    0    0  0.00000000000E+00  0.00000000000E+00  0.22248198697E+04  0.45779090907E+04  0.40009284160E+04 0.  0.
        2    1    3    3  502    0 -0.18551545204E+04  0.20246525375E+03  0.28788922868E+03  0.18882453976E+04  0.25500000920E-02 0. -1.
       -2    1    3    3    0  502  0.18551545204E+04 -0.20246525375E+03  0.19369306410E+04  0.26896636931E+04  0.25500000920E-02 0.  1.
</event>
<event>
 5   0  0.2078125E-09  0.4000472E+04  0.7818609E-02  0.8004451E-01
        1   -1    0    0  501    0  0.00000000000E+00  0.00000000000E+00  0.27391907658E+04  0.27391907658E+04  0.50400001928E-02 0. -1.
       -1   -1    0    0    0  501  0.00000000000E+00  0.00000000000E+00 -0.14606299268E+04  0.14606299268E+04  0.50400001928E-02 0.  1.
    10030    2    1    2    0    0  0.00000000000E+00  0.00000000000E+00  0.12785608390E+04  0.41998206927E+04  0.40004719761E+04 0.  0.
        5    1    3    3  502    0  0.79005032793E+03  0.16569282816E+04 -0.19487715350E+03  0.18459658843E+04  0.46999998093E+01 0.  1.
       -5    1    3    3    0  502 -0.79005032793E+03 -0.16569282816E+04  0.14734379925E+04  0.23538548084E+04  0.46999998093E+01 0. -1.
</event>
<event>
 5   0  0.2078125E-09  0.4000685E+04  0.7818609E-02  0.8004408E-01
       -1   -1    0    0    0  501  0.00000000000E+00  0.00000000000E+00  0.17236981125E+04  0.17236981125E+04  0.50400001928E-02 0. -1.
        1   -1    0    0  501    0  0.00000000000E+00  0.00000000000E+00 -0.23213865067E+04  0.23213865067E+04  0.50400001928E-02 0.  1.
    10030    2    1    2    0    0  0.00000000000E+00  0.00000000000E+00 -0.59768839420E+03  0.40450846191E+04  0.40006847113E+04 0.  0.
        1    1    3    3  502    0  0.35256380419E+03  0.19659503557E+04 -0.18758893253E+03  0.20061035977E+04  0.50400001928E-02 0.  1.
       -1    1    3    3    0  502 -0.35256380419E+03 -0.19659503557E+04 -0.41009946168E+03  0.20389810214E+04  0.50400001928E-02 0. -1.
</event>
<event>
 5   0  0.6547327E-09  0.4004990E+04  0.7818609E-02  0.8003541E-01
        2   -1    0    0  501    0  0.00000000000E+00  0.00000000000E+00  0.18507229885E+04  0.18507229885E+04  0.25500000920E-02 0.  1.
       -2   -1    0    0    0  501  0.00000000000E+00  0.00000000000E+00 -0.21667129611E+04  0.21667129611E+04  0.25500000920E-02 0. -1.
    10030    2    1    2    0    0  0.00000000000E+00  0.00000000000E+00 -0.31598997259E+03  0.40174359496E+04  0.40049896313E+04 0.  0.
        5    1    3    3  502    0 -0.16758143044E+04 -0.56920788510E+03 -0.10977158966E+04  0.20826313834E+04  0.46999998093E+01 0. -1.
       -5    1    3    3    0  502  0.16758143044E+04  0.56920788510E+03  0.78172592405E+03  0.19348045662E+04  0.46999998093E+01 0.  1.
</event>
<event>
 5   0  0.6645526E-09  0.3998568E+04  0.7818609E-02  0.8004835E-01
       -2   -1    0    0    0  501  0.00000000000E+00  0.00000000000E+00  0.15248659758E+04  0.15248659758E+04  0.25500000920E-02 0.  1.
        2   -1    0    0  501    0  0.00000000000E+00  0.00000000000E+00 -0.26213036836E+04  0.26213036836E+04  0.25500000920E-02 0. -1.
    10030    2    1    2    0    0  0.00000000000E+00  0.00000000000E+00 -0.10964377078E+04  0.41461696595E+04  0.39985681435E+04 0.  0.
        3    1    3    3  502    0 -0.73529954445E+03  0.51621297503E+03 -0.24002044521E+04  0.25628348909E+04  0.10100000352E+00 0. -1.
       -3    1    3    3    0  502  0.73529954445E+03 -0.51621297503E+03  0.13037667443E+04  0.15833347686E+04  0.10100000352E+00 0.  1.
</event>
<event>
 5   0  0.6538370E-09  0.4000648E+04  0.7818609E-02  0.8004416E-01
        2   -1    0    0  501    0  0.00000000000E+00  0.00000000000E+00  0.15489421899E+04  0.15489421899E+04  0.25500000920E-02 0. -1.
       -2   -1    0    0    0  501  0.00000000000E+00  0.00000000000E+00 -0.25832440201E+04  0.25832440201E+04  0.25500000920E-02 0.  1.
    10030    2    1    2    0    0  0.00000000000E+00  0.00000000000E+00 -0.10343018302E+04  0.41321862100E+04  0.40006477723E+04 0.  0.
        4    1    3    3  502    0 -0.12250699788E+04  0.66636795703E+03  0.96403231091E+03  0.16953473439E+04  0.12699999809E+01 0.  1.
       -4    1    3    3    0  502  0.12250699788E+04 -0.66636795703E+03 -0.19983341411E+04  0.24368388661E+04  0.12699999809E+01 0. -1.
</event>
<event>
 5   0  0.6645526E-09  0.3991910E+04  0.7818609E-02  0.8006180E-01
       -2   -1    0    0    0  501  0.00000000000E+00  0.00000000000E+00  0.14054140825E+04  0.14054140825E+04  0.25500000920E-02 0.  1.
        2   -1    0    0  501    0  0.00000000000E+00  0.00000000000E+00 -0.28346359198E+04  0.28346359198E+04  0.25500000920E-02 0. -1.
    10030    2    1    2    0    0  0.00000000000E+00  0.00000000000E+00 -0.14292218374E+04  0.42400500023E+04  0.39919104401E+04 0.  0.
        3    1    3    3  502    0 -0.12636876783E+04  0.65437848052E+03  0.77192809283E+03  0.16189474157E+04  0.10100000352E+00 0.  1.
       -3    1    3    3    0  502  0.12636876783E+04 -0.65437848052E+03 -0.22011499302E+04  0.26211025866E+04  0.10100000352E+00 0. -1.
</event>
<event>
 5   0  0.2078125E-09  0.3999537E+04  0.7818609E-02  0.8004640E-01
        1   -1    0    0  501    0  0.00000000000E+00  0.00000000000E+00  0.16446495494E+04  0.16446495494E+04  0.50400001928E-02 0.  1.
       -1   -1    0    0    0  501  0.00000000000E+00  0.00000000000E+00 -0.24315662903E+04  0.24315662903E+04  0.50400001928E-02 0. -1.
    10030    2    1    2    0    0  0.00000000000E+00  0.00000000000E+00 -0.78691674088E+03  0.40762158397E+04  0.39995371750E+04 0.  0.
        5    1    3    3  502    0 -0.97886605537E+03 -0.17124062314E+04 -0.72922633489E+03  0.21029281950E+04  0.46999998093E+01 0.  1.
       -5    1    3    3    0  502  0.97886605537E+03  0.17124062314E+04 -0.57690405984E+02  0.19732876447E+04  0.46999998093E+01 0. -1.
</event>
<event>
 5   0  0.2078125E-09  0.4001987E+04  0.7818609E-02  0.8004146E-01
        1   -1    0    0  501    0  0.00000000000E+00  0.00000000000E+00  0.15542907865E+04  0.15542907865E+04  0.50400001928E-02 0. -1.
       -1   -1    0    0    0  501  0.00000000000E+00  0.00000000000E+00 -0.25760783618E+04  0.25760783619E+04  0.50400001928E-02 0.  1.
    10030    2    1    2    0    0  0.00000000000E+00  0.00000000000E+00 -0.10217875754E+04  0.41303691483E+04  0.40019869380E+04 0.  0.
        4    1    3    3  502    0 -0.20971406234E+03 -0.16070445110E+04 -0.17221706740E+04  0.23648351934E+04  0.12699999809E+01 0.  1.
       -4    1    3    3    0  502  0.20971406234E+03  0.16070445110E+04  0.70038309862E+03  0.17655339550E+04  0.12699999809E+01 0. -1.
</event>
<event>
 5   0  0.2078125E-09  0.3999505E+04  0.7818609E-02  0.8004646E-01
       -1   -1    0    0    0  501  0.00000000000E+00  0.00000000000E+00  0.26958682699E+04  0.26958682699E+04  0.50400001928E-02 0.  1.
        1   -1    0    0  501    0  0.00000000000E+00  0.00000000000E+00 -0.14833846035E+04  0.14833846035E+04  0.50400001928E-02 0. -1.
    10030    2    1    2    0    0  0.00000000000E+00  0.00000000000E+00  0.12124836664E+04  0.41792528734E+04  0.39995047116E+04 0.  0.
        5    1    3    3  502    0 -0.81212901349E+01  0.12218682401E+04 -0.10479255607E+04  0.16097198583E+04  0.46999998093E+01 0. -1.
       -5    1    3    3    0  502  0.81212901349E+01 -0.12218682401E+04  0.22604092271E+04  0.25695330151E+04  0.46999998093E+01 0.  1.
</event>
<event>
 5   0  0.2078125E-09  0.3998472E+04  0.7818609E-02  0.8004855E-01
       -1   -1    0    0    0  501  0.00000000000E+00  0.00000000000E+00  0.11992625204E+04  0.11992625204E+04  0.50400001928E-02 0. -1.
        1   -1    0    0  501    0  0.00000000000E+00  0.00000000000E+00 -0.33328348238E+04  0.33328348238E+04  0.50400001928E-02 0.  1.
    10030    2    1    2    0    0  0.00000000000E+00  0.00000000000E+00 -0.21335723033E+04  0.45320973442E+04  0.39984716535E+04 0.  0.
        4    1    3    3  502    0  0.23504540361E+03 -0.12308889591E+04  0.69886559299E+03  0.14348340327E+04  0.12699999809E+01 0. -1.
       -4    1    3    3    0  502 -0.23504540361E+03  0.12308889591E+04 -0.28324378963E+04  0.30972633115E+04  0.12699999809E+01 0.  1.
</event>
<event>
 5   0  0.6645526E-09  0.3997281E+04  0.7818609E-02  0.8005095E-01
        2   -1    0    0  501    0  0.00000000000E+00  0.00000000000E+00  0.21987615044E+04  0.21987615044E+04  0.25500000920E-02 0. -1.
       -2   -1    0    0    0  501  0.00000000000E+00  0.00000000000E+00 -0.18167332433E+04  0.18167332433E+04  0.25500000920E-02 0.  1.
    10030    2    1    2    0    0  0.00000000000E+00  0.00000000000E+00  0.38202826111E+03  0.40154947478E+04  0.39972806352E+04 0.  0.
        3    1    3    3  502    0  0.77160318822E+03  0.24365376198E+03  0.20268601151E+04  0.21824070592E+04  0.10100000352E+00 0. -1.
       -3    1    3    3    0  502 -0.77160318822E+03 -0.24365376198E+03 -0.16448318540E+04  0.18330876885E+04  0.10100000352E+00 0.  1.
</event>
<event>
 5   0  0.2078125E-09  0.3999910E+04  0.7818609E-02  0.8004565E-01
        1   -1    0    0  501    0  0.00000000000E+00  0.00000000000E+00  0.20917204395E+04  0.20917204395E+04  0.50400001928E-02 0.  1.
       -1   -1    0    0    0  501  0.00000000000E+00  0.00000000000E+00 -0.19122150939E+04  0.19122150940E+04  0.50400001928E-02 0. -1.
    10030    2    1    2    0    0  0.00000000000E+00  0.00000000000E+00  0.17950534555E+03  0.40039355335E+04  0.39999096974E+04 0.  0.
        3    1    3    3  502    0 -0.89318185456E+02 -0.16320749058E+04  0.12433765541E+04  0.20536872941E+04  0.10100000352E+00 0.  1.
       -3    1    3    3    0  502  0.89318185456E+02  0.16320749058E+04 -0.10638712086E+04  0.19502482393E+04  0.10100000352E+00 0. -1.
</event>
<event>
 5   0  0.6547327E-09  0.3999151E+04  0.7818609E-02  0.8004718E-01
        2   -1    0    0  501    0  0.00000000000E+00  0.00000000000E+00  0.23010646868E+04  0.23010646868E+04  0.25500000920E-02 0. -1.
       -2   -1    0    0    0  501  0.00000000000E+00  0.00000000000E+00 -0.17375878029E+04  0.17375878029E+04  0.25500000920E-02 0.  1.
    10030    2    1    2    0    0  0.00000000000E+00  0.00000000000E+00  0.56347688387E+03  0.40386524897E+04  0.39991508766E+04 0.  0.
        5    1    3    3  502    0 -0.34746320167E+03 -0.84459380167E+03  0.20781315425E+04  0.22699608288E+04  0.46999998093E+01 0. -1.
       -5    1    3    3    0  502  0.34746320167E+03  0.84459380167E+03 -0.15146546586E+04  0.17686916609E+04  0.46999998093E+01 0.  1.
</event>
<event>
 5   0  0.6645526E-09  0.3996600E+04  0.7818609E-02  0.8005233E-01
        2   -1    0    0  501    0  0.00000000000E+00  0.00000000000E+00  0.35104241209E+04  0.35104241209E+04  0.25500000920E-02 0.  1.
       -2   -1    0    0    0  501  0.00000000000E+00  0.00000000000E+00 -0.11375269132E+04  0.11375269132E+04  0.25500000920E-02 0. -1.
    10030    2    1    2    0    0  0.00000000000E+00  0.00000000000E+00  0.23728972077E+04  0.46479510342E+04  0.39965995118E+04 0.  0.
        3    1    3    3  502    0 -0.33877237472E+03  0.24255867392E+03  0.34593462680E+04  0.34843475780E+04  0.10100000352E+00 0.  1.
       -3    1    3    3    0  502  0.33877237472E+03 -0.24255867392E+03 -0.10864490603E+04  0.11636034561E+04  0.10100000352E+00 0. -1.
</event>
<event>
 5   0  0.2078125E-09  0.3999795E+04  0.7818609E-02  0.8004588E-01
        1   -1    0    0  501    0  0.00000000000E+00  0.00000000000E+00  0.20462574357E+04  0.20462574357E+04  0.50400001928E-02 0. -1.
       -1   -1    0    0    0  501  0.00000000000E+00  0.00000000000E+00 -0.19545880311E+04  0.19545880311E+04  0.50400001928E-02 0.  1.
    10030    2    1    2    0    0  0.00000000000E+00  0.00000000000E+00  0.91669404619E+02  0.40008454668E+04  0.39997951410E+04 0.  0.
        3    1    3    3  502    0  0.44073619922E+03  0.10280841095E+04 -0.16124260016E+04  0.19624278214E+04  0.10100000352E+00 0.  1.
       -3    1    3    3    0  502 -0.44073619922E+03 -0.10280841095E+04  0.17040954062E+04  0.20384176454E+04  0.10100000352E+00 0. -1.
</event>
<event>
 5   0  0.6538370E-09  0.4001589E+04  0.7818609E-02  0.8004226E-01
        2   -1    0    0  501    0  0.00000000000E+00  0.00000000000E+00  0.17117489254E+04  0.17117489254E+04  0.25500000920E-02 0. -1.
       -2   -1    0    0    0  501  0.00000000000E+00  0.00000000000E+00 -0.23386478063E+04  0.23386478063E+04  0.25500000920E-02 0.  1.
    10030    2    1    2    0    0  0.00000000000E+00  0.00000000000E+00 -0.62689888084E+03  0.40503967317E+04  0.40015886192E+04 0.  0.
        4    1    3    3  502    0  0.15928026644E+04 -0.80519971213E+03  0.60190893813E+03  0.18835240606E+04  0.12699999809E+01 0. -1.
       -4    1    3    3    0  502 -0.15928026644E+04  0.80519971213E+03 -0.12288078190E+04  0.21668726711E+04  0.12699999809E+01 0.  1.
</event>
<event>
 5   0  0.6547327E-09  0.4000469E+04  0.7818609E-02  0.8004452E-01
        2   -1    0    0  501    0  0.00000000000E+00  0.00000000000E+00  0.14803827496E+04  0.14803827496E+04  0.25500000920E-02 0.  1.
       -2   -1    0    0    0  501  0.00000000000E+00  0.00000000000E+00 -0.27026372357E+04  0.27026372357E+04  0.25500000920E-02 0. -1.
    10030    2    1    2    0    0  0.00000000000E+00  0.00000000000E+00 -0.12222544861E+04  0.41830199853E+04  0.40004687437E+04 0.  0.
        5    1    3    3  502    0  0.51875773604E+03  0.62918955082E+03  0.12986701068E+04  0.15334781433E+04  0.46999998093E+01 0.  1.
       -5    1    3    3    0  502 -0.51875773604E+03 -0.62918955082E+03 -0.25209245929E+04  0.26495418421E+04  0.46999998093E+01 0. -1.
</event>
<event>
 5   0  0.2078125E-09  0.3999295E+04  0.7818609E-02  0.8004689E-01
       -1   -1    0    0    0  501  0.00000000000E+00  0.00000000000E+00  0.14063809781E+04  0.14063809781E+04  0.50400001928E-02 0. -1.
        1   -1    0    0  501    0  0.00000000000E+00  0.00000000000E+00 -0.28431772191E+04  0.28431772191E+04  0.50400001928E-02 0.  1.
    10030    2    1    2    0    0  0.00000000000E+00  0.00000000000E+00 -0.14367962410E+04  0.42495581972E+04  0.39992951170E+04 0.  0.
        2    1    3    3  502    0  0.19865216885E+04 -0.12633117524E+02 -0.96108085314E+03  0.22068313077E+04  0.25500000920E-02 0. -1.
       -2    1    3    3    0  502 -0.19865216885E+04  0.12633117524E+02 -0.47571538786E+03  0.20427268894E+04  0.25500000920E-02 0.  1.
</event>
<event>
 5   0  0.2078125E-09  0.4000412E+04  0.7818609E-02  0.8004463E-01
        1   -1    0    0  501    0  0.00000000000E+00  0.00000000000E+00  0.26226035348E+04  0.26226035348E+04  0.50400001928E-02 0. -1.
       -1   -1    0    0    0  501  0.00000000000E+00  0.00000000000E+00 -0.15255161777E+04  0.15255161777E+04  0.50400001928E-02 0.  1.
    10030    2    1    2    0    0  0.00000000000E+00  0.00000000000E+00  0.10970873572E+04  0.41481197125E+04  0.40004120388E+04 0.  0.
        4    1    3    3  502    0 -0.66949544556E+03  0.12226102925E+04  0.20360215170E+04  0.24674653613E+04  0.12699999809E+01 0. -1.
       -4    1    3    3    0  502  0.66949544556E+03 -0.12226102925E+04 -0.93893415982E+03  0.16806543512E+04  0.12699999809E+01 0.  1.
</event>
<event>
 5   0  0.2078125E-09  0.3999297E+04  0.7818609E-02  0.8004688E-01
        1   -1    0    0  501    0  0.00000000000E+00  0.00000000000E+00  0.12949131313E+04  0.12949131313E+04  0.50400001928E-02 0.  1.
       -1   -1    0    0    0  501  0.00000000000E+00  0.00000000000E+00 -0.30879250273E+04  0.30879250273E+04  0.50400001928E-02 0. -1.
    10030    2    1    2    0    0  0.00000000000E+00  0.00000000000E+00 -0.17930118960E+04  0.43828381586E+04  0.39992972715E+04 0.  0.
        3    1    3    3  502    0  0.36409810368E+03  0.17706338305E+03  0.12495254554E+04  0.13134811550E+04  0.10100000352E+00 0.  1.
       -3    1    3    3    0  502 -0.36409810368E+03 -0.17706338305E+03 -0.30425373514E+04  0.30693570036E+04  0.10100000352E+00 0. -1.
</event>
<event>
 5   0  0.2078125E-09  0.4000853E+04  0.7818609E-02  0.8004375E-01
        1   -1    0    0  501    0  0.00000000000E+00  0.00000000000E+00  0.13670174645E+04  0.13670174645E+04  0.50400001928E-02 0.  1.
       -1   -1    0    0    0  501  0.00000000000E+00  0.00000000000E+00 -0.29273258818E+04  0.29273258818E+04  0.50400001928E-02 0. -1.
    10030    2    1    2    0    0  0.00000000000E+00  0.00000000000E+00 -0.15603084173E+04  0.42943433463E+04  0.40008527114E+04 0.  0.
        5    1    3    3  502    0  0.13730798650E+04  0.14399593746E+04 -0.55796101324E+03  0.20664399092E+04  0.46999998093E+01 0. -1.
       -5    1    3    3    0  502 -0.13730798650E+04 -0.14399593746E+04 -0.10023474041E+04  0.22279034370E+04  0.46999998093E+01 0.  1.
</event>
<event>
 5   0  0.6736335E-09  0.4000748E+04  0.7818609E-02  0.8004396E-01
       -2   -1    0    0    0  501  0.00000000000E+00  0.00000000000E+00  0.25934652322E+04  0.25934652322E+04  0.25500000920E-02 0.  1.
        2   -1    0    0  501    0  0.00000000000E+00  0.00000000000E+00 -0.15429152709E+04  0.15429152709E+04  0.25500000920E-02 0. -1.
    10030    2    1    2    0    0  0.00000000000E+00  0.00000000000E+00  0.10505499613E+04  0.41363805032E+04  0.40007484857E+04 0.  0.
        1    1    3    3  502    0  0.86587014657E+03 -0.99399593364E+03  0.20808548759E+04  0.24632734403E+04  0.50400001928E-02 0.  1.
       -1    1    3    3    0  502 -0.86587014657E+03  0.99399593364E+03 -0.10303049146E+04  0.16731070629E+04  0.50400001928E-02 0. -1.
</event>
<event>
 5   0  0.2078125E-09  0.4001331E+04  0.7818609E-02  0.8004278E-01
       -1   -1    0    0    0  501  0.00000000000E+00  0.00000000000E+00  0.25343412233E+04  0.25343412234E+04  0.50400001928E-02 0. -1.
        1   -1    0    0  501    0  0.00000000000E+00  0.00000000000E+00 -0.15793699028E+04  0.15793699028E+04  0.50400001928E-02 0.  1.
    10030    2    1    2    0    0  0.00000000000E+00  0.00000000000E+00  0.95497132058E+03  0.41137111261E+04  0.40013309043E+04 0.  0.
        1    1    3    3  502    0 -0.53633751582E+03 -0.18282510097E+04 -0.14998577117E+03  0.19111921455E+04  0.50400001928E-02 0.  1.
       -1    1    3    3    0  502  0.53633751582E+03  0.18282510097E+04  0.11049570917E+04  0.22025189806E+04  0.50400001928E-02 0. -1.
</event>
<event>
 5   0  0.6736335E-09  0.4000898E+04  0.7818609E-02  0.8004366E-01
        2   -1    0    0  501    0  0.00000000000E+00  0.00000000000E+00  0.20766378427E+04  0.20766378427E+04  0.25500000920E-02 0.  1.
       -2   -1    0    0    0  501  0.00000000000E+00  0.00000000000E+00 -0.19270550251E+04  0.19270550251E+04  0.25500000920E-02 0. -1.
    10030    2    1    2    0    0  0.00000000000E+00  0.00000000000E+00  0.14958281753E+03  0.40036928678E+04  0.40008975944E+04 0.  0.
        1    1    3    3  502    0 -0.90605433073E+03 -0.16275420953E+03  0.18520874516E+04  0.20682483679E+04  0.50400001928E-02 0.  1.
       -1    1    3    3    0  502  0.90605433073E+03  0.16275420953E+03 -0.17025046341E+04  0.19354444999E+04  0.50400001928E-02 0. -1.
</event>
<event>
 5   0  0.2078125E-09  0.3999463E+04  0.7818609E-02  0.8004655E-01
       -1   -1    0    0    0  501  0.00000000000E+00  0.00000000000E+00  0.14729583007E+04  0.14729583007E+04  0.50400001928E-02 0. -1.
        1   -1    0    0  501    0  0.00000000000E+00  0.00000000000E+00 -0.27148944552E+04  0.27148944552E+04  0.50400001928E-02 0.  1.
    10030    2    1    2    0    0  0.00000000000E+00  0.00000000000E+00 -0.12419361545E+04  0.41878527559E+04  0.39994631256E+04 0.  0.
        3    1    3    3  502    0  0.15900644686E+04 -0.97649851492E+03  0.13198028971E+03  0.18706344300E+04  0.10100000352E+00 0. -1.
       -3    1    3    3    0  502 -0.15900644686E+04  0.97649851492E+03 -0.13739164442E+04  0.23172183258E+04  0.10100000352E+00 0.  1.
</event>
<event>
 5   0  0.2078125E-09  0.3999139E+04  0.7818609E-02  0.8004720E-01
        1   -1    0    0  501    0  0.00000000000E+00  0.00000000000E+00  0.19294651762E+04  0.19294651762E+04  0.50400001928E-02 0.  1.
       -1   -1    0    0    0  501  0.00000000000E+00  0.00000000000E+00 -0.20722208122E+04  0.20722208122E+04  0.50400001928E-02 0. -1.
    10030    2    1    2    0    0  0.00000000000E+00  0.00000000000E+00 -0.14275563594E+03  0.40016859884E+04  0.39991388546E+04 0.  0.
        2    1    3    3  502    0  0.66791902523E+03  0.13986995205E+04 -0.13354328670E+04  0.20459367329E+04  0.25500000920E-02 0. -1.
       -2    1    3    3    0  502 -0.66791902523E+03 -0.13986995205E+04  0.11926772310E+04  0.19557492555E+04  0.25500000920E-02 0.  1.
</event>
<event>
 5   0  0.2078125E-09  0.3991792E+04  0.7818609E-02  0.8006204E-01
       -3   -1    0    0    0  501  0.00000000000E+00  0.00000000000E+00  0.22250169770E+04  0.22250169793E+04  0.10100000352E+00 0. -1.
        3   -1    0    0  501    0  0.00000000000E+00  0.00000000000E+00 -0.17903691308E+04  0.17903691336E+04  0.10100000352E+00 0.  1.
    10030    2    1    2    0    0  0.00000000000E+00  0.00000000000E+00  0.43464784625E+03  0.40153861129E+04  0.39917924402E+04 0.  0.
        3    1    3    3  502    0 -0.12601170823E+04 -0.15473017969E+04  0.17754528749E+03  0.20033871945E+04  0.10100000352E+00 0. -1.
       -3    1    3    3    0  502  0.12601170823E+04  0.15473017969E+04  0.25710255876E+03  0.20119989184E+04  0.10100000352E+00 0.  1.
</event>
<event>
 5   0  0.6547327E-09  0.3999910E+04  0.7818609E-02  0.8004565E-01
       -2   -1    0    0    0  501  0.00000000000E+00  0.00000000000E+00  0.19300860727E+04  0.19300860727E+04  0.25500000920E-02 0.  1.
        2   -1    0    0  501    0  0.00000000000E+00  0.00000000000E+00 -0.20723534672E+04  0.20723534672E+04  0.25500000920E-02 0. -1.
    10030    2    1    2    0    0  0.00000000000E+00  0.00000000000E+00 -0.14226739454E+03  0.40024395400E+04  0.39999102814E+04 0.  0.
        5    1    3    3  502    0  0.13572864036E+04  0.14372004561E+04  0.23241755332E+03  0.19904299891E+04  0.46999998093E+01 0.  1.
       -5    1    3    3    0  502 -0.13572864036E+04 -0.14372004561E+04 -0.37468494786E+03  0.20120095508E+04  0.46999998093E+01 0. -1.
</event>
<event>
 5   0  0.6547327E-09  0.3982222E+04  0.7818609E-02  0.8008143E-01
       -2   -1    0    0    0  501  0.00000000000E+00  0.00000000000E+00  0.20471887686E+04  0.20471887686E+04  0.25500000920E-02 0.  1.
        2   -1    0    0  501    0  0.00000000000E+00  0.00000000000E+00 -0.19365690830E+04  0.19365690830E+04  0.25500000920E-02 0. -1.
    10030    2    1    2    0    0  0.00000000000E+00  0.00000000000E+00  0.11061968560E+03  0.39837578515E+04  0.39822217297E+04 0.  0.
        5    1    3    3  502    0 -0.72718151063E+03 -0.58744307650E+03 -0.17033836805E+04  0.19430440990E+04  0.46999998093E+01 0. -1.
       -5    1    3    3    0  502  0.72718151063E+03  0.58744307650E+03  0.18140033661E+04  0.20407137525E+04  0.46999998093E+01 0.  1.
</event>
<event>
 5   0  0.6547327E-09  0.3999131E+04  0.7818609E-02  0.8004722E-01
        2   -1    0    0  501    0  0.00000000000E+00  0.00000000000E+00  0.13789606376E+04  0.13789606376E+04  0.25500000920E-02 0. -1.
       -2   -1    0    0    0  501  0.00000000000E+00  0.00000000000E+00 -0.28994746523E+04  0.28994746523E+04  0.25500000920E-02 0.  1.
    10030    2    1    2    0    0  0.00000000000E+00  0.00000000000E+00 -0.15205140147E+04  0.42784352898E+04  0.39991306131E+04 0.  0.
        5    1    3    3  502    0 -0.22898730413E+03 -0.13911411507E+04 -0.22772190201E+04  0.26783310927E+04  0.46999998093E+01 0.  1.
       -5    1    3    3    0  502  0.22898730413E+03  0.13911411507E+04  0.75670500539E+03  0.16001041972E+04  0.46999998093E+01 0. -1.
</event>
<event>
 5   0  0.2078125E-09  0.3994158E+04  0.7818609E-02  0.8005726E-01
        1   -1    0    0  501    0  0.00000000000E+00  0.00000000000E+00  0.17305817880E+04  0.17305817880E+04  0.50400001928E-02 0.  1.
       -1   -1    0    0    0  501  0.00000000000E+00  0.00000000000E+00 -0.23046145614E+04  0.23046145614E+04  0.50400001928E-02 0. -1.
    10030    2    1    2    0    0  0.00000000000E+00  0.00000000000E+00 -0.57403277343E+03  0.40351963494E+04  0.39941577276E+04 0.  0.
        4    1    3    3  502    0  0.24719949864E+03  0.73075264366E+03 -0.21480112438E+04  0.22823367268E+04  0.12699999809E+01 0. -1.
       -4    1    3    3    0  502 -0.24719949864E+03 -0.73075264366E+03  0.15739784703E+04  0.17528596225E+04  0.12699999809E+01 0.  1.
</event>
<event>
 5   0  0.6599276E-09  0.3995551E+04  0.7818609E-02  0.8005445E-01
        2   -1    0    0  501    0  0.00000000000E+00  0.00000000000E+00  0.14406547559E+04  0.14406547559E+04  0.25500000920E-02 0. -1.
       -2   -1    0    0    0  501  0.00000000000E+00  0.00000000000E+00 -0.27703419489E+04  0.27703419489E+04  0.25500000920E-02 0.  1.
    10030    2    1    2    0    0  0.00000000000E+00  0.00000000000E+00 -0.13296871929E+04  0.42109967048E+04  0.39955506775E+04 0.  0.
        2    1    3    3  502    0 -0.55845970935E+03 -0.11288492494E+04  0.96956010177E+03  0.15894101628E+04  0.25500000920E-02 0. -1.
       -2    1    3    3    0  502  0.55845970935E+03  0.11288492494E+04 -0.22992472947E+04  0.26215865420E+04  0.25500000920E-02 0.  1.
</event>
<event>
 5   0  0.6645526E-09  0.4000175E+04  0.7818609E-02  0.8004511E-01
       -2   -1    0    0    0  501  0.00000000000E+00  0.00000000000E+00  0.16116360679E+04  0.16116360679E+04  0.25500000920E-02 0.  1.
        2   -1    0    0  501    0  0.00000000000E+00  0.00000000000E+00 -0.24821670349E+04  0.24821670349E+04  0.25500000920E-02 0. -1.
    10030    2    1    2    0    0  0.00000000000E+00  0.00000000000E+00 -0.87053096696E+03  0.40938031028E+04  0.40001749562E+04 0.  0.
        3    1    3    3  502    0  0.51113816021E+03 -0.14894777671E+04  0.82669981661E+03  0.17785496436E+04  0.10100000352E+00 0.  1.
       -3    1    3    3    0  502 -0.51113816021E+03  0.14894777671E+04 -0.16972307836E+04  0.23152534592E+04  0.10100000352E+00 0. -1.
</event>
<event>
 5   0  0.2078125E-09  0.3992160E+04  0.7818609E-02  0.8006130E-01
       -1   -1    0    0    0  501  0.00000000000E+00  0.00000000000E+00  0.18907357371E+04  0.18907357371E+04  0.50400001928E-02 0.  1.
        1   -1    0    0  501    0  0.00000000000E+00  0.00000000000E+00 -0.21072932514E+04  0.21072932515E+04  0.50400001928E-02 0. -1.
    10030    2    1    2    0    0  0.00000000000E+00  0.00000000000E+00 -0.21655751431E+03  0.39980289886E+04  0.39921596457E+04 0.  0.
        3    1    3    3  502    0  0.13001463803E+04  0.12700454548E+04  0.71812447916E+03  0.19542514795E+04  0.10100000352E+00 0.  1.
       -3    1    3    3    0  502 -0.13001463803E+04 -0.12700454548E+04 -0.93468199347E+03  0.20437775091E+04  0.10100000352E+00 0. -1.
</event>
<event>
 5   0  0.6645526E-09  0.3996609E+04  0.7818609E-02  0.8005231E-01
       -2   -1    0    0    0  501  0.00000000000E+00  0.00000000000E+00  0.15208984663E+04  0.15208984663E+04  0.25500000920E-02 0.  1.
        2   -1    0    0  501    0  0.00000000000E+00  0.00000000000E+00 -0.26255671799E+04  0.26255671799E+04  0.25500000920E-02 0. -1.
    10030    2    1    2    0    0  0.00000000000E+00  0.00000000000E+00 -0.11046687136E+04  0.41464656462E+04  0.39966091112E+04 0.  0.
        3    1    3    3  502    0  0.79836956769E+03  0.18047888455E+04 -0.87805577255E+03  0.21600089568E+04  0.10100000352E+00 0. -1.
       -3    1    3    3    0  502 -0.79836956769E+03 -0.18047888455E+04 -0.22661294104E+03  0.19864566894E+04  0.10100000352E+00 0.  1.
</event>
<event>
 5   0  0.2078125E-09  0.4001187E+04  0.7818609E-02  0.8004307E-01
       -1   -1    0    0    0  501  0.00000000000E+00  0.00000000000E+00  0.19026526038E+04  0.19026526038E+04  0.50400001928E-02 0.  1.
        1   -1    0    0  501    0  0.00000000000E+00  0.00000000000E+00 -0.21035759819E+04  0.21035759819E+04  0.50400001928E-02 0. -1.
    10030    2    1    2    0    0  0.00000000000E+00  0.00000000000E+00 -0.20092337805E+03  0.40062285857E+04  0.40011869835E+04 0.  0.
        1    1    3    3  502    0 -0.17211297582E+04  0.12716956184E+03 -0.11136233356E+04  0.20539271350E+04  0.50400001928E-02 0. -1.
       -1    1    3    3    0  502  0.17211297582E+04 -0.12716956184E+03  0.91269995755E+03  0.19523014508E+04  0.50400001928E-02 0.  1.
</event>
<event>
 5   0  0.6547327E-09  0.3999929E+04  0.7818609E-02  0.8004561E-01
        2   -1    0    0  501    0  0.00000000000E+00  0.00000000000E+00  0.25420479754E+04  0.25420479754E+04  0.25500000920E-02 0. -1.
       -2   -1    0    0    0  501  0.00000000000E+00  0.00000000000E+00 -0.15734782299E+04  0.15734782299E+04  0.25500000920E-02 0.  1.
    10030    2    1    2    0    0  0.00000000000E+00  0.00000000000E+00  0.96856974550E+03  0.41155262054E+04  0.39999285738E+04 0.  0.
        5    1    3    3  502    0 -0.28603012304E+03 -0.98397252591E+03 -0.12828548340E+04  0.16418750800E+04  0.46999998093E+01 0.  1.
       -5    1    3    3    0  502  0.28603012304E+03  0.98397252591E+03  0.22514245795E+04  0.24736511254E+04  0.46999998093E+01 0. -1.
</event>
<event>
 5   0  0.2078125E-09  0.3997416E+04  0.7818609E-02  0.8005068E-01
        1   -1    0    0  501    0  0.00000000000E+00  0.00000000000E+00  0.25005597364E+04  0.25005597364E+04  0.50400001928E-02 0.  1.
       -1   -1    0    0    0  501  0.00000000000E+00  0.00000000000E+00 -0.15975758495E+04  0.15975758495E+04  0.50400001928E-02 0. -1.
    10030    2    1    2    0    0  0.00000000000E+00  0.00000000000E+00  0.90298388688E+03  0.40981355858E+04  0.39974160879E+04 0.  0.
        3    1    3    3  502    0  0.10891923037E+04 -0.35950207538E+03  0.21295762130E+04  0.24188171642E+04  0.10100000352E+00 0.  1.
       -3    1    3    3    0  502 -0.10891923037E+04  0.35950207538E+03 -0.12265923261E+04  0.16793184217E+04  0.10100000352E+00 0. -1.
</event>
<event>
 5   0  0.6599276E-09  0.4004174E+04  0.7818609E-02  0.8003705E-01
       -2   -1    0    0    0  501  0.00000000000E+00  0.00000000000E+00  0.12734508405E+04  0.12734508405E+04  0.25500000920E-02 0. -1.
        2   -1    0    0  501    0  0.00000000000E+00  0.00000000000E+00 -0.31476306848E+04  0.31476306848E+04  0.25500000920E-02 0.  1.
    10030    2    1    2    0    0  0.00000000000E+00  0.00000000000E+00 -0.18741798443E+04  0.44210815253E+04  0.40041742925E+04 0.  0.
        2    1    3    3  502    0  0.34009381894E+03 -0.38012540096E+03 -0.30746905591E+04  0.31167099898E+04  0.25500000920E-02 0.  1.
       -2    1    3    3    0  502 -0.34009381894E+03  0.38012540096E+03  0.12005107149E+04  0.13043715355E+04  0.25500000920E-02 0. -1.
</event>
<event>
 5   0  0.2078125E-09  0.3999367E+04  0.7818609E-02  0.8004674E-01
        1   -1    0    0  501    0  0.00000000000E+00  0.00000000000E+00  0.19314095506E+04  0.19314095506E+04  0.50400001928E-02 0. -1.
       -1   -1    0    0    0  501  0.00000000000E+00  0.00000000000E+00 -0.20703709225E+04  0.20703709225E+04  0.50400001928E-02 0.  1.
    10030    2    1    2    0    0  0.00000000000E+00  0.00000000000E+00 -0.13896137191E+03  0.40017804731E+04  0.39993670365E+04 0.  0.
        5    1    3    3  502    0 -0.12722681636E+04 -0.52174028088E+03  0.13832331926E+04  0.19504449123E+04  0.46999998093E+01 0. -1.
       -5    1    3    3    0  502  0.12722681636E+04  0.52174028088E+03 -0.15221945645E+04  0.20513355608E+04  0.46999998093E+01 0.  1.
</event>
<event>
 5   0  0.2078125E-09  0.4000327E+04  0.7818609E-02  0.8004481E-01
       -1   -1    0    0    0  501  0.00000000000E+00  0.00000000000E+00  0.22456355529E+04  0.22456355529E+04  0.50400001928E-02 0. -1.
        1   -1    0    0  501    0  0.00000000000E+00  0.00000000000E+00 -0.17815242094E+04  0.17815242094E+04  0.50400001928E-02 0.  1.
    10030    2    1    2    0    0  0.00000000000E+00  0.00000000000E+00  0.46411134348E+03  0.40271597622E+04  0.40003270381E+04 0.  0.
        2    1    3    3  502    0 -0.66202449213E+03 -0.26233469947E+03 -0.16495878580E+04  0.17967292573E+04  0.25500000920E-02 0.  1.
       -2    1    3    3    0  502  0.66202449213E+03  0.26233469947E+03  0.21136992015E+04  0.22304305049E+04  0.25500000920E-02 0. -1.
</event>
<event>
 5   0  0.2078125E-09  0.4003106E+04  0.7818609E-02  0.8003920E-01
       -3   -1    0    0    0  501  0.00000000000E+00  0.00000000000E+00  0.17917557630E+04  0.17917557658E+04  0.10100000352E+00 0. -1.
        3   -1    0    0  501    0  0.00000000000E+00  0.00000000000E+00 -0.22359153403E+04  0.22359153426E+04  0.10100000352E+00 0.  1.
    10030    2    1    2    0    0  0.00000000000E+00  0.00000000000E+00 -0.44415957728E+03  0.40276711084E+04  0.40031058976E+04 0.  0.
        5    1    3    3  502    0 -0.86077241715E+03  0.16753993857E+04 -0.90321257185E+03  0.20889488494E+04  0.46999998093E+01 0.  1.
       -5    1    3    3    0  502  0.86077241715E+03 -0.16753993857E+04  0.45905299456E+03  0.19387222590E+04  0.46999998093E+01 0. -1.
</event>
<event>
 5   0  0.6547327E-09  0.3999780E+04  0.7818609E-02  0.8004591E-01
        2   -1    0    0  501    0  0.00000000000E+00  0.00000000000E+00  0.22940027385E+04  0.22940027385E+04  0.25500000920E-02 0.  1.
       -2   -1    0    0    0  501  0.00000000000E+00  0.00000000000E+00 -0.17434852978E+04  0.17434852978E+04  0.25500000920E-02 0. -1.
    10030    2    1    2    0    0  0.00000000000E+00  0.00000000000E+00  0.55051744066E+03  0.40374880363E+04  0.39997800178E+04 0.  0.
        5    1    3    3  502    0  0.13773294487E+03  0.16013927225E+04 -0.92596382462E+03  0.18549555548E+04  0.46999998093E+01 0. -1.
       -5    1    3    3    0  502 -0.13773294487E+03 -0.16013927225E+04  0.14764812653E+04  0.21825324815E+04  0.46999998093E+01 0.  1.
</event>
<event>
 5   0  0.2078125E-09  0.4000624E+04  0.7818609E-02  0.8004421E-01
        3   -1    0    0  501    0  0.00000000000E+00  0.00000000000E+00  0.12379434427E+04  0.12379434469E+04  0.10100000352E+00 0.  1.
       -3   -1    0    0    0  501  0.00000000000E+00  0.00000000000E+00 -0.32321734266E+04  0.32321734282E+04  0.10100000352E+00 0. -1.
    10030    2    1    2    0    0  0.00000000000E+00  0.00000000000E+00 -0.19942299839E+04  0.44701168750E+04  0.40006239073E+04 0.  0.
        3    1    3    3  502    0  0.19124206178E+04  0.51098173225E+03 -0.13186200692E+04  0.23784898249E+04  0.10100000352E+00 0.  1.
       -3    1    3    3    0  502 -0.19124206178E+04 -0.51098173225E+03 -0.67560991465E+03  0.20916270502E+04  0.10100000352E+00 0. -1.
</event>
<event>
 5   0  0.6736335E-09  0.4000381E+04  0.7818609E-02  0.8004470E-01
       -2   -1    0    0    0  501  0.00000000000E+00  0.00000000000E+00  0.13379067136E+04  0.13379067136E+04  0.25500000920E-02 0. -1.
        2   -1    0    0  501    0  0.00000000000E+00  0.00000000000E+00 -0.29903143439E+04  0.29903143439E+04  0.25500000920E-02 0.  1.
    10030    2    1    2    0    0  0.00000000000E+00  0.00000000000E+00 -0.16524076303E+04  0.43282210575E+04  0.40003808001E+04 0.  0.
        1    1    3    3  502    0 -0.32825003535E+03  0.15345518896E+04 -0.21680706762E+04  0.26764020708E+04  0.50400001928E-02 0.  1.
       -1    1    3    3    0  502  0.32825003535E+03 -0.15345518896E+04  0.51566304592E+03  0.16518189866E+04  0.50400001928E-02 0. -1.
</event>
<event>
 5   0  0.6547327E-09  0.3996705E+04  0.7818609E-02  0.8005212E-01
       -2   -1    0    0    0  501  0.00000000000E+00  0.00000000000E+00  0.28763623728E+04  0.28763623728E+04  0.25500000920E-02 0. -1.
        2   -1    0    0  501    0  0.00000000000E+00  0.00000000000E+00 -0.13883552276E+04  0.13883552276E+04  0.25500000920E-02 0.  1.
    10030    2    1    2    0    0  0.00000000000E+00  0.00000000000E+00  0.14880071453E+04  0.42647176004E+04  0.39967050113E+04 0.  0.
        5    1    3    3  502    0  0.21112269895E+03 -0.19411055453E+04  0.11978824921E+04  0.22907221758E+04  0.46999998093E+01 0. -1.
       -5    1    3    3    0  502 -0.21112269895E+03  0.19411055453E+04  0.29012465317E+03  0.19739954246E+04  0.46999998093E+01 0.  1.
</event>
<event>
 5   0  0.6547327E-09  0.4000647E+04  0.7818609E-02  0.8004416E-01
       -2   -1    0    0    0  501  0.00000000000E+00  0.00000000000E+00  0.17073636561E+04  0.17073636561E+04  0.25500000920E-02 0. -1.
        2   -1    0    0  501    0  0.00000000000E+00  0.00000000000E+00 -0.23435512969E+04  0.23435512969E+04  0.25500000920E-02 0.  1.
    10030    2    1    2    0    0  0.00000000000E+00  0.00000000000E+00 -0.63618764079E+03  0.40509149531E+04  0.40006471030E+04 0.  0.
        5    1    3    3  502    0  0.51406093028E+03 -0.23486014820E+03 -0.22610194635E+04  0.23305898467E+04  0.46999998093E+01 0.  1.
       -5    1    3    3    0  502 -0.51406093028E+03  0.23486014820E+03  0.16248318228E+04  0.17203251063E+04  0.46999998093E+01 0. -1.
</event>
<event>
 5   0  0.2078125E-09  0.4000246E+04  0.7818609E-02  0.8004497E-01
        1   -1    0    0  501    0  0.00000000000E+00  0.00000000000E+00  0.12335033020E+04  0.12335033021E+04  0.50400001928E-02 0.  1.
       -1   -1    0    0    0  501  0.00000000000E+00  0.00000000000E+00 -0.32431960295E+04  0.32431960296E+04  0.50400001928E-02 0. -1.
    10030    2    1    2    0    0  0.00000000000E+00  0.00000000000E+00 -0.20096927275E+04  0.44766993316E+04  0.40002464982E+04 0.  0.
        5    1    3    3  502    0 -0.13442751340E+04 -0.80141230737E+02  0.65013402162E+03  0.14953911157E+04  0.46999998093E+01 0.  1.
       -5    1    3    3    0  502  0.13442751340E+04  0.80141230737E+02 -0.26598267491E+04  0.29813082159E+04  0.46999998093E+01 0. -1.
</event>
<event>
 5   0  0.2078125E-09  0.3999922E+04  0.7818609E-02  0.8004562E-01
       -3   -1    0    0    0  501  0.00000000000E+00  0.00000000000E+00  0.14999288370E+04  0.14999288404E+04  0.10100000352E+00 0. -1.
        3   -1    0    0  501    0  0.00000000000E+00  0.00000000000E+00 -0.26666892574E+04  0.26666892593E+04  0.10100000352E+00 0.  1.
    10030    2    1    2    0    0  0.00000000000E+00  0.00000000000E+00 -0.11667604204E+04  0.41666180997E+04  0.39999220630E+04 0.  0.
        5    1    3    3  502    0  0.15592573962E+04  0.27295705519E+03  0.68986555653E+03  0.17267674301E+04  0.46999998093E+01 0. -1.
       -5    1    3    3    0  502 -0.15592573962E+04 -0.27295705519E+03 -0.18566259769E+04  0.24398506696E+04  0.46999998093E+01 0.  1.
</event>
<event>
 5   0  0.6547327E-09  0.3999225E+04  0.7818609E-02  0.8004703E-01
        2   -1    0    0  501    0  0.00000000000E+00  0.00000000000E+00  0.13279356956E+04  0.13279356956E+04  0.25500000920E-02 0. -1.
       -2   -1    0    0    0  501  0.00000000000E+00  0.00000000000E+00 -0.30110268245E+04  0.30110268245E+04  0.25500000920E-02 0.  1.
    10030    2    1    2    0    0  0.00000000000E+00  0.00000000000E+00 -0.16830911289E+04  0.43389625200E+04  0.39992249252E+04 0.  0.
        5    1    3    3  502    0 -0.79407957614E+02 -0.19114584590E+04 -0.14727304451E+04  0.24143189760E+04  0.46999998093E+01 0. -1.
       -5    1    3    3    0  502  0.79407957614E+02  0.19114584590E+04 -0.21036068384E+03  0.19246435440E+04  0.46999998093E+01 0.  1.
</event>
<event>
 5   0  0.2078125E-09  0.4000032E+04  0.7818609E-02  0.8004540E-01
        1   -1    0    0  501    0  0.00000000000E+00  0.00000000000E+00  0.25139459551E+04  0.25139459551E+04  0.50400001928E-02 0.  1.
       -1   -1    0    0    0  501  0.00000000000E+00  0.00000000000E+00 -0.15911497152E+04  0.15911497152E+04  0.50400001928E-02 0. -1.
    10030    2    1    2    0    0  0.00000000000E+00  0.00000000000E+00  0.92279623985E+03  0.41050956703E+04  0.40000321951E+04 0.  0.
        4    1    3    3  502    0  0.10205778026E+04 -0.17129918676E+04  0.30193813865E+03  0.20167023682E+04  0.12699999809E+01 0. -1.
       -4    1    3    3    0  502 -0.10205778026E+04  0.17129918676E+04  0.62085810119E+03  0.20883933021E+04  0.12699999809E+01 0.  1.
</event>
<event>
 5   0  0.6736335E-09  0.4000178E+04  0.7818609E-02  0.8004511E-01
        2   -1    0    0  501    0  0.00000000000E+00  0.00000000000E+00  0.20313181730E+04  0.20313181730E+04  0.25500000920E-02 0. -1.
       -2   -1    0    0    0  501  0.00000000000E+00  0.00000000000E+00 -0.19693399715E+04  0.19693399715E+04  0.25500000920E-02 0.  1.
    10030    2    1    2    0    0  0.00000000000E+00  0.00000000000E+00  0.61978201561E+02  0.40006581445E+04  0.40001780325E+04 0.  0.
        1    1    3    3  502    0 -0.16112330268E+04  0.11757623023E+04  0.17888252274E+03  0.20026202373E+04  0.50400001928E-02 0. -1.
       -1    1    3    3    0  502  0.16112330268E+04 -0.11757623023E+04 -0.11690432118E+03  0.19980379071E+04  0.50400001928E-02 0.  1.
</event>
<event>
 5   0  0.2078125E-09  0.4000314E+04  0.7818609E-02  0.8004483E-01
       -1   -1    0    0    0  501  0.00000000000E+00  0.00000000000E+00  0.22948998715E+04  0.22948998715E+04  0.50400001928E-02 0. -1.
        1   -1    0    0  501    0  0.00000000000E+00  0.00000000000E+00 -0.17432689382E+04  0.17432689382E+04  0.50400001928E-02 0.  1.
    10030    2    1    2    0    0  0.00000000000E+00  0.00000000000E+00  0.55163093329E+03  0.40381688096E+04  0.40003138188E+04 0.  0.
        5    1    3    3  502    0 -0.20450991178E+02 -0.13727094770E+04 -0.11925476376E+04  0.18184997963E+04  0.46999998093E+01 0.  1.
       -5    1    3    3    0  502  0.20450991178E+02  0.13727094770E+04  0.17441785709E+04  0.22196690133E+04  0.46999998093E+01 0. -1.
</event>
<event>
 5   0  0.2078125E-09  0.3992795E+04  0.7818609E-02  0.8006002E-01
        1   -1    0    0  501    0  0.00000000000E+00  0.00000000000E+00  0.24856892389E+04  0.24856892389E+04  0.50400001928E-02 0. -1.
       -1   -1    0    0    0  501  0.00000000000E+00  0.00000000000E+00 -0.16034195490E+04  0.16034195490E+04  0.50400001928E-02 0.  1.
    10030    2    1    2    0    0  0.00000000000E+00  0.00000000000E+00  0.88226968994E+03  0.40891087880E+04  0.39927948700E+04 0.  0.
        1    1    3    3  502    0 -0.40132930101E+03 -0.11780733850E+04 -0.11575062383E+04  0.16996301951E+04  0.50400001928E-02 0.  1.
       -1    1    3    3    0  502  0.40132930101E+03  0.11780733850E+04  0.20397759282E+04  0.23894785929E+04  0.50400001928E-02 0. -1.
</event>
<event>
 5   0  0.2078125E-09  0.3997552E+04  0.7818609E-02  0.8005040E-01
       -1   -1    0    0    0  501  0.00000000000E+00  0.00000000000E+00  0.18197448267E+04  0.18197448267E+04  0.50400001928E-02 0.  1.
        1   -1    0    0  501    0  0.00000000000E+00  0.00000000000E+00 -0.21954211780E+04  0.21954211780E+04  0.50400001928E-02 0. -1.
    10030    2    1    2    0    0  0.00000000000E+00  0.00000000000E+00 -0.37567635135E+03  0.40151660047E+04  0.39975524167E+04 0.  0.
        3    1    3    3  502    0  0.18155479129E+04  0.74213952949E+03 -0.57439885822E+03  0.20437512969E+04  0.10100000352E+00 0.  1.
       -3    1    3    3    0  502 -0.18155479129E+04 -0.74213952949E+03  0.19872250687E+03  0.19714147078E+04  0.10100000352E+00 0. -1.
</event>
<event>
 5   0  0.2078125E-09  0.3997275E+04  0.7818609E-02  0.8005097E-01
        1   -1    0    0  501    0  0.00000000000E+00  0.00000000000E+00  0.16114367175E+04  0.16114367176E+04  0.50400001928E-02 0.  1.
       -1   -1    0    0    0  501  0.00000000000E+00  0.00000000000E+00 -0.24788754806E+04  0.24788754806E+04  0.50400001928E-02 0. -1.
    10030    2    1    2    0    0  0.00000000000E+00  0.00000000000E+00 -0.86743876301E+03  0.40903121981E+04  0.39972745553E+04 0.  0.
        4    1    3    3  502    0 -0.11927448844E+04 -0.10862071613E+04  0.77359930671E+03  0.17891181785E+04  0.12699999809E+01 0.  1.
       -4    1    3    3    0  502  0.11927448844E+04  0.10862071613E+04 -0.16410380697E+04  0.23011940196E+04  0.12699999809E+01 0. -1.
</event>
<event>
 5   0  0.6538370E-09  0.4001292E+04  0.7818609E-02  0.8004286E-01
       -2   -1    0    0    0  501  0.00000000000E+00  0.00000000000E+00  0.14053591990E+04  0.14053591990E+04  0.25500000920E-02 0. -1.
        2   -1    0    0  501    0  0.00000000000E+00  0.00000000000E+00 -0.28480859520E+04  0.28480859520E+04  0.25500000920E-02 0.  1.
    10030    2    1    2    0    0  0.00000000000E+00  0.00000000000E+00 -0.14427267530E+04  0.42534451510E+04  0.40012916875E+04 0.  0.
        4    1    3    3  502    0  0.62772104660E+03 -0.92762137979E+03  0.10408329308E+04  0.15290029232E+04  0.12699999809E+01 0. -1.
       -4    1    3    3    0  502 -0.62772104660E+03  0.92762137979E+03 -0.24835596838E+04  0.27244422277E+04  0.12699999809E+01 0.  1.
</event>
<event>
 5   0  0.6736335E-09  0.4000177E+04  0.7818609E-02  0.8004511E-01
        2   -1    0    0  501    0  0.00000000000E+00  0.00000000000E+00  0.19952633136E+04  0.19952633136E+04  0.25500000920E-02 0.  1.
       -2   -1    0    0    0  501  0.00000000000E+00  0.00000000000E+00 -0.20049248555E+04  0.20049248555E+04  0.25500000920E-02 0. -1.
    10030    2    1    2    0    0  0.00000000000E+00  0.00000000000E+00 -0.96615418656E+01  0.40001881691E+04  0.40001765014E+04 0.  0.
        1    1    3    3  502    0  0.42252492549E+03  0.46645193078E+03 -0.19033220982E+04  0.20046794572E+04  0.50400001928E-02 0. -1.
       -1    1    3    3    0  502 -0.42252492549E+03 -0.46645193078E+03  0.18936605564E+04  0.19955087119E+04  0.50400001928E-02 0.  1.
</event>
<event>
 5   0  0.2078125E-09  0.3999492E+04  0.7818609E-02  0.8004649E-01
       -1   -1    0    0    0  501  0.00000000000E+00  0.00000000000E+00  0.15285807819E+04  0.15285807819E+04  0.50400001928E-02 0. -1.
        1   -1    0    0  501    0  0.00000000000E+00  0.00000000000E+00 -0.26161422982E+04  0.26161422982E+04  0.50400001928E-02 0.  1.
    10030    2    1    2    0    0  0.00000000000E+00  0.00000000000E+00 -0.10875615163E+04  0.41447230802E+04  0.39994923877E+04 0.  0.
        1    1    3    3  502    0 -0.51133700968E+02  0.11354727928E+04  0.11612826178E+04  0.16249585955E+04  0.50400001928E-02 0. -1.
       -1    1    3    3    0  502  0.51133700968E+02 -0.11354727928E+04 -0.22488441341E+04  0.25197644847E+04  0.50400001928E-02 0.  1.
</event>
<event>
 5   0  0.6547327E-09  0.3997458E+04  0.7818609E-02  0.8005059E-01
        2   -1    0    0  501    0  0.00000000000E+00  0.00000000000E+00  0.15523501078E+04  0.15523501078E+04  0.25500000920E-02 0. -1.
       -2   -1    0    0    0  501  0.00000000000E+00  0.00000000000E+00 -0.25734646711E+04  0.25734646711E+04  0.25500000920E-02 0.  1.
    10030    2    1    2    0    0  0.00000000000E+00  0.00000000000E+00 -0.10211145634E+04  0.41258147789E+04  0.39974582722E+04 0.  0.
        5    1    3    3  502    0 -0.76546785942E+03 -0.26719420876E+03 -0.23961178066E+04  0.25295723793E+04  0.46999998093E+01 0.  1.
       -5    1    3    3    0  502  0.76546785942E+03  0.26719420876E+03  0.13750032433E+04  0.15962423995E+04  0.46999998093E+01 0. -1.
</event>
<event>
 5   0  0.6645526E-09  0.4001243E+04  0.7818609E-02  0.8004296E-01
       -2   -1    0    0    0  501  0.00000000000E+00  0.00000000000E+00  0.19612778574E+04  0.19612778574E+04  0.25500000920E-02 0. -1.
        2   -1    0    0  501    0  0.00000000000E+00  0.00000000000E+00 -0.20407548397E+04  0.20407548397E+04  0.25500000920E-02 0.  1.
    10030    2    1    2    0    0  0.00000000000E+00  0.00000000000E+00 -0.79476982325E+02  0.40020326971E+04  0.40012434464E+04 0.  0.
        3    1    3    3  502    0 -0.44954202860E+03  0.19014108272E+04 -0.46998156720E+03  0.20095606119E+04  0.10100000352E+00 0.  1.
       -3    1    3    3    0  502  0.44954202860E+03 -0.19014108272E+04  0.39050458488E+03  0.19924720852E+04  0.10100000352E+00 0. -1.
</event>
<event>
 5   0  0.6538370E-09  0.4001026E+04  0.7818609E-02  0.8004340E-01
        2   -1    0    0  501    0  0.00000000000E+00  0.00000000000E+00  0.19329663665E+04  0.19329663665E+04  0.25500000920E-02 0.  1.
       -2   -1    0    0    0  501  0.00000000000E+00  0.00000000000E+00 -0.20704195977E+04  0.20704195977E+04  0.25500000920E-02 0. -1.
    10030    2    1    2    0    0  0.00000000000E+00  0.00000000000E+00 -0.13745323119E+03  0.40033859642E+04  0.40010255920E+04 0.  0.
        4    1    3    3  502    0  0.11212253245E+04  0.16284846851E+04  0.23631588689E+03  0.19912195783E+04  0.12699999809E+01 0.  1.
       -4    1    3    3    0  502 -0.11212253245E+04 -0.16284846851E+04 -0.37376911808E+03  0.20121663859E+04  0.12699999809E+01 0. -1.
</event>
<event>
 5   0  0.6599276E-09  0.3999136E+04  0.7818609E-02  0.8004721E-01
       -2   -1    0    0    0  501  0.00000000000E+00  0.00000000000E+00  0.18247216427E+04  0.18247216427E+04  0.25500000920E-02 0.  1.
        2   -1    0    0  501    0  0.00000000000E+00  0.00000000000E+00 -0.21911686523E+04  0.21911686524E+04  0.25500000920E-02 0. -1.
    10030    2    1    2    0    0  0.00000000000E+00  0.00000000000E+00 -0.36644700961E+03  0.40158902951E+04  0.39991363382E+04 0.  0.
        2    1    3    3  502    0 -0.15907839968E+04 -0.11168141297E+04 -0.65466378301E+03  0.20509637231E+04  0.25500000920E-02 0. -1.
       -2    1    3    3    0  502  0.15907839968E+04  0.11168141297E+04  0.28821677340E+03  0.19649265720E+04  0.25500000920E-02 0.  1.
</event>
<event>
 5   0  0.6599276E-09  0.4001621E+04  0.7818609E-02  0.8004220E-01
       -2   -1    0    0    0  501  0.00000000000E+00  0.00000000000E+00  0.19207595169E+04  0.19207595169E+04  0.25500000920E-02 0. -1.
        2   -1    0    0  501    0  0.00000000000E+00  0.00000000000E+00 -0.20841973988E+04  0.20841973988E+04  0.25500000920E-02 0.  1.
    10030    2    1    2    0    0  0.00000000000E+00  0.00000000000E+00 -0.16343788193E+03  0.40049569157E+04  0.40016206661E+04 0.  0.
        2    1    3    3  502    0 -0.45061411519E+03 -0.19450053367E+04  0.49322065728E+02  0.19971308187E+04  0.25500000920E-02 0.  1.
       -2    1    3    3    0  502  0.45061411519E+03  0.19450053367E+04 -0.21275994766E+03  0.20078260971E+04  0.25500000920E-02 0. -1.
</event>
<event>
 5   0  0.6599276E-09  0.3999954E+04  0.7818609E-02  0.8004556E-01
       -2   -1    0    0    0  501  0.00000000000E+00  0.00000000000E+00  0.17976311884E+04  0.17976311884E+04  0.25500000920E-02 0. -1.
        2   -1    0    0  501    0  0.00000000000E+00  0.00000000000E+00 -0.22250996728E+04  0.22250996728E+04  0.25500000920E-02 0.  1.
    10030    2    1    2    0    0  0.00000000000E+00  0.00000000000E+00 -0.42746848444E+03  0.40227308613E+04  0.39999542844E+04 0.  0.
        2    1    3    3  502    0  0.12534420938E+04  0.10978493797E+04 -0.13261603455E+04  0.21295754518E+04  0.25500000920E-02 0.  1.
       -2    1    3    3    0  502 -0.12534420938E+04 -0.10978493797E+04  0.89869186104E+03  0.18931554094E+04  0.25500000920E-02 0. -1.
</event>
<event>
 5   0  0.6645526E-09  0.3999884E+04  0.7818609E-02  0.8004570E-01
       -2   -1    0    0    0  501  0.00000000000E+00  0.00000000000E+00  0.12269571522E+04  0.12269571522E+04  0.25500000920E-02 0.  1.
        2   -1    0    0  501    0  0.00000000000E+00  0.00000000000E+00 -0.32599082560E+04  0.32599082560E+04  0.25500000920E-02 0. -1.
    10030    2    1    2    0    0  0.00000000000E+00  0.00000000000E+00 -0.20329511038E+04  0.44868654083E+04  0.39998838735E+04 0.  0.
        3    1    3    3  502    0  0.11604597547E+04 -0.65851128383E+03  0.65469083211E+03  0.14862449492E+04  0.10100000352E+00 0.  1.
       -3    1    3    3    0  502 -0.11604597547E+04  0.65851128383E+03 -0.26876419359E+04  0.30006204590E+04  0.10100000352E+00 0. -1.
</event>
<event>
 5   0  0.6538370E-09  0.3998305E+04  0.7818609E-02  0.8004889E-01
       -2   -1    0    0    0  501  0.00000000000E+00  0.00000000000E+00  0.27919734347E+04  0.27919734347E+04  0.25500000920E-02 0.  1.
        2   -1    0    0  501    0  0.00000000000E+00  0.00000000000E+00 -0.14314646082E+04  0.14314646082E+04  0.25500000920E-02 0. -1.
    10030    2    1    2    0    0  0.00000000000E+00  0.00000000000E+00  0.13605088265E+04  0.42234380429E+04  0.39983052204E+04 0.  0.
        4    1    3    3  502    0  0.18054644617E+04  0.32374872149E+03 -0.15955579831E+03  0.18411884268E+04  0.12699999809E+01 0. -1.
       -4    1    3    3    0  502 -0.18054644617E+04 -0.32374872149E+03  0.15200646248E+04  0.23822496162E+04  0.12699999809E+01 0.  1.
</event>
<event>
 5   0  0.6736335E-09  0.4001509E+04  0.7818609E-02  0.8004242E-01
        2   -1    0    0  501    0  0.00000000000E+00  0.00000000000E+00  0.19804097258E+04  0.19804097258E+04  0.25500000920E-02 0.  1.
       -2   -1    0    0    0  501  0.00000000000E+00  0.00000000000E+00 -0.20213082668E+04  0.20213082668E+04  0.25500000920E-02 0. -1.
    10030    2    1    2    0    0  0.00000000000E+00  0.00000000000E+00 -0.40898541001E+02  0.40017179925E+04  0.40015089905E+04 0.  0.
        1    1    3    3  502    0  0.15527287650E+04 -0.10834333953E+04  0.62628691977E+03  0.19942491935E+04  0.50400001928E-02 0.  1.
       -1    1    3    3    0  502 -0.15527287650E+04  0.10834333953E+04 -0.66718546078E+03  0.20074687990E+04  0.50400001928E-02 0. -1.
</event>
<event>
 5   0  0.2078125E-09  0.4000396E+04  0.7818609E-02  0.8004467E-01
       -1   -1    0    0    0  501  0.00000000000E+00  0.00000000000E+00  0.28134206048E+04  0.28134206048E+04  0.50400001928E-02 0. -1.
        1   -1    0    0  501    0  0.00000000000E+00  0.00000000000E+00 -0.14220383869E+04  0.14220383869E+04  0.50400001928E-02 0.  1.
    10030    2    1    2    0    0  0.00000000000E+00  0.00000000000E+00  0.13913822179E+04  0.42354589916E+04  0.40003960296E+04 0.  0.
        1    1    3    3  502    0  0.14544585497E+04  0.13098151302E+04  0.11318780322E+04  0.22610203953E+04  0.50400001928E-02 0. -1.
       -1    1    3    3    0  502 -0.14544585497E+04 -0.13098151302E+04  0.25950418564E+03  0.19744385963E+04  0.50400001928E-02 0.  1.
</event>
<event>
 5   0  0.2078125E-09  0.3999906E+04  0.7818609E-02  0.8004566E-01
       -1   -1    0    0    0  501  0.00000000000E+00  0.00000000000E+00  0.20855264597E+04  0.20855264597E+04  0.50400001928E-02 0. -1.
        1   -1    0    0  501    0  0.00000000000E+00  0.00000000000E+00 -0.19178903912E+04  0.19178903912E+04  0.50400001928E-02 0.  1.
    10030    2    1    2    0    0  0.00000000000E+00  0.00000000000E+00  0.16763606849E+03  0.40034168508E+04  0.39999055776E+04 0.  0.
        3    1    3    3  502    0 -0.13605375551E+04 -0.18142944878E+03  0.15396849286E+04  0.20626703016E+04  0.10100000352E+00 0. -1.
       -3    1    3    3    0  502  0.13605375551E+04  0.18142944878E+03 -0.13720488601E+04  0.19407465492E+04  0.10100000352E+00 0.  1.
</event>
<event>
 5   0  0.2078125E-09  0.3999452E+04  0.7818609E-02  0.8004657E-01
        1   -1    0    0  501    0  0.00000000000E+00  0.00000000000E+00  0.13507552957E+04  0.13507552957E+04  0.50400001928E-02 0. -1.
       -1   -1    0    0    0  501  0.00000000000E+00  0.00000000000E+00 -0.29604951358E+04  0.29604951358E+04  0.50400001928E-02 0.  1.
    10030    2    1    2    0    0  0.00000000000E+00  0.00000000000E+00 -0.16097398401E+04  0.43112504315E+04  0.39994522038E+04 0.  0.
        1    1    3    3  502    0 -0.13539957298E+04  0.13773655819E+04 -0.24634076354E+03  0.19470809316E+04  0.50400001928E-02 0. -1.
       -1    1    3    3    0  502  0.13539957298E+04 -0.13773655819E+04 -0.13633990765E+04  0.23641694999E+04  0.50400001928E-02 0.  1.
</event>
<event>
 5   0  0.6538370E-09  0.4000612E+04  0.7818609E-02  0.8004423E-01
        2   -1    0    0  501    0  0.00000000000E+00  0.00000000000E+00  0.11649358525E+04  0.11649358526E+04  0.25500000920E-02 0.  1.
       -2   -1    0    0    0  501  0.00000000000E+00  0.00000000000E+00 -0.34347168614E+04  0.34347168614E+04  0.25500000920E-02 0. -1.
    10030    2    1    2    0    0  0.00000000000E+00  0.00000000000E+00 -0.22697810089E+04  0.45996527140E+04  0.40006123607E+04 0.  0.
        4    1    3    3  502    0  0.59778488176E+03  0.18969155863E+03  0.10489726835E+04  0.12221599551E+04  0.12699999809E+01 0.  1.
       -4    1    3    3    0  502 -0.59778488176E+03 -0.18969155863E+03 -0.33187536924E+04  0.33774927588E+04  0.12699999809E+01 0. -1.
</event>
<event>
 5   0  0.6599276E-09  0.4000903E+04  0.7818609E-02  0.8004364E-01
        2   -1    0    0  501    0  0.00000000000E+00  0.00000000000E+00  0.27821314081E+04  0.27821314081E+04  0.25500000920E-02 0.  1.
       -2   -1    0    0    0  501  0.00000000000E+00  0.00000000000E+00 -0.14383961034E+04  0.14383961035E+04  0.25500000920E-02 0. -1.
    10030    2    1    2    0    0  0.00000000000E+00  0.00000000000E+00  0.13437353046E+04  0.42205275115E+04  0.40009033863E+04 0.  0.
        2    1    3    3  502    0  0.19013778908E+04  0.50177518378E+03  0.10591598334E+04  0.22335701850E+04  0.25500000920E-02 0. -1.
       -2    1    3    3    0  502 -0.19013778908E+04 -0.50177518378E+03  0.28457547125E+03  0.19869573265E+04  0.25500000920E-02 0.  1.
</event>
<event>
 5   0  0.6599276E-09  0.4000937E+04  0.7818609E-02  0.8004358E-01
        2   -1    0    0  501    0  0.00000000000E+00  0.00000000000E+00  0.16722903255E+04  0.16722903255E+04  0.25500000920E-02 0.  1.
       -2   -1    0    0    0  501  0.00000000000E+00  0.00000000000E+00 -0.23930493530E+04  0.23930493530E+04  0.25500000920E-02 0. -1.
    10030    2    1    2    0    0  0.00000000000E+00  0.00000000000E+00 -0.72075902756E+03  0.40653396785E+04  0.40009365310E+04 0.  0.
        2    1    3    3  502    0  0.12843203757E+04  0.21456370811E+03 -0.19034950035E+04  0.23062544614E+04  0.25500000920E-02 0. -1.
       -2    1    3    3    0  502 -0.12843203757E+04 -0.21456370811E+03  0.11827359759E+04  0.17590852171E+04  0.25500000920E-02 0.  1.
</event>
<event>
 5   0  0.6736335E-09  0.4000307E+04  0.7818609E-02  0.8004485E-01
       -2   -1    0    0    0  501  0.00000000000E+00  0.00000000000E+00  0.21116380062E+04  0.21116380062E+04  0.25500000920E-02 0. -1.
        2   -1    0    0  501    0  0.00000000000E+00  0.00000000000E+00 -0.18945550839E+04  0.18945550839E+04  0.25500000920E-02 0.  1.
    10030    2    1    2    0    0  0.00000000000E+00  0.00000000000E+00  0.21708292233E+03  0.40061930901E+04  0.40003072482E+04 0.  0.
        1    1    3    3  502    0  0.92671750573E+03  0.16610942524E+04 -0.51089513692E+03  0.19695312366E+04  0.50400001928E-02 0.  1.
       -1    1    3    3    0  502 -0.92671750573E+03 -0.16610942524E+04  0.72797805925E+03  0.20366618535E+04  0.50400001928E-02 0. -1.
</event>
<event>
 5   0  0.6547327E-09  0.4007976E+04  0.7818609E-02  0.8002939E-01
       -2   -1    0    0    0  501  0.00000000000E+00  0.00000000000E+00  0.15556440331E+04  0.15556440331E+04  0.25500000920E-02 0.  1.
        2   -1    0    0  501    0  0.00000000000E+00  0.00000000000E+00 -0.25815474383E+04  0.25815474383E+04  0.25500000920E-02 0. -1.
    10030    2    1    2    0    0  0.00000000000E+00  0.00000000000E+00 -0.10259034052E+04  0.41371914714E+04  0.40079764812E+04 0.  0.
        5    1    3    3  502    0  0.16830728981E+04  0.81772354229E+03 -0.12533924038E+04  0.22522035387E+04  0.46999998093E+01 0. -1.
       -5    1    3    3    0  502 -0.16830728981E+04 -0.81772354229E+03  0.22748899857E+03  0.18849879327E+04  0.46999998093E+01 0.  1.
</event>
<event>
 5   0  0.2078125E-09  0.4001551E+04  0.7818609E-02  0.8004234E-01
       -1   -1    0    0    0  501  0.00000000000E+00  0.00000000000E+00  0.26013530833E+04  0.26013530833E+04  0.50400001928E-02 0. -1.
        1   -1    0    0  501    0  0.00000000000E+00  0.00000000000E+00 -0.15388539353E+04  0.15388539353E+04  0.50400001928E-02 0.  1.
    10030    2    1    2    0    0  0.00000000000E+00  0.00000000000E+00  0.10624991480E+04  0.41402070186E+04  0.40015509140E+04 0.  0.
        2    1    3    3  502    0 -0.10548115834E+04  0.79659587853E+03 -0.10227632236E+04  0.16712980230E+04  0.25500000920E-02 0.  1.
       -2    1    3    3    0  502  0.10548115834E+04 -0.79659587853E+03  0.20852623716E+04  0.24689089956E+04  0.25500000920E-02 0. -1.
</event>
<event>
 5   0  0.2078125E-09  0.4000814E+04  0.7818609E-02  0.8004382E-01
        1   -1    0    0  501    0  0.00000000000E+00  0.00000000000E+00  0.19286126513E+04  0.19286126513E+04  0.50400001928E-02 0.  1.
       -1   -1    0    0    0  501  0.00000000000E+00  0.00000000000E+00 -0.20748743109E+04  0.20748743109E+04  0.50400001928E-02 0. -1.
    10030    2    1    2    0    0  0.00000000000E+00  0.00000000000E+00 -0.14626165957E+03  0.40034869622E+04  0.40008143400E+04 0.  0.
        3    1    3    3  502    0  0.10006103345E+04 -0.15461427628E+04 -0.85458166457E+03  0.20302926676E+04  0.10100000352E+00 0. -1.
       -3    1    3    3    0  502 -0.10006103345E+04  0.15461427628E+04  0.70832000500E+03  0.19731942946E+04  0.10100000352E+00 0.  1.
</event>
<event>
 5   0  0.2078125E-09  0.3998617E+04  0.7818609E-02  0.8004826E-01
        1   -1    0    0  501    0  0.00000000000E+00  0.00000000000E+00  0.19999641797E+04  0.19999641797E+04  0.50400001928E-02 0. -1.
       -1   -1    0    0    0  501  0.00000000000E+00  0.00000000000E+00 -0.19986527147E+04  0.19986527147E+04  0.50400001928E-02 0.  1.
    10030    2    1    2    0    0  0.00000000000E+00  0.00000000000E+00  0.13114650463E+01  0.39986168944E+04  0.39986166794E+04 0.  0.
        1    1    3    3  502    0 -0.18077271158E+04  0.75888074672E+03 -0.39107956176E+03  0.19991799660E+04  0.50400001928E-02 0.  1.
       -1    1    3    3    0  502  0.18077271158E+04 -0.75888074672E+03  0.39239102681E+03  0.19994369284E+04  0.50400001928E-02 0. -1.
</event>
<event>
 5   0  0.2078125E-09  0.4005036E+04  0.7818609E-02  0.8003531E-01
       -1   -1    0    0    0  501  0.00000000000E+00  0.00000000000E+00  0.22390281258E+04  0.22390281258E+04  0.50400001928E-02 0.  1.
        1   -1    0    0  501    0  0.00000000000E+00  0.00000000000E+00 -0.17909907210E+04  0.17909907211E+04  0.50400001928E-02 0. -1.
    10030    2    1    2    0    0  0.00000000000E+00  0.00000000000E+00  0.44803740476E+03  0.40300188469E+04  0.40050361284E+04 0.  0.
        2    1    3    3  502    0  0.15225799423E+04  0.65188678838E+02 -0.10831533100E+04  0.18696845557E+04  0.25500000920E-02 0. -1.
       -2    1    3    3    0  502 -0.15225799423E+04 -0.65188678838E+02  0.15311907148E+04  0.21603342912E+04  0.25500000920E-02 0.  1.
</event>
<event>
 5   0  0.6645526E-09  0.4000762E+04  0.7818609E-02  0.8004393E-01
       -2   -1    0    0    0  501  0.00000000000E+00  0.00000000000E+00  0.28473283046E+04  0.28473283046E+04  0.25500000920E-02 0. -1.
        2   -1    0    0  501    0  0.00000000000E+00  0.00000000000E+00 -0.14053607143E+04  0.14053607143E+04  0.25500000920E-02 0.  1.
    10030    2    1    2    0    0  0.00000000000E+00  0.00000000000E+00  0.14419675903E+04  0.42526890189E+04  0.40007615975E+04 0.  0.
        3    1    3    3  502    0 -0.13456735515E+04 -0.10085314512E+04  0.18725046657E+04  0.25167929451E+04  0.10100000352E+00 0. -1.
       -3    1    3    3    0  502  0.13456735515E+04  0.10085314512E+04 -0.43053707546E+03  0.17358960737E+04  0.10100000352E+00 0.  1.
</event>
<event>
 5   0  0.2078125E-09  0.4001366E+04  0.7818609E-02  0.8004271E-01
        1   -1    0    0  501    0  0.00000000000E+00  0.00000000000E+00  0.24072407742E+04  0.24072407742E+04  0.50400001928E-02 0. -1.
       -1   -1    0    0    0  501  0.00000000000E+00  0.00000000000E+00 -0.16627883224E+04  0.16627883224E+04  0.50400001928E-02 0.  1.
    10030    2    1    2    0    0  0.00000000000E+00  0.00000000000E+00  0.74445245178E+03  0.40700290966E+04  0.40013656912E+04 0.  0.
        2    1    3    3  502    0  0.25432496820E+03  0.18290110537E+04 -0.41090058736E+03  0.18917721630E+04  0.25500000920E-02 0.  1.
       -2    1    3    3    0  502 -0.25432496820E+03 -0.18290110537E+04  0.11553530391E+04  0.21782569337E+04  0.25500000920E-02 0. -1.
</event>
<event>
 5   0  0.6547327E-09  0.4001095E+04  0.7818609E-02  0.8004326E-01
       -2   -1    0    0    0  501  0.00000000000E+00  0.00000000000E+00  0.20012275292E+04  0.20012275292E+04  0.25500000920E-02 0. -1.
        2   -1    0    0  501    0  0.00000000000E+00  0.00000000000E+00 -0.19998680970E+04  0.19998680970E+04  0.25500000920E-02 0.  1.
    10030    2    1    2    0    0  0.00000000000E+00  0.00000000000E+00  0.13594322456E+01  0.40010956262E+04  0.40010953953E+04 0.  0.
        5    1    3    3  502    0 -0.12642284029E+03 -0.16335447373E+04 -0.11472392746E+04  0.20001577904E+04  0.46999998093E+01 0.  1.
       -5    1    3    3    0  502  0.12642284029E+03  0.16335447373E+04  0.11485987069E+04  0.20009378358E+04  0.46999998093E+01 0. -1.
</event>
<event>
 5   0  0.6538370E-09  0.4004967E+04  0.7818609E-02  0.8003545E-01
        2   -1    0    0  501    0  0.00000000000E+00  0.00000000000E+00  0.27954618849E+04  0.27954618849E+04  0.25500000920E-02 0. -1.
       -2   -1    0    0    0  501  0.00000000000E+00  0.00000000000E+00 -0.14344461604E+04  0.14344461604E+04  0.25500000920E-02 0.  1.
    10030    2    1    2    0    0  0.00000000000E+00  0.00000000000E+00  0.13610157245E+04  0.42299080453E+04  0.40049667002E+04 0.  0.
        4    1    3    3  502    0 -0.10565833627E+04  0.51720222933E+03  0.23920408825E+04  0.26656570943E+04  0.12699999809E+01 0. -1.
       -4    1    3    3    0  502  0.10565833627E+04 -0.51720222933E+03 -0.10310251580E+04  0.15642509510E+04  0.12699999809E+01 0.  1.
</event>
<event>
 5   0  0.2078125E-09  0.3999086E+04  0.7818609E-02  0.8004731E-01
       -1   -1    0    0    0  501  0.00000000000E+00  0.00000000000E+00  0.32667152622E+04  0.32667152622E+04  0.50400001928E-02 0. -1.
        1   -1    0    0  501    0  0.00000000000E+00  0.00000000000E+00 -0.12239123172E+04  0.12239123172E+04  0.50400001928E-02 0.  1.
    10030    2    1    2    0    0  0.00000000000E+00  0.00000000000E+00  0.20428029450E+04  0.44906275794E+04  0.39990864188E+04 0.  0.
        5    1    3    3  502    0 -0.78679810672E+03  0.14758182628E+04  0.22520346776E+04  0.28051333452E+04  0.46999998093E+01 0. -1.
       -5    1    3    3    0  502  0.78679810672E+03 -0.14758182628E+04 -0.20923173254E+03  0.16854942342E+04  0.46999998093E+01 0.  1.
</event>
<event>
 5   0  0.2078125E-09  0.4002239E+04  0.7818609E-02  0.8004095E-01
       -1   -1    0    0    0  501  0.00000000000E+00  0.00000000000E+00  0.18583126737E+04  0.18583126737E+04  0.50400001928E-02 0.  1.
        1   -1    0    0  501    0  0.00000000000E+00  0.00000000000E+00 -0.21549011769E+04  0.21549011769E+04  0.50400001928E-02 0. -1.
    10030    2    1    2    0    0  0.00000000000E+00  0.00000000000E+00 -0.29658850324E+03  0.40132138506E+04  0.40022394569E+04 0.  0.
        3    1    3    3  502    0 -0.11594669454E+04  0.92519339274E+03 -0.14951577966E+04  0.21061441684E+04  0.10100000352E+00 0. -1.
       -3    1    3    3    0  502  0.11594669454E+04 -0.92519339274E+03  0.11985692934E+04  0.19070696821E+04  0.10100000352E+00 0.  1.
</event>
<event>
 5   0  0.2078125E-09  0.4000263E+04  0.7818609E-02  0.8004494E-01
       -1   -1    0    0    0  501  0.00000000000E+00  0.00000000000E+00  0.27656424618E+04  0.27656424618E+04  0.50400001928E-02 0. -1.
        1   -1    0    0  501    0  0.00000000000E+00  0.00000000000E+00 -0.14465085886E+04  0.14465085886E+04  0.50400001928E-02 0.  1.
    10030    2    1    2    0    0  0.00000000000E+00  0.00000000000E+00  0.13191338732E+04  0.42121510505E+04  0.40002627784E+04 0.  0.
        1    1    3    3  502    0 -0.13645854161E+04 -0.12280762094E+03 -0.87478950353E+03  0.16255558265E+04  0.50400001928E-02 0.  1.
       -1    1    3    3    0  502  0.13645854161E+04  0.12280762094E+03  0.21939233767E+04  0.25865952240E+04  0.50400001928E-02 0. -1.
</event>
<event>
 5   0  0.2078125E-09  0.4010566E+04  0.7818609E-02  0.8002418E-01
       -3   -1    0    0    0  501  0.00000000000E+00  0.00000000000E+00  0.15836446214E+04  0.15836446247E+04  0.10100000352E+00 0. -1.
        3   -1    0    0  501    0  0.00000000000E+00  0.00000000000E+00 -0.25391810076E+04  0.25391810096E+04  0.10100000352E+00 0.  1.
    10030    2    1    2    0    0  0.00000000000E+00  0.00000000000E+00 -0.95553638613E+03  0.41228256342E+04  0.40105662225E+04 0.  0.
        4    1    3    3  502    0 -0.10048006581E+03  0.14109771419E+04  0.98335590881E+03  0.17227719509E+04  0.12699999809E+01 0. -1.
       -4    1    3    3    0  502  0.10048006581E+03 -0.14109771419E+04 -0.19388922949E+04  0.24000536833E+04  0.12699999809E+01 0.  1.
</event>
<event>
 5   0  0.6599276E-09  0.3999738E+04  0.7818609E-02  0.8004599E-01
        2   -1    0    0  501    0  0.00000000000E+00  0.00000000000E+00  0.18558641050E+04  0.18558641050E+04  0.25500000920E-02 0. -1.
       -2   -1    0    0    0  501  0.00000000000E+00  0.00000000000E+00 -0.21550483006E+04  0.21550483006E+04  0.25500000920E-02 0.  1.
    10030    2    1    2    0    0  0.00000000000E+00  0.00000000000E+00 -0.29918419567E+03  0.40109124056E+04  0.39997383843E+04 0.  0.
        2    1    3    3  502    0 -0.52370437496E+03 -0.16241951638E+04  0.89600996174E+03  0.19274620759E+04  0.25500000920E-02 0. -1.
       -2    1    3    3    0  502  0.52370437496E+03  0.16241951638E+04 -0.11951941574E+04  0.20834503297E+04  0.25500000920E-02 0.  1.
</event>
<event>
 5   0  0.2078125E-09  0.4000301E+04  0.7818609E-02  0.8004486E-01
       -1   -1    0    0    0  501  0.00000000000E+00  0.00000000000E+00  0.16001108787E+04  0.16001108787E+04  0.50400001928E-02 0.  1.
        1   -1    0    0  501    0  0.00000000000E+00  0.00000000000E+00 -0.25002033559E+04  0.25002033559E+04  0.50400001928E-02 0. -1.
    10030    2    1    2    0    0  0.00000000000E+00  0.00000000000E+00 -0.90009247719E+03  0.41003142346E+04  0.40003012830E+04 0.  0.
        2    1    3    3  502    0 -0.65014047319E+03 -0.12862001929E+04 -0.18716640024E+04  0.23622277005E+04  0.25500000920E-02 0. -1.
       -2    1    3    3    0  502  0.65014047319E+03  0.12862001929E+04  0.97157152524E+03  0.17380865340E+04  0.25500000920E-02 0.  1.
</event>
<event>
 5   0  0.6547327E-09  0.4001560E+04  0.7818609E-02  0.8004232E-01
        2   -1    0    0  501    0  0.00000000000E+00  0.00000000000E+00  0.16827111038E+04  0.16827111038E+04  0.25500000920E-02 0. -1.
       -2   -1    0    0    0  501  0.00000000000E+00  0.00000000000E+00 -0.23789711184E+04  0.23789711184E+04  0.25500000920E-02 0.  1.
    10030    2    1    2    0    0  0.00000000000E+00  0.00000000000E+00 -0.69626001465E+03  0.40616822222E+04  0.40015602540E+04 0.  0.
        5    1    3    3  502    0  0.23814755552E+03  0.18281646162E+04  0.44085099858E+03  0.18955927345E+04  0.46999998093E+01 0. -1.
       -5    1    3    3    0  502 -0.23814755552E+03 -0.18281646162E+04 -0.11371110132E+04  0.21660894877E+04  0.46999998093E+01 0.  1.
</event>
<event>
 5   0  0.2078125E-09  0.3998822E+04  0.7818609E-02  0.8004784E-01
        1   -1    0    0  501    0  0.00000000000E+00  0.00000000000E+00  0.19326220065E+04  0.19326220065E+04  0.50400001928E-02 0. -1.
       -1   -1    0    0    0  501  0.00000000000E+00  0.00000000000E+00 -0.20685076667E+04  0.20685076667E+04  0.50400001928E-02 0.  1.
    10030    2    1    2    0    0  0.00000000000E+00  0.00000000000E+00 -0.13588566023E+03  0.40011296732E+04  0.39988215451E+04 0.  0.
        3    1    3    3  502    0  0.45626153214E+03  0.15330584415E+04 -0.12683021743E+04  0.20413312289E+04  0.10100000352E+00 0.  1.
       -3    1    3    3    0  502 -0.45626153214E+03 -0.15330584415E+04  0.11324165141E+04  0.19597984443E+04  0.10100000352E+00 0. -1.
</event>
<event>
 5   0  0.6645526E-09  0.4002339E+04  0.7818609E-02  0.8004075E-01
        2   -1    0    0  501    0  0.00000000000E+00  0.00000000000E+00  0.19606212736E+04  0.19606212736E+04  0.25500000920E-02 0.  1.
       -2   -1    0    0    0  501  0.00000000000E+00  0.00000000000E+00 -0.20425560734E+04  0.20425560734E+04  0.25500000920E-02 0. -1.
    10030    2    1    2    0    0  0.00000000000E+00  0.00000000000E+00 -0.81934799874E+02  0.40031773470E+04  0.40023387613E+04 0.  0.
        3    1    3    3  502    0  0.40987259281E+02  0.11580055525E+04  0.15909448821E+04  0.19681876036E+04  0.10100000352E+00 0.  1.
       -3    1    3    3    0  502 -0.40987259281E+02 -0.11580055525E+04 -0.16728796819E+04  0.20349897434E+04  0.10100000352E+00 0. -1.
</event>
<event>
 5   0  0.6547327E-09  0.4005515E+04  0.7818609E-02  0.8003435E-01
       -2   -1    0    0    0  501  0.00000000000E+00  0.00000000000E+00  0.23528939789E+04  0.23528939789E+04  0.25500000920E-02 0. -1.
        2   -1    0    0  501    0  0.00000000000E+00  0.00000000000E+00 -0.17047248146E+04  0.17047248146E+04  0.25500000920E-02 0.  1.
    10030    2    1    2    0    0  0.00000000000E+00  0.00000000000E+00  0.64816916432E+03  0.40576187934E+04  0.40055145746E+04 0.  0.
        5    1    3    3  502    0 -0.61857613001E+03  0.17645909371E+04  0.10507702194E+04  0.21448910806E+04  0.46999998093E+01 0. -1.
       -5    1    3    3    0  502  0.61857613001E+03 -0.17645909371E+04 -0.40260105505E+03  0.19127277128E+04  0.46999998093E+01 0.  1.
</event>
<event>
 5   0  0.6547327E-09  0.4000000E+04  0.7818609E-02  0.8004546E-01
       -2   -1    0    0    0  501  0.00000000000E+00  0.00000000000E+00  0.11832676720E+04  0.11832676720E+04  0.25500000920E-02 0. -1.
        2   -1    0    0  501    0  0.00000000000E+00  0.00000000000E+00 -0.33804697557E+04  0.33804697557E+04  0.25500000920E-02 0.  1.
    10030    2    1    2    0    0  0.00000000000E+00  0.00000000000E+00 -0.21972020837E+04  0.45637374277E+04  0.40000002891E+04 0.  0.
        5    1    3    3  502    0  0.83884904573E+03  0.16018619598E+04 -0.20736487251E+04  0.27513034338E+04  0.46999998093E+01 0.  1.
       -5    1    3    3    0  502 -0.83884904573E+03 -0.16018619598E+04 -0.12355335860E+03  0.18124339939E+04  0.46999998093E+01 0. -1.
</event>
<event>
 5   0  0.6645526E-09  0.3998295E+04  0.7818609E-02  0.8004890E-01
       -2   -1    0    0    0  501  0.00000000000E+00  0.00000000000E+00  0.27855709395E+04  0.27855709395E+04  0.25500000920E-02 0. -1.
        2   -1    0    0  501    0  0.00000000000E+00  0.00000000000E+00 -0.14347477638E+04  0.14347477638E+04  0.25500000920E-02 0.  1.
    10030    2    1    2    0    0  0.00000000000E+00  0.00000000000E+00  0.13508231757E+04  0.42203187033E+04  0.39982954750E+04 0.  0.
        3    1    3    3  502    0 -0.13069843828E+04 -0.69126916448E+03  0.20956893185E+04  0.25647563168E+04  0.10100000352E+00 0. -1.
       -3    1    3    3    0  502  0.13069843828E+04  0.69126916448E+03 -0.74486614283E+03  0.16555623865E+04  0.10100000352E+00 0.  1.
</event>
<event>
 5   0  0.2078125E-09  0.4022223E+04  0.7818609E-02  0.8000078E-01
       -1   -1    0    0    0  501  0.00000000000E+00  0.00000000000E+00  0.26143592360E+04  0.26143592360E+04  0.50400001928E-02 0. -1.
        1   -1    0    0  501    0  0.00000000000E+00  0.00000000000E+00 -0.15470599153E+04  0.15470599154E+04  0.50400001928E-02 0.  1.
    10030    2    1    2    0    0  0.00000000000E+00  0.00000000000E+00  0.10672993207E+04  0.41614191514E+04  0.40222234539E+04 0.  0.
        1    1    3    3  502    0  0.19318624339E+04  0.38934465523E+03  0.94863999032E+03  0.21871441551E+04  0.50400001928E-02 0. -1.
       -1    1    3    3    0  502 -0.19318624339E+04 -0.38934465523E+03  0.11865933033E+03  0.19742749962E+04  0.50400001928E-02 0.  1.
</event>
<event>
 5   0  0.2078125E-09  0.4002478E+04  0.7818609E-02  0.8004047E-01
        1   -1    0    0  501    0  0.00000000000E+00  0.00000000000E+00  0.23583251022E+04  0.23583251022E+04  0.50400001928E-02 0. -1.
       -1   -1    0    0    0  501  0.00000000000E+00  0.00000000000E+00 -0.16982210938E+04  0.16982210938E+04  0.50400001928E-02 0.  1.
    10030    2    1    2    0    0  0.00000000000E+00  0.00000000000E+00  0.66010400846E+03  0.40565461960E+04  0.40024779498E+04 0.  0.
        4    1    3    3  502    0  0.16441512809E+04  0.63780749872E+03  0.12888355035E+04  0.21842917406E+04  0.12699999809E+01 0. -1.
       -4    1    3    3    0  502 -0.16441512809E+04 -0.63780749872E+03 -0.62873149507E+03  0.18722544554E+04  0.12699999809E+01 0.  1.
</event>
<event>
 5   0  0.2078125E-09  0.4002139E+04  0.7818609E-02  0.8004115E-01
        3   -1    0    0  501    0  0.00000000000E+00  0.00000000000E+00  0.24227451429E+04  0.24227451450E+04  0.10100000352E+00 0. -1.
       -3   -1    0    0    0  501  0.00000000000E+00  0.00000000000E+00 -0.16527862878E+04  0.16527862909E+04  0.10100000352E+00 0.  1.
    10030    2    1    2    0    0  0.00000000000E+00  0.00000000000E+00  0.76995885514E+03  0.40755314359E+04  0.40021394087E+04 0.  0.
        4    1    3    3  502    0 -0.38444329503E+03  0.12481940746E+04  0.19288598195E+04  0.23294391838E+04  0.12699999809E+01 0. -1.
       -4    1    3    3    0  502  0.38444329503E+03 -0.12481940746E+04 -0.11589009644E+04  0.17460922521E+04  0.12699999809E+01 0.  1.
</event>
<event>
 5   0  0.6599276E-09  0.4002492E+04  0.7818609E-02  0.8004044E-01
       -2   -1    0    0    0  501  0.00000000000E+00  0.00000000000E+00  0.15460845450E+04  0.15460845450E+04  0.25500000920E-02 0. -1.
        2   -1    0    0  501    0  0.00000000000E+00  0.00000000000E+00 -0.25904046811E+04  0.25904046811E+04  0.25500000920E-02 0.  1.
    10030    2    1    2    0    0  0.00000000000E+00  0.00000000000E+00 -0.10443201362E+04  0.41364892261E+04  0.40024915454E+04 0.  0.
        2    1    3    3  502    0 -0.15492093110E+04  0.58214201570E+03 -0.16850167355E+04  0.23618256106E+04  0.25500000920E-02 0.  1.
       -2    1    3    3    0  502  0.15492093110E+04 -0.58214201570E+03  0.64069659935E+03  0.17746636155E+04  0.25500000920E-02 0. -1.
</event>
<event>
 5   0  0.2078125E-09  0.4000190E+04  0.7818609E-02  0.8004508E-01
       -1   -1    0    0    0  501  0.00000000000E+00  0.00000000000E+00  0.17971710453E+04  0.17971710453E+04  0.50400001928E-02 0. -1.
        1   -1    0    0  501    0  0.00000000000E+00  0.00000000000E+00 -0.22259314747E+04  0.22259314747E+04  0.50400001928E-02 0.  1.
    10030    2    1    2    0    0  0.00000000000E+00  0.00000000000E+00 -0.42876042941E+03  0.40231025199E+04  0.40001897930E+04 0.  0.
        3    1    3    3  502    0 -0.56361748959E+03  0.18834153982E+04  0.15577868780E+03  0.19721017333E+04  0.10100000352E+00 0.  1.
       -3    1    3    3    0  502  0.56361748959E+03 -0.18834153982E+04 -0.58453911720E+03  0.20510007866E+04  0.10100000352E+00 0. -1.
</event>
<event>
 5   0  0.2078125E-09  0.3999044E+04  0.7818609E-02  0.8004739E-01
       -1   -1    0    0    0  501  0.00000000000E+00  0.00000000000E+00  0.24307246637E+04  0.24307246637E+04  0.50400001928E-02 0.  1.
        1   -1    0    0  501    0  0.00000000000E+00  0.00000000000E+00 -0.16448136392E+04  0.16448136392E+04  0.50400001928E-02 0. -1.
    10030    2    1    2    0    0  0.00000000000E+00  0.00000000000E+00  0.78591102458E+03  0.40755383029E+04  0.39990444258E+04 0.  0.
        4    1    3    3  502    0 -0.14747896890E+04  0.44641798165E+03 -0.90570068752E+03  0.17873413187E+04  0.12699999809E+01 0. -1.
       -4    1    3    3    0  502  0.14747896890E+04 -0.44641798165E+03  0.16916117121E+04  0.22881969842E+04  0.12699999809E+01 0.  1.
</event>
<event>
 5   0  0.6538370E-09  0.3999946E+04  0.7818609E-02  0.8004557E-01
        2   -1    0    0  501    0  0.00000000000E+00  0.00000000000E+00  0.33215017563E+04  0.33215017563E+04  0.25500000920E-02 0. -1.
       -2   -1    0    0    0  501  0.00000000000E+00  0.00000000000E+00 -0.12042418717E+04  0.12042418717E+04  0.25500000920E-02 0.  1.
    10030    2    1    2    0    0  0.00000000000E+00  0.00000000000E+00  0.21172598847E+04  0.45257436280E+04  0.39999457455E+04 0.  0.
        4    1    3    3  502    0 -0.78354028348E+03 -0.17676668738E+04  0.16370088836E+04  0.25334524370E+04  0.12699999809E+01 0.  1.
       -4    1    3    3    0  502  0.78354028348E+03  0.17676668738E+04  0.48025100107E+03  0.19922911910E+04  0.12699999809E+01 0. -1.
</event>
<event>
 5   0  0.2078125E-09  0.4000557E+04  0.7818609E-02  0.8004434E-01
        1   -1    0    0  501    0  0.00000000000E+00  0.00000000000E+00  0.14251844534E+04  0.14251844534E+04  0.50400001928E-02 0. -1.
       -1   -1    0    0    0  501  0.00000000000E+00  0.00000000000E+00 -0.28074366035E+04  0.28074366035E+04  0.50400001928E-02 0.  1.
    10030    2    1    2    0    0  0.00000000000E+00  0.00000000000E+00 -0.13822521501E+04  0.42326210569E+04  0.40005574618E+04 0.  0.
        4    1    3    3  502    0  0.12180335228E+04 -0.11611663522E+04 -0.18351453937E+04  0.24899142935E+04  0.12699999809E+01 0.  1.
       -4    1    3    3    0  502 -0.12180335228E+04  0.11611663522E+04  0.45289324367E+03  0.17427067634E+04  0.12699999809E+01 0. -1.
</event>
<event>
 5   0  0.2078125E-09  0.4000468E+04  0.7818609E-02  0.8004452E-01
       -1   -1    0    0    0  501  0.00000000000E+00  0.00000000000E+00  0.23937910869E+04  0.23937910869E+04  0.50400001928E-02 0. -1.
        1   -1    0    0  501    0  0.00000000000E+00  0.00000000000E+00 -0.16713809309E+04  0.16713809309E+04  0.50400001928E-02 0.  1.
    10030    2    1    2    0    0  0.00000000000E+00  0.00000000000E+00  0.72241015603E+03  0.40651720178E+04  0.40004683602E+04 0.  0.
        4    1    3    3  502    0  0.38152402980E+03 -0.16342640479E+04 -0.74477120130E+03  0.18360461102E+04  0.12699999809E+01 0.  1.
       -4    1    3    3    0  502 -0.38152402980E+03  0.16342640479E+04  0.14671813573E+04  0.22291259076E+04  0.12699999809E+01 0. -1.
</event>
<event>
 5   0  0.2078125E-09  0.3974619E+04  0.7818609E-02  0.8009686E-01
       -1   -1    0    0    0  501  0.00000000000E+00  0.00000000000E+00  0.18575907529E+04  0.18575907529E+04  0.50400001928E-02 0. -1.
        1   -1    0    0  501    0  0.00000000000E+00  0.00000000000E+00 -0.21260865693E+04  0.21260865693E+04  0.50400001928E-02 0.  1.
    10030    2    1    2    0    0  0.00000000000E+00  0.00000000000E+00 -0.26849581646E+03  0.39836773222E+04  0.39746188501E+04 0.  0.
        1    1    3    3  502    0  0.88220078499E+02 -0.10826849034E+04 -0.18021948982E+04  0.21042565988E+04  0.50400001928E-02 0.  1.
       -1    1    3    3    0  502 -0.88220078499E+02  0.10826849034E+04  0.15336990818E+04  0.18794207234E+04  0.50400001928E-02 0. -1.
</event>
<event>
 5   0  0.6736335E-09  0.3999884E+04  0.7818609E-02  0.8004570E-01
        2   -1    0    0  501    0  0.00000000000E+00  0.00000000000E+00  0.28357756484E+04  0.28357756484E+04  0.25500000920E-02 0. -1.
       -2   -1    0    0    0  501  0.00000000000E+00  0.00000000000E+00 -0.14104672025E+04  0.14104672025E+04  0.25500000920E-02 0.  1.
    10030    2    1    2    0    0  0.00000000000E+00  0.00000000000E+00  0.14253084460E+04  0.42462428509E+04  0.39998842711E+04 0.  0.
        1    1    3    3  502    0  0.91197301357E+03  0.24356242272E+03 -0.11591067147E+04  0.14948397263E+04  0.50400001928E-02 0.  1.
       -1    1    3    3    0  502 -0.91197301357E+03 -0.24356242272E+03  0.25844151607E+04  0.27514031246E+04  0.50400001928E-02 0. -1.
</event>
<event>
 5   0  0.2078125E-09  0.3999589E+04  0.7818609E-02  0.8004629E-01
       -1   -1    0    0    0  501  0.00000000000E+00  0.00000000000E+00  0.14594329923E+04  0.14594329923E+04  0.50400001928E-02 0. -1.
        1   -1    0    0  501    0  0.00000000000E+00  0.00000000000E+00 -0.27402277608E+04  0.27402277608E+04  0.50400001928E-02 0.  1.
    10030    2    1    2    0    0  0.00000000000E+00  0.00000000000E+00 -0.12807947685E+04  0.41996607531E+04  0.39995893792E+04 0.  0.
        3    1    3    3  502    0  0.39092051073E+03  0.11002988678E+04 -0.23450935519E+04  0.26197214015E+04  0.10100000352E+00 0.  1.
       -3    1    3    3    0  502 -0.39092051073E+03 -0.11002988678E+04  0.10642987834E+04  0.15799393516E+04  0.10100000352E+00 0. -1.
</event>
<event>
 5   0  0.6599276E-09  0.4000050E+04  0.7818609E-02  0.8004536E-01
       -2   -1    0    0    0  501  0.00000000000E+00  0.00000000000E+00  0.20345430446E+04  0.20345430446E+04  0.25500000920E-02 0. -1.
        2   -1    0    0  501    0  0.00000000000E+00  0.00000000000E+00 -0.19660926538E+04  0.19660926538E+04  0.25500000920E-02 0.  1.
    10030    2    1    2    0    0  0.00000000000E+00  0.00000000000E+00  0.68450390844E+02  0.40006356984E+04  0.40000500666E+04 0.  0.
        2    1    3    3  502    0 -0.54620055326E+03 -0.11576062761E+04 -0.15027863166E+04  0.19740197689E+04  0.25500000920E-02 0.  1.
       -2    1    3    3    0  502  0.54620055326E+03  0.11576062761E+04  0.15712367074E+04  0.20266159295E+04  0.25500000920E-02 0. -1.
</event>
<event>
 5   0  0.6645526E-09  0.3999422E+04  0.7818609E-02  0.8004663E-01
       -2   -1    0    0    0  501  0.00000000000E+00  0.00000000000E+00  0.23858625577E+04  0.23858625577E+04  0.25500000920E-02 0. -1.
        2   -1    0    0  501    0  0.00000000000E+00  0.00000000000E+00 -0.16760584055E+04  0.16760584055E+04  0.25500000920E-02 0.  1.
    10030    2    1    2    0    0  0.00000000000E+00  0.00000000000E+00  0.70980415222E+03  0.40619209631E+04  0.39994224553E+04 0.  0.
        3    1    3    3  502    0 -0.25215702098E+03  0.19753205750E+04  0.54043252544E+03  0.20633811723E+04  0.10100000352E+00 0. -1.
       -3    1    3    3    0  502  0.25215702098E+03 -0.19753205750E+04  0.16937162679E+03  0.19985397908E+04  0.10100000352E+00 0.  1.
</event>
<event>
 5   0  0.2078125E-09  0.3999999E+04  0.7818609E-02  0.8004547E-01
        1   -1    0    0  501    0  0.00000000000E+00  0.00000000000E+00  0.18251766002E+04  0.18251766002E+04  0.50400001928E-02 0. -1.
       -1   -1    0    0    0  501  0.00000000000E+00  0.00000000000E+00 -0.21915673889E+04  0.21915673889E+04  0.50400001928E-02 0.  1.
    10030    2    1    2    0    0  0.00000000000E+00  0.00000000000E+00 -0.36639078872E+03  0.40167439891E+04  0.39999987579E+04 0.  0.
        5    1    3    3  502    0  0.18864196706E+03 -0.19855272210E+04 -0.34009368707E+02  0.19947638617E+04  0.46999998093E+01 0. -1.
       -5    1    3    3    0  502 -0.18864196706E+03  0.19855272210E+04 -0.33238142002E+03  0.20219801273E+04  0.46999998093E+01 0.  1.
</event>
<event>
 5   0  0.6538370E-09  0.4000396E+04  0.7818609E-02  0.8004467E-01
       -2   -1    0    0    0  501  0.00000000000E+00  0.00000000000E+00  0.22648795544E+04  0.22648795544E+04  0.25500000920E-02 0.  1.
        2   -1    0    0  501    0  0.00000000000E+00  0.00000000000E+00 -0.17664478941E+04  0.17664478941E+04  0.25500000920E-02 0. -1.
    10030    2    1    2    0    0  0.00000000000E+00  0.00000000000E+00  0.49843166030E+03  0.40313274486E+04  0.40003958401E+04 0.  0.
        4    1    3    3  502    0 -0.22512422698E+03  0.13396854886E+04 -0.12302475163E+04  0.18327434873E+04  0.12699999809E+01 0. -1.
       -4    1    3    3    0  502  0.22512422698E+03 -0.13396854886E+04  0.17286791766E+04  0.21985839612E+04  0.12699999809E+01 0.  1.
</event>
<event>
 5   0  0.6538370E-09  0.4000774E+04  0.7818609E-02  0.8004390E-01
       -2   -1    0    0    0  501  0.00000000000E+00  0.00000000000E+00  0.18044803357E+04  0.18044803357E+04  0.25500000920E-02 0.  1.
        2   -1    0    0  501    0  0.00000000000E+00  0.00000000000E+00 -0.22175624466E+04  0.22175624466E+04  0.25500000920E-02 0. -1.
    10030    2    1    2    0    0  0.00000000000E+00  0.00000000000E+00 -0.41308211089E+03  0.40220427823E+04  0.40007738392E+04 0.  0.
        4    1    3    3  502    0  0.42742824128E+03  0.12500352294E+04  0.13035306422E+04  0.18559301507E+04  0.12699999809E+01 0.  1.
       -4    1    3    3    0  502 -0.42742824128E+03 -0.12500352294E+04 -0.17166127530E+04  0.21661126317E+04  0.12699999809E+01 0. -1.
</event>
<event>
 5   0  0.6599276E-09  0.4000200E+04  0.7818609E-02  0.8004506E-01
        2   -1    0    0  501    0  0.00000000000E+00  0.00000000000E+00  0.15086957744E+04  0.15086957744E+04  0.25500000920E-02 0.  1.
       -2   -1    0    0    0  501  0.00000000000E+00  0.00000000000E+00 -0.26515622435E+04  0.26515622435E+04  0.25500000920E-02 0. -1.
    10030    2    1    2    0    0  0.00000000000E+00  0.00000000000E+00 -0.11428664691E+04  0.41602580178E+04  0.40002003711E+04 0.  0.
        2    1    3    3  502    0 -0.62513266680E+03 -0.36405687689E+03  0.13678685319E+04  0.15473824935E+04  0.25500000920E-02 0.  1.
       -2    1    3    3    0  502  0.62513266680E+03  0.36405687689E+03 -0.25107350009E+04  0.26128755243E+04  0.25500000920E-02 0. -1.
</event>
<event>
 5   0  0.2078125E-09  0.3998971E+04  0.7818609E-02  0.8004754E-01
        1   -1    0    0  501    0  0.00000000000E+00  0.00000000000E+00  0.27612386105E+04  0.27612386105E+04  0.50400001928E-02 0.  1.
       -1   -1    0    0    0  501  0.00000000000E+00  0.00000000000E+00 -0.14478799179E+04  0.14478799179E+04  0.50400001928E-02 0. -1.
    10030    2    1    2    0    0  0.00000000000E+00  0.00000000000E+00  0.13133586926E+04  0.42091185283E+04  0.39989708339E+04 0.  0.
        5    1    3    3  502    0  0.15754230696E+04  0.72231883389E+03 -0.39282349773E+03  0.17770860239E+04  0.46999998093E+01 0. -1.
       -5    1    3    3    0  502 -0.15754230696E+04 -0.72231883389E+03  0.17061821903E+04  0.24320325044E+04  0.46999998093E+01 0.  1.
</event>
<event>
 5   0  0.6645526E-09  0.4000167E+04  0.7818609E-02  0.8004513E-01
       -2   -1    0    0    0  501  0.00000000000E+00  0.00000000000E+00  0.21177688814E+04  0.21177688814E+04  0.25500000920E-02 0. -1.
        2   -1    0    0  501    0  0.00000000000E+00  0.00000000000E+00 -0.18889377603E+04  0.18889377603E+04  0.25500000920E-02 0.  1.
    10030    2    1    2    0    0  0.00000000000E+00  0.00000000000E+00  0.22883112109E+03  0.40067066416E+04  0.40001668003E+04 0.  0.
        3    1    3    3  502    0 -0.98103222529E+03  0.10738668967E+04 -0.12606796804E+04  0.19248188501E+04  0.10100000352E+00 0.  1.
       -3    1    3    3    0  502  0.98103222529E+03 -0.10738668967E+04  0.14895108015E+04  0.20818877916E+04  0.10100000352E+00 0. -1.
</event>
<event>
 5   0  0.2078125E-09  0.4001772E+04  0.7818609E-02  0.8004189E-01
       -1   -1    0    0    0  501  0.00000000000E+00  0.00000000000E+00  0.16562301805E+04  0.16562301805E+04  0.50400001928E-02 0. -1.
        1   -1    0    0  501    0  0.00000000000E+00  0.00000000000E+00 -0.24172639048E+04  0.24172639048E+04  0.50400001928E-02 0.  1.
    10030    2    1    2    0    0  0.00000000000E+00  0.00000000000E+00 -0.76103372429E+03  0.40734940853E+04  0.40017723241E+04 0.  0.
        5    1    3    3  502    0  0.17985188269E+04  0.65716791537E+03  0.21039017676E+03  0.19263503721E+04  0.46999998093E+01 0. -1.
       -5    1    3    3    0  502 -0.17985188269E+04 -0.65716791537E+03 -0.97142390105E+03  0.21471437132E+04  0.46999998093E+01 0.  1.
</event>
<event>
 5   0  0.6538370E-09  0.4000658E+04  0.7818609E-02  0.8004414E-01
       -2   -1    0    0    0  501  0.00000000000E+00  0.00000000000E+00  0.18991210196E+04  0.18991210196E+04  0.25500000920E-02 0.  1.
        2   -1    0    0  501    0  0.00000000000E+00  0.00000000000E+00 -0.21069310175E+04  0.21069310175E+04  0.25500000920E-02 0. -1.
    10030    2    1    2    0    0  0.00000000000E+00  0.00000000000E+00 -0.20780999792E+03  0.40060520370E+04  0.40006584368E+04 0.  0.
        4    1    3    3  502    0 -0.99187815749E+03 -0.14482867089E+04  0.85653287370E+03  0.19532042512E+04  0.12699999809E+01 0.  1.
       -4    1    3    3    0  502  0.99187815749E+03  0.14482867089E+04 -0.10643428716E+04  0.20528477858E+04  0.12699999809E+01 0. -1.
</event>
<event>
 5   0  0.2078125E-09  0.3994539E+04  0.7818609E-02  0.8005649E-01
        1   -1    0    0  501    0  0.00000000000E+00  0.00000000000E+00  0.18753313801E+04  0.18753313801E+04  0.50400001928E-02 0.  1.
       -1   -1    0    0    0  501  0.00000000000E+00  0.00000000000E+00 -0.21271360970E+04  0.21271360970E+04  0.50400001928E-02 0. -1.
    10030    2    1    2    0    0  0.00000000000E+00  0.00000000000E+00 -0.25180471687E+03  0.40024674771E+04  0.39945388081E+04 0.  0.
        4    1    3    3  502    0  0.18839015755E+04 -0.33563241901E+03 -0.69918237561E+03  0.20373001434E+04  0.12699999809E+01 0.  1.
       -4    1    3    3    0  502 -0.18839015755E+04  0.33563241901E+03  0.44737765875E+03  0.19651673337E+04  0.12699999809E+01 0. -1.
</event>
<event>
 5   0  0.2078125E-09  0.3998821E+04  0.7818609E-02  0.8004784E-01
        1   -1    0    0  501    0  0.00000000000E+00  0.00000000000E+00  0.25090105822E+04  0.25090105822E+04  0.50400001928E-02 0. -1.
       -1   -1    0    0    0  501  0.00000000000E+00  0.00000000000E+00 -0.15933144582E+04  0.15933144582E+04  0.50400001928E-02 0.  1.
    10030    2    1    2    0    0  0.00000000000E+00  0.00000000000E+00  0.91569612407E+03  0.41023250404E+04  0.39988212445E+04 0.  0.
        3    1    3    3  502    0  0.56127255534E+03  0.10690520424E+04  0.20927549404E+04  0.24160965215E+04  0.10100000352E+00 0. -1.
       -3    1    3    3    0  502 -0.56127255534E+03 -0.10690520424E+04 -0.11770588163E+04  0.16862285189E+04  0.10100000352E+00 0.  1.
</event>
<event>
 5   0  0.6599276E-09  0.3998984E+04  0.7818609E-02  0.8004751E-01
        2   -1    0    0  501    0  0.00000000000E+00  0.00000000000E+00  0.14663609549E+04  0.14663609549E+04  0.25500000920E-02 0. -1.
       -2   -1    0    0    0  501  0.00000000000E+00  0.00000000000E+00 -0.27264563550E+04  0.27264563550E+04  0.25500000920E-02 0.  1.
    10030    2    1    2    0    0  0.00000000000E+00  0.00000000000E+00 -0.12600954002E+04  0.41928173099E+04  0.39989844431E+04 0.  0.
        2    1    3    3  502    0 -0.56768863231E+03 -0.15271960791E+04  0.58517029702E+03  0.17311910709E+04  0.25500000920E-02 0. -1.
       -2    1    3    3    0  502  0.56768863231E+03  0.15271960791E+04 -0.18452656972E+04  0.24616262390E+04  0.25500000920E-02 0.  1.
</event>
<event>
 5   0  0.2078125E-09  0.4000603E+04  0.7818609E-02  0.8004425E-01
        1   -1    0    0  501    0  0.00000000000E+00  0.00000000000E+00  0.18848451954E+04  0.18848451954E+04  0.50400001928E-02 0. -1.
       -1   -1    0    0    0  501  0.00000000000E+00  0.00000000000E+00 -0.21228298408E+04  0.21228298408E+04  0.50400001928E-02 0.  1.
    10030    2    1    2    0    0  0.00000000000E+00  0.00000000000E+00 -0.23798464539E+03  0.40076750363E+04  0.40006027677E+04 0.  0.
        3    1    3    3  502    0 -0.16980167194E+04  0.10449597616E+04 -0.28053474465E+03  0.20134302660E+04  0.10100000352E+00 0.  1.
       -3    1    3    3    0  502  0.16980167194E+04 -0.10449597616E+04  0.42550099257E+02  0.19942447703E+04  0.10100000352E+00 0. -1.
</event>
<event>
 5   0  0.6538370E-09  0.3999075E+04  0.7818609E-02  0.8004733E-01
        2   -1    0    0  501    0  0.00000000000E+00  0.00000000000E+00  0.22110232949E+04  0.22110232949E+04  0.25500000920E-02 0. -1.
       -2   -1    0    0    0  501  0.00000000000E+00  0.00000000000E+00 -0.18082805291E+04  0.18082805291E+04  0.25500000920E-02 0.  1.
    10030    2    1    2    0    0  0.00000000000E+00  0.00000000000E+00  0.40274276572E+03  0.40193038240E+04  0.39990750799E+04 0.  0.
        4    1    3    3  502    0 -0.13773587861E+04 -0.10275213887E+03 -0.12517892205E+04  0.18640421383E+04  0.12699999809E+01 0.  1.
       -4    1    3    3    0  502  0.13773587861E+04  0.10275213887E+03  0.16545319862E+04  0.21552616858E+04  0.12699999809E+01 0. -1.
</event>
<event>
 5   0  0.6736335E-09  0.3985679E+04  0.7818609E-02  0.8007442E-01
        2   -1    0    0  501    0  0.00000000000E+00  0.00000000000E+00  0.22313526957E+04  0.22313526957E+04  0.25500000920E-02 0. -1.
       -2   -1    0    0    0  501  0.00000000000E+00  0.00000000000E+00 -0.17798210984E+04  0.17798210984E+04  0.25500000920E-02 0.  1.
    10030    2    1    2    0    0  0.00000000000E+00  0.00000000000E+00  0.45153159726E+03  0.40111737941E+04  0.39856786653E+04 0.  0.
        1    1    3    3  502    0  0.17561478366E+04 -0.91466001301E+03  0.45248542319E+03  0.20311083727E+04  0.50400001928E-02 0.  1.
       -1    1    3    3    0  502 -0.17561478366E+04  0.91466001301E+03 -0.95382592543E+00  0.19800654214E+04  0.50400001928E-02 0. -1.
</event>
<event>
 5   0  0.6736335E-09  0.4001867E+04  0.7818609E-02  0.8004170E-01
       -2   -1    0    0    0  501  0.00000000000E+00  0.00000000000E+00  0.30615675033E+04  0.30615675033E+04  0.25500000920E-02 0. -1.
        2   -1    0    0  501    0  0.00000000000E+00  0.00000000000E+00 -0.13077405149E+04  0.13077405149E+04  0.25500000920E-02 0.  1.
    10030    2    1    2    0    0  0.00000000000E+00  0.00000000000E+00  0.17538269884E+04  0.43693080182E+04  0.40018674956E+04 0.  0.
        1    1    3    3  502    0 -0.59865665803E+01 -0.20153260792E+03 -0.12966214681E+04  0.13122036665E+04  0.50400001928E-02 0.  1.
       -1    1    3    3    0  502  0.59865665803E+01  0.20153260792E+03  0.30504484565E+04  0.30571043517E+04  0.50400001928E-02 0. -1.
</event>
<event>
 5   0  0.6645526E-09  0.3993855E+04  0.7818609E-02  0.8005787E-01
       -2   -1    0    0    0  501  0.00000000000E+00  0.00000000000E+00  0.18624857619E+04  0.18624857619E+04  0.25500000920E-02 0. -1.
        2   -1    0    0  501    0  0.00000000000E+00  0.00000000000E+00 -0.21410740889E+04  0.21410740889E+04  0.25500000920E-02 0.  1.
    10030    2    1    2    0    0  0.00000000000E+00  0.00000000000E+00 -0.27858832692E+03  0.40035598508E+04  0.39938552832E+04 0.  0.
        3    1    3    3  502    0 -0.23732045053E+03  0.17493249287E+03 -0.21191369734E+04  0.21395475913E+04  0.10100000352E+00 0.  1.
       -3    1    3    3    0  502  0.23732045053E+03 -0.17493249287E+03  0.18405486465E+04  0.18640122595E+04  0.10100000352E+00 0. -1.
</event>
<event>
 5   0  0.6547327E-09  0.3998393E+04  0.7818609E-02  0.8004871E-01
       -2   -1    0    0    0  501  0.00000000000E+00  0.00000000000E+00  0.17189185993E+04  0.17189185993E+04  0.25500000920E-02 0.  1.
        2   -1    0    0  501    0  0.00000000000E+00  0.00000000000E+00 -0.23251748345E+04  0.23251748345E+04  0.25500000920E-02 0. -1.
    10030    2    1    2    0    0  0.00000000000E+00  0.00000000000E+00 -0.60625623523E+03  0.40440934338E+04  0.39983928119E+04 0.  0.
        5    1    3    3  502    0 -0.21595178588E+03 -0.18312785831E+04 -0.10843210966E+04  0.21391565518E+04  0.46999998093E+01 0. -1.
       -5    1    3    3    0  502  0.21595178588E+03  0.18312785831E+04  0.47806486134E+03  0.19049368820E+04  0.46999998093E+01 0.  1.
</event>
<event>
 5   0  0.2078125E-09  0.3999209E+04  0.7818609E-02  0.8004706E-01
        1   -1    0    0  501    0  0.00000000000E+00  0.00000000000E+00  0.22980503607E+04  0.22980503607E+04  0.50400001928E-02 0.  1.
       -1   -1    0    0    0  501  0.00000000000E+00  0.00000000000E+00 -0.17399179761E+04  0.17399179761E+04  0.50400001928E-02 0. -1.
    10030    2    1    2    0    0  0.00000000000E+00  0.00000000000E+00  0.55813238455E+03  0.40379683368E+04  0.39992094882E+04 0.  0.
        3    1    3    3  502    0  0.59050308100E+03 -0.14191088061E+04  0.15704674797E+04  0.21974830619E+04  0.10100000352E+00 0.  1.
       -3    1    3    3    0  502 -0.59050308100E+03  0.14191088061E+04 -0.10123350952E+04  0.18404852749E+04  0.10100000352E+00 0. -1.
</event>
<event>
 5   0  0.2078125E-09  0.4002396E+04  0.7818609E-02  0.8004063E-01
       -1   -1    0    0    0  501  0.00000000000E+00  0.00000000000E+00  0.29654092648E+04  0.29654092648E+04  0.50400001928E-02 0.  1.
        1   -1    0    0  501    0  0.00000000000E+00  0.00000000000E+00 -0.13505028555E+04  0.13505028555E+04  0.50400001928E-02 0. -1.
    10030    2    1    2    0    0  0.00000000000E+00  0.00000000000E+00  0.16149064093E+04  0.43159121203E+04  0.40023961222E+04 0.  0.
        4    1    3    3  502    0  0.11613613097E+04 -0.15033202354E+04  0.14860833539E+04  0.24118824949E+04  0.12699999809E+01 0.  1.
       -4    1    3    3    0  502 -0.11613613097E+04  0.15033202354E+04  0.12882305545E+03  0.19040296254E+04  0.12699999809E+01 0. -1.
</event>
<event>
 5   0  0.6538370E-09  0.4000227E+04  0.7818609E-02  0.8004501E-01
        2   -1    0    0  501    0  0.00000000000E+00  0.00000000000E+00  0.13439916483E+04  0.13439916483E+04  0.25500000920E-02 0. -1.
       -2   -1    0    0    0  501  0.00000000000E+00  0.00000000000E+00 -0.29765472889E+04  0.29765472889E+04  0.25500000920E-02 0.  1.
    10030    2    1    2    0    0  0.00000000000E+00  0.00000000000E+00 -0.16325556406E+04  0.43205389371E+04  0.40002273420E+04 0.  0.
        4    1    3    3  502    0  0.12655282823E+04  0.96893751781E+03  0.48880271568E+03  0.16671327045E+04  0.12699999809E+01 0. -1.
       -4    1    3    3    0  502 -0.12655282823E+04 -0.96893751781E+03 -0.21213583563E+04  0.26534062326E+04  0.12699999809E+01 0.  1.
</event>
<event>
 5   0  0.2078125E-09  0.3999061E+04  0.7818609E-02  0.8004736E-01
       -1   -1    0    0    0  501  0.00000000000E+00  0.00000000000E+00  0.23562174618E+04  0.23562174618E+04  0.50400001928E-02 0. -1.
        1   -1    0    0  501    0  0.00000000000E+00  0.00000000000E+00 -0.16968389477E+04  0.16968389477E+04  0.50400001928E-02 0.  1.
    10030    2    1    2    0    0  0.00000000000E+00  0.00000000000E+00  0.65937851411E+03  0.40530564095E+04  0.39990606689E+04 0.  0.
        3    1    3    3  502    0  0.10587417654E+03 -0.19553991775E+04  0.73928239189E+03  0.20931635745E+04  0.10100000352E+00 0. -1.
       -3    1    3    3    0  502 -0.10587417654E+03  0.19553991775E+04 -0.79903877779E+02  0.19598928349E+04  0.10100000352E+00 0.  1.
</event>
<event>
 5   0  0.2078125E-09  0.4000286E+04  0.7818609E-02  0.8004489E-01
        1   -1    0    0  501    0  0.00000000000E+00  0.00000000000E+00  0.12252031564E+04  0.12252031564E+04  0.50400001928E-02 0.  1.
       -1   -1    0    0    0  501  0.00000000000E+00  0.00000000000E+00 -0.32652310294E+04  0.32652310294E+04  0.50400001928E-02 0. -1.
    10030    2    1    2    0    0  0.00000000000E+00  0.00000000000E+00 -0.20400278729E+04  0.44904341858E+04  0.40002856716E+04 0.  0.
        2    1    3    3  502    0  0.72509705289E+03  0.91495892477E+03 -0.28430967178E+04  0.30734531910E+04  0.25500000920E-02 0. -1.
       -2    1    3    3    0  502 -0.72509705289E+03 -0.91495892477E+03  0.80306884489E+03  0.14169809948E+04  0.25500000920E-02 0.  1.
</event>
<event>
 5   0  0.2078125E-09  0.3994153E+04  0.7818609E-02  0.8005727E-01
        1   -1    0    0  501    0  0.00000000000E+00  0.00000000000E+00  0.24622086569E+04  0.24622086569E+04  0.50400001928E-02 0.  1.
       -1   -1    0    0    0  501  0.00000000000E+00  0.00000000000E+00 -0.16198115192E+04  0.16198115192E+04  0.50400001928E-02 0. -1.
    10030    2    1    2    0    0  0.00000000000E+00  0.00000000000E+00  0.84239713779E+03  0.40820201761E+04  0.39941526987E+04 0.  0.
        5    1    3    3  502    0  0.15654066836E+04  0.11038794328E+04  0.99864517469E+03  0.21601764192E+04  0.46999998093E+01 0.  1.
       -5    1    3    3    0  502 -0.15654066836E+04 -0.11038794328E+04 -0.15624803690E+03  0.19218437569E+04  0.46999998093E+01 0. -1.
</event>
<event>
 5   0  0.2078125E-09  0.4003071E+04  0.7818609E-02  0.8003927E-01
       -1   -1    0    0    0  501  0.00000000000E+00  0.00000000000E+00  0.14254182021E+04  0.14254182021E+04  0.50400001928E-02 0.  1.
        1   -1    0    0  501    0  0.00000000000E+00  0.00000000000E+00 -0.28105044038E+04  0.28105044038E+04  0.50400001928E-02 0. -1.
    10030    2    1    2    0    0  0.00000000000E+00  0.00000000000E+00 -0.13850862018E+04  0.42359226059E+04  0.40030708883E+04 0.  0.
        3    1    3    3  502    0 -0.13021526400E+04  0.65136763884E+03 -0.21458449915E+04  0.25931702676E+04  0.10100000352E+00 0. -1.
       -3    1    3    3    0  502  0.13021526400E+04 -0.65136763884E+03  0.76075878972E+03  0.16427523383E+04  0.10100000352E+00 0.  1.
</event>
<event>
 5   0  0.2078125E-09  0.4000999E+04  0.7818609E-02  0.8004345E-01
       -1   -1    0    0    0  501  0.00000000000E+00  0.00000000000E+00  0.28000265668E+04  0.28000265669E+04  0.50400001928E-02 0. -1.
        1   -1    0    0  501    0  0.00000000000E+00  0.00000000000E+00 -0.14292712230E+04  0.14292712230E+04  0.50400001928E-02 0.  1.
    10030    2    1    2    0    0  0.00000000000E+00  0.00000000000E+00  0.13707553439E+04  0.42292977898E+04  0.40009985731E+04 0.  0.
        5    1    3    3  502    0  0.10402833822E+03 -0.11946918284E+03 -0.14226249216E+04  0.14314253520E+04  0.46999998093E+01 0.  1.
       -5    1    3    3    0  502 -0.10402833822E+03  0.11946918284E+03  0.27933802655E+04  0.27978724378E+04  0.46999998093E+01 0. -1.
</event>
<event>
 5   0  0.2078125E-09  0.4000400E+04  0.7818609E-02  0.8004466E-01
        1   -1    0    0  501    0  0.00000000000E+00  0.00000000000E+00  0.27265709075E+04  0.27265709075E+04  0.50400001928E-02 0. -1.
       -1   -1    0    0    0  501  0.00000000000E+00  0.00000000000E+00 -0.14673374186E+04  0.14673374186E+04  0.50400001928E-02 0.  1.
    10030    2    1    2    0    0  0.00000000000E+00  0.00000000000E+00  0.12592334889E+04  0.41939083261E+04  0.40003997386E+04 0.  0.
        2    1    3    3  502    0  0.66456103859E+02 -0.93008411228E+03  0.24847697307E+04  0.26539693827E+04  0.25500000920E-02 0. -1.
       -2    1    3    3    0  502 -0.66456103859E+02  0.93008411228E+03 -0.12255362418E+04  0.15399389434E+04  0.25500000920E-02 0.  1.
</event>
<event>
 5   0  0.2078125E-09  0.4000406E+04  0.7818609E-02  0.8004465E-01
       -1   -1    0    0    0  501  0.00000000000E+00  0.00000000000E+00  0.21483721169E+04  0.21483721169E+04  0.50400001928E-02 0. -1.
        1   -1    0    0  501    0  0.00000000000E+00  0.00000000000E+00 -0.18622527741E+04  0.18622527741E+04  0.50400001928E-02 0.  1.
    10030    2    1    2    0    0  0.00000000000E+00  0.00000000000E+00  0.28611934282E+03  0.40106248910E+04  0.40004059466E+04 0.  0.
        2    1    3    3  502    0 -0.11633227784E+04 -0.13228221184E+04  0.10929151957E+04  0.20730754614E+04  0.25500000920E-02 0. -1.
       -2    1    3    3    0  502  0.11633227784E+04  0.13228221184E+04 -0.80679585283E+03  0.19375494296E+04  0.25500000920E-02 0.  1.
</event>
<event>
 5   0  0.6547327E-09  0.3999978E+04  0.7818609E-02  0.8004551E-01
        2   -1    0    0  501    0  0.00000000000E+00  0.00000000000E+00  0.20085097131E+04  0.20085097131E+04  0.25500000920E-02 0. -1.
       -2   -1    0    0    0  501  0.00000000000E+00  0.00000000000E+00 -0.19915046270E+04  0.19915046270E+04  0.25500000920E-02 0.  1.
    10030    2    1    2    0    0  0.00000000000E+00  0.00000000000E+00  0.17005086123E+02  0.40000143402E+04  0.39999781935E+04 0.  0.
        5    1    3    3  502    0 -0.10391426970E+04 -0.50861829803E+03  0.16399044802E+04  0.20069426778E+04  0.46999998093E+01 0. -1.
       -5    1    3    3    0  502  0.10391426970E+04  0.50861829803E+03 -0.16228993941E+04  0.19930716623E+04  0.46999998093E+01 0.  1.
</event>
<event>
 5   0  0.2078125E-09  0.4001350E+04  0.7818609E-02  0.8004274E-01
        1   -1    0    0  501    0  0.00000000000E+00  0.00000000000E+00  0.15929414839E+04  0.15929414839E+04  0.50400001928E-02 0.  1.
       -1   -1    0    0    0  501  0.00000000000E+00  0.00000000000E+00 -0.25127726096E+04  0.25127726096E+04  0.50400001928E-02 0. -1.
    10030    2    1    2    0    0  0.00000000000E+00  0.00000000000E+00 -0.91983112571E+03  0.41057140935E+04  0.40013496370E+04 0.  0.
        3    1    3    3  502    0 -0.14118914011E+04 -0.65957211544E+03 -0.17473226109E+04  0.23412836267E+04  0.10100000352E+00 0. -1.
       -3    1    3    3    0  502  0.14118914011E+04  0.65957211544E+03  0.82749148521E+03  0.17644304668E+04  0.10100000352E+00 0.  1.
</event>
<event>
 5   0  0.6547327E-09  0.4003933E+04  0.7818609E-02  0.8003754E-01
       -2   -1    0    0    0  501  0.00000000000E+00  0.00000000000E+00  0.17149831437E+04  0.17149831438E+04  0.25500000920E-02 0. -1.
        2   -1    0    0  501    0  0.00000000000E+00  0.00000000000E+00 -0.23369732777E+04  0.23369732777E+04  0.25500000920E-02 0.  1.
    10030    2    1    2    0    0  0.00000000000E+00  0.00000000000E+00 -0.62199013393E+03  0.40519564214E+04  0.40039329558E+04 0.  0.
        5    1    3    3  502    0  0.64011534872E+03  0.15025996323E+04 -0.14825915691E+04  0.22058225598E+04  0.46999998093E+01 0.  1.
       -5    1    3    3    0  502 -0.64011534872E+03 -0.15025996323E+04  0.86060143515E+03  0.18461338616E+04  0.46999998093E+01 0. -1.
</event>
<event>
 5   0  0.2078125E-09  0.4001104E+04  0.7818609E-02  0.8004324E-01
       -1   -1    0    0    0  501  0.00000000000E+00  0.00000000000E+00  0.30492289604E+04  0.30492289604E+04  0.50400001928E-02 0. -1.
        1   -1    0    0  501    0  0.00000000000E+00  0.00000000000E+00 -0.13125309729E+04  0.13125309729E+04  0.50400001928E-02 0.  1.
    10030    2    1    2    0    0  0.00000000000E+00  0.00000000000E+00  0.17366979875E+04  0.43617599332E+04  0.40011035747E+04 0.  0.
        5    1    3    3  502    0  0.51594986453E+03 -0.11570326426E+04 -0.81952189645E+03  0.15088296881E+04  0.46999998093E+01 0.  1.
       -5    1    3    3    0  502 -0.51594986453E+03  0.11570326426E+04  0.25562198840E+04  0.28529302452E+04  0.46999998093E+01 0. -1.
</event>
<event>
 5   0  0.6538370E-09  0.4000339E+04  0.7818609E-02  0.8004478E-01
        2   -1    0    0  501    0  0.00000000000E+00  0.00000000000E+00  0.27258783676E+04  0.27258783676E+04  0.25500000920E-02 0.  1.
       -2   -1    0    0    0  501  0.00000000000E+00  0.00000000000E+00 -0.14676654518E+04  0.14676654518E+04  0.25500000920E-02 0. -1.
    10030    2    1    2    0    0  0.00000000000E+00  0.00000000000E+00  0.12582129158E+04  0.41935438194E+04  0.40003387386E+04 0.  0.
        4    1    3    3  502    0  0.63569479780E+03  0.91841964358E+03 -0.11102688910E+04  0.15748971842E+04  0.12699999809E+01 0. -1.
       -4    1    3    3    0  502 -0.63569479780E+03 -0.91841964358E+03  0.23684818068E+04  0.26186466351E+04  0.12699999809E+01 0.  1.
</event>
<event>
 5   0  0.2078125E-09  0.3999785E+04  0.7818609E-02  0.8004590E-01
        1   -1    0    0  501    0  0.00000000000E+00  0.00000000000E+00  0.26029327821E+04  0.26029327821E+04  0.50400001928E-02 0.  1.
       -1   -1    0    0    0  501  0.00000000000E+00  0.00000000000E+00 -0.15365625788E+04  0.15365625788E+04  0.50400001928E-02 0. -1.
    10030    2    1    2    0    0  0.00000000000E+00  0.00000000000E+00  0.10663702033E+04  0.41394953609E+04  0.39997845483E+04 0.  0.
        4    1    3    3  502    0 -0.54487594619E+03 -0.20296363454E+03 -0.14471529861E+04  0.15595952718E+04  0.12699999809E+01 0. -1.
       -4    1    3    3    0  502  0.54487594619E+03  0.20296363454E+03  0.25135231894E+04  0.25799000892E+04  0.12699999809E+01 0.  1.
</event>
<event>
 5   0  0.6538370E-09  0.4003425E+04  0.7818609E-02  0.8003856E-01
       -2   -1    0    0    0  501  0.00000000000E+00  0.00000000000E+00  0.19216806344E+04  0.19216806344E+04  0.25500000920E-02 0.  1.
        2   -1    0    0  501    0  0.00000000000E+00  0.00000000000E+00 -0.20850776861E+04  0.20850776861E+04  0.25500000920E-02 0. -1.
    10030    2    1    2    0    0  0.00000000000E+00  0.00000000000E+00 -0.16339705166E+03  0.40067583205E+04  0.40034252388E+04 0.  0.
        4    1    3    3  502    0 -0.70269819726E+03  0.89706264918E+03 -0.17287738820E+04  0.20705474882E+04  0.12699999809E+01 0. -1.
       -4    1    3    3    0  502  0.70269819726E+03 -0.89706264918E+03  0.15653768304E+04  0.19362108322E+04  0.12699999809E+01 0.  1.
</event>
<event>
 5   0  0.6599276E-09  0.4002430E+04  0.7818609E-02  0.8004056E-01
        2   -1    0    0  501    0  0.00000000000E+00  0.00000000000E+00  0.17074009393E+04  0.17074009393E+04  0.25500000920E-02 0.  1.
       -2   -1    0    0    0  501  0.00000000000E+00  0.00000000000E+00 -0.23455896196E+04  0.23455896196E+04  0.25500000920E-02 0. -1.
    10030    2    1    2    0    0  0.00000000000E+00  0.00000000000E+00 -0.63818868023E+03  0.40529905589E+04  0.40024302216E+04 0.  0.
        2    1    3    3  502    0  0.19245321804E+04 -0.47585222317E+03 -0.59567921134E+03  0.20700466599E+04  0.25500000920E-02 0.  1.
       -2    1    3    3    0  502 -0.19245321804E+04  0.47585222317E+03 -0.42509468889E+02  0.19829438990E+04  0.25500000920E-02 0. -1.
</event>
<event>
 5   0  0.2078125E-09  0.3999383E+04  0.7818609E-02  0.8004671E-01
       -1   -1    0    0    0  501  0.00000000000E+00  0.00000000000E+00  0.24270950601E+04  0.24270950601E+04  0.50400001928E-02 0.  1.
        1   -1    0    0  501    0  0.00000000000E+00  0.00000000000E+00 -0.16475526412E+04  0.16475526412E+04  0.50400001928E-02 0. -1.
    10030    2    1    2    0    0  0.00000000000E+00  0.00000000000E+00  0.77954241887E+03  0.40746477013E+04  0.39993833909E+04 0.  0.
        1    1    3    3  502    0 -0.11055484403E+04 -0.28406272650E+03  0.20625707979E+04  0.23573559941E+04  0.50400001928E-02 0.  1.
       -1    1    3    3    0  502  0.11055484403E+04  0.28406272650E+03 -0.12830283790E+04  0.17172917073E+04  0.50400001928E-02 0. -1.
</event>
<event>
 5   0  0.2078125E-09  0.4000177E+04  0.7818609E-02  0.8004511E-01
        1   -1    0    0  501    0  0.00000000000E+00  0.00000000000E+00  0.28666336435E+04  0.28666336435E+04  0.50400001928E-02 0. -1.
       -1   -1    0    0    0  501  0.00000000000E+00  0.00000000000E+00 -0.13954883506E+04  0.13954883506E+04  0.50400001928E-02 0.  1.
    10030    2    1    2    0    0  0.00000000000E+00  0.00000000000E+00  0.14711452928E+04  0.42621219941E+04  0.40001769236E+04 0.  0.
        1    1    3    3  502    0  0.19877091640E+04 -0.14261183035E+03  0.55403979240E+03  0.20684017855E+04  0.50400001928E-02 0.  1.
       -1    1    3    3    0  502 -0.19877091640E+04  0.14261183035E+03  0.91710550043E+03  0.21937202086E+04  0.50400001928E-02 0. -1.
</event>
<event>
 5   0  0.6547327E-09  0.4000203E+04  0.7818609E-02  0.8004506E-01
       -2   -1    0    0    0  501  0.00000000000E+00  0.00000000000E+00  0.12013221433E+04  0.12013221433E+04  0.25500000920E-02 0. -1.
        2   -1    0    0  501    0  0.00000000000E+00  0.00000000000E+00 -0.33300032752E+04  0.33300032752E+04  0.25500000920E-02 0.  1.
    10030    2    1    2    0    0  0.00000000000E+00  0.00000000000E+00 -0.21286811319E+04  0.45313254185E+04  0.40002033307E+04 0.  0.
        5    1    3    3  502    0  0.98049466495E+03  0.11512051581E+04  0.41857300346E+03  0.15690342741E+04  0.46999998093E+01 0. -1.
       -5    1    3    3    0  502 -0.98049466495E+03 -0.11512051581E+04 -0.25472541354E+04  0.29622911444E+04  0.46999998093E+01 0.  1.
</event>
<event>
 5   0  0.6645526E-09  0.4000596E+04  0.7818609E-02  0.8004426E-01
        2   -1    0    0  501    0  0.00000000000E+00  0.00000000000E+00  0.14218897794E+04  0.14218897794E+04  0.25500000920E-02 0.  1.
       -2   -1    0    0    0  501  0.00000000000E+00  0.00000000000E+00 -0.28139959924E+04  0.28139959924E+04  0.25500000920E-02 0. -1.
    10030    2    1    2    0    0  0.00000000000E+00  0.00000000000E+00 -0.13921062130E+04  0.42358857718E+04  0.40005960261E+04 0.  0.
        3    1    3    3  502    0  0.15809600199E+04  0.12254058048E+04 -0.70849854696E+03  0.21220330281E+04  0.10100000352E+00 0.  1.
       -3    1    3    3    0  502 -0.15809600199E+04 -0.12254058048E+04 -0.68360766601E+03  0.21138527437E+04  0.10100000352E+00 0. -1.
</event>
<event>
 5   0  0.6645526E-09  0.3998515E+04  0.7818609E-02  0.8004846E-01
        2   -1    0    0  501    0  0.00000000000E+00  0.00000000000E+00  0.17110914761E+04  0.17110914761E+04  0.25500000920E-02 0.  1.
       -2   -1    0    0    0  501  0.00000000000E+00  0.00000000000E+00 -0.23359532795E+04  0.23359532795E+04  0.25500000920E-02 0. -1.
    10030    2    1    2    0    0  0.00000000000E+00  0.00000000000E+00 -0.62486180342E+03  0.40470447556E+04  0.39985145967E+04 0.  0.
        3    1    3    3  502    0 -0.12705779541E+04  0.34312455253E+03 -0.18356641829E+04  0.22587088787E+04  0.10100000352E+00 0. -1.
       -3    1    3    3    0  502  0.12705779541E+04 -0.34312455253E+03  0.12108023795E+04  0.17883358769E+04  0.10100000352E+00 0.  1.
</event>
<event>
 5   0  0.2078125E-09  0.3999939E+04  0.7818609E-02  0.8004559E-01
        1   -1    0    0  501    0  0.00000000000E+00  0.00000000000E+00  0.28979980953E+04  0.28979980953E+04  0.50400001928E-02 0. -1.
       -1   -1    0    0    0  501  0.00000000000E+00  0.00000000000E+00 -0.13802212616E+04  0.13802212616E+04  0.50400001928E-02 0.  1.
    10030    2    1    2    0    0  0.00000000000E+00  0.00000000000E+00  0.15177768337E+04  0.42782193570E+04  0.39999392932E+04 0.  0.
        2    1    3    3  502    0  0.17328463272E+04 -0.96502608785E+03  0.10333471966E+04  0.22364789677E+04  0.25500000920E-02 0. -1.
       -2    1    3    3    0  502 -0.17328463272E+04  0.96502608785E+03  0.48442963709E+03  0.20417403893E+04  0.25500000920E-02 0.  1.
</event>
<event>
 5   0  0.6538370E-09  0.4000784E+04  0.7818609E-02  0.8004388E-01
       -2   -1    0    0    0  501  0.00000000000E+00  0.00000000000E+00  0.14838642445E+04  0.14838642445E+04  0.25500000920E-02 0. -1.
        2   -1    0    0  501    0  0.00000000000E+00  0.00000000000E+00 -0.26967211111E+04  0.26967211111E+04  0.25500000920E-02 0.  1.
    10030    2    1    2    0    0  0.00000000000E+00  0.00000000000E+00 -0.12128568666E+04  0.41805853556E+04  0.40007839402E+04 0.  0.
        4    1    3    3  502    0 -0.10624735417E+04  0.16442241238E+04 -0.17654778064E+03  0.19655771997E+04  0.12699999809E+01 0. -1.
       -4    1    3    3    0  502  0.10624735417E+04 -0.16442241238E+04 -0.10363090859E+04  0.22150081559E+04  0.12699999809E+01 0.  1.
</event>
<event>
 5   0  0.2078125E-09  0.3999223E+04  0.7818609E-02  0.8004703E-01
       -1   -1    0    0    0  501  0.00000000000E+00  0.00000000000E+00  0.23943716604E+04  0.23943716604E+04  0.50400001928E-02 0. -1.
        1   -1    0    0  501    0  0.00000000000E+00  0.00000000000E+00 -0.16699354200E+04  0.16699354200E+04  0.50400001928E-02 0.  1.
    10030    2    1    2    0    0  0.00000000000E+00  0.00000000000E+00  0.72443624040E+03  0.40643070804E+04  0.39992229467E+04 0.  0.
        3    1    3    3  502    0  0.76896511190E+03 -0.39624685979E+03  0.21943683094E+04  0.23587223670E+04  0.10100000352E+00 0. -1.
       -3    1    3    3    0  502 -0.76896511190E+03  0.39624685979E+03 -0.14699320690E+04  0.17055847135E+04  0.10100000352E+00 0.  1.
</event>
<event>
 5   0  0.6645526E-09  0.4001767E+04  0.7818609E-02  0.8004190E-01
       -2   -1    0    0    0  501  0.00000000000E+00  0.00000000000E+00  0.23219603560E+04  0.23219603560E+04  0.25500000920E-02 0. -1.
        2   -1    0    0  501    0  0.00000000000E+00  0.00000000000E+00 -0.17242049295E+04  0.17242049295E+04  0.25500000920E-02 0.  1.
    10030    2    1    2    0    0  0.00000000000E+00  0.00000000000E+00  0.59775542649E+03  0.40461652855E+04  0.40017673555E+04 0.  0.
        3    1    3    3  502    0 -0.14978278322E+03 -0.60394438636E+03 -0.16238913122E+04  0.17390246427E+04  0.10100000352E+00 0.  1.
       -3    1    3    3    0  502  0.14978278322E+03  0.60394438636E+03  0.22216467387E+04  0.23071406428E+04  0.10100000352E+00 0. -1.
</event>
<event>
 5   0  0.2078125E-09  0.3999151E+04  0.7818609E-02  0.8004718E-01
        1   -1    0    0  501    0  0.00000000000E+00  0.00000000000E+00  0.18729665528E+04  0.18729665528E+04  0.50400001928E-02 0. -1.
       -1   -1    0    0    0  501  0.00000000000E+00  0.00000000000E+00 -0.21347427372E+04  0.21347427372E+04  0.50400001928E-02 0.  1.
    10030    2    1    2    0    0  0.00000000000E+00  0.00000000000E+00 -0.26177618439E+03  0.40077092900E+04  0.39991507827E+04 0.  0.
        1    1    3    3  502    0 -0.45128945250E+02  0.19224508104E+04  0.41841632960E+03  0.19679750926E+04  0.50400001928E-02 0. -1.
       -1    1    3    3    0  502  0.45128945250E+02 -0.19224508104E+04 -0.68019251399E+03  0.20397341974E+04  0.50400001928E-02 0.  1.
</event>
<event>
 5   0  0.6547327E-09  0.4000352E+04  0.7818609E-02  0.8004476E-01
       -2   -1    0    0    0  501  0.00000000000E+00  0.00000000000E+00  0.21457204643E+04  0.21457204643E+04  0.25500000920E-02 0.  1.
        2   -1    0    0  501    0  0.00000000000E+00  0.00000000000E+00 -0.18645036056E+04  0.18645036056E+04  0.25500000920E-02 0. -1.
    10030    2    1    2    0    0  0.00000000000E+00  0.00000000000E+00  0.28121685869E+03  0.40102240699E+04  0.40003517557E+04 0.  0.
        5    1    3    3  502    0 -0.10393801930E+04 -0.13186088340E+02 -0.15724670096E+04  0.18849826643E+04  0.46999998093E+01 0. -1.
       -5    1    3    3    0  502  0.10393801930E+04  0.13186088340E+02  0.18536838683E+04  0.21252414056E+04  0.46999998093E+01 0.  1.
</event>
<event>
 5   0  0.2078125E-09  0.3999566E+04  0.7818609E-02  0.8004634E-01
        1   -1    0    0  501    0  0.00000000000E+00  0.00000000000E+00  0.14104547233E+04  0.14104547233E+04  0.50400001928E-02 0.  1.
       -1   -1    0    0    0  501  0.00000000000E+00  0.00000000000E+00 -0.28353494470E+04  0.28353494470E+04  0.50400001928E-02 0. -1.
    10030    2    1    2    0    0  0.00000000000E+00  0.00000000000E+00 -0.14248947238E+04  0.42458041703E+04  0.39995659863E+04 0.  0.
        4    1    3    3  502    0  0.14140591838E+04  0.29370896196E+03  0.75593400357E+03  0.16301123153E+04  0.12699999809E+01 0.  1.
       -4    1    3    3    0  502 -0.14140591838E+04 -0.29370896196E+03 -0.21808287273E+04  0.26156918550E+04  0.12699999809E+01 0. -1.
</event>
<event>
 5   0  0.6599276E-09  0.4002719E+04  0.7818609E-02  0.8003998E-01
       -2   -1    0    0    0  501  0.00000000000E+00  0.00000000000E+00  0.14151464167E+04  0.14151464167E+04  0.25500000920E-02 0.  1.
        2   -1    0    0  501    0  0.00000000000E+00  0.00000000000E+00 -0.28304063391E+04  0.28304063391E+04  0.25500000920E-02 0. -1.
    10030    2    1    2    0    0  0.00000000000E+00  0.00000000000E+00 -0.14152599224E+04  0.42455527557E+04  0.40027187703E+04 0.  0.
        2    1    3    3  502    0 -0.11746065810E+04  0.15585662592E+04 -0.23732241390E+03  0.19659988129E+04  0.25500000920E-02 0. -1.
       -2    1    3    3    0  502  0.11746065810E+04 -0.15585662592E+04 -0.11779375085E+04  0.22795539428E+04  0.25500000920E-02 0.  1.
</event>
<event>
 5   0  0.6645526E-09  0.4000606E+04  0.7818609E-02  0.8004424E-01
       -2   -1    0    0    0  501  0.00000000000E+00  0.00000000000E+00  0.29957772338E+04  0.29957772338E+04  0.25500000920E-02 0.  1.
        2   -1    0    0  501    0  0.00000000000E+00  0.00000000000E+00 -0.13356174241E+04  0.13356174241E+04  0.25500000920E-02 0. -1.
    10030    2    1    2    0    0  0.00000000000E+00  0.00000000000E+00  0.16601598097E+04  0.43313946580E+04  0.40006060902E+04 0.  0.
        3    1    3    3  502    0 -0.13969207860E+04  0.74550489771E+03  0.21534584779E+04  0.26729288545E+04  0.10100000352E+00 0.  1.
       -3    1    3    3    0  502  0.13969207860E+04 -0.74550489771E+03 -0.49329866827E+03  0.16584658034E+04  0.10100000352E+00 0. -1.
</event>
<event>
 5   0  0.2078125E-09  0.3997046E+04  0.7818609E-02  0.8005143E-01
       -1   -1    0    0    0  501  0.00000000000E+00  0.00000000000E+00  0.22013598782E+04  0.22013598782E+04  0.50400001928E-02 0. -1.
        1   -1    0    0  501    0  0.00000000000E+00  0.00000000000E+00 -0.18143755425E+04  0.18143755425E+04  0.50400001928E-02 0.  1.
    10030    2    1    2    0    0  0.00000000000E+00  0.00000000000E+00  0.38698433571E+03  0.40157354208E+04  0.39970456707E+04 0.  0.
        5    1    3    3  502    0 -0.18149404300E+04  0.51659161434E+03  0.85474582326E+03  0.20715907349E+04  0.46999998093E+01 0. -1.
       -5    1    3    3    0  502  0.18149404300E+04 -0.51659161434E+03 -0.46776148755E+03  0.19441446859E+04  0.46999998093E+01 0.  1.
</event>
<event>
 5   0  0.6547327E-09  0.3998340E+04  0.7818609E-02  0.8004882E-01
        2   -1    0    0  501    0  0.00000000000E+00  0.00000000000E+00  0.18262562569E+04  0.18262562569E+04  0.25500000920E-02 0.  1.
       -2   -1    0    0    0  501  0.00000000000E+00  0.00000000000E+00 -0.21884552443E+04  0.21884552443E+04  0.25500000920E-02 0. -1.
    10030    2    1    2    0    0  0.00000000000E+00  0.00000000000E+00 -0.36219898736E+03  0.40147115012E+04  0.39983396969E+04 0.  0.
        5    1    3    3  502    0  0.64732966966E+03 -0.66857631935E+03 -0.19577024717E+04  0.21676372053E+04  0.46999998093E+01 0. -1.
       -5    1    3    3    0  502 -0.64732966966E+03  0.66857631935E+03  0.15955034844E+04  0.18470742959E+04  0.46999998093E+01 0.  1.
</event>
<event>
 5   0  0.6538370E-09  0.3999914E+04  0.7818609E-02  0.8004564E-01
       -2   -1    0    0    0  501  0.00000000000E+00  0.00000000000E+00  0.12452865201E+04  0.12452865201E+04  0.25500000920E-02 0.  1.
        2   -1    0    0  501    0  0.00000000000E+00  0.00000000000E+00 -0.32119733472E+04  0.32119733472E+04  0.25500000920E-02 0. -1.
    10030    2    1    2    0    0  0.00000000000E+00  0.00000000000E+00 -0.19666868271E+04  0.44572598673E+04  0.39999135552E+04 0.  0.
        4    1    3    3  502    0  0.81979935882E+03  0.13435257220E+04  0.39172259261E+03  0.16219064575E+04  0.12699999809E+01 0.  1.
       -4    1    3    3    0  502 -0.81979935882E+03 -0.13435257220E+04 -0.23584094197E+04  0.28353534098E+04  0.12699999809E+01 0. -1.
</event>
<event>
 5   0  0.6599276E-09  0.3999642E+04  0.7818609E-02  0.8004619E-01
       -2   -1    0    0    0  501  0.00000000000E+00  0.00000000000E+00  0.21305187035E+04  0.21305187035E+04  0.25500000920E-02 0. -1.
        2   -1    0    0  501    0  0.00000000000E+00  0.00000000000E+00 -0.18771408725E+04  0.18771408725E+04  0.25500000920E-02 0.  1.
    10030    2    1    2    0    0  0.00000000000E+00  0.00000000000E+00  0.25337783102E+03  0.40076595761E+04  0.39996418530E+04 0.  0.
        2    1    3    3  502    0  0.15455934660E+04  0.12225172359E+04 -0.21439937611E+03  0.19822650294E+04  0.25500000920E-02 0.  1.
       -2    1    3    3    0  502 -0.15455934660E+04 -0.12225172359E+04  0.46777720713E+03  0.20253945467E+04  0.25500000920E-02 0. -1.
</event>
<event>
 5   0  0.2078125E-09  0.4001199E+04  0.7818609E-02  0.8004305E-01
        1   -1    0    0  501    0  0.00000000000E+00  0.00000000000E+00  0.12048974923E+04  0.12048974923E+04  0.50400001928E-02 0. -1.
       -1   -1    0    0    0  501  0.00000000000E+00  0.00000000000E+00 -0.33217749379E+04  0.33217749379E+04  0.50400001928E-02 0.  1.
    10030    2    1    2    0    0  0.00000000000E+00  0.00000000000E+00 -0.21168774456E+04  0.45266724302E+04  0.40011989667E+04 0.  0.
        2    1    3    3  502    0 -0.92945092925E+03 -0.70221688559E+03  0.78163606091E+03  0.14028337450E+04  0.25500000920E-02 0. -1.
       -2    1    3    3    0  502  0.92945092925E+03  0.70221688559E+03 -0.28985135065E+04  0.31238386853E+04  0.25500000920E-02 0.  1.
</event>
<event>
 5   0  0.6599276E-09  0.3998630E+04  0.7818609E-02  0.8004823E-01
        2   -1    0    0  501    0  0.00000000000E+00  0.00000000000E+00  0.19278310630E+04  0.19278310630E+04  0.25500000920E-02 0. -1.
       -2   -1    0    0    0  501  0.00000000000E+00  0.00000000000E+00 -0.20734492509E+04  0.20734492509E+04  0.25500000920E-02 0.  1.
    10030    2    1    2    0    0  0.00000000000E+00  0.00000000000E+00 -0.14561818788E+03  0.40012803140E+04  0.39986297021E+04 0.  0.
        2    1    3    3  502    0  0.14857186814E+04  0.59020621633E+03 -0.12742533444E+04  0.20443641955E+04  0.25500000920E-02 0.  1.
       -2    1    3    3    0  502 -0.14857186814E+04 -0.59020621633E+03  0.11286351566E+04  0.19569161185E+04  0.25500000920E-02 0. -1.
</event>
<event>
 5   0  0.6547327E-09  0.3999383E+04  0.7818609E-02  0.8004671E-01
       -2   -1    0    0    0  501  0.00000000000E+00  0.00000000000E+00  0.14276296106E+04  0.14276296106E+04  0.25500000920E-02 0.  1.
        2   -1    0    0  501    0  0.00000000000E+00  0.00000000000E+00 -0.28009824036E+04  0.28009824036E+04  0.25500000920E-02 0. -1.
    10030    2    1    2    0    0  0.00000000000E+00  0.00000000000E+00 -0.13733527929E+04  0.42286120142E+04  0.39993826615E+04 0.  0.
        5    1    3    3  502    0  0.18639765936E+04 -0.35883272876E+03 -0.21681116898E+02  0.18983313276E+04  0.46999998093E+01 0.  1.
       -5    1    3    3    0  502 -0.18639765936E+04  0.35883272876E+03 -0.13516716760E+04  0.23302806866E+04  0.46999998093E+01 0. -1.
</event>
<event>
 5   0  0.6538370E-09  0.3998251E+04  0.7818609E-02  0.8004899E-01
       -2   -1    0    0    0  501  0.00000000000E+00  0.00000000000E+00  0.23154367130E+04  0.23154367130E+04  0.25500000920E-02 0. -1.
        2   -1    0    0  501    0  0.00000000000E+00  0.00000000000E+00 -0.17260257782E+04  0.17260257782E+04  0.25500000920E-02 0.  1.
    10030    2    1    2    0    0  0.00000000000E+00  0.00000000000E+00  0.58941093477E+03  0.40414624911E+04  0.39982513449E+04 0.  0.
        4    1    3    3  502    0 -0.13452520708E+04 -0.11602141670E+04 -0.63210183624E+03  0.18855647408E+04  0.12699999809E+01 0.  1.
       -4    1    3    3    0  502  0.13452520708E+04  0.11602141670E+04  0.12215127710E+04  0.21558977504E+04  0.12699999809E+01 0. -1.
</event>
<event>
 5   0  0.6599276E-09  0.4002894E+04  0.7818609E-02  0.8003963E-01
        2   -1    0    0  501    0  0.00000000000E+00  0.00000000000E+00  0.19695468544E+04  0.19695468544E+04  0.25500000920E-02 0. -1.
       -2   -1    0    0    0  501  0.00000000000E+00  0.00000000000E+00 -0.20338642083E+04  0.20338642083E+04  0.25500000920E-02 0.  1.
    10030    2    1    2    0    0  0.00000000000E+00  0.00000000000E+00 -0.64317353869E+02  0.40034110627E+04  0.40028943796E+04 0.  0.
        2    1    3    3  502    0 -0.34884528097E+03 -0.16757029021E+04  0.10053361087E+04  0.19850375154E+04  0.25500000920E-02 0. -1.
       -2    1    3    3    0  502  0.34884528097E+03  0.16757029021E+04 -0.10696534626E+04  0.20183735472E+04  0.25500000920E-02 0.  1.
</event>
<event>
 5   0  0.6547327E-09  0.4001271E+04  0.7818609E-02  0.8004290E-01
       -2   -1    0    0    0  501  0.00000000000E+00  0.00000000000E+00  0.17107255825E+04  0.17107255825E+04  0.25500000920E-02 0.  1.
        2   -1    0    0  501    0  0.00000000000E+00  0.00000000000E+00 -0.23396757403E+04  0.23396757403E+04  0.25500000920E-02 0. -1.
    10030    2    1    2    0    0  0.00000000000E+00  0.00000000000E+00 -0.62895015773E+03  0.40504013228E+04  0.40012713698E+04 0.  0.
        5    1    3    3  502    0 -0.41575019216E+03 -0.12113314422E+04  0.12413905107E+04  0.17836043775E+04  0.46999998093E+01 0.  1.
       -5    1    3    3    0  502  0.41575019216E+03  0.12113314422E+04 -0.18703406685E+04  0.22667969453E+04  0.46999998093E+01 0. -1.
</event>
<event>
 5   0  0.2078125E-09  0.4000599E+04  0.7818609E-02  0.8004426E-01
       -1   -1    0    0    0  501  0.00000000000E+00  0.00000000000E+00  0.20756380036E+04  0.20756380036E+04  0.50400001928E-02 0. -1.
        1   -1    0    0  501    0  0.00000000000E+00  0.00000000000E+00 -0.19276955406E+04  0.19276955406E+04  0.50400001928E-02 0.  1.
    10030    2    1    2    0    0  0.00000000000E+00  0.00000000000E+00  0.14794246301E+03  0.40033335441E+04  0.40005990168E+04 0.  0.
        1    1    3    3  502    0 -0.12994696207E+02  0.15023138054E+04  0.13955110794E+04  0.20505040368E+04  0.50400001928E-02 0. -1.
       -1    1    3    3    0  502  0.12994696207E+02 -0.15023138054E+04 -0.12475686164E+04  0.19528295073E+04  0.50400001928E-02 0.  1.
</event>
<event>
 5   0  0.6645526E-09  0.3999075E+04  0.7818609E-02  0.8004733E-01
        2   -1    0    0  501    0  0.00000000000E+00  0.00000000000E+00  0.25048287103E+04  0.25048287103E+04  0.25500000920E-02 0. -1.
       -2   -1    0    0    0  501  0.00000000000E+00  0.00000000000E+00 -0.15961773231E+04  0.15961773231E+04  0.25500000920E-02 0.  1.
    10030    2    1    2    0    0  0.00000000000E+00  0.00000000000E+00  0.90865138714E+03  0.41010060334E+04  0.39990752860E+04 0.  0.
        3    1    3    3  502    0  0.13369938112E+04 -0.10749699067E+04  0.15076567378E+04  0.22838873879E+04  0.10100000352E+00 0. -1.
       -3    1    3    3    0  502 -0.13369938112E+04  0.10749699067E+04 -0.59900535064E+03  0.18171186455E+04  0.10100000352E+00 0.  1.
</event>
<event>
 5   0  0.2078125E-09  0.4001472E+04  0.7818609E-02  0.8004250E-01
       -1   -1    0    0    0  501  0.00000000000E+00  0.00000000000E+00  0.20255414724E+04  0.20255414724E+04  0.50400001928E-02 0. -1.
        1   -1    0    0  501    0  0.00000000000E+00  0.00000000000E+00 -0.19762346442E+04  0.19762346442E+04  0.50400001928E-02 0.  1.
    10030    2    1    2    0    0  0.00000000000E+00  0.00000000000E+00  0.49306828231E+02  0.40017761166E+04  0.40014723445E+04 0.  0.
        1    1    3    3  502    0 -0.10948013825E+04  0.12568834390E+03  0.16946776676E+04  0.20214648214E+04  0.50400001928E-02 0. -1.
       -1    1    3    3    0  502  0.10948013825E+04 -0.12568834390E+03 -0.16453708394E+04  0.19803112952E+04  0.50400001928E-02 0.  1.
</event>
<event>
 5   0  0.6599276E-09  0.4001263E+04  0.7818609E-02  0.8004292E-01
       -2   -1    0    0    0  501  0.00000000000E+00  0.00000000000E+00  0.25944292479E+04  0.25944292479E+04  0.25500000920E-02 0.  1.
        2   -1    0    0  501    0  0.00000000000E+00  0.00000000000E+00 -0.15427385467E+04  0.15427385467E+04  0.25500000920E-02 0. -1.
    10030    2    1    2    0    0  0.00000000000E+00  0.00000000000E+00  0.10516907012E+04  0.41371677947E+04  0.40012628044E+04 0.  0.
        2    1    3    3  502    0 -0.87424724269E+03  0.41993272024E+02  0.23859646552E+04  0.25414364073E+04  0.25500000920E-02 0.  1.
       -2    1    3    3    0  502  0.87424724269E+03 -0.41993272024E+02 -0.13342739540E+04  0.15957313874E+04  0.25500000920E-02 0. -1.
</event>
<event>
 5   0  0.6547327E-09  0.4001241E+04  0.7818609E-02  0.8004296E-01
       -2   -1    0    0    0  501  0.00000000000E+00  0.00000000000E+00  0.22666261708E+04  0.22666261708E+04  0.25500000920E-02 0. -1.
        2   -1    0    0  501    0  0.00000000000E+00  0.00000000000E+00 -0.17658325015E+04  0.17658325015E+04  0.25500000920E-02 0.  1.
    10030    2    1    2    0    0  0.00000000000E+00  0.00000000000E+00  0.50079366930E+03  0.40324586723E+04  0.40012408881E+04 0.  0.
        5    1    3    3  502    0 -0.12633149911E+03 -0.32878094150E+03  0.22351281536E+04  0.22627144115E+04  0.46999998093E+01 0. -1.
       -5    1    3    3    0  502  0.12633149911E+03  0.32878094150E+03 -0.17343344843E+04  0.17697442608E+04  0.46999998093E+01 0.  1.
</event>
<event>
 5   0  0.2078125E-09  0.3998940E+04  0.7818609E-02  0.8004760E-01
        1   -1    0    0  501    0  0.00000000000E+00  0.00000000000E+00  0.18775083662E+04  0.18775083662E+04  0.50400001928E-02 0.  1.
       -1   -1    0    0    0  501  0.00000000000E+00  0.00000000000E+00 -0.21293545381E+04  0.21293545381E+04  0.50400001928E-02 0. -1.
    10030    2    1    2    0    0  0.00000000000E+00  0.00000000000E+00 -0.25184617191E+03  0.40068629044E+04  0.39989403396E+04 0.  0.
        3    1    3    3  502    0 -0.74169296452E+02 -0.17523893014E+04  0.83593270029E+03  0.19429752540E+04  0.10100000352E+00 0.  1.
       -3    1    3    3    0  502  0.74169296452E+02  0.17523893014E+04 -0.10877788722E+04  0.20638876503E+04  0.10100000352E+00 0. -1.
</event>
<event>
 5   0  0.2078125E-09  0.3999209E+04  0.7818609E-02  0.8004706E-01
       -1   -1    0    0    0  501  0.00000000000E+00  0.00000000000E+00  0.16064773926E+04  0.16064773926E+04  0.50400001928E-02 0.  1.
        1   -1    0    0  501    0  0.00000000000E+00  0.00000000000E+00 -0.24889356122E+04  0.24889356122E+04  0.50400001928E-02 0. -1.
    10030    2    1    2    0    0  0.00000000000E+00  0.00000000000E+00 -0.88245821961E+03  0.40954130049E+04  0.39992093183E+04 0.  0.
        1    1    3    3  502    0 -0.16632830449E+04  0.10542305865E+04 -0.85738428000E+02  0.19711072257E+04  0.50400001928E-02 0.  1.
       -1    1    3    3    0  502  0.16632830449E+04 -0.10542305865E+04 -0.79671979161E+03  0.21243057792E+04  0.50400001928E-02 0. -1.
</event>
<event>
 5   0  0.2078125E-09  0.3998840E+04  0.7818609E-02  0.8004781E-01
        1   -1    0    0  501    0  0.00000000000E+00  0.00000000000E+00  0.26143895318E+04  0.26143895318E+04  0.50400001928E-02 0. -1.
       -1   -1    0    0    0  501  0.00000000000E+00  0.00000000000E+00 -0.15291067737E+04  0.15291067737E+04  0.50400001928E-02 0.  1.
    10030    2    1    2    0    0  0.00000000000E+00  0.00000000000E+00  0.10852827581E+04  0.41434963055E+04  0.39988402029E+04 0.  0.
        5    1    3    3  502    0  0.62869640487E+03  0.18978082176E+04  0.51477132904E+03  0.20644483068E+04  0.46999998093E+01 0. -1.
       -5    1    3    3    0  502 -0.62869640487E+03 -0.18978082176E+04  0.57051142907E+03  0.20790479987E+04  0.46999998093E+01 0.  1.
</event>
<event>
 5   0  0.2078125E-09  0.4005639E+04  0.7818609E-02  0.8003410E-01
       -1   -1    0    0    0  501  0.00000000000E+00  0.00000000000E+00  0.15309085423E+04  0.15309085424E+04  0.50400001928E-02 0. -1.
        1   -1    0    0  501    0  0.00000000000E+00  0.00000000000E+00 -0.26202002220E+04  0.26202002220E+04  0.50400001928E-02 0.  1.
    10030    2    1    2    0    0  0.00000000000E+00  0.00000000000E+00 -0.10892916796E+04  0.41511087643E+04  0.40056394758E+04 0.  0.
        3    1    3    3  502    0 -0.63394709235E+03  0.64368960149E+03  0.13077418108E+04  0.15894696829E+04  0.10100000352E+00 0. -1.
       -3    1    3    3    0  502  0.63394709235E+03 -0.64368960149E+03 -0.23970334904E+04  0.25616390814E+04  0.10100000352E+00 0.  1.
</event>
<event>
 5   0  0.6547327E-09  0.4000895E+04  0.7818609E-02  0.8004366E-01
       -2   -1    0    0    0  501  0.00000000000E+00  0.00000000000E+00  0.32476331071E+04  0.32476331071E+04  0.25500000920E-02 0. -1.
        2   -1    0    0  501    0  0.00000000000E+00  0.00000000000E+00 -0.12322177169E+04  0.12322177169E+04  0.25500000920E-02 0.  1.
    10030    2    1    2    0    0  0.00000000000E+00  0.00000000000E+00  0.20154153902E+04  0.44798508239E+04  0.40008954260E+04 0.  0.
        5    1    3    3  502    0  0.16694061756E+04 -0.51941207041E+03 -0.80813154709E+02  0.17502167678E+04  0.46999998093E+01 0.  1.
       -5    1    3    3    0  502 -0.16694061756E+04  0.51941207041E+03  0.20962285449E+04  0.27296340562E+04  0.46999998093E+01 0. -1.
</event>
<event>
 5   0  0.6547327E-09  0.4006188E+04  0.7818609E-02  0.8003299E-01
        2   -1    0    0  501    0  0.00000000000E+00  0.00000000000E+00  0.27636066984E+04  0.27636066984E+04  0.25500000920E-02 0.  1.
       -2   -1    0    0    0  501  0.00000000000E+00  0.00000000000E+00 -0.14518653159E+04  0.14518653159E+04  0.25500000920E-02 0. -1.
    10030    2    1    2    0    0  0.00000000000E+00  0.00000000000E+00  0.13117413825E+04  0.42154720143E+04  0.40061875703E+04 0.  0.
        5    1    3    3  502    0  0.12639598940E+04  0.10938033460E+04 -0.50558634185E+03  0.17463218525E+04  0.46999998093E+01 0. -1.
       -5    1    3    3    0  502 -0.12639598940E+04 -0.10938033460E+04  0.18173277243E+04  0.24691501617E+04  0.46999998093E+01 0.  1.
</event>
<event>
 5   0  0.2078125E-09  0.4001521E+04  0.7818609E-02  0.8004240E-01
        1   -1    0    0  501    0  0.00000000000E+00  0.00000000000E+00  0.19099197217E+04  0.19099197217E+04  0.50400001928E-02 0. -1.
       -1   -1    0    0    0  501  0.00000000000E+00  0.00000000000E+00 -0.20959217886E+04  0.20959217886E+04  0.50400001928E-02 0.  1.
    10030    2    1    2    0    0  0.00000000000E+00  0.00000000000E+00 -0.18600206698E+03  0.40058415103E+04  0.40015208905E+04 0.  0.
        1    1    3    3  502    0 -0.97611861978E+03 -0.15464716634E+04  0.71945409185E+03  0.19651962640E+04  0.50400001928E-02 0. -1.
       -1    1    3    3    0  502  0.97611861978E+03  0.15464716634E+04 -0.90545615884E+03  0.20406452463E+04  0.50400001928E-02 0.  1.
</event>
<event>
 5   0  0.2078125E-09  0.4001272E+04  0.7818609E-02  0.8004290E-01
        3   -1    0    0  501    0  0.00000000000E+00  0.00000000000E+00  0.27738970691E+04  0.27738970709E+04  0.10100000352E+00 0. -1.
       -3   -1    0    0    0  501  0.00000000000E+00  0.00000000000E+00 -0.14429316724E+04  0.14429316759E+04  0.10100000352E+00 0.  1.
    10030    2    1    2    0    0  0.00000000000E+00  0.00000000000E+00  0.13309653967E+04  0.42168287469E+04  0.40012717720E+04 0.  0.
        5    1    3    3  502    0  0.36452594038E+03  0.18445054067E+04 -0.55047209634E+02  0.18809921962E+04  0.46999998093E+01 0.  1.
       -5    1    3    3    0  502 -0.36452594038E+03 -0.18445054067E+04  0.13860126063E+04  0.23358365507E+04  0.46999998093E+01 0. -1.
</event>
<event>
 5   0  0.6645526E-09  0.4001195E+04  0.7818609E-02  0.8004306E-01
       -2   -1    0    0    0  501  0.00000000000E+00  0.00000000000E+00  0.14900963303E+04  0.14900963303E+04  0.25500000920E-02 0.  1.
        2   -1    0    0  501    0  0.00000000000E+00  0.00000000000E+00 -0.26859938084E+04  0.26859938084E+04  0.25500000920E-02 0. -1.
    10030    2    1    2    0    0  0.00000000000E+00  0.00000000000E+00 -0.11958974781E+04  0.41760901387E+04  0.40011945802E+04 0.  0.
        3    1    3    3  502    0 -0.78545518201E+01 -0.12479523444E+04  0.10340301639E+04  0.16206989658E+04  0.10100000352E+00 0.  1.
       -3    1    3    3    0  502  0.78545518201E+01  0.12479523444E+04 -0.22299276420E+04  0.25553911729E+04  0.10100000352E+00 0. -1.
</event>
<event>
 5   0  0.6547327E-09  0.4003258E+04  0.7818609E-02  0.8003890E-01
       -2   -1    0    0    0  501  0.00000000000E+00  0.00000000000E+00  0.18105028615E+04  0.18105028615E+04  0.25500000920E-02 0.  1.
        2   -1    0    0  501    0  0.00000000000E+00  0.00000000000E+00 -0.22129313126E+04  0.22129313126E+04  0.25500000920E-02 0. -1.
    10030    2    1    2    0    0  0.00000000000E+00  0.00000000000E+00 -0.40242845110E+03  0.40234341741E+04  0.40032579101E+04 0.  0.
        5    1    3    3  502    0  0.47663203577E+03  0.21011076894E+03  0.17411855452E+04  0.18174360581E+04  0.46999998093E+01 0.  1.
       -5    1    3    3    0  502 -0.47663203577E+03 -0.21011076894E+03 -0.21436139963E+04  0.22059981160E+04  0.46999998093E+01 0. -1.
</event>
<event>
 5   0  0.6538370E-09  0.4001489E+04  0.7818609E-02  0.8004246E-01
       -2   -1    0    0    0  501  0.00000000000E+00  0.00000000000E+00  0.18945472730E+04  0.18945472730E+04  0.25500000920E-02 0.  1.
        2   -1    0    0  501    0  0.00000000000E+00  0.00000000000E+00 -0.21128946533E+04  0.21128946533E+04  0.25500000920E-02 0. -1.
    10030    2    1    2    0    0  0.00000000000E+00  0.00000000000E+00 -0.21834738032E+03  0.40074419264E+04  0.40014891246E+04 0.  0.
        4    1    3    3  502    0 -0.19544619827E+04 -0.87221073767E+02  0.31031460605E+03  0.19808649437E+04  0.12699999809E+01 0.  1.
       -4    1    3    3    0  502  0.19544619827E+04  0.87221073767E+02 -0.52866198637E+03  0.20265769826E+04  0.12699999809E+01 0. -1.
</event>
<event>
 5   0  0.2078125E-09  0.3999016E+04  0.7818609E-02  0.8004745E-01
        1   -1    0    0  501    0  0.00000000000E+00  0.00000000000E+00  0.16216712731E+04  0.16216712732E+04  0.50400001928E-02 0. -1.
       -1   -1    0    0    0  501  0.00000000000E+00  0.00000000000E+00 -0.24653773347E+04  0.24653773347E+04  0.50400001928E-02 0.  1.
    10030    2    1    2    0    0  0.00000000000E+00  0.00000000000E+00 -0.84370606151E+03  0.40870486078E+04  0.39990156794E+04 0.  0.
        3    1    3    3  502    0 -0.40068229579E+03 -0.18925215857E+04  0.95095310230E+02  0.19368085560E+04  0.10100000352E+00 0. -1.
       -3    1    3    3    0  502  0.40068229579E+03  0.18925215857E+04 -0.93880137174E+03  0.21502400518E+04  0.10100000352E+00 0.  1.
</event>
<event>
 5   0  0.2078125E-09  0.4001413E+04  0.7818609E-02  0.8004262E-01
        1   -1    0    0  501    0  0.00000000000E+00  0.00000000000E+00  0.30938820287E+04  0.30938820287E+04  0.50400001928E-02 0.  1.
       -1   -1    0    0    0  501  0.00000000000E+00  0.00000000000E+00 -0.12937877033E+04  0.12937877033E+04  0.50400001928E-02 0. -1.
    10030    2    1    2    0    0  0.00000000000E+00  0.00000000000E+00  0.18000943254E+04  0.43876697321E+04  0.40014130126E+04 0.  0.
        4    1    3    3  502    0  0.40773117275E+03  0.12709188598E+04  0.25343351992E+04  0.28643212062E+04  0.12699999809E+01 0.  1.
       -4    1    3    3    0  502 -0.40773117275E+03 -0.12709188598E+04 -0.73424087384E+03  0.15233485258E+04  0.12699999809E+01 0. -1.
</event>
<event>
 5   0  0.2078125E-09  0.3997127E+04  0.7818609E-02  0.8005126E-01
       -1   -1    0    0    0  501  0.00000000000E+00  0.00000000000E+00  0.17316261638E+04  0.17316261638E+04  0.50400001928E-02 0.  1.
        1   -1    0    0  501    0  0.00000000000E+00  0.00000000000E+00 -0.23066503077E+04  0.23066503078E+04  0.50400001928E-02 0. -1.
    10030    2    1    2    0    0  0.00000000000E+00  0.00000000000E+00 -0.57502414399E+03  0.40382764715E+04  0.39971269800E+04 0.  0.
        4    1    3    3  502    0  0.11286356699E+03 -0.63678404139E+03  0.16229930809E+04  0.17470948039E+04  0.12699999809E+01 0.  1.
       -4    1    3    3    0  502 -0.11286356699E+03  0.63678404139E+03 -0.21980172249E+04  0.22911816676E+04  0.12699999809E+01 0. -1.
</event>
<event>
 5   0  0.2078125E-09  0.3999555E+04  0.7818609E-02  0.8004636E-01
        1   -1    0    0  501    0  0.00000000000E+00  0.00000000000E+00  0.21193380412E+04  0.21193380412E+04  0.50400001928E-02 0.  1.
       -1   -1    0    0    0  501  0.00000000000E+00  0.00000000000E+00 -0.18869620060E+04  0.18869620060E+04  0.50400001928E-02 0. -1.
    10030    2    1    2    0    0  0.00000000000E+00  0.00000000000E+00  0.23237603516E+03  0.40063000472E+04  0.39995551560E+04 0.  0.
        4    1    3    3  502    0 -0.12868937400E+04 -0.13107266063E+04  0.90809636764E+03  0.20490828095E+04  0.12699999809E+01 0.  1.
       -4    1    3    3    0  502  0.12868937400E+04  0.13107266063E+04 -0.67572033248E+03  0.19572172376E+04  0.12699999809E+01 0. -1.
</event>
<event>
 5   0  0.2078125E-09  0.3991721E+04  0.7818609E-02  0.8006219E-01
        1   -1    0    0  501    0  0.00000000000E+00  0.00000000000E+00  0.13918474085E+04  0.13918474085E+04  0.50400001928E-02 0. -1.
       -1   -1    0    0    0  501  0.00000000000E+00  0.00000000000E+00 -0.28619945250E+04  0.28619945250E+04  0.50400001928E-02 0.  1.
    10030    2    1    2    0    0  0.00000000000E+00  0.00000000000E+00 -0.14701471165E+04  0.42538419336E+04  0.39917212643E+04 0.  0.
        1    1    3    3  502    0  0.19919202256E+04 -0.18065197196E+02 -0.60288316317E+03  0.20812353651E+04  0.50400001928E-02 0.  1.
       -1    1    3    3    0  502 -0.19919202256E+04  0.18065197196E+02 -0.86726395334E+03  0.21726065685E+04  0.50400001928E-02 0. -1.
</event>
<event>
 5   0  0.2078125E-09  0.3999215E+04  0.7818609E-02  0.8004705E-01
       -1   -1    0    0    0  501  0.00000000000E+00  0.00000000000E+00  0.12928804360E+04  0.12928804360E+04  0.50400001928E-02 0. -1.
        1   -1    0    0  501    0  0.00000000000E+00  0.00000000000E+00 -0.30926521440E+04  0.30926521440E+04  0.50400001928E-02 0.  1.
    10030    2    1    2    0    0  0.00000000000E+00  0.00000000000E+00 -0.17997717080E+04  0.43855325801E+04  0.39992146492E+04 0.  0.
        5    1    3    3  502    0 -0.16925059444E+04 -0.23839357615E+03  0.23814851143E+03  0.17257301853E+04  0.46999998093E+01 0. -1.
       -5    1    3    3    0  502  0.16925059444E+04  0.23839357615E+03 -0.20379202194E+04  0.26598023948E+04  0.46999998093E+01 0.  1.
</event>
<event>
 5   0  0.6538370E-09  0.3999671E+04  0.7818609E-02  0.8004613E-01
       -2   -1    0    0    0  501  0.00000000000E+00  0.00000000000E+00  0.16405571089E+04  0.16405571089E+04  0.25500000920E-02 0. -1.
        2   -1    0    0  501    0  0.00000000000E+00  0.00000000000E+00 -0.24377953574E+04  0.24377953574E+04  0.25500000920E-02 0.  1.
    10030    2    1    2    0    0  0.00000000000E+00  0.00000000000E+00 -0.79723824852E+03  0.40783524663E+04  0.39996712383E+04 0.  0.
        4    1    3    3  502    0 -0.17101652035E+04 -0.87489190165E+02 -0.14519069110E+04  0.22450734226E+04  0.12699999809E+01 0.  1.
       -4    1    3    3    0  502  0.17101652035E+04  0.87489190165E+02  0.65466866248E+03  0.18332790437E+04  0.12699999809E+01 0. -1.
</event>
<event>
 5   0  0.2078125E-09  0.4001045E+04  0.7818609E-02  0.8004336E-01
       -3   -1    0    0    0  501  0.00000000000E+00  0.00000000000E+00  0.28249323169E+04  0.28249323187E+04  0.10100000352E+00 0. -1.
        3   -1    0    0  501    0  0.00000000000E+00  0.00000000000E+00 -0.14167032778E+04  0.14167032814E+04  0.10100000352E+00 0.  1.
    10030    2    1    2    0    0  0.00000000000E+00  0.00000000000E+00  0.14082290390E+04  0.42416356001E+04  0.40010453056E+04 0.  0.
        5    1    3    3  502    0  0.81897108103E+03 -0.82443076818E+02  0.26370923054E+04  0.27625691683E+04  0.46999998093E+01 0. -1.
       -5    1    3    3    0  502 -0.81897108103E+03  0.82443076818E+02 -0.12288632663E+04  0.14790664319E+04  0.46999998093E+01 0.  1.
</event>
<event>
 5   0  0.6538370E-09  0.4001084E+04  0.7818609E-02  0.8004328E-01
        2   -1    0    0  501    0  0.00000000000E+00  0.00000000000E+00  0.22367866155E+04  0.22367866155E+04  0.25500000920E-02 0. -1.
       -2   -1    0    0    0  501  0.00000000000E+00  0.00000000000E+00 -0.17892492905E+04  0.17892492905E+04  0.25500000920E-02 0.  1.
    10030    2    1    2    0    0  0.00000000000E+00  0.00000000000E+00  0.44753732496E+03  0.40260359060E+04  0.40010842855E+04 0.  0.
        4    1    3    3  502    0  0.11185301137E+03  0.78428646069E+03  0.20722196325E+04  0.22184932199E+04  0.12699999809E+01 0. -1.
       -4    1    3    3    0  502 -0.11185301137E+03 -0.78428646069E+03 -0.16246823076E+04  0.18075426861E+04  0.12699999809E+01 0.  1.
</event>
<event>
 5   0  0.2078125E-09  0.3995247E+04  0.7818609E-02  0.8005506E-01
        1   -1    0    0  501    0  0.00000000000E+00  0.00000000000E+00  0.14578634774E+04  0.14578634774E+04  0.50400001928E-02 0. -1.
       -1   -1    0    0    0  501  0.00000000000E+00  0.00000000000E+00 -0.27372244327E+04  0.27372244327E+04  0.50400001928E-02 0.  1.
    10030    2    1    2    0    0  0.00000000000E+00  0.00000000000E+00 -0.12793609553E+04  0.41950879100E+04  0.39952469409E+04 0.  0.
        1    1    3    3  502    0 -0.10490965818E+04 -0.94866565509E+03  0.84152827291E+03  0.16458250202E+04  0.50400001928E-02 0. -1.
       -1    1    3    3    0  502  0.10490965818E+04  0.94866565509E+03 -0.21208892282E+04  0.25492628898E+04  0.50400001928E-02 0.  1.
</event>
<event>
 5   0  0.6736335E-09  0.3991709E+04  0.7818609E-02  0.8006221E-01
       -2   -1    0    0    0  501  0.00000000000E+00  0.00000000000E+00  0.26993520017E+04  0.26993520017E+04  0.25500000920E-02 0. -1.
        2   -1    0    0  501    0  0.00000000000E+00  0.00000000000E+00 -0.14757006904E+04  0.14757006904E+04  0.25500000920E-02 0.  1.
    10030    2    1    2    0    0  0.00000000000E+00  0.00000000000E+00  0.12236513113E+04  0.41750526921E+04  0.39917092142E+04 0.  0.
        1    1    3    3  502    0  0.15458034710E+04 -0.11929513102E+03  0.19264141042E+04  0.24728143885E+04  0.50400001928E-02 0. -1.
       -1    1    3    3    0  502 -0.15458034710E+04  0.11929513102E+03 -0.70276279289E+03  0.17022383036E+04  0.50400001928E-02 0.  1.
</event>
<event>
 5   0  0.2078125E-09  0.4006186E+04  0.7818609E-02  0.8003300E-01
       -1   -1    0    0    0  501  0.00000000000E+00  0.00000000000E+00  0.19693632884E+04  0.19693632884E+04  0.50400001928E-02 0.  1.
        1   -1    0    0  501    0  0.00000000000E+00  0.00000000000E+00 -0.20374004037E+04  0.20374004037E+04  0.50400001928E-02 0. -1.
    10030    2    1    2    0    0  0.00000000000E+00  0.00000000000E+00 -0.68037115270E+02  0.40067636921E+04  0.40061859961E+04 0.  0.
        3    1    3    3  502    0  0.85426919178E+03  0.37100489971E+03  0.17396409755E+04  0.19732641033E+04  0.10100000352E+00 0.  1.
       -3    1    3    3    0  502 -0.85426919178E+03 -0.37100489971E+03 -0.18076780907E+04  0.20334995888E+04  0.10100000352E+00 0. -1.
</event>
<event>
 5   0  0.6599276E-09  0.4014799E+04  0.7818609E-02  0.8001568E-01
        2   -1    0    0  501    0  0.00000000000E+00  0.00000000000E+00  0.19197887918E+04  0.19197887918E+04  0.25500000920E-02 0. -1.
       -2   -1    0    0    0  501  0.00000000000E+00  0.00000000000E+00 -0.20990080975E+04  0.20990080975E+04  0.25500000920E-02 0.  1.
    10030    2    1    2    0    0  0.00000000000E+00  0.00000000000E+00 -0.17921930570E+03  0.40187968893E+04  0.40147987344E+04 0.  0.
        2    1    3    3  502    0  0.16474900609E+04  0.11397240826E+04 -0.21802511000E+03  0.20151251658E+04  0.25500000920E-02 0. -1.
       -2    1    3    3    0  502 -0.16474900609E+04 -0.11397240826E+04  0.38805804304E+02  0.20036717235E+04  0.25500000920E-02 0.  1.
</event>
<event>
 5   0  0.2078125E-09  0.3999586E+04  0.7818609E-02  0.8004630E-01
        1   -1    0    0  501    0  0.00000000000E+00  0.00000000000E+00  0.13070466864E+04  0.13070466865E+04  0.50400001928E-02 0. -1.
       -1   -1    0    0    0  501  0.00000000000E+00  0.00000000000E+00 -0.30597012593E+04  0.30597012593E+04  0.50400001928E-02 0.  1.
    10030    2    1    2    0    0  0.00000000000E+00  0.00000000000E+00 -0.17526545729E+04  0.43667479458E+04  0.39995861749E+04 0.  0.
        1    1    3    3  502    0 -0.44792460159E+03 -0.90019091864E+03  0.10110005000E+04  0.14258689104E+04  0.50400001928E-02 0. -1.
       -1    1    3    3    0  502  0.44792460159E+03  0.90019091864E+03 -0.27636550729E+04  0.29408790353E+04  0.50400001928E-02 0.  1.
</event>
<event>
 5   0  0.2078125E-09  0.4005951E+04  0.7818609E-02  0.8003347E-01
        1   -1    0    0  501    0  0.00000000000E+00  0.00000000000E+00  0.19441106232E+04  0.19441106232E+04  0.50400001928E-02 0.  1.
       -1   -1    0    0    0  501  0.00000000000E+00  0.00000000000E+00 -0.20636222831E+04  0.20636222831E+04  0.50400001928E-02 0. -1.
    10030    2    1    2    0    0  0.00000000000E+00  0.00000000000E+00 -0.11951165993E+03  0.40077329063E+04  0.40059505752E+04 0.  0.
        5    1    3    3  502    0  0.16104815801E+04 -0.11552586280E+04 -0.34904619558E+03  0.20124931687E+04  0.46999998093E+01 0. -1.
       -5    1    3    3    0  502 -0.16104815801E+04  0.11552586280E+04  0.22953453565E+03  0.19952397376E+04  0.46999998093E+01 0.  1.
</event>
<event>
 5   0  0.2078125E-09  0.3999663E+04  0.7818609E-02  0.8004615E-01
        1   -1    0    0  501    0  0.00000000000E+00  0.00000000000E+00  0.23771939446E+04  0.23771939446E+04  0.50400001928E-02 0.  1.
       -1   -1    0    0    0  501  0.00000000000E+00  0.00000000000E+00 -0.16823723937E+04  0.16823723937E+04  0.50400001928E-02 0. -1.
    10030    2    1    2    0    0  0.00000000000E+00  0.00000000000E+00  0.69482155088E+03  0.40595663384E+04  0.39996627193E+04 0.  0.
        1    1    3    3  502    0 -0.25669692735E+03  0.11975532142E+04 -0.12571838491E+04  0.17551462172E+04  0.50400001928E-02 0. -1.
       -1    1    3    3    0  502  0.25669692735E+03 -0.11975532142E+04  0.19520054000E+04  0.23044201212E+04  0.50400001928E-02 0.  1.
</event>
<event>
 5   0  0.6547327E-09  0.4000370E+04  0.7818609E-02  0.8004472E-01
       -2   -1    0    0    0  501  0.00000000000E+00  0.00000000000E+00  0.19856637325E+04  0.19856637325E+04  0.25500000920E-02 0.  1.
        2   -1    0    0  501    0  0.00000000000E+00  0.00000000000E+00 -0.20148127141E+04  0.20148127141E+04  0.25500000920E-02 0. -1.
    10030    2    1    2    0    0  0.00000000000E+00  0.00000000000E+00 -0.29148981592E+02  0.40004764466E+04  0.40003702499E+04 0.  0.
        5    1    3    3  502    0 -0.74982266530E+03 -0.98794753188E+03  0.15546848346E+04  0.19888040074E+04  0.46999998093E+01 0.  1.
       -5    1    3    3    0  502  0.74982266530E+03  0.98794753188E+03 -0.15838338162E+04  0.20116724391E+04  0.46999998093E+01 0. -1.
</event>
<event>
 5   0  0.6645526E-09  0.3999369E+04  0.7818609E-02  0.8004674E-01
        2   -1    0    0  501    0  0.00000000000E+00  0.00000000000E+00  0.15559978251E+04  0.15559978251E+04  0.25500000920E-02 0.  1.
       -2   -1    0    0    0  501  0.00000000000E+00  0.00000000000E+00 -0.25698861304E+04  0.25698861304E+04  0.25500000920E-02 0. -1.
    10030    2    1    2    0    0  0.00000000000E+00  0.00000000000E+00 -0.10138883053E+04  0.41258839556E+04  0.39993685651E+04 0.  0.
        3    1    3    3  502    0  0.14888265897E+04 -0.35170386496E+01 -0.18841348515E+04  0.24013706778E+04  0.10100000352E+00 0. -1.
       -3    1    3    3    0  502 -0.14888265897E+04  0.35170386496E+01  0.87024654618E+03  0.17245132777E+04  0.10100000352E+00 0.  1.
</event>
<event>
 5   0  0.6736335E-09  0.3995233E+04  0.7818609E-02  0.8005509E-01
        2   -1    0    0  501    0  0.00000000000E+00  0.00000000000E+00  0.25991964663E+04  0.25991964663E+04  0.25500000920E-02 0.  1.
       -2   -1    0    0    0  501  0.00000000000E+00  0.00000000000E+00 -0.15352709652E+04  0.15352709652E+04  0.25500000920E-02 0. -1.
    10030    2    1    2    0    0  0.00000000000E+00  0.00000000000E+00  0.10639255011E+04  0.41344674315E+04  0.39952325927E+04 0.  0.
        1    1    3    3  502    0 -0.33409165595E+03 -0.19332450056E+04  0.14280211636E+03  0.19670907277E+04  0.50400001928E-02 0. -1.
       -1    1    3    3    0  502  0.33409165595E+03  0.19332450056E+04  0.92112338472E+03  0.21673767038E+04  0.50400001928E-02 0.  1.
</event>
<event>
 5   0  0.2078125E-09  0.4001336E+04  0.7818609E-02  0.8004277E-01
        1   -1    0    0  501    0  0.00000000000E+00  0.00000000000E+00  0.20505021124E+04  0.20505021124E+04  0.50400001928E-02 0.  1.
       -1   -1    0    0    0  501  0.00000000000E+00  0.00000000000E+00 -0.19520445956E+04  0.19520445956E+04  0.50400001928E-02 0. -1.
    10030    2    1    2    0    0  0.00000000000E+00  0.00000000000E+00  0.98457516740E+02  0.40025467080E+04  0.40013355604E+04 0.  0.
        2    1    3    3  502    0  0.12323494471E+04  0.50631752829E+03  0.15422048852E+04  0.20379986524E+04  0.25500000920E-02 0.  1.
       -2    1    3    3    0  502 -0.12323494471E+04 -0.50631752829E+03 -0.14437473684E+04  0.19645480557E+04  0.25500000920E-02 0. -1.
</event>
<event>
 5   0  0.2078125E-09  0.3994956E+04  0.7818609E-02  0.8005565E-01
       -1   -1    0    0    0  501  0.00000000000E+00  0.00000000000E+00  0.15671629430E+04  0.15671629430E+04  0.50400001928E-02 0.  1.
        1   -1    0    0  501    0  0.00000000000E+00  0.00000000000E+00 -0.25459499905E+04  0.25459499905E+04  0.50400001928E-02 0. -1.
    10030    2    1    2    0    0  0.00000000000E+00  0.00000000000E+00 -0.97878704747E+03  0.41131129336E+04  0.39949560598E+04 0.  0.
        1    1    3    3  502    0 -0.63200392420E+02 -0.98171823825E+03  0.13004575066E+04  0.16306301590E+04  0.50400001928E-02 0.  1.
       -1    1    3    3    0  502  0.63200392420E+02  0.98171823825E+03 -0.22792445541E+04  0.24824827746E+04  0.50400001928E-02 0. -1.
</event>
<event>
 5   0  0.6547327E-09  0.3999099E+04  0.7818609E-02  0.8004728E-01
       -2   -1    0    0    0  501  0.00000000000E+00  0.00000000000E+00  0.17142696720E+04  0.17142696720E+04  0.25500000920E-02 0.  1.
        2   -1    0    0  501    0  0.00000000000E+00  0.00000000000E+00 -0.23323042088E+04  0.23323042088E+04  0.25500000920E-02 0. -1.
    10030    2    1    2    0    0  0.00000000000E+00  0.00000000000E+00 -0.61803453680E+03  0.40465738807E+04  0.39990990840E+04 0.  0.
        5    1    3    3  502    0 -0.10470256497E+04 -0.61422384271E+03  0.12987577116E+04  0.17777309480E+04  0.46999998093E+01 0.  1.
       -5    1    3    3    0  502  0.10470256497E+04  0.61422384271E+03 -0.19167922484E+04  0.22688429328E+04  0.46999998093E+01 0. -1.
</event>
<event>
 5   0  0.2078125E-09  0.3998986E+04  0.7818609E-02  0.8004751E-01
        1   -1    0    0  501    0  0.00000000000E+00  0.00000000000E+00  0.16791741832E+04  0.16791741832E+04  0.50400001928E-02 0. -1.
       -1   -1    0    0    0  501  0.00000000000E+00  0.00000000000E+00 -0.23809161822E+04  0.23809161822E+04  0.50400001928E-02 0.  1.
    10030    2    1    2    0    0  0.00000000000E+00  0.00000000000E+00 -0.70174199900E+03  0.40600903653E+04  0.39989863642E+04 0.  0.
        5    1    3    3  502    0 -0.13927114489E+04 -0.86275334797E+03 -0.15146680211E+04  0.22311947076E+04  0.46999998093E+01 0.  1.
       -5    1    3    3    0  502  0.13927114489E+04  0.86275334797E+03  0.81292602208E+03  0.18288956577E+04  0.46999998093E+01 0. -1.
</event>
<event>
 5   0  0.2078125E-09  0.4002367E+04  0.7818609E-02  0.8004069E-01
        1   -1    0    0  501    0  0.00000000000E+00  0.00000000000E+00  0.18858656812E+04  0.18858656812E+04  0.50400001928E-02 0. -1.
       -1   -1    0    0    0  501  0.00000000000E+00  0.00000000000E+00 -0.21235529586E+04  0.21235529587E+04  0.50400001928E-02 0.  1.
    10030    2    1    2    0    0  0.00000000000E+00  0.00000000000E+00 -0.23768727746E+03  0.40094186398E+04  0.40023671230E+04 0.  0.
        4    1    3    3  502    0  0.55761287890E+03  0.92347092633E+03 -0.18073408835E+04  0.21048072017E+04  0.12699999809E+01 0.  1.
       -4    1    3    3    0  502 -0.55761287890E+03 -0.92347092633E+03  0.15696536060E+04  0.19046114381E+04  0.12699999809E+01 0. -1.
</event>
<event>
 5   0  0.6547327E-09  0.3973582E+04  0.7818609E-02  0.8009897E-01
        2   -1    0    0  501    0  0.00000000000E+00  0.00000000000E+00  0.21867026121E+04  0.21867026121E+04  0.25500000920E-02 0. -1.
       -2   -1    0    0    0  501  0.00000000000E+00  0.00000000000E+00 -0.18051556922E+04  0.18051556922E+04  0.25500000920E-02 0.  1.
    10030    2    1    2    0    0  0.00000000000E+00  0.00000000000E+00  0.38154691990E+03  0.39918583044E+04  0.39735820956E+04 0.  0.
        5    1    3    3  502    0 -0.19788891440E+04  0.11623164082E+03  0.56726090780E+02  0.19831167333E+04  0.46999998093E+01 0. -1.
       -5    1    3    3    0  502  0.19788891440E+04 -0.11623164082E+03  0.32482082912E+03  0.20087415711E+04  0.46999998093E+01 0.  1.
</event>
<event>
 5   0  0.6547327E-09  0.4000613E+04  0.7818609E-02  0.8004423E-01
        2   -1    0    0  501    0  0.00000000000E+00  0.00000000000E+00  0.19754483162E+04  0.19754483162E+04  0.25500000920E-02 0.  1.
       -2   -1    0    0    0  501  0.00000000000E+00  0.00000000000E+00 -0.20254777966E+04  0.20254777966E+04  0.25500000920E-02 0. -1.
    10030    2    1    2    0    0  0.00000000000E+00  0.00000000000E+00 -0.50029480341E+02  0.40009261128E+04  0.40006133044E+04 0.  0.
        5    1    3    3  502    0  0.67770318396E+03  0.17940648524E+04 -0.59361377752E+03  0.20075730888E+04  0.46999998093E+01 0. -1.
       -5    1    3    3    0  502 -0.67770318396E+03 -0.17940648524E+04  0.54358429718E+03  0.19933530240E+04  0.46999998093E+01 0.  1.
</event>
<event>
 5   0  0.6538370E-09  0.3995756E+04  0.7818609E-02  0.8005403E-01
        2   -1    0    0  501    0  0.00000000000E+00  0.00000000000E+00  0.33931251925E+04  0.33931251925E+04  0.25500000920E-02 0. -1.
       -2   -1    0    0    0  501  0.00000000000E+00  0.00000000000E+00 -0.11763538109E+04  0.11763538109E+04  0.25500000920E-02 0.  1.
    10030    2    1    2    0    0  0.00000000000E+00  0.00000000000E+00  0.22167713815E+04  0.45694790034E+04  0.39957556237E+04 0.  0.
        4    1    3    3  502    0 -0.27727670276E+03 -0.14609790526E+04  0.26341896825E+04  0.30249461249E+04  0.12699999809E+01 0. -1.
       -4    1    3    3    0  502  0.27727670276E+03  0.14609790526E+04 -0.41741830098E+03  0.15445328785E+04  0.12699999809E+01 0.  1.
</event>
<event>
 5   0  0.6736335E-09  0.3997861E+04  0.7818609E-02  0.8004978E-01
        2   -1    0    0  501    0  0.00000000000E+00  0.00000000000E+00  0.20616885451E+04  0.20616885451E+04  0.25500000920E-02 0.  1.
       -2   -1    0    0    0  501  0.00000000000E+00  0.00000000000E+00 -0.19380832055E+04  0.19380832055E+04  0.25500000920E-02 0. -1.
    10030    2    1    2    0    0  0.00000000000E+00  0.00000000000E+00  0.12360533963E+03  0.39997717505E+04  0.39978614004E+04 0.  0.
        1    1    3    3  502    0 -0.16550919357E+04 -0.33630398240E+03  0.11315629940E+04  0.20329447837E+04  0.50400001928E-02 0.  1.
       -1    1    3    3    0  502  0.16550919357E+04  0.33630398240E+03 -0.10079576544E+04  0.19668269668E+04  0.50400001928E-02 0. -1.
</event>
<event>
 5   0  0.6736335E-09  0.4000596E+04  0.7818609E-02  0.8004426E-01
        2   -1    0    0  501    0  0.00000000000E+00  0.00000000000E+00  0.22387144225E+04  0.22387144225E+04  0.25500000920E-02 0.  1.
       -2   -1    0    0    0  501  0.00000000000E+00  0.00000000000E+00 -0.17872719248E+04  0.17872719248E+04  0.25500000920E-02 0. -1.
    10030    2    1    2    0    0  0.00000000000E+00  0.00000000000E+00  0.45144249771E+03  0.40259863472E+04  0.40005956731E+04 0.  0.
        1    1    3    3  502    0 -0.15164293291E+04  0.39765064910E+03  0.14759860568E+04  0.21531880523E+04  0.50400001928E-02 0.  1.
       -1    1    3    3    0  502  0.15164293291E+04 -0.39765064910E+03 -0.10245435590E+04  0.18727982949E+04  0.50400001928E-02 0. -1.
</event>
<event>
 5   0  0.2078125E-09  0.4001099E+04  0.7818609E-02  0.8004325E-01
       -1   -1    0    0    0  501  0.00000000000E+00  0.00000000000E+00  0.17294338331E+04  0.17294338331E+04  0.50400001928E-02 0. -1.
        1   -1    0    0  501    0  0.00000000000E+00  0.00000000000E+00 -0.23141667451E+04  0.23141667451E+04  0.50400001928E-02 0.  1.
    10030    2    1    2    0    0  0.00000000000E+00  0.00000000000E+00 -0.58473291201E+03  0.40436005782E+04  0.40010989812E+04 0.  0.
        2    1    3    3  502    0 -0.92538948751E+03 -0.51162918581E+03 -0.20086665203E+04  0.22699892769E+04  0.25500000920E-02 0.  1.
       -2    1    3    3    0  502  0.92538948751E+03  0.51162918581E+03  0.14239336083E+04  0.17736113013E+04  0.25500000920E-02 0. -1.
</event>
<event>
 5   0  0.6736335E-09  0.3998917E+04  0.7818609E-02  0.8004765E-01
        2   -1    0    0  501    0  0.00000000000E+00  0.00000000000E+00  0.22152772358E+04  0.22152772358E+04  0.25500000920E-02 0. -1.
       -2   -1    0    0    0  501  0.00000000000E+00  0.00000000000E+00 -0.18046655033E+04  0.18046655033E+04  0.25500000920E-02 0.  1.
    10030    2    1    2    0    0  0.00000000000E+00  0.00000000000E+00  0.41061173248E+03  0.40199427390E+04  0.39989170572E+04 0.  0.
        1    1    3    3  502    0 -0.16479881930E+04  0.94070854274E+03  0.83872740951E+03  0.20746713750E+04  0.50400001928E-02 0. -1.
       -1    1    3    3    0  502  0.16479881930E+04 -0.94070854274E+03 -0.42811567703E+03  0.19452713640E+04  0.50400001928E-02 0.  1.
</event>
<event>
 5   0  0.2078125E-09  0.3999486E+04  0.7818609E-02  0.8004650E-01
       -1   -1    0    0    0  501  0.00000000000E+00  0.00000000000E+00  0.16648092556E+04  0.16648092556E+04  0.50400001928E-02 0. -1.
        1   -1    0    0  501    0  0.00000000000E+00  0.00000000000E+00 -0.24020597578E+04  0.24020597578E+04  0.50400001928E-02 0.  1.
    10030    2    1    2    0    0  0.00000000000E+00  0.00000000000E+00 -0.73725050219E+03  0.40668690134E+04  0.39994856256E+04 0.  0.
        5    1    3    3  502    0 -0.96060886300E+03 -0.78420400838E+03 -0.19638792537E+04  0.23226254815E+04  0.46999998093E+01 0.  1.
       -5    1    3    3    0  502  0.96060886300E+03  0.78420400838E+03  0.12266287515E+04  0.17442435319E+04  0.46999998093E+01 0. -1.
</event>
<event>
 5   0  0.2078125E-09  0.4016383E+04  0.7818609E-02  0.8001250E-01
        1   -1    0    0  501    0  0.00000000000E+00  0.00000000000E+00  0.20325523515E+04  0.20325523515E+04  0.50400001928E-02 0.  1.
       -1   -1    0    0    0  501  0.00000000000E+00  0.00000000000E+00 -0.19841226107E+04  0.19841226107E+04  0.50400001928E-02 0. -1.
    10030    2    1    2    0    0  0.00000000000E+00  0.00000000000E+00  0.48429740749E+02  0.40166749622E+04  0.40163829887E+04 0.  0.
        5    1    3    3  502    0 -0.92082544517E+03  0.14769281300E+04 -0.97764375366E+03  0.19962578994E+04  0.46999998093E+01 0. -1.
       -5    1    3    3    0  502  0.92082544517E+03 -0.14769281300E+04  0.10260734944E+04  0.20204170628E+04  0.46999998093E+01 0.  1.
</event>
<event>
 5   0  0.6538370E-09  0.3998562E+04  0.7818609E-02  0.8004837E-01
        2   -1    0    0  501    0  0.00000000000E+00  0.00000000000E+00  0.23370253816E+04  0.23370253816E+04  0.25500000920E-02 0. -1.
       -2   -1    0    0    0  501  0.00000000000E+00  0.00000000000E+00 -0.17103469276E+04  0.17103469276E+04  0.25500000920E-02 0.  1.
    10030    2    1    2    0    0  0.00000000000E+00  0.00000000000E+00  0.62667845406E+03  0.40473723092E+04  0.39985618320E+04 0.  0.
        4    1    3    3  502    0  0.71870195528E+02  0.19878494598E+04  0.51681994817E+03  0.20551922711E+04  0.12699999809E+01 0.  1.
       -4    1    3    3    0  502 -0.71870195528E+02 -0.19878494598E+04  0.10985850589E+03  0.19921800380E+04  0.12699999809E+01 0. -1.
</event>
<event>
 5   0  0.2078125E-09  0.4000751E+04  0.7818609E-02  0.8004395E-01
       -1   -1    0    0    0  501  0.00000000000E+00  0.00000000000E+00  0.14774628564E+04  0.14774628564E+04  0.50400001928E-02 0.  1.
        1   -1    0    0  501    0  0.00000000000E+00  0.00000000000E+00 -0.27083611475E+04  0.27083611475E+04  0.50400001928E-02 0. -1.
    10030    2    1    2    0    0  0.00000000000E+00  0.00000000000E+00 -0.12308982911E+04  0.41858240038E+04  0.40007514279E+04 0.  0.
        1    1    3    3  502    0  0.84035278412E+03  0.26319897313E+03 -0.24946536005E+04  0.26455175463E+04  0.50400001928E-02 0. -1.
       -1    1    3    3    0  502 -0.84035278412E+03 -0.26319897313E+03  0.12637553094E+04  0.15403064576E+04  0.50400001928E-02 0.  1.
</event>
<event>
 5   0  0.6645526E-09  0.4000143E+04  0.7818609E-02  0.8004518E-01
       -2   -1    0    0    0  501  0.00000000000E+00  0.00000000000E+00  0.21433333312E+04  0.21433333312E+04  0.25500000920E-02 0.  1.
        2   -1    0    0  501    0  0.00000000000E+00  0.00000000000E+00 -0.18663854114E+04  0.18663854114E+04  0.25500000920E-02 0. -1.
    10030    2    1    2    0    0  0.00000000000E+00  0.00000000000E+00  0.27694791977E+03  0.40097187426E+04  0.40001430280E+04 0.  0.
        3    1    3    3  502    0 -0.16342335526E+04  0.95222074762E+03  0.79029391498E+03  0.20498800304E+04  0.10100000352E+00 0.  1.
       -3    1    3    3    0  502  0.16342335526E+04 -0.95222074762E+03 -0.51334599521E+03  0.19598387122E+04  0.10100000352E+00 0. -1.
</event>
<event>
 5   0  0.6645526E-09  0.3996944E+04  0.7818609E-02  0.8005163E-01
       -2   -1    0    0    0  501  0.00000000000E+00  0.00000000000E+00  0.19003757775E+04  0.19003757775E+04  0.25500000920E-02 0. -1.
        2   -1    0    0  501    0  0.00000000000E+00  0.00000000000E+00 -0.21016319059E+04  0.21016319059E+04  0.25500000920E-02 0.  1.
    10030    2    1    2    0    0  0.00000000000E+00  0.00000000000E+00 -0.20125612841E+03  0.40020076834E+04  0.39969440162E+04 0.  0.
        3    1    3    3  502    0  0.65790920446E+02 -0.19033318680E+04 -0.70710965064E+03  0.20315030675E+04  0.10100000352E+00 0. -1.
       -3    1    3    3    0  502 -0.65790920446E+02  0.19033318680E+04  0.50585352222E+03  0.19705046159E+04  0.10100000352E+00 0.  1.
</event>
<event>
 5   0  0.6645526E-09  0.4000233E+04  0.7818609E-02  0.8004500E-01
       -2   -1    0    0    0  501  0.00000000000E+00  0.00000000000E+00  0.25021775078E+04  0.25021775078E+04  0.25500000920E-02 0. -1.
        2   -1    0    0  501    0  0.00000000000E+00  0.00000000000E+00 -0.15987934981E+04  0.15987934981E+04  0.25500000920E-02 0.  1.
    10030    2    1    2    0    0  0.00000000000E+00  0.00000000000E+00  0.90338400969E+03  0.41009710059E+04  0.40002325586E+04 0.  0.
        3    1    3    3  502    0  0.31887363103E+03 -0.13864421031E+04 -0.98961597683E+03  0.17329864078E+04  0.10100000352E+00 0.  1.
       -3    1    3    3    0  502 -0.31887363103E+03  0.13864421031E+04  0.18929999865E+04  0.23679845981E+04  0.10100000352E+00 0. -1.
</event>
<event>
 5   0  0.2078125E-09  0.3999025E+04  0.7818609E-02  0.8004743E-01
        1   -1    0    0  501    0  0.00000000000E+00  0.00000000000E+00  0.16121276378E+04  0.16121276378E+04  0.50400001928E-02 0.  1.
       -1   -1    0    0    0  501  0.00000000000E+00  0.00000000000E+00 -0.24799838443E+04  0.24799838443E+04  0.50400001928E-02 0. -1.
    10030    2    1    2    0    0  0.00000000000E+00  0.00000000000E+00 -0.86785620649E+03  0.40921114821E+04  0.39990251296E+04 0.  0.
        2    1    3    3  502    0 -0.60793496734E+03 -0.90935737040E+03 -0.21466676676E+04  0.24092940515E+04  0.25500000920E-02 0. -1.
       -2    1    3    3    0  502  0.60793496734E+03  0.90935737040E+03  0.12788114611E+04  0.16828174306E+04  0.25500000920E-02 0.  1.
</event>
<event>
 5   0  0.6547327E-09  0.4005629E+04  0.7818609E-02  0.8003412E-01
       -2   -1    0    0    0  501  0.00000000000E+00  0.00000000000E+00  0.18329428773E+04  0.18329428773E+04  0.25500000920E-02 0. -1.
        2   -1    0    0  501    0  0.00000000000E+00  0.00000000000E+00 -0.21884294111E+04  0.21884294111E+04  0.25500000920E-02 0.  1.
    10030    2    1    2    0    0  0.00000000000E+00  0.00000000000E+00 -0.35548653378E+03  0.40213722884E+04  0.40056290899E+04 0.  0.
        5    1    3    3  502    0 -0.11459659726E+04  0.54742960332E+02 -0.18258437067E+04  0.21563770852E+04  0.46999998093E+01 0.  1.
       -5    1    3    3    0  502  0.11459659726E+04 -0.54742960332E+02  0.14703571729E+04  0.18649952032E+04  0.46999998093E+01 0. -1.
</event>
<event>
 5   0  0.6547327E-09  0.4001236E+04  0.7818609E-02  0.8004297E-01
       -2   -1    0    0    0  501  0.00000000000E+00  0.00000000000E+00  0.14172152616E+04  0.14172152616E+04  0.25500000920E-02 0. -1.
        2   -1    0    0  501    0  0.00000000000E+00  0.00000000000E+00 -0.28241810393E+04  0.28241810393E+04  0.25500000920E-02 0.  1.
    10030    2    1    2    0    0  0.00000000000E+00  0.00000000000E+00 -0.14069657777E+04  0.42413963009E+04  0.40012360442E+04 0.  0.
        5    1    3    3  502    0  0.17904634326E+04 -0.47876985760E+03  0.95038081441E+02  0.18558109297E+04  0.46999998093E+01 0.  1.
       -5    1    3    3    0  502 -0.17904634326E+04  0.47876985760E+03 -0.15020038591E+04  0.23855853711E+04  0.46999998093E+01 0. -1.
</event>
<event>
 5   0  0.6538370E-09  0.4002568E+04  0.7818609E-02  0.8004029E-01
       -2   -1    0    0    0  501  0.00000000000E+00  0.00000000000E+00  0.24462023555E+04  0.24462023555E+04  0.25500000920E-02 0. -1.
        2   -1    0    0  501    0  0.00000000000E+00  0.00000000000E+00 -0.16372877498E+04  0.16372877498E+04  0.25500000920E-02 0.  1.
    10030    2    1    2    0    0  0.00000000000E+00  0.00000000000E+00  0.80891460568E+03  0.40834901053E+04  0.40025677510E+04 0.  0.
        4    1    3    3  502    0 -0.36528069089E+03 -0.60316491458E+03  0.23152618751E+04  0.24202638410E+04  0.12699999809E+01 0. -1.
       -4    1    3    3    0  502  0.36528069089E+03  0.60316491458E+03 -0.15063472694E+04  0.16632262643E+04  0.12699999809E+01 0.  1.
</event>
<event>
 5   0  0.6538370E-09  0.3999270E+04  0.7818609E-02  0.8004694E-01
       -2   -1    0    0    0  501  0.00000000000E+00  0.00000000000E+00  0.21445451124E+04  0.21445451124E+04  0.25500000920E-02 0. -1.
        2   -1    0    0  501    0  0.00000000000E+00  0.00000000000E+00 -0.18645164848E+04  0.18645164848E+04  0.25500000920E-02 0.  1.
    10030    2    1    2    0    0  0.00000000000E+00  0.00000000000E+00  0.28002862762E+03  0.40090615973E+04  0.39992697906E+04 0.  0.
        4    1    3    3  502    0 -0.93722399975E+02 -0.16079880183E+04 -0.10478463250E+04  0.19215600145E+04  0.12699999809E+01 0.  1.
       -4    1    3    3    0  502  0.93722399975E+02  0.16079880183E+04  0.13278749526E+04  0.20875015828E+04  0.12699999809E+01 0. -1.
</event>
<event>
 5   0  0.2078125E-09  0.3997684E+04  0.7818609E-02  0.8005014E-01
       -1   -1    0    0    0  501  0.00000000000E+00  0.00000000000E+00  0.25828039629E+04  0.25828039629E+04  0.50400001928E-02 0.  1.
        1   -1    0    0  501    0  0.00000000000E+00  0.00000000000E+00 -0.15469112553E+04  0.15469112553E+04  0.50400001928E-02 0. -1.
    10030    2    1    2    0    0  0.00000000000E+00  0.00000000000E+00  0.10358927075E+04  0.41297152182E+04  0.39976835895E+04 0.  0.
        4    1    3    3  502    0  0.18585795754E+04 -0.20208902677E+03  0.12485593476E+04  0.22481236777E+04  0.12699999809E+01 0.  1.
       -4    1    3    3    0  502 -0.18585795754E+04  0.20208902677E+03 -0.21266664004E+03  0.18815915405E+04  0.12699999809E+01 0. -1.
</event>
<event>
 5   0  0.6645526E-09  0.4003889E+04  0.7818609E-02  0.8003762E-01
       -2   -1    0    0    0  501  0.00000000000E+00  0.00000000000E+00  0.16915680898E+04  0.16915680898E+04  0.25500000920E-02 0.  1.
        2   -1    0    0  501    0  0.00000000000E+00  0.00000000000E+00 -0.23692703976E+04  0.23692703976E+04  0.25500000920E-02 0. -1.
    10030    2    1    2    0    0  0.00000000000E+00  0.00000000000E+00 -0.67770230781E+03  0.40608384874E+04  0.40038892096E+04 0.  0.
        3    1    3    3  502    0 -0.13253158804E+04 -0.14941689819E+04 -0.19986529809E+03  0.20072242717E+04  0.10100000352E+00 0. -1.
       -3    1    3    3    0  502  0.13253158804E+04  0.14941689819E+04 -0.47783700971E+03  0.20536142158E+04  0.10100000352E+00 0.  1.
</event>
<event>
 5   0  0.2078125E-09  0.3998201E+04  0.7818609E-02  0.8004910E-01
        1   -1    0    0  501    0  0.00000000000E+00  0.00000000000E+00  0.13566646425E+04  0.13566646425E+04  0.50400001928E-02 0. -1.
       -1   -1    0    0    0  501  0.00000000000E+00  0.00000000000E+00 -0.29457558978E+04  0.29457558978E+04  0.50400001928E-02 0.  1.
    10030    2    1    2    0    0  0.00000000000E+00  0.00000000000E+00 -0.15890912553E+04  0.43024205403E+04  0.39982010315E+04 0.  0.
        4    1    3    3  502    0  0.68962397010E+03 -0.14202033975E+04  0.52507588434E+03  0.16638104483E+04  0.12699999809E+01 0. -1.
       -4    1    3    3    0  502 -0.68962397010E+03  0.14202033975E+04 -0.21141671397E+04  0.26386100921E+04  0.12699999809E+01 0.  1.
</event>
<event>
 5   0  0.6736335E-09  0.4001345E+04  0.7818609E-02  0.8004275E-01
        2   -1    0    0  501    0  0.00000000000E+00  0.00000000000E+00  0.16320096423E+04  0.16320096423E+04  0.25500000920E-02 0. -1.
       -2   -1    0    0    0  501  0.00000000000E+00  0.00000000000E+00 -0.24526141884E+04  0.24526141884E+04  0.25500000920E-02 0.  1.
    10030    2    1    2    0    0  0.00000000000E+00  0.00000000000E+00 -0.82060454602E+03  0.40846238307E+04  0.40013447761E+04 0.  0.
        1    1    3    3  502    0  0.22391510312E+03 -0.11195155285E+03 -0.24365626141E+04  0.24493894129E+04  0.50400001928E-02 0.  1.
       -1    1    3    3    0  502 -0.22391510312E+03  0.11195155285E+03  0.16159580680E+04  0.16352344178E+04  0.50400001928E-02 0. -1.
</event>
<event>
 5   0  0.6599276E-09  0.4000225E+04  0.7818609E-02  0.8004501E-01
       -2   -1    0    0    0  501  0.00000000000E+00  0.00000000000E+00  0.17369350654E+04  0.17369350654E+04  0.25500000920E-02 0.  1.
        2   -1    0    0  501    0  0.00000000000E+00  0.00000000000E+00 -0.23031658681E+04  0.23031658681E+04  0.25500000920E-02 0. -1.
    10030    2    1    2    0    0  0.00000000000E+00  0.00000000000E+00 -0.56623080271E+03  0.40401009335E+04  0.40002247725E+04 0.  0.
        2    1    3    3  502    0  0.77490194592E+03 -0.89233822799E+03 -0.19128018110E+04  0.22484553158E+04  0.25500000920E-02 0. -1.
       -2    1    3    3    0  502 -0.77490194592E+03  0.89233822799E+03  0.13465710083E+04  0.17916456177E+04  0.25500000920E-02 0.  1.
</event>
<event>
 5   0  0.2078125E-09  0.3997740E+04  0.7818609E-02  0.8005003E-01
       -1   -1    0    0    0  501  0.00000000000E+00  0.00000000000E+00  0.18130931519E+04  0.18130931519E+04  0.50400001928E-02 0. -1.
        1   -1    0    0  501    0  0.00000000000E+00  0.00000000000E+00 -0.22036818043E+04  0.22036818043E+04  0.50400001928E-02 0.  1.
    10030    2    1    2    0    0  0.00000000000E+00  0.00000000000E+00 -0.39058865244E+03  0.40167749562E+04  0.39977395554E+04 0.  0.
        1    1    3    3  502    0  0.20230935947E+03  0.30388822076E+03  0.17793121925E+04  0.18163779910E+04  0.50400001928E-02 0. -1.
       -1    1    3    3    0  502 -0.20230935947E+03 -0.30388822076E+03 -0.21699008449E+04  0.22003969652E+04  0.50400001928E-02 0.  1.
</event>
<event>
 5   0  0.2078125E-09  0.4001061E+04  0.7818609E-02  0.8004333E-01
        1   -1    0    0  501    0  0.00000000000E+00  0.00000000000E+00  0.14780811425E+04  0.14780811425E+04  0.50400001928E-02 0. -1.
       -1   -1    0    0    0  501  0.00000000000E+00  0.00000000000E+00 -0.27076465836E+04  0.27076465836E+04  0.50400001928E-02 0.  1.
    10030    2    1    2    0    0  0.00000000000E+00  0.00000000000E+00 -0.12295654411E+04  0.41857277261E+04  0.40010605373E+04 0.  0.
        2    1    3    3  502    0  0.43235632423E+03 -0.13555943273E+04 -0.20859428979E+04  0.25250199494E+04  0.25500000920E-02 0.  1.
       -2    1    3    3    0  502 -0.43235632423E+03  0.13555943273E+04  0.85637745682E+03  0.16607077768E+04  0.25500000920E-02 0. -1.
</event>
<event>
 5   0  0.6538370E-09  0.4000910E+04  0.7818609E-02  0.8004363E-01
        2   -1    0    0  501    0  0.00000000000E+00  0.00000000000E+00  0.23694363439E+04  0.23694363439E+04  0.25500000920E-02 0. -1.
       -2   -1    0    0    0  501  0.00000000000E+00  0.00000000000E+00 -0.16889338186E+04  0.16889338186E+04  0.25500000920E-02 0.  1.
    10030    2    1    2    0    0  0.00000000000E+00  0.00000000000E+00  0.68050252526E+03  0.40583701625E+04  0.40009104825E+04 0.  0.
        4    1    3    3  502    0  0.82958277625E+03 -0.16467467293E+04 -0.44667190436E+03  0.18972347709E+04  0.12699999809E+01 0.  1.
       -4    1    3    3    0  502 -0.82958277625E+03  0.16467467293E+04  0.11271744296E+04  0.21611353916E+04  0.12699999809E+01 0. -1.
</event>
<event>
 5   0  0.6538370E-09  0.3999853E+04  0.7818609E-02  0.8004576E-01
        2   -1    0    0  501    0  0.00000000000E+00  0.00000000000E+00  0.19978938748E+04  0.19978938748E+04  0.25500000920E-02 0. -1.
       -2   -1    0    0    0  501  0.00000000000E+00  0.00000000000E+00 -0.20019614278E+04  0.20019614278E+04  0.25500000920E-02 0.  1.
    10030    2    1    2    0    0  0.00000000000E+00  0.00000000000E+00 -0.40675529531E+01  0.39998553026E+04  0.39998532344E+04 0.  0.
        4    1    3    3  502    0  0.12320789360E+04  0.40913154157E+03 -0.15233161736E+04  0.20014746815E+04  0.12699999809E+01 0.  1.
       -4    1    3    3    0  502 -0.12320789360E+04 -0.40913154157E+03  0.15192486206E+04  0.19983806212E+04  0.12699999809E+01 0. -1.
</event>
<event>
 5   0  0.2078125E-09  0.3999423E+04  0.7818609E-02  0.8004663E-01
        1   -1    0    0  501    0  0.00000000000E+00  0.00000000000E+00  0.14293934941E+04  0.14293934941E+04  0.50400001928E-02 0. -1.
       -1   -1    0    0    0  501  0.00000000000E+00  0.00000000000E+00 -0.27975823148E+04  0.27975823149E+04  0.50400001928E-02 0.  1.
    10030    2    1    2    0    0  0.00000000000E+00  0.00000000000E+00 -0.13681888207E+04  0.42269758090E+04  0.39994229385E+04 0.  0.
        4    1    3    3  502    0 -0.24533838073E+03 -0.94952446851E+03  0.11577751896E+04  0.15173109899E+04  0.12699999809E+01 0. -1.
       -4    1    3    3    0  502  0.24533838073E+03  0.94952446851E+03 -0.25259640104E+04  0.27096648191E+04  0.12699999809E+01 0.  1.
</event>
<event>
 5   0  0.2078125E-09  0.4001107E+04  0.7818609E-02  0.8004323E-01
       -1   -1    0    0    0  501  0.00000000000E+00  0.00000000000E+00  0.20134633913E+04  0.20134633913E+04  0.50400001928E-02 0. -1.
        1   -1    0    0  501    0  0.00000000000E+00  0.00000000000E+00 -0.19877260386E+04  0.19877260386E+04  0.50400001928E-02 0.  1.
    10030    2    1    2    0    0  0.00000000000E+00  0.00000000000E+00  0.25737352674E+02  0.40011894300E+04  0.40011066523E+04 0.  0.
        2    1    3    3  502    0 -0.12434716073E+04  0.33054801399E+03 -0.15190670552E+04  0.19907406526E+04  0.25500000920E-02 0.  1.
       -2    1    3    3    0  502  0.12434716073E+04 -0.33054801399E+03  0.15448044079E+04  0.20104487774E+04  0.25500000920E-02 0. -1.
</event>
<event>
 5   0  0.6547327E-09  0.3998521E+04  0.7818609E-02  0.8004845E-01
        2   -1    0    0  501    0  0.00000000000E+00  0.00000000000E+00  0.23220810609E+04  0.23220810609E+04  0.25500000920E-02 0.  1.
       -2   -1    0    0    0  501  0.00000000000E+00  0.00000000000E+00 -0.17213190792E+04  0.17213190792E+04  0.25500000920E-02 0. -1.
    10030    2    1    2    0    0  0.00000000000E+00  0.00000000000E+00  0.60076198165E+03  0.40434001401E+04  0.39985209434E+04 0.  0.
        5    1    3    3  502    0 -0.53380505526E+03 -0.15245207601E+04  0.14916993543E+04  0.21987042636E+04  0.46999998093E+01 0.  1.
       -5    1    3    3    0  502  0.53380505526E+03  0.15245207601E+04 -0.89093737268E+03  0.18446958766E+04  0.46999998093E+01 0. -1.
</event>
<event>
 5   0  0.6547327E-09  0.3999643E+04  0.7818609E-02  0.8004619E-01
       -2   -1    0    0    0  501  0.00000000000E+00  0.00000000000E+00  0.22333632974E+04  0.22333632974E+04  0.25500000920E-02 0.  1.
        2   -1    0    0  501    0  0.00000000000E+00  0.00000000000E+00 -0.17907013272E+04  0.17907013272E+04  0.25500000920E-02 0. -1.
    10030    2    1    2    0    0  0.00000000000E+00  0.00000000000E+00  0.44266197026E+03  0.40240646246E+04  0.39996432945E+04 0.  0.
        5    1    3    3  502    0 -0.31087930785E+03 -0.19722520406E+04  0.10732327223E+03  0.19994910428E+04  0.46999998093E+01 0. -1.
       -5    1    3    3    0  502  0.31087930785E+03  0.19722520406E+04  0.33533869803E+03  0.20245735818E+04  0.46999998093E+01 0.  1.
</event>
<event>
 5   0  0.2078125E-09  0.4000099E+04  0.7818609E-02  0.8004527E-01
        1   -1    0    0  501    0  0.00000000000E+00  0.00000000000E+00  0.14749990735E+04  0.14749990735E+04  0.50400001928E-02 0.  1.
       -1   -1    0    0    0  501  0.00000000000E+00  0.00000000000E+00 -0.27119999057E+04  0.27119999057E+04  0.50400001928E-02 0. -1.
    10030    2    1    2    0    0  0.00000000000E+00  0.00000000000E+00 -0.12370008322E+04  0.41869989792E+04  0.40000986729E+04 0.  0.
        5    1    3    3  502    0  0.16939710546E+04  0.43591028571E+03 -0.16336712933E+04  0.23934200834E+04  0.46999998093E+01 0. -1.
       -5    1    3    3    0  502 -0.16939710546E+04 -0.43591028571E+03  0.39667046105E+03  0.17935788958E+04  0.46999998093E+01 0.  1.
</event>
<event>
 5   0  0.6599276E-09  0.3987733E+04  0.7818609E-02  0.8007026E-01
       -2   -1    0    0    0  501  0.00000000000E+00  0.00000000000E+00  0.21395721316E+04  0.21395721316E+04  0.25500000920E-02 0. -1.
        2   -1    0    0  501    0  0.00000000000E+00  0.00000000000E+00 -0.18580839028E+04  0.18580839028E+04  0.25500000920E-02 0.  1.
    10030    2    1    2    0    0  0.00000000000E+00  0.00000000000E+00  0.28148822883E+03  0.39976560343E+04  0.39877334597E+04 0.  0.
        2    1    3    3  502    0  0.96138675282E+03 -0.26357623528E+02 -0.16101828966E+04  0.18755394353E+04  0.25500000920E-02 0.  1.
       -2    1    3    3    0  502 -0.96138675282E+03  0.26357623528E+02  0.18916711255E+04  0.21221165990E+04  0.25500000920E-02 0. -1.
</event>
<event>
 5   0  0.2078125E-09  0.4005044E+04  0.7818609E-02  0.8003530E-01
       -1   -1    0    0    0  501  0.00000000000E+00  0.00000000000E+00  0.28705278669E+04  0.28705278669E+04  0.50400001928E-02 0. -1.
        1   -1    0    0  501    0  0.00000000000E+00  0.00000000000E+00 -0.13969884380E+04  0.13969884380E+04  0.50400001928E-02 0.  1.
    10030    2    1    2    0    0  0.00000000000E+00  0.00000000000E+00  0.14735394289E+04  0.42675163049E+04  0.40050439403E+04 0.  0.
        4    1    3    3  502    0 -0.88329552610E+03 -0.68670411570E+03  0.25064310291E+04  0.27448081255E+04  0.12699999809E+01 0. -1.
       -4    1    3    3    0  502  0.88329552610E+03  0.68670411570E+03 -0.10328916002E+04  0.15227081794E+04  0.12699999809E+01 0.  1.
</event>
<event>
 5   0  0.6645526E-09  0.4000283E+04  0.7818609E-02  0.8004489E-01
       -2   -1    0    0    0  501  0.00000000000E+00  0.00000000000E+00  0.15497609926E+04  0.15497609926E+04  0.25500000920E-02 0.  1.
        2   -1    0    0  501    0  0.00000000000E+00  0.00000000000E+00 -0.25814083392E+04  0.25814083392E+04  0.25500000920E-02 0. -1.
    10030    2    1    2    0    0  0.00000000000E+00  0.00000000000E+00 -0.10316473467E+04  0.41311693318E+04  0.40002829650E+04 0.  0.
        3    1    3    3  502    0  0.24063217555E+03  0.38597107778E+03  0.14956442598E+04  0.15632751769E+04  0.10100000352E+00 0.  1.
       -3    1    3    3    0  502 -0.24063217555E+03 -0.38597107778E+03 -0.25272916064E+04  0.25678941549E+04  0.10100000352E+00 0. -1.
</event>
<event>
 5   0  0.6547327E-09  0.3999730E+04  0.7818609E-02  0.8004601E-01
       -2   -1    0    0    0  501  0.00000000000E+00  0.00000000000E+00  0.29870647403E+04  0.29870647403E+04  0.25500000920E-02 0. -1.
        2   -1    0    0  501    0  0.00000000000E+00  0.00000000000E+00 -0.13389261568E+04  0.13389261568E+04  0.25500000920E-02 0.  1.
    10030    2    1    2    0    0  0.00000000000E+00  0.00000000000E+00  0.16481385835E+04  0.43259908970E+04  0.39997295472E+04 0.  0.
        5    1    3    3  502    0  0.84756013533E+03 -0.50160690202E+03  0.27065834745E+04  0.28802055242E+04  0.46999998093E+01 0. -1.
       -5    1    3    3    0  502 -0.84756013533E+03  0.50160690202E+03 -0.10584448910E+04  0.14457853729E+04  0.46999998093E+01 0.  1.
</event>
<event>
 5   0  0.6599276E-09  0.3982096E+04  0.7818609E-02  0.8008168E-01
       -2   -1    0    0    0  501  0.00000000000E+00  0.00000000000E+00  0.12046486354E+04  0.12046486354E+04  0.25500000920E-02 0.  1.
        2   -1    0    0  501    0  0.00000000000E+00  0.00000000000E+00 -0.32908125365E+04  0.32908125365E+04  0.25500000920E-02 0. -1.
    10030    2    1    2    0    0  0.00000000000E+00  0.00000000000E+00 -0.20861639011E+04  0.44954611719E+04  0.39820963482E+04 0.  0.
        2    1    3    3  502    0 -0.11137009481E+04 -0.16220559323E+04 -0.13871290795E+04  0.24073891112E+04  0.25500000920E-02 0. -1.
       -2    1    3    3    0  502  0.11137009481E+04  0.16220559323E+04 -0.69903482160E+03  0.20880720608E+04  0.25500000920E-02 0.  1.
</event>
<event>
 5   0  0.2078125E-09  0.4001319E+04  0.7818609E-02  0.8004280E-01
       -1   -1    0    0    0  501  0.00000000000E+00  0.00000000000E+00  0.18917751730E+04  0.18917751730E+04  0.50400001928E-02 0.  1.
        1   -1    0    0  501    0  0.00000000000E+00  0.00000000000E+00 -0.21158111127E+04  0.21158111127E+04  0.50400001928E-02 0. -1.
    10030    2    1    2    0    0  0.00000000000E+00  0.00000000000E+00 -0.22403593972E+03  0.40075862857E+04  0.40013192493E+04 0.  0.
        3    1    3    3  502    0  0.23908102650E+03 -0.19542559966E+04 -0.46805002636E+03  0.20236963890E+04  0.10100000352E+00 0. -1.
       -3    1    3    3    0  502 -0.23908102650E+03  0.19542559966E+04  0.24401408664E+03  0.19838898967E+04  0.10100000352E+00 0.  1.
</event>
<event>
 5   0  0.6599276E-09  0.3997128E+04  0.7818609E-02  0.8005126E-01
       -2   -1    0    0    0  501  0.00000000000E+00  0.00000000000E+00  0.21205006251E+04  0.21205006251E+04  0.25500000920E-02 0. -1.
        2   -1    0    0  501    0  0.00000000000E+00  0.00000000000E+00 -0.18836393193E+04  0.18836393193E+04  0.25500000920E-02 0.  1.
    10030    2    1    2    0    0  0.00000000000E+00  0.00000000000E+00  0.23686130579E+03  0.40041399445E+04  0.39971281462E+04 0.  0.
        2    1    3    3  502    0  0.16859774708E+04  0.99601399787E+03 -0.28188822564E+03  0.19783894682E+04  0.25500000920E-02 0.  1.
       -2    1    3    3    0  502 -0.16859774708E+04 -0.99601399787E+03  0.51874953143E+03  0.20257504763E+04  0.25500000920E-02 0. -1.
</event>
<event>
 5   0  0.2078125E-09  0.4001091E+04  0.7818609E-02  0.8004327E-01
        1   -1    0    0  501    0  0.00000000000E+00  0.00000000000E+00  0.23453957325E+04  0.23453957325E+04  0.50400001928E-02 0.  1.
       -1   -1    0    0    0  501  0.00000000000E+00  0.00000000000E+00 -0.17063992700E+04  0.17063992700E+04  0.50400001928E-02 0. -1.
    10030    2    1    2    0    0  0.00000000000E+00  0.00000000000E+00  0.63899646249E+03  0.40517950024E+04  0.40010906341E+04 0.  0.
        5    1    3    3  502    0 -0.13749447503E+04 -0.14074628674E+04  0.68565282691E+03  0.20836426466E+04  0.46999998093E+01 0.  1.
       -5    1    3    3    0  502  0.13749447503E+04  0.14074628674E+04 -0.46656364421E+02  0.19681523559E+04  0.46999998093E+01 0. -1.
</event>
<event>
 5   0  0.2078125E-09  0.4000788E+04  0.7818609E-02  0.8004388E-01
       -1   -1    0    0    0  501  0.00000000000E+00  0.00000000000E+00  0.17500087023E+04  0.17500087023E+04  0.50400001928E-02 0.  1.
        1   -1    0    0  501    0  0.00000000000E+00  0.00000000000E+00 -0.22866030509E+04  0.22866030509E+04  0.50400001928E-02 0. -1.
    10030    2    1    2    0    0  0.00000000000E+00  0.00000000000E+00 -0.53659434854E+03  0.40366117532E+04  0.40007875414E+04 0.  0.
        4    1    3    3  502    0  0.24135288761E+03 -0.34642783036E+03  0.17045400651E+04  0.17560529333E+04  0.12699999809E+01 0.  1.
       -4    1    3    3    0  502 -0.24135288761E+03  0.34642783036E+03 -0.22411344137E+04  0.22805588199E+04  0.12699999809E+01 0. -1.
</event>
<event>
 5   0  0.6645526E-09  0.3999718E+04  0.7818609E-02  0.8004603E-01
       -2   -1    0    0    0  501  0.00000000000E+00  0.00000000000E+00  0.17783942789E+04  0.17783942789E+04  0.25500000920E-02 0.  1.
        2   -1    0    0  501    0  0.00000000000E+00  0.00000000000E+00 -0.22489029670E+04  0.22489029670E+04  0.25500000920E-02 0. -1.
    10030    2    1    2    0    0  0.00000000000E+00  0.00000000000E+00 -0.47050868805E+03  0.40272972459E+04  0.39997180752E+04 0.  0.
        3    1    3    3  502    0 -0.48932087384E+03 -0.16650942168E+04  0.76530904654E+03  0.18967529136E+04  0.10100000352E+00 0.  1.
       -3    1    3    3    0  502  0.48932087384E+03  0.16650942168E+04 -0.12358177346E+04  0.21305443323E+04  0.10100000352E+00 0. -1.
</event>
<event>
 5   0  0.2078125E-09  0.4000680E+04  0.7818609E-02  0.8004409E-01
        1   -1    0    0  501    0  0.00000000000E+00  0.00000000000E+00  0.35232374252E+04  0.35232374252E+04  0.50400001928E-02 0. -1.
       -1   -1    0    0    0  501  0.00000000000E+00  0.00000000000E+00 -0.11357054883E+04  0.11357054883E+04  0.50400001928E-02 0.  1.
    10030    2    1    2    0    0  0.00000000000E+00  0.00000000000E+00  0.23875319369E+04  0.46589429135E+04  0.40006799824E+04 0.  0.
        3    1    3    3  502    0 -0.75543752915E+03 -0.30656489708E+03 -0.93345030707E+03  0.12393536148E+04  0.10100000352E+00 0.  1.
       -3    1    3    3    0  502  0.75543752915E+03  0.30656489708E+03  0.33209822440E+04  0.34195892987E+04  0.10100000352E+00 0. -1.
</event>
<event>
 5   0  0.2078125E-09  0.4001464E+04  0.7818609E-02  0.8004251E-01
       -1   -1    0    0    0  501  0.00000000000E+00  0.00000000000E+00  0.28378857249E+04  0.28378857249E+04  0.50400001928E-02 0.  1.
        1   -1    0    0  501    0  0.00000000000E+00  0.00000000000E+00 -0.14105322623E+04  0.14105322623E+04  0.50400001928E-02 0. -1.
    10030    2    1    2    0    0  0.00000000000E+00  0.00000000000E+00  0.14273534626E+04  0.42484179873E+04  0.40014644179E+04 0.  0.
        2    1    3    3  502    0  0.65753425802E+03  0.17847154813E+04  0.54584016923E+02  0.19027716796E+04  0.25500000920E-02 0. -1.
       -2    1    3    3    0  502 -0.65753425802E+03 -0.17847154813E+04  0.13727694457E+04  0.23456463077E+04  0.25500000920E-02 0.  1.
</event>
<event>
 5   0  0.2078125E-09  0.3999795E+04  0.7818609E-02  0.8004588E-01
       -1   -1    0    0    0  501  0.00000000000E+00  0.00000000000E+00  0.26787461011E+04  0.26787461011E+04  0.50400001928E-02 0.  1.
        1   -1    0    0  501    0  0.00000000000E+00  0.00000000000E+00 -0.14930829258E+04  0.14930829258E+04  0.50400001928E-02 0. -1.
    10030    2    1    2    0    0  0.00000000000E+00  0.00000000000E+00  0.11856631753E+04  0.41718290269E+04  0.39997950278E+04 0.  0.
        2    1    3    3  502    0 -0.75904370143E+03  0.14531297100E+04  0.17874576246E+04  0.24254356422E+04  0.25500000920E-02 0.  1.
       -2    1    3    3    0  502  0.75904370143E+03 -0.14531297100E+04 -0.60179444933E+03  0.17463933847E+04  0.25500000920E-02 0. -1.
</event>
<event>
 5   0  0.6538370E-09  0.3999001E+04  0.7818609E-02  0.8004748E-01
        2   -1    0    0  501    0  0.00000000000E+00  0.00000000000E+00  0.18298564296E+04  0.18298564296E+04  0.25500000920E-02 0. -1.
       -2   -1    0    0    0  501  0.00000000000E+00  0.00000000000E+00 -0.21848721145E+04  0.21848721145E+04  0.25500000920E-02 0.  1.
    10030    2    1    2    0    0  0.00000000000E+00  0.00000000000E+00 -0.35501568491E+03  0.40147285441E+04  0.39990010185E+04 0.  0.
        4    1    3    3  502    0 -0.77647352366E+03  0.69857752794E+03  0.15342135816E+04  0.18559996288E+04  0.12699999809E+01 0. -1.
       -4    1    3    3    0  502  0.77647352366E+03 -0.69857752794E+03 -0.18892292665E+04  0.21587289153E+04  0.12699999809E+01 0.  1.
</event>
<event>
 5   0  0.2078125E-09  0.3995218E+04  0.7818609E-02  0.8005512E-01
       -1   -1    0    0    0  501  0.00000000000E+00  0.00000000000E+00  0.17472388908E+04  0.17472388908E+04  0.50400001928E-02 0. -1.
        1   -1    0    0  501    0  0.00000000000E+00  0.00000000000E+00 -0.22838552983E+04  0.22838552983E+04  0.50400001928E-02 0.  1.
    10030    2    1    2    0    0  0.00000000000E+00  0.00000000000E+00 -0.53661640751E+03  0.40310941891E+04  0.39952175400E+04 0.  0.
        1    1    3    3  502    0  0.18043692773E+04 -0.24190351482E+03  0.56137456116E+03  0.19051003116E+04  0.50400001928E-02 0. -1.
       -1    1    3    3    0  502 -0.18043692773E+04  0.24190351482E+03 -0.10979909687E+04  0.21259938774E+04  0.50400001928E-02 0.  1.
</event>
<event>
 5   0  0.2078125E-09  0.3999402E+04  0.7818609E-02  0.8004667E-01
        1   -1    0    0  501    0  0.00000000000E+00  0.00000000000E+00  0.23922301577E+04  0.23922301577E+04  0.50400001928E-02 0.  1.
       -1   -1    0    0    0  501  0.00000000000E+00  0.00000000000E+00 -0.16715797094E+04  0.16715797094E+04  0.50400001928E-02 0. -1.
    10030    2    1    2    0    0  0.00000000000E+00  0.00000000000E+00  0.72065044827E+03  0.40638098671E+04  0.39994016512E+04 0.  0.
        1    1    3    3  502    0  0.40034238574E+03  0.19161666838E+04 -0.54706628541E+02  0.19583057987E+04  0.50400001928E-02 0. -1.
       -1    1    3    3    0  502 -0.40034238574E+03 -0.19161666838E+04  0.77535707681E+03  0.21055040685E+04  0.50400001928E-02 0.  1.
</event>
<event>
 5   0  0.6547327E-09  0.4000647E+04  0.7818609E-02  0.8004416E-01
        2   -1    0    0  501    0  0.00000000000E+00  0.00000000000E+00  0.22692245740E+04  0.22692245740E+04  0.25500000920E-02 0.  1.
       -2   -1    0    0    0  501  0.00000000000E+00  0.00000000000E+00 -0.17632870732E+04  0.17632870732E+04  0.25500000920E-02 0. -1.
    10030    2    1    2    0    0  0.00000000000E+00  0.00000000000E+00  0.50593750080E+03  0.40325116472E+04  0.40006471264E+04 0.  0.
        5    1    3    3  502    0  0.47562784156E+03 -0.11102080362E+04  0.18601871144E+04  0.22179048487E+04  0.46999998093E+01 0.  1.
       -5    1    3    3    0  502 -0.47562784156E+03  0.11102080362E+04 -0.13542496136E+04  0.18146067985E+04  0.46999998093E+01 0. -1.
</event>
<event>
 5   0  0.6736335E-09  0.3999626E+04  0.7818609E-02  0.8004622E-01
        2   -1    0    0  501    0  0.00000000000E+00  0.00000000000E+00  0.24697194917E+04  0.24697194917E+04  0.25500000920E-02 0. -1.
       -2   -1    0    0    0  501  0.00000000000E+00  0.00000000000E+00 -0.16193144862E+04  0.16193144862E+04  0.25500000920E-02 0.  1.
    10030    2    1    2    0    0  0.00000000000E+00  0.00000000000E+00  0.85040500545E+03  0.40890339779E+04  0.39996262575E+04 0.  0.
        1    1    3    3  502    0  0.16544288839E+04 -0.60691649532E+03  0.13917299501E+04  0.22455277371E+04  0.50400001928E-02 0. -1.
       -1    1    3    3    0  502 -0.16544288839E+04  0.60691649532E+03 -0.54132494465E+03  0.18435062408E+04  0.50400001928E-02 0.  1.
</event>
<event>
 5   0  0.6736335E-09  0.3999713E+04  0.7818609E-02  0.8004605E-01
       -2   -1    0    0    0  501  0.00000000000E+00  0.00000000000E+00  0.18827296671E+04  0.18827296671E+04  0.25500000920E-02 0. -1.
        2   -1    0    0  501    0  0.00000000000E+00  0.00000000000E+00 -0.21242694985E+04  0.21242694985E+04  0.25500000920E-02 0.  1.
    10030    2    1    2    0    0  0.00000000000E+00  0.00000000000E+00 -0.24153983130E+03  0.40069991656E+04  0.39997125926E+04 0.  0.
        1    1    3    3  502    0  0.10766908455E+03  0.82290006571E+02 -0.21196644424E+04  0.21239919081E+04  0.50400001928E-02 0.  1.
       -1    1    3    3    0  502 -0.10766908455E+03 -0.82290006571E+02  0.18781246111E+04  0.18830072575E+04  0.50400001928E-02 0. -1.
</event>
<event>
 5   0  0.2078125E-09  0.3995132E+04  0.7818609E-02  0.8005529E-01
       -1   -1    0    0    0  501  0.00000000000E+00  0.00000000000E+00  0.26548373412E+04  0.26548373412E+04  0.50400001928E-02 0. -1.
        1   -1    0    0  501    0  0.00000000000E+00  0.00000000000E+00 -0.15030185060E+04  0.15030185060E+04  0.50400001928E-02 0.  1.
    10030    2    1    2    0    0  0.00000000000E+00  0.00000000000E+00  0.11518188352E+04  0.41578558472E+04  0.39951318648E+04 0.  0.
        3    1    3    3  502    0  0.66175880503E+03  0.43808355280E+03  0.24837214773E+04  0.26074344291E+04  0.10100000352E+00 0. -1.
       -3    1    3    3    0  502 -0.66175880503E+03 -0.43808355280E+03 -0.13319026421E+04  0.15504214181E+04  0.10100000352E+00 0.  1.
</event>
<event>
 5   0  0.6547327E-09  0.3999713E+04  0.7818609E-02  0.8004604E-01
        2   -1    0    0  501    0  0.00000000000E+00  0.00000000000E+00  0.17727526004E+04  0.17727526004E+04  0.25500000920E-02 0.  1.
       -2   -1    0    0    0  501  0.00000000000E+00  0.00000000000E+00 -0.22560542329E+04  0.22560542329E+04  0.25500000920E-02 0. -1.
    10030    2    1    2    0    0  0.00000000000E+00  0.00000000000E+00 -0.48330163247E+03  0.40288068334E+04  0.39997129938E+04 0.  0.
        5    1    3    3  502    0 -0.16782936143E+04 -0.68851211924E+03 -0.10896089239E+04  0.21161257267E+04  0.46999998093E+01 0. -1.
       -5    1    3    3    0  502  0.16782936143E+04  0.68851211924E+03  0.60630729143E+03  0.19126811067E+04  0.46999998093E+01 0.  1.
</event>
<event>
 5   0  0.6599276E-09  0.4000260E+04  0.7818609E-02  0.8004494E-01
        2   -1    0    0  501    0  0.00000000000E+00  0.00000000000E+00  0.13909374605E+04  0.13909374605E+04  0.25500000920E-02 0.  1.
       -2   -1    0    0    0  501  0.00000000000E+00  0.00000000000E+00 -0.28761327666E+04  0.28761327666E+04  0.25500000920E-02 0. -1.
    10030    2    1    2    0    0  0.00000000000E+00  0.00000000000E+00 -0.14851953061E+04  0.42670702272E+04  0.40002603948E+04 0.  0.
        2    1    3    3  502    0  0.91389936385E+03 -0.90066997580E+02 -0.26379604327E+04  0.27932345687E+04  0.25500000920E-02 0. -1.
       -2    1    3    3    0  502 -0.91389936385E+03  0.90066997580E+02  0.11527651266E+04  0.14738356585E+04  0.25500000920E-02 0.  1.
</event>
<event>
 5   0  0.2078125E-09  0.3994788E+04  0.7818609E-02  0.8005599E-01
       -3   -1    0    0    0  501  0.00000000000E+00  0.00000000000E+00  0.16892360557E+04  0.16892360587E+04  0.10100000352E+00 0.  1.
        3   -1    0    0  501    0  0.00000000000E+00  0.00000000000E+00 -0.23617669555E+04  0.23617669577E+04  0.10100000352E+00 0. -1.
    10030    2    1    2    0    0  0.00000000000E+00  0.00000000000E+00 -0.67253089982E+03  0.40510030164E+04  0.39947875572E+04 0.  0.
        1    1    3    3  502    0 -0.19743317315E+03 -0.12521703140E+04  0.12290467424E+04  0.17656348004E+04  0.50400001928E-02 0.  1.
       -1    1    3    3    0  502  0.19743317315E+03  0.12521703140E+04 -0.19015776423E+04  0.22853682160E+04  0.50400001928E-02 0. -1.
</event>
<event>
 5   0  0.6736335E-09  0.3998915E+04  0.7818609E-02  0.8004766E-01
       -2   -1    0    0    0  501  0.00000000000E+00  0.00000000000E+00  0.16532762485E+04  0.16532762485E+04  0.25500000920E-02 0.  1.
        2   -1    0    0  501    0  0.00000000000E+00  0.00000000000E+00 -0.24181256581E+04  0.24181256581E+04  0.25500000920E-02 0. -1.
    10030    2    1    2    0    0  0.00000000000E+00  0.00000000000E+00 -0.76484940958E+03  0.40714019067E+04  0.39989147111E+04 0.  0.
        1    1    3    3  502    0 -0.36733981027E+02 -0.83246546740E+03  0.14680697101E+04  0.16880689600E+04  0.50400001928E-02 0.  1.
       -1    1    3    3    0  502  0.36733981027E+02  0.83246546740E+03 -0.22329191197E+04  0.23833329467E+04  0.50400001928E-02 0. -1.
</event>
<event>
 5   0  0.6538370E-09  0.3996848E+04  0.7818609E-02  0.8005183E-01
       -2   -1    0    0    0  501  0.00000000000E+00  0.00000000000E+00  0.18185849235E+04  0.18185849235E+04  0.25500000920E-02 0.  1.
        2   -1    0    0  501    0  0.00000000000E+00  0.00000000000E+00 -0.21960468848E+04  0.21960468848E+04  0.25500000920E-02 0. -1.
    10030    2    1    2    0    0  0.00000000000E+00  0.00000000000E+00 -0.37746196132E+03  0.40146318083E+04  0.39968476358E+04 0.  0.
        4    1    3    3  502    0  0.91371558748E+03 -0.14635939762E+04 -0.12015392534E+04  0.21025417219E+04  0.12699999809E+01 0. -1.
       -4    1    3    3    0  502 -0.91371558748E+03  0.14635939762E+04  0.82407729207E+03  0.19120900863E+04  0.12699999809E+01 0.  1.
</event>
<event>
 5   0  0.6736335E-09  0.3995886E+04  0.7818609E-02  0.8005377E-01
       -2   -1    0    0    0  501  0.00000000000E+00  0.00000000000E+00  0.13741705386E+04  0.13741705386E+04  0.25500000920E-02 0. -1.
        2   -1    0    0  501    0  0.00000000000E+00  0.00000000000E+00 -0.29048619270E+04  0.29048619270E+04  0.25500000920E-02 0.  1.
    10030    2    1    2    0    0  0.00000000000E+00  0.00000000000E+00 -0.15306913883E+04  0.42790324656E+04  0.39958857235E+04 0.  0.
        1    1    3    3  502    0 -0.13014821306E+04  0.10345029218E+04 -0.19518869207E+04  0.25639646220E+04  0.50400001928E-02 0.  1.
       -1    1    3    3    0  502  0.13014821306E+04 -0.10345029218E+04  0.42119553241E+03  0.17150678436E+04  0.50400001928E-02 0. -1.
</event>
<event>
 5   0  0.6599276E-09  0.3996568E+04  0.7818609E-02  0.8005239E-01
       -2   -1    0    0    0  501  0.00000000000E+00  0.00000000000E+00  0.16370646777E+04  0.16370646777E+04  0.25500000920E-02 0.  1.
        2   -1    0    0  501    0  0.00000000000E+00  0.00000000000E+00 -0.24392071048E+04  0.24392071048E+04  0.25500000920E-02 0. -1.
    10030    2    1    2    0    0  0.00000000000E+00  0.00000000000E+00 -0.80214242711E+03  0.40762717826E+04  0.39965684245E+04 0.  0.
        2    1    3    3  502    0 -0.13656492082E+04  0.11977602334E+04  0.44831070718E+03  0.18709916694E+04  0.25500000920E-02 0.  1.
       -2    1    3    3    0  502  0.13656492082E+04 -0.11977602334E+04 -0.12504531343E+04  0.22052801132E+04  0.25500000920E-02 0. -1.
</event>
<event>
 5   0  0.2078125E-09  0.3999137E+04  0.7818609E-02  0.8004721E-01
        1   -1    0    0  501    0  0.00000000000E+00  0.00000000000E+00  0.24187987710E+04  0.24187987710E+04  0.50400001928E-02 0.  1.
       -1   -1    0    0    0  501  0.00000000000E+00  0.00000000000E+00 -0.16529996507E+04  0.16529996507E+04  0.50400001928E-02 0. -1.
    10030    2    1    2    0    0  0.00000000000E+00  0.00000000000E+00  0.76579912029E+03  0.40717984217E+04  0.39991366686E+04 0.  0.
        2    1    3    3  502    0 -0.15972978888E+03 -0.88484520458E+03 -0.14355545884E+04  0.16938953975E+04  0.25500000920E-02 0. -1.
       -2    1    3    3    0  502  0.15972978888E+03  0.88484520458E+03  0.22013537087E+04  0.23779030241E+04  0.25500000920E-02 0.  1.
</event>
<event>
 5   0  0.2078125E-09  0.4001850E+04  0.7818609E-02  0.8004174E-01
       -1   -1    0    0    0  501  0.00000000000E+00  0.00000000000E+00  0.15342122278E+04  0.15342122278E+04  0.50400001928E-02 0. -1.
        1   -1    0    0  501    0  0.00000000000E+00  0.00000000000E+00 -0.26096130791E+04  0.26096130791E+04  0.50400001928E-02 0.  1.
    10030    2    1    2    0    0  0.00000000000E+00  0.00000000000E+00 -0.10754008513E+04  0.41438253069E+04  0.40018497202E+04 0.  0.
        2    1    3    3  502    0 -0.11472387741E+04  0.84852716870E+03  0.91475567319E+03  0.16949728914E+04  0.25500000920E-02 0. -1.
       -2    1    3    3    0  502  0.11472387741E+04 -0.84852716870E+03 -0.19901565245E+04  0.24488524155E+04  0.25500000920E-02 0.  1.
</event>
<event>
 5   0  0.6736335E-09  0.3999543E+04  0.7818609E-02  0.8004639E-01
        2   -1    0    0  501    0  0.00000000000E+00  0.00000000000E+00  0.24191530010E+04  0.24191530010E+04  0.25500000920E-02 0. -1.
       -2   -1    0    0    0  501  0.00000000000E+00  0.00000000000E+00 -0.16530934319E+04  0.16530934319E+04  0.25500000920E-02 0.  1.
    10030    2    1    2    0    0  0.00000000000E+00  0.00000000000E+00  0.76605956914E+03  0.40722464329E+04  0.39995429423E+04 0.  0.
        1    1    3    3  502    0 -0.80217099389E+03 -0.10458074279E+04  0.19143282794E+04  0.23241867913E+04  0.50400001928E-02 0. -1.
       -1    1    3    3    0  502  0.80217099389E+03  0.10458074279E+04 -0.11482687102E+04  0.17480596416E+04  0.50400001928E-02 0.  1.
</event>
<event>
 5   0  0.2078125E-09  0.4001131E+04  0.7818609E-02  0.8004318E-01
       -1   -1    0    0    0  501  0.00000000000E+00  0.00000000000E+00  0.24059709343E+04  0.24059709343E+04  0.50400001928E-02 0. -1.
        1   -1    0    0  501    0  0.00000000000E+00  0.00000000000E+00 -0.16634709073E+04  0.16634709073E+04  0.50400001928E-02 0.  1.
    10030    2    1    2    0    0  0.00000000000E+00  0.00000000000E+00  0.74250002702E+03  0.40694418417E+04  0.40011311666E+04 0.  0.
        3    1    3    3  502    0 -0.56822632711E+03 -0.34914613746E+03 -0.15470794487E+04  0.16847073974E+04  0.10100000352E+00 0.  1.
       -3    1    3    3    0  502  0.56822632711E+03  0.34914613746E+03  0.22895794757E+04  0.23847344443E+04  0.10100000352E+00 0. -1.
</event>
<event>
 5   0  0.2078125E-09  0.3999816E+04  0.7818609E-02  0.8004584E-01
       -1   -1    0    0    0  501  0.00000000000E+00  0.00000000000E+00  0.22104015228E+04  0.22104015228E+04  0.50400001928E-02 0. -1.
        1   -1    0    0  501    0  0.00000000000E+00  0.00000000000E+00 -0.18094593069E+04  0.18094593069E+04  0.50400001928E-02 0.  1.
    10030    2    1    2    0    0  0.00000000000E+00  0.00000000000E+00  0.40094221595E+03  0.40198608297E+04  0.39998157994E+04 0.  0.
        5    1    3    3  502    0 -0.71685278918E+03  0.17209794511E+04 -0.52700819506E+03  0.19373713945E+04  0.46999998093E+01 0.  1.
       -5    1    3    3    0  502  0.71685278918E+03 -0.17209794511E+04  0.92795041100E+03  0.20824894352E+04  0.46999998093E+01 0. -1.
</event>
<event>
 5   0  0.6736335E-09  0.3999324E+04  0.7818609E-02  0.8004683E-01
       -2   -1    0    0    0  501  0.00000000000E+00  0.00000000000E+00  0.27010370593E+04  0.27010370593E+04  0.25500000920E-02 0. -1.
        2   -1    0    0  501    0  0.00000000000E+00  0.00000000000E+00 -0.14804120050E+04  0.14804120050E+04  0.25500000920E-02 0.  1.
    10030    2    1    2    0    0  0.00000000000E+00  0.00000000000E+00  0.12206250543E+04  0.41814490643E+04  0.39993237871E+04 0.  0.
        1    1    3    3  502    0  0.52840228785E+03 -0.11645242785E+04  0.22176300736E+04  0.25599236154E+04  0.50400001928E-02 0. -1.
       -1    1    3    3    0  502 -0.52840228785E+03  0.11645242785E+04 -0.99700501925E+03  0.16215254489E+04  0.50400001928E-02 0.  1.
</event>
<event>
 5   0  0.2078125E-09  0.3998922E+04  0.7818609E-02  0.8004764E-01
        1   -1    0    0  501    0  0.00000000000E+00  0.00000000000E+00  0.18690474804E+04  0.18690474804E+04  0.50400001928E-02 0. -1.
       -1   -1    0    0    0  501  0.00000000000E+00  0.00000000000E+00 -0.21389744218E+04  0.21389744218E+04  0.50400001928E-02 0.  1.
    10030    2    1    2    0    0  0.00000000000E+00  0.00000000000E+00 -0.26992694140E+03  0.40080219022E+04  0.39989222317E+04 0.  0.
        4    1    3    3  502    0 -0.54164587069E+03  0.15871486820E+03  0.17875443002E+04  0.18745364485E+04  0.12699999809E+01 0. -1.
       -4    1    3    3    0  502  0.54164587069E+03 -0.15871486820E+03 -0.20574712416E+04  0.21334854538E+04  0.12699999809E+01 0.  1.
</event>
<event>
 5   0  0.6599276E-09  0.3999924E+04  0.7818609E-02  0.8004562E-01
       -2   -1    0    0    0  501  0.00000000000E+00  0.00000000000E+00  0.19913445407E+04  0.19913445407E+04  0.25500000920E-02 0. -1.
        2   -1    0    0  501    0  0.00000000000E+00  0.00000000000E+00 -0.20086163849E+04  0.20086163849E+04  0.25500000920E-02 0.  1.
    10030    2    1    2    0    0  0.00000000000E+00  0.00000000000E+00 -0.17271844166E+02  0.39999609256E+04  0.39999236355E+04 0.  0.
        2    1    3    3  502    0 -0.13071614518E+04 -0.96478349419E+03 -0.11749953802E+04  0.20050168067E+04  0.25500000920E-02 0.  1.
       -2    1    3    3    0  502  0.13071614518E+04  0.96478349419E+03  0.11577235360E+04  0.19949441189E+04  0.25500000920E-02 0. -1.
</event>
<event>
 5   0  0.2078125E-09  0.4001072E+04  0.7818609E-02  0.8004330E-01
       -1   -1    0    0    0  501  0.00000000000E+00  0.00000000000E+00  0.21349021937E+04  0.21349021937E+04  0.50400001928E-02 0.  1.
        1   -1    0    0  501    0  0.00000000000E+00  0.00000000000E+00 -0.18746260685E+04  0.18746260685E+04  0.50400001928E-02 0. -1.
    10030    2    1    2    0    0  0.00000000000E+00  0.00000000000E+00  0.26027612521E+03  0.40095282621E+04  0.40010715094E+04 0.  0.
        1    1    3    3  502    0  0.86115015821E+03  0.12326403194E+04  0.14524578601E+04  0.20906017286E+04  0.50400001928E-02 0.  1.
       -1    1    3    3    0  502 -0.86115015821E+03 -0.12326403194E+04 -0.11921817349E+04  0.19189265336E+04  0.50400001928E-02 0. -1.
</event>
<event>
 5   0  0.2078125E-09  0.3996298E+04  0.7818609E-02  0.8005294E-01
       -1   -1    0    0    0  501  0.00000000000E+00  0.00000000000E+00  0.16906603312E+04  0.16906603312E+04  0.50400001928E-02 0.  1.
        1   -1    0    0  501    0  0.00000000000E+00  0.00000000000E+00 -0.23615618039E+04  0.23615618039E+04  0.50400001928E-02 0. -1.
    10030    2    1    2    0    0  0.00000000000E+00  0.00000000000E+00 -0.67090147271E+03  0.40522221351E+04  0.39962977174E+04 0.  0.
        1    1    3    3  502    0  0.11190309314E+04  0.73086500537E+03  0.11706649781E+04  0.17767527606E+04  0.50400001928E-02 0.  1.
       -1    1    3    3    0  502 -0.11190309314E+04 -0.73086500537E+03 -0.18415664508E+04  0.22754693745E+04  0.50400001928E-02 0. -1.
</event>
<event>
 5   0  0.6547327E-09  0.3998819E+04  0.7818609E-02  0.8004785E-01
       -2   -1    0    0    0  501  0.00000000000E+00  0.00000000000E+00  0.14098125433E+04  0.14098125434E+04  0.25500000920E-02 0.  1.
        2   -1    0    0  501    0  0.00000000000E+00  0.00000000000E+00 -0.28355820769E+04  0.28355820769E+04  0.25500000920E-02 0. -1.
    10030    2    1    2    0    0  0.00000000000E+00  0.00000000000E+00 -0.14257695336E+04  0.42453946203E+04  0.39988194156E+04 0.  0.
        5    1    3    3  502    0  0.15165944458E+04 -0.12896641476E+04 -0.51619124870E+03  0.20566399349E+04  0.46999998093E+01 0.  1.
       -5    1    3    3    0  502 -0.15165944458E+04  0.12896641476E+04 -0.90957828487E+03  0.21887546854E+04  0.46999998093E+01 0. -1.
</event>
<event>
 5   0  0.2078125E-09  0.4001682E+04  0.7818609E-02  0.8004207E-01
        1   -1    0    0  501    0  0.00000000000E+00  0.00000000000E+00  0.15396133030E+04  0.15396133030E+04  0.50400001928E-02 0.  1.
       -1   -1    0    0    0  501  0.00000000000E+00  0.00000000000E+00 -0.26002400436E+04  0.26002400436E+04  0.50400001928E-02 0. -1.
    10030    2    1    2    0    0  0.00000000000E+00  0.00000000000E+00 -0.10606267407E+04  0.41398533466E+04  0.40016817275E+04 0.  0.
        3    1    3    3  502    0 -0.11996457416E+03 -0.16772067870E+04 -0.16521686836E+04  0.23573450055E+04  0.10100000352E+00 0. -1.
       -3    1    3    3    0  502  0.11996457416E+03  0.16772067870E+04  0.59154194296E+03  0.17825083411E+04  0.10100000352E+00 0.  1.
</event>
<event>
 5   0  0.2078125E-09  0.3998898E+04  0.7818609E-02  0.8004769E-01
        1   -1    0    0  501    0  0.00000000000E+00  0.00000000000E+00  0.17367706949E+04  0.17367706949E+04  0.50400001928E-02 0.  1.
       -1   -1    0    0    0  501  0.00000000000E+00  0.00000000000E+00 -0.23018567137E+04  0.23018567137E+04  0.50400001928E-02 0. -1.
    10030    2    1    2    0    0  0.00000000000E+00  0.00000000000E+00 -0.56508601881E+03  0.40386274085E+04  0.39988984904E+04 0.  0.
        5    1    3    3  502    0 -0.17853567241E+04  0.86102101965E+03 -0.17409851910E+02  0.19822161894E+04  0.46999998093E+01 0.  1.
       -5    1    3    3    0  502  0.17853567241E+04 -0.86102101965E+03 -0.54767616690E+03  0.20564112192E+04  0.46999998093E+01 0. -1.
</event>
<event>
 5   0  0.6599276E-09  0.3999097E+04  0.7818609E-02  0.8004729E-01
       -2   -1    0    0    0  501  0.00000000000E+00  0.00000000000E+00  0.15506420562E+04  0.15506420562E+04  0.25500000920E-02 0.  1.
        2   -1    0    0  501    0  0.00000000000E+00  0.00000000000E+00 -0.25784115924E+04  0.25784115924E+04  0.25500000920E-02 0. -1.
    10030    2    1    2    0    0  0.00000000000E+00  0.00000000000E+00 -0.10277695362E+04  0.41290536485E+04  0.39990966246E+04 0.  0.
        2    1    3    3  502    0  0.12269828826E+04  0.42551539775E+03 -0.20837017405E+04  0.24552725493E+04  0.25500000920E-02 0. -1.
       -2    1    3    3    0  502 -0.12269828826E+04 -0.42551539775E+03  0.10559322043E+04  0.16737810992E+04  0.25500000920E-02 0.  1.
</event>
<event>
 5   0  0.6538370E-09  0.3999636E+04  0.7818609E-02  0.8004620E-01
       -2   -1    0    0    0  501  0.00000000000E+00  0.00000000000E+00  0.23008116227E+04  0.23008116227E+04  0.25500000920E-02 0. -1.
        2   -1    0    0  501    0  0.00000000000E+00  0.00000000000E+00 -0.17382006948E+04  0.17382006948E+04  0.25500000920E-02 0.  1.
    10030    2    1    2    0    0  0.00000000000E+00  0.00000000000E+00  0.56261092784E+03  0.40390123175E+04  0.39996361641E+04 0.  0.
        4    1    3    3  502    0  0.92346590220E+03 -0.98740388428E+03  0.17694191552E+04  0.22267917422E+04  0.12699999809E+01 0. -1.
       -4    1    3    3    0  502 -0.92346590220E+03  0.98740388428E+03 -0.12068082274E+04  0.18122205754E+04  0.12699999809E+01 0.  1.
</event>
<event>
 5   0  0.2078125E-09  0.4000716E+04  0.7818609E-02  0.8004402E-01
        1   -1    0    0  501    0  0.00000000000E+00  0.00000000000E+00  0.18866632842E+04  0.18866632842E+04  0.50400001928E-02 0. -1.
       -1   -1    0    0    0  501  0.00000000000E+00  0.00000000000E+00 -0.21209038408E+04  0.21209038408E+04  0.50400001928E-02 0.  1.
    10030    2    1    2    0    0  0.00000000000E+00  0.00000000000E+00 -0.23424055660E+03  0.40075671250E+04  0.40007156389E+04 0.  0.
        3    1    3    3  502    0 -0.15308444120E+04 -0.11104147280E+04  0.53585949656E+03  0.19656171785E+04  0.10100000352E+00 0. -1.
       -3    1    3    3    0  502  0.15308444120E+04  0.11104147280E+04 -0.77010005316E+03  0.20419499465E+04  0.10100000352E+00 0.  1.
</event>
<event>
 5   0  0.6599276E-09  0.3997596E+04  0.7818609E-02  0.8005032E-01
        2   -1    0    0  501    0  0.00000000000E+00  0.00000000000E+00  0.13484025575E+04  0.13484025575E+04  0.25500000920E-02 0.  1.
       -2   -1    0    0    0  501  0.00000000000E+00  0.00000000000E+00 -0.29629084768E+04  0.29629084768E+04  0.25500000920E-02 0. -1.
    10030    2    1    2    0    0  0.00000000000E+00  0.00000000000E+00 -0.16145059193E+04  0.43113110343E+04  0.39975959615E+04 0.  0.
        2    1    3    3  502    0  0.17573794300E+04  0.92833217113E+03 -0.10360584005E+04  0.22413389057E+04  0.25500000920E-02 0. -1.
       -2    1    3    3    0  502 -0.17573794300E+04 -0.92833217113E+03 -0.57844751876E+03  0.20699721286E+04  0.25500000920E-02 0.  1.
</event>
<event>
 5   0  0.6538370E-09  0.4011161E+04  0.7818609E-02  0.8002299E-01
       -2   -1    0    0    0  501  0.00000000000E+00  0.00000000000E+00  0.17818868493E+04  0.17818868493E+04  0.25500000920E-02 0. -1.
        2   -1    0    0  501    0  0.00000000000E+00  0.00000000000E+00 -0.22573559593E+04  0.22573559593E+04  0.25500000920E-02 0.  1.
    10030    2    1    2    0    0  0.00000000000E+00  0.00000000000E+00 -0.47546910999E+03  0.40392428086E+04  0.40111608784E+04 0.  0.
        4    1    3    3  502    0 -0.14535873872E+04 -0.13325202023E+04 -0.60611651024E+03  0.20629845416E+04  0.12699999809E+01 0.  1.
       -4    1    3    3    0  502  0.14535873872E+04  0.13325202023E+04  0.13064740025E+03  0.19762582670E+04  0.12699999809E+01 0. -1.
</event>
<event>
 5   0  0.6645526E-09  0.4000036E+04  0.7818609E-02  0.8004539E-01
        2   -1    0    0  501    0  0.00000000000E+00  0.00000000000E+00  0.30092490533E+04  0.30092490533E+04  0.25500000920E-02 0.  1.
       -2   -1    0    0    0  501  0.00000000000E+00  0.00000000000E+00 -0.13292589298E+04  0.13292589298E+04  0.25500000920E-02 0. -1.
    10030    2    1    2    0    0  0.00000000000E+00  0.00000000000E+00  0.16799901234E+04  0.43385079831E+04  0.40000355879E+04 0.  0.
        3    1    3    3  502    0 -0.10640359504E+04 -0.15564721839E+04  0.11622688943E+03  0.18889909643E+04  0.10100000352E+00 0. -1.
       -3    1    3    3    0  502  0.10640359504E+04  0.15564721839E+04  0.15637632340E+04  0.24495170188E+04  0.10100000352E+00 0.  1.
</event>
<event>
 5   0  0.2078125E-09  0.3999430E+04  0.7818609E-02  0.8004662E-01
       -1   -1    0    0    0  501  0.00000000000E+00  0.00000000000E+00  0.22025601063E+04  0.22025601063E+04  0.50400001928E-02 0.  1.
        1   -1    0    0  501    0  0.00000000000E+00  0.00000000000E+00 -0.18155504937E+04  0.18155504937E+04  0.50400001928E-02 0. -1.
    10030    2    1    2    0    0  0.00000000000E+00  0.00000000000E+00  0.38700961259E+03  0.40181106000E+04  0.39994295035E+04 0.  0.
        5    1    3    3  502    0 -0.13642316632E+04  0.30618327504E+03  0.16298542768E+04  0.21473991903E+04  0.46999998093E+01 0.  1.
       -5    1    3    3    0  502  0.13642316632E+04 -0.30618327504E+03 -0.12428446643E+04  0.18707114097E+04  0.46999998093E+01 0. -1.
</event>
<event>
 5   0  0.6599276E-09  0.3999366E+04  0.7818609E-02  0.8004674E-01
       -2   -1    0    0    0  501  0.00000000000E+00  0.00000000000E+00  0.16558711986E+04  0.16558711986E+04  0.25500000920E-02 0.  1.
        2   -1    0    0  501    0  0.00000000000E+00  0.00000000000E+00 -0.24148814433E+04  0.24148814433E+04  0.25500000920E-02 0. -1.
    10030    2    1    2    0    0  0.00000000000E+00  0.00000000000E+00 -0.75901024469E+03  0.40707526419E+04  0.39993662648E+04 0.  0.
        2    1    3    3  502    0 -0.69065554813E+03 -0.46964116768E+03  0.14698364471E+04  0.16905582196E+04  0.25500000920E-02 0.  1.
       -2    1    3    3    0  502  0.69065554813E+03  0.46964116768E+03 -0.22288466918E+04  0.23801944223E+04  0.25500000920E-02 0. -1.
</event>
<event>
 5   0  0.2078125E-09  0.3999058E+04  0.7818609E-02  0.8004737E-01
       -1   -1    0    0    0  501  0.00000000000E+00  0.00000000000E+00  0.27110778285E+04  0.27110778285E+04  0.50400001928E-02 0. -1.
        1   -1    0    0  501    0  0.00000000000E+00  0.00000000000E+00 -0.14747330723E+04  0.14747330723E+04  0.50400001928E-02 0.  1.
    10030    2    1    2    0    0  0.00000000000E+00  0.00000000000E+00  0.12363447562E+04  0.41858109008E+04  0.39990579567E+04 0.  0.
        4    1    3    3  502    0  0.68420544472E+03  0.27999052222E+03 -0.13264310663E+04  0.15185363907E+04  0.12699999809E+01 0.  1.
       -4    1    3    3    0  502 -0.68420544472E+03 -0.27999052222E+03  0.25627758225E+04  0.26672745102E+04  0.12699999809E+01 0. -1.
</event>
<event>
 5   0  0.6599276E-09  0.4000662E+04  0.7818609E-02  0.8004413E-01
       -2   -1    0    0    0  501  0.00000000000E+00  0.00000000000E+00  0.19933476987E+04  0.19933476987E+04  0.25500000920E-02 0. -1.
        2   -1    0    0  501    0  0.00000000000E+00  0.00000000000E+00 -0.20073385442E+04  0.20073385442E+04  0.25500000920E-02 0.  1.
    10030    2    1    2    0    0  0.00000000000E+00  0.00000000000E+00 -0.13990845426E+02  0.40006862429E+04  0.40006617790E+04 0.  0.
        2    1    3    3  502    0 -0.12427662368E+02  0.19131145046E+04 -0.59108983740E+03  0.20023857647E+04  0.25500000920E-02 0. -1.
       -2    1    3    3    0  502  0.12427662368E+02 -0.19131145046E+04  0.57709899197E+03  0.19983004782E+04  0.25500000920E-02 0.  1.
</event>
<event>
 5   0  0.2078125E-09  0.3999287E+04  0.7818609E-02  0.8004690E-01
        1   -1    0    0  501    0  0.00000000000E+00  0.00000000000E+00  0.16869583541E+04  0.16869583541E+04  0.50400001928E-02 0. -1.
       -1   -1    0    0    0  501  0.00000000000E+00  0.00000000000E+00 -0.23702864663E+04  0.23702864663E+04  0.50400001928E-02 0.  1.
    10030    2    1    2    0    0  0.00000000000E+00  0.00000000000E+00 -0.68332811222E+03  0.40572448204E+04  0.39992872145E+04 0.  0.
        5    1    3    3  502    0 -0.65409679875E+03  0.11066683017E+04  0.12121969611E+04  0.17669184799E+04  0.46999998093E+01 0. -1.
       -5    1    3    3    0  502  0.65409679875E+03 -0.11066683017E+04 -0.18955250734E+04  0.22903263405E+04  0.46999998093E+01 0.  1.
</event>
<event>
 5   0  0.2078125E-09  0.3997540E+04  0.7818609E-02  0.8005043E-01
       -1   -1    0    0    0  501  0.00000000000E+00  0.00000000000E+00  0.21570303465E+04  0.21570303465E+04  0.50400001928E-02 0. -1.
        1   -1    0    0  501    0  0.00000000000E+00  0.00000000000E+00 -0.18521211410E+04  0.18521211410E+04  0.50400001928E-02 0.  1.
    10030    2    1    2    0    0  0.00000000000E+00  0.00000000000E+00  0.30490920546E+03  0.40091514875E+04  0.39975399968E+04 0.  0.
        5    1    3    3  502    0 -0.95469263732E+02  0.17578110581E+04 -0.79689164201E+03  0.19323748279E+04  0.46999998093E+01 0.  1.
       -5    1    3    3    0  502  0.95469263732E+02 -0.17578110581E+04  0.11018008475E+04  0.20767766596E+04  0.46999998093E+01 0. -1.
</event>
<event>
 5   0  0.2078125E-09  0.4003189E+04  0.7818609E-02  0.8003904E-01
       -1   -1    0    0    0  501  0.00000000000E+00  0.00000000000E+00  0.14839294947E+04  0.14839294947E+04  0.50400001928E-02 0.  1.
        1   -1    0    0  501    0  0.00000000000E+00  0.00000000000E+00 -0.26998450521E+04  0.26998450521E+04  0.50400001928E-02 0. -1.
    10030    2    1    2    0    0  0.00000000000E+00  0.00000000000E+00 -0.12159155574E+04  0.41837745468E+04  0.40031885810E+04 0.  0.
        3    1    3    3  502    0  0.13685095727E+04  0.14565697823E+04 -0.49363533316E+03  0.20586621465E+04  0.10100000352E+00 0.  1.
       -3    1    3    3    0  502 -0.13685095727E+04 -0.14565697823E+04 -0.72228022423E+03  0.21251124002E+04  0.10100000352E+00 0. -1.
</event>
<event>
 5   0  0.2078125E-09  0.3999895E+04  0.7818609E-02  0.8004568E-01
        1   -1    0    0  501    0  0.00000000000E+00  0.00000000000E+00  0.21978431714E+04  0.21978431714E+04  0.50400001928E-02 0. -1.
       -1   -1    0    0    0  501  0.00000000000E+00  0.00000000000E+00 -0.18198706485E+04  0.18198706485E+04  0.50400001928E-02 0.  1.
    10030    2    1    2    0    0  0.00000000000E+00  0.00000000000E+00  0.37797252299E+03  0.40177138199E+04  0.39998951374E+04 0.  0.
        2    1    3    3  502    0  0.97185595247E+03 -0.10535425433E+04  0.15899520364E+04  0.21406548907E+04  0.25500000920E-02 0. -1.
       -2    1    3    3    0  502 -0.97185595247E+03  0.10535425433E+04 -0.12119795134E+04  0.18770589292E+04  0.25500000920E-02 0.  1.
</event>
<event>
 5   0  0.6547327E-09  0.4001274E+04  0.7818609E-02  0.8004290E-01
       -2   -1    0    0    0  501  0.00000000000E+00  0.00000000000E+00  0.14197682371E+04  0.14197682371E+04  0.25500000920E-02 0.  1.
        2   -1    0    0  501    0  0.00000000000E+00  0.00000000000E+00 -0.28191565537E+04  0.28191565537E+04  0.25500000920E-02 0. -1.
    10030    2    1    2    0    0  0.00000000000E+00  0.00000000000E+00 -0.13993883165E+04  0.42389247908E+04  0.40012742623E+04 0.  0.
        5    1    3    3  502    0  0.66855233272E+03 -0.15912992702E+04  0.37198678782E+03  0.17656703682E+04  0.46999998093E+01 0. -1.
       -5    1    3    3    0  502 -0.66855233272E+03  0.15912992702E+04 -0.17713751044E+04  0.24732544226E+04  0.46999998093E+01 0.  1.
</event>
<event>
 5   0  0.2078125E-09  0.3998077E+04  0.7818609E-02  0.8004935E-01
        1   -1    0    0  501    0  0.00000000000E+00  0.00000000000E+00  0.20307498247E+04  0.20307498247E+04  0.50400001928E-02 0.  1.
       -1   -1    0    0    0  501  0.00000000000E+00  0.00000000000E+00 -0.19678225667E+04  0.19678225667E+04  0.50400001928E-02 0. -1.
    10030    2    1    2    0    0  0.00000000000E+00  0.00000000000E+00  0.62927258075E+02  0.39985723914E+04  0.39980772040E+04 0.  0.
        4    1    3    3  502    0 -0.13067700936E+04 -0.72379975368E+03 -0.12970907373E+04  0.19783781627E+04  0.12699999809E+01 0.  1.
       -4    1    3    3    0  502  0.13067700936E+04  0.72379975368E+03  0.13600179954E+04  0.20201942287E+04  0.12699999809E+01 0. -1.
</event>
<event>
 5   0  0.2078125E-09  0.4002667E+04  0.7818609E-02  0.8004009E-01
       -1   -1    0    0    0  501  0.00000000000E+00  0.00000000000E+00  0.22632362653E+04  0.22632362654E+04  0.50400001928E-02 0. -1.
        1   -1    0    0  501    0  0.00000000000E+00  0.00000000000E+00 -0.17697383022E+04  0.17697383022E+04  0.50400001928E-02 0.  1.
    10030    2    1    2    0    0  0.00000000000E+00  0.00000000000E+00  0.49349796317E+03  0.40329745675E+04  0.40026670637E+04 0.  0.
        5    1    3    3  502    0 -0.16732446304E+04  0.10621133687E+04 -0.33713508863E+02  0.19821682804E+04  0.46999998093E+01 0.  1.
       -5    1    3    3    0  502  0.16732446304E+04 -0.10621133687E+04  0.52721147204E+03  0.20508062871E+04  0.46999998093E+01 0. -1.
</event>
<event>
 5   0  0.6599276E-09  0.3999396E+04  0.7818609E-02  0.8004668E-01
       -2   -1    0    0    0  501  0.00000000000E+00  0.00000000000E+00  0.22319472715E+04  0.22319472715E+04  0.25500000920E-02 0. -1.
        2   -1    0    0  501    0  0.00000000000E+00  0.00000000000E+00 -0.17916162185E+04  0.17916162185E+04  0.25500000920E-02 0.  1.
    10030    2    1    2    0    0  0.00000000000E+00  0.00000000000E+00  0.44033105302E+03  0.40235634900E+04  0.39993964197E+04 0.  0.
        2    1    3    3  502    0  0.31370246311E+03 -0.24020065970E+03 -0.17519571637E+04  0.17959564292E+04  0.25500000920E-02 0.  1.
       -2    1    3    3    0  502 -0.31370246311E+03  0.24020065970E+03  0.21922882167E+04  0.22276070608E+04  0.25500000920E-02 0. -1.
</event>
<event>
 5   0  0.2078125E-09  0.3993259E+04  0.7818609E-02  0.8005908E-01
       -1   -1    0    0    0  501  0.00000000000E+00  0.00000000000E+00  0.27946583442E+04  0.27946583442E+04  0.50400001928E-02 0. -1.
        1   -1    0    0  501    0  0.00000000000E+00  0.00000000000E+00 -0.14264821391E+04  0.14264821391E+04  0.50400001928E-02 0.  1.
    10030    2    1    2    0    0  0.00000000000E+00  0.00000000000E+00  0.13681762052E+04  0.42211404833E+04  0.39932594271E+04 0.  0.
        2    1    3    3  502    0 -0.63994871517E+03 -0.31167538545E+03 -0.12878024732E+04  0.14714316545E+04  0.25500000920E-02 0.  1.
       -2    1    3    3    0  502  0.63994871517E+03  0.31167538545E+03  0.26559786783E+04  0.27497088289E+04  0.25500000920E-02 0. -1.
</event>
<event>
 5   0  0.6547327E-09  0.4002002E+04  0.7818609E-02  0.8004143E-01
        2   -1    0    0  501    0  0.00000000000E+00  0.00000000000E+00  0.24651631765E+04  0.24651631765E+04  0.25500000920E-02 0.  1.
       -2   -1    0    0    0  501  0.00000000000E+00  0.00000000000E+00 -0.16242350568E+04  0.16242350568E+04  0.25500000920E-02 0. -1.
    10030    2    1    2    0    0  0.00000000000E+00  0.00000000000E+00  0.84092811970E+03  0.40893982333E+04  0.40020017251E+04 0.  0.
        5    1    3    3  502    0  0.71392242591E+03  0.16619568176E+03 -0.14820977215E+04  0.16534636316E+04  0.46999998093E+01 0. -1.
       -5    1    3    3    0  502 -0.71392242591E+03 -0.16619568176E+03  0.23230258412E+04  0.24359346017E+04  0.46999998093E+01 0.  1.
</event>
<event>
 5   0  0.2078125E-09  0.4000902E+04  0.7818609E-02  0.8004365E-01
        1   -1    0    0  501    0  0.00000000000E+00  0.00000000000E+00  0.22175465209E+04  0.22175465209E+04  0.50400001928E-02 0.  1.
       -1   -1    0    0    0  501  0.00000000000E+00  0.00000000000E+00 -0.18046089634E+04  0.18046089634E+04  0.50400001928E-02 0. -1.
    10030    2    1    2    0    0  0.00000000000E+00  0.00000000000E+00  0.41293755745E+03  0.40221554843E+04  0.40009020625E+04 0.  0.
        1    1    3    3  502    0 -0.11873982458E+04  0.12737734722E+04 -0.78333794233E+03  0.19094585056E+04  0.50400001928E-02 0.  1.
       -1    1    3    3    0  502  0.11873982458E+04 -0.12737734722E+04  0.11962754998E+04  0.21126969787E+04  0.50400001928E-02 0. -1.
</event>
<event>
 5   0  0.6645526E-09  0.4005887E+04  0.7818609E-02  0.8003360E-01
       -2   -1    0    0    0  501  0.00000000000E+00  0.00000000000E+00  0.26882163479E+04  0.26882163479E+04  0.25500000920E-02 0.  1.
        2   -1    0    0  501    0  0.00000000000E+00  0.00000000000E+00 -0.14923588091E+04  0.14923588091E+04  0.25500000920E-02 0. -1.
    10030    2    1    2    0    0  0.00000000000E+00  0.00000000000E+00  0.11958575388E+04  0.41805751569E+04  0.40058873411E+04 0.  0.
        3    1    3    3  502    0 -0.16673057991E+04  0.72521278301E+03 -0.27891363982E+03  0.18394659652E+04  0.10100000352E+00 0. -1.
       -3    1    3    3    0  502  0.16673057991E+04 -0.72521278301E+03  0.14747711786E+04  0.23411091918E+04  0.10100000352E+00 0.  1.
</event>
<event>
 5   0  0.6547327E-09  0.3999160E+04  0.7818609E-02  0.8004716E-01
       -2   -1    0    0    0  501  0.00000000000E+00  0.00000000000E+00  0.16318044332E+04  0.16318044332E+04  0.25500000920E-02 0. -1.
        2   -1    0    0  501    0  0.00000000000E+00  0.00000000000E+00 -0.24502443831E+04  0.24502443831E+04  0.25500000920E-02 0.  1.
    10030    2    1    2    0    0  0.00000000000E+00  0.00000000000E+00 -0.81843994989E+03  0.40820488162E+04  0.39991597351E+04 0.  0.
        5    1    3    3  502    0  0.52026089424E+03 -0.13701169514E+04 -0.17977105031E+04  0.23194130726E+04  0.46999998093E+01 0.  1.
       -5    1    3    3    0  502 -0.52026089424E+03  0.13701169514E+04  0.97927055317E+03  0.17626357437E+04  0.46999998093E+01 0. -1.
</event>
<event>
 5   0  0.2078125E-09  0.4000511E+04  0.7818609E-02  0.8004444E-01
       -1   -1    0    0    0  501  0.00000000000E+00  0.00000000000E+00  0.25540235810E+04  0.25540235810E+04  0.50400001928E-02 0.  1.
        1   -1    0    0  501    0  0.00000000000E+00  0.00000000000E+00 -0.15665562605E+04  0.15665562605E+04  0.50400001928E-02 0. -1.
    10030    2    1    2    0    0  0.00000000000E+00  0.00000000000E+00  0.98746732055E+03  0.41205798415E+04  0.40005107825E+04 0.  0.
        1    1    3    3  502    0  0.83388916758E+03 -0.68595126127E+03 -0.12405842728E+04  0.16446731027E+04  0.50400001928E-02 0. -1.
       -1    1    3    3    0  502 -0.83388916758E+03  0.68595126127E+03  0.22280515934E+04  0.24759067388E+04  0.50400001928E-02 0.  1.
</event>
<event>
 5   0  0.6599276E-09  0.3999979E+04  0.7818609E-02  0.8004551E-01
        2   -1    0    0  501    0  0.00000000000E+00  0.00000000000E+00  0.13636463165E+04  0.13636463165E+04  0.25500000920E-02 0. -1.
       -2   -1    0    0    0  501  0.00000000000E+00  0.00000000000E+00 -0.29332817164E+04  0.29332817164E+04  0.25500000920E-02 0.  1.
    10030    2    1    2    0    0  0.00000000000E+00  0.00000000000E+00 -0.15696354000E+04  0.42969280329E+04  0.39999794039E+04 0.  0.
        2    1    3    3  502    0 -0.14680398085E+04  0.69016924776E+03  0.47184938630E+03  0.16894130085E+04  0.25500000920E-02 0. -1.
       -2    1    3    3    0  502  0.14680398085E+04 -0.69016924776E+03 -0.20414847862E+04  0.26075150244E+04  0.25500000920E-02 0.  1.
</event>
<event>
 5   0  0.6547327E-09  0.4001472E+04  0.7818609E-02  0.8004250E-01
        2   -1    0    0  501    0  0.00000000000E+00  0.00000000000E+00  0.23524813901E+04  0.23524813901E+04  0.25500000920E-02 0.  1.
       -2   -1    0    0    0  501  0.00000000000E+00  0.00000000000E+00 -0.17015838609E+04  0.17015838609E+04  0.25500000920E-02 0. -1.
    10030    2    1    2    0    0  0.00000000000E+00  0.00000000000E+00  0.65089752922E+03  0.40540652509E+04  0.40014719124E+04 0.  0.
        5    1    3    3  502    0 -0.65119590201E+03 -0.18898917125E+04  0.41127038272E+03  0.20408116536E+04  0.46999998093E+01 0. -1.
       -5    1    3    3    0  502  0.65119590201E+03  0.18898917125E+04  0.23962714650E+03  0.20132535973E+04  0.46999998093E+01 0.  1.
</event>
<event>
 5   0  0.2078125E-09  0.3999139E+04  0.7818609E-02  0.8004720E-01
        1   -1    0    0  501    0  0.00000000000E+00  0.00000000000E+00  0.22386820575E+04  0.22386820575E+04  0.50400001928E-02 0. -1.
       -1   -1    0    0    0  501  0.00000000000E+00  0.00000000000E+00 -0.17859961557E+04  0.17859961557E+04  0.50400001928E-02 0.  1.
    10030    2    1    2    0    0  0.00000000000E+00  0.00000000000E+00  0.45268590184E+03  0.40246782133E+04  0.39991386816E+04 0.  0.
        2    1    3    3  502    0  0.18075871123E+04  0.84068434561E+03  0.69927696380E+02  0.19947459037E+04  0.25500000920E-02 0. -1.
       -2    1    3    3    0  502 -0.18075871123E+04 -0.84068434561E+03  0.38275820546E+03  0.20299323096E+04  0.25500000920E-02 0.  1.
</event>
<event>
 5   0  0.6547327E-09  0.3981369E+04  0.7818609E-02  0.8008315E-01
        2   -1    0    0  501    0  0.00000000000E+00  0.00000000000E+00  0.22223440452E+04  0.22223440452E+04  0.25500000920E-02 0.  1.
       -2   -1    0    0    0  501  0.00000000000E+00  0.00000000000E+00 -0.17831738043E+04  0.17831738043E+04  0.25500000920E-02 0. -1.
    10030    2    1    2    0    0  0.00000000000E+00  0.00000000000E+00  0.43917024090E+03  0.40055178495E+04  0.39813694556E+04 0.  0.
        5    1    3    3  502    0 -0.14790952578E+04  0.10956619763E+04  0.98221029295E+03  0.20863741509E+04  0.46999998093E+01 0.  1.
       -5    1    3    3    0  502  0.14790952578E+04 -0.10956619763E+04 -0.54304005205E+03  0.19191436986E+04  0.46999998093E+01 0. -1.
</event>
<event>
 5   0  0.2078125E-09  0.3999493E+04  0.7818609E-02  0.8004649E-01
       -1   -1    0    0    0  501  0.00000000000E+00  0.00000000000E+00  0.15979685340E+04  0.15979685340E+04  0.50400001928E-02 0.  1.
        1   -1    0    0  501    0  0.00000000000E+00  0.00000000000E+00 -0.25025441354E+04  0.25025441354E+04  0.50400001928E-02 0. -1.
    10030    2    1    2    0    0  0.00000000000E+00  0.00000000000E+00 -0.90457560147E+03  0.41005126694E+04  0.39994933596E+04 0.  0.
        4    1    3    3  502    0  0.60232922216E+03 -0.93485067677E+03 -0.21562650651E+04  0.24261547608E+04  0.12699999809E+01 0. -1.
       -4    1    3    3    0  502 -0.60232922216E+03  0.93485067677E+03  0.12516894636E+04  0.16743579086E+04  0.12699999809E+01 0.  1.
</event>
<event>
 5   0  0.2078125E-09  0.3991583E+04  0.7818609E-02  0.8006247E-01
       -1   -1    0    0    0  501  0.00000000000E+00  0.00000000000E+00  0.16193097567E+04  0.16193097567E+04  0.50400001928E-02 0. -1.
        1   -1    0    0  501    0  0.00000000000E+00  0.00000000000E+00 -0.24598033866E+04  0.24598033866E+04  0.50400001928E-02 0.  1.
    10030    2    1    2    0    0  0.00000000000E+00  0.00000000000E+00 -0.84049362991E+03  0.40791131433E+04  0.39915829560E+04 0.  0.
        5    1    3    3  502    0  0.38558105181E+03  0.45712162078E+03 -0.23660829330E+04  0.24404924625E+04  0.46999998093E+01 0.  1.
       -5    1    3    3    0  502 -0.38558105181E+03 -0.45712162078E+03  0.15255893031E+04  0.16386206808E+04  0.46999998093E+01 0. -1.
</event>
<event>
 5   0  0.2078125E-09  0.3997015E+04  0.7818609E-02  0.8005149E-01
       -1   -1    0    0    0  501  0.00000000000E+00  0.00000000000E+00  0.16246529614E+04  0.16246529614E+04  0.50400001928E-02 0.  1.
        1   -1    0    0  501    0  0.00000000000E+00  0.00000000000E+00 -0.24583909113E+04  0.24583909113E+04  0.50400001928E-02 0. -1.
    10030    2    1    2    0    0  0.00000000000E+00  0.00000000000E+00 -0.83373794994E+03  0.40830438728E+04  0.39970149234E+04 0.  0.
        5    1    3    3  502    0  0.27980483220E+03 -0.17889205236E+04  0.44719881302E+03  0.18650834438E+04  0.46999998093E+01 0.  1.
       -5    1    3    3    0  502 -0.27980483220E+03  0.17889205236E+04 -0.12809367630E+04  0.22179604290E+04  0.46999998093E+01 0. -1.
</event>
<event>
 5   0  0.6645526E-09  0.3997193E+04  0.7818609E-02  0.8005113E-01
        2   -1    0    0  501    0  0.00000000000E+00  0.00000000000E+00  0.18066286094E+04  0.18066286094E+04  0.25500000920E-02 0. -1.
       -2   -1    0    0    0  501  0.00000000000E+00  0.00000000000E+00 -0.22109622348E+04  0.22109622348E+04  0.25500000920E-02 0.  1.
    10030    2    1    2    0    0  0.00000000000E+00  0.00000000000E+00 -0.40433362543E+03  0.40175908442E+04  0.39971928288E+04 0.  0.
        3    1    3    3  502    0 -0.18594569737E+04  0.63808671023E+03 -0.56407752672E+03  0.20452184121E+04  0.10100000352E+00 0.  1.
       -3    1    3    3    0  502  0.18594569737E+04 -0.63808671023E+03  0.15974390130E+03  0.19723724321E+04  0.10100000352E+00 0. -1.
</event>
<event>
 5   0  0.2078125E-09  0.4005572E+04  0.7818609E-02  0.8003423E-01
        1   -1    0    0  501    0  0.00000000000E+00  0.00000000000E+00  0.25094076082E+04  0.25094076082E+04  0.50400001928E-02 0.  1.
       -1   -1    0    0    0  501  0.00000000000E+00  0.00000000000E+00 -0.15984457137E+04  0.15984457138E+04  0.50400001928E-02 0. -1.
    10030    2    1    2    0    0  0.00000000000E+00  0.00000000000E+00  0.91096189444E+03  0.41078533219E+04  0.40055720367E+04 0.  0.
        5    1    3    3  502    0  0.11183789729E+04 -0.15584945574E+04 -0.13493939807E+03  0.19229944212E+04  0.46999998093E+01 0. -1.
       -5    1    3    3    0  502 -0.11183789729E+04  0.15584945574E+04  0.10459012925E+04  0.21848589008E+04  0.46999998093E+01 0.  1.
</event>
<event>
 5   0  0.2078125E-09  0.3998692E+04  0.7818609E-02  0.8004810E-01
        1   -1    0    0  501    0  0.00000000000E+00  0.00000000000E+00  0.24620342759E+04  0.24620342759E+04  0.50400001928E-02 0.  1.
       -1   -1    0    0    0  501  0.00000000000E+00  0.00000000000E+00 -0.16236102868E+04  0.16236102868E+04  0.50400001928E-02 0. -1.
    10030    2    1    2    0    0  0.00000000000E+00  0.00000000000E+00  0.83842398907E+03  0.40856445627E+04  0.39986918745E+04 0.  0.
        5    1    3    3  502    0  0.10623668369E+04  0.16404365120E+04 -0.11507684381E+02  0.19544333611E+04  0.46999998093E+01 0. -1.
       -5    1    3    3    0  502 -0.10623668369E+04 -0.16404365120E+04  0.84993167345E+03  0.21312112016E+04  0.46999998093E+01 0.  1.
</event>
<event>
 5   0  0.6645526E-09  0.3999925E+04  0.7818609E-02  0.8004562E-01
       -2   -1    0    0    0  501  0.00000000000E+00  0.00000000000E+00  0.20698225089E+04  0.20698225089E+04  0.25500000920E-02 0. -1.
        2   -1    0    0  501    0  0.00000000000E+00  0.00000000000E+00 -0.19324602345E+04  0.19324602345E+04  0.25500000920E-02 0.  1.
    10030    2    1    2    0    0  0.00000000000E+00  0.00000000000E+00  0.13736227439E+03  0.40022827434E+04  0.39999248448E+04 0.  0.
        3    1    3    3  502    0 -0.14404515197E+04  0.28481244567E+03 -0.12899966892E+04  0.19545102144E+04  0.10100000352E+00 0.  1.
       -3    1    3    3    0  502  0.14404515197E+04 -0.28481244567E+03  0.14273589636E+04  0.20477725291E+04  0.10100000352E+00 0. -1.
</event>
<event>
 5   0  0.6736335E-09  0.4000084E+04  0.7818609E-02  0.8004530E-01
       -2   -1    0    0    0  501  0.00000000000E+00  0.00000000000E+00  0.17517700921E+04  0.17517700921E+04  0.25500000920E-02 0. -1.
        2   -1    0    0  501    0  0.00000000000E+00  0.00000000000E+00 -0.22835000980E+04  0.22835000980E+04  0.25500000920E-02 0.  1.
    10030    2    1    2    0    0  0.00000000000E+00  0.00000000000E+00 -0.53173000586E+03  0.40352701901E+04  0.40000835876E+04 0.  0.
        1    1    3    3  502    0 -0.11237854118E+04 -0.12488389504E+04  0.82888824855E+03  0.18733787936E+04  0.50400001928E-02 0. -1.
       -1    1    3    3    0  502  0.11237854118E+04  0.12488389504E+04 -0.13606182544E+04  0.21618913965E+04  0.50400001928E-02 0.  1.
</event>
<event>
 5   0  0.6538370E-09  0.3998898E+04  0.7818609E-02  0.8004769E-01
        2   -1    0    0  501    0  0.00000000000E+00  0.00000000000E+00  0.22844575445E+04  0.22844575445E+04  0.25500000920E-02 0.  1.
       -2   -1    0    0    0  501  0.00000000000E+00  0.00000000000E+00 -0.17499981453E+04  0.17499981453E+04  0.25500000920E-02 0. -1.
    10030    2    1    2    0    0  0.00000000000E+00  0.00000000000E+00  0.53445939917E+03  0.40344556898E+04  0.39988980812E+04 0.  0.
        4    1    3    3  502    0 -0.33228378931E+03  0.88578410631E+03  0.20443602223E+04  0.22526509563E+04  0.12699999809E+01 0.  1.
       -4    1    3    3    0  502  0.33228378931E+03 -0.88578410631E+03 -0.15099008231E+04  0.17818047335E+04  0.12699999809E+01 0. -1.
</event>
<event>
 5   0  0.2078125E-09  0.4000748E+04  0.7818609E-02  0.8004396E-01
        1   -1    0    0  501    0  0.00000000000E+00  0.00000000000E+00  0.22106455471E+04  0.22106455471E+04  0.50400001928E-02 0. -1.
       -1   -1    0    0    0  501  0.00000000000E+00  0.00000000000E+00 -0.18101033490E+04  0.18101033491E+04  0.50400001928E-02 0.  1.
    10030    2    1    2    0    0  0.00000000000E+00  0.00000000000E+00  0.40054219801E+03  0.40207488961E+04  0.40007483841E+04 0.  0.
        2    1    3    3  502    0  0.12979567630E+04 -0.13148804719E+04  0.97084697634E+03  0.20871382957E+04  0.25500000920E-02 0. -1.
       -2    1    3    3    0  502 -0.12979567630E+04  0.13148804719E+04 -0.57030477833E+03  0.19336106004E+04  0.25500000920E-02 0.  1.
</event>
<event>
 5   0  0.6547327E-09  0.4000762E+04  0.7818609E-02  0.8004393E-01
       -2   -1    0    0    0  501  0.00000000000E+00  0.00000000000E+00  0.24129134583E+04  0.24129134583E+04  0.25500000920E-02 0. -1.
        2   -1    0    0  501    0  0.00000000000E+00  0.00000000000E+00 -0.16583784009E+04  0.16583784009E+04  0.25500000920E-02 0.  1.
    10030    2    1    2    0    0  0.00000000000E+00  0.00000000000E+00  0.75453505737E+03  0.40712918592E+04  0.40007617087E+04 0.  0.
        5    1    3    3  502    0 -0.28080169535E+03  0.11341120337E+04  0.20296045905E+04  0.23418745869E+04  0.46999998093E+01 0. -1.
       -5    1    3    3    0  502  0.28080169535E+03 -0.11341120337E+04 -0.12750695332E+04  0.17294172722E+04  0.46999998093E+01 0.  1.
</event>
<event>
 5   0  0.2078125E-09  0.3998152E+04  0.7818609E-02  0.8004919E-01
       -1   -1    0    0    0  501  0.00000000000E+00  0.00000000000E+00  0.27835457249E+04  0.27835457249E+04  0.50400001928E-02 0. -1.
        1   -1    0    0  501    0  0.00000000000E+00  0.00000000000E+00 -0.14356886319E+04  0.14356886319E+04  0.50400001928E-02 0.  1.
    10030    2    1    2    0    0  0.00000000000E+00  0.00000000000E+00  0.13478570930E+04  0.42192343569E+04  0.39981520500E+04 0.  0.
        4    1    3    3  502    0  0.42694952182E+03  0.17057292338E+04  0.16775729869E+04  0.24302367893E+04  0.12699999809E+01 0. -1.
       -4    1    3    3    0  502 -0.42694952182E+03 -0.17057292338E+04 -0.32971589386E+03  0.17889975675E+04  0.12699999809E+01 0.  1.
</event>
<event>
 5   0  0.6736335E-09  0.3999624E+04  0.7818609E-02  0.8004622E-01
       -2   -1    0    0    0  501  0.00000000000E+00  0.00000000000E+00  0.14128380322E+04  0.14128380322E+04  0.25500000920E-02 0.  1.
        2   -1    0    0  501    0  0.00000000000E+00  0.00000000000E+00 -0.28306480602E+04  0.28306480602E+04  0.25500000920E-02 0. -1.
    10030    2    1    2    0    0  0.00000000000E+00  0.00000000000E+00 -0.14178100280E+04  0.42434860925E+04  0.39996236000E+04 0.  0.
        1    1    3    3  502    0 -0.34045479303E+03 -0.38225429696E+03 -0.27599630985E+04  0.28070311930E+04  0.50400001928E-02 0. -1.
       -1    1    3    3    0  502  0.34045479303E+03  0.38225429696E+03  0.13421530704E+04  0.14364548994E+04  0.50400001928E-02 0.  1.
</event>
<event>
 5   0  0.6547327E-09  0.4000557E+04  0.7818609E-02  0.8004434E-01
        2   -1    0    0  501    0  0.00000000000E+00  0.00000000000E+00  0.14775007655E+04  0.14775007655E+04  0.25500000920E-02 0.  1.
       -2   -1    0    0    0  501  0.00000000000E+00  0.00000000000E+00 -0.27080281381E+04  0.27080281381E+04  0.25500000920E-02 0. -1.
    10030    2    1    2    0    0  0.00000000000E+00  0.00000000000E+00 -0.12305273726E+04  0.41855289036E+04  0.40005567847E+04 0.  0.
        5    1    3    3  502    0 -0.47230506123E+03  0.17764144266E+04  0.21011770773E+03  0.18501058962E+04  0.46999998093E+01 0.  1.
       -5    1    3    3    0  502  0.47230506123E+03 -0.17764144266E+04 -0.14406450804E+04  0.23354230074E+04  0.46999998093E+01 0. -1.
</event>
<event>
 5   0  0.6599276E-09  0.3997478E+04  0.7818609E-02  0.8005056E-01
       -2   -1    0    0    0  501  0.00000000000E+00  0.00000000000E+00  0.16895074384E+04  0.16895074384E+04  0.25500000920E-02 0. -1.
        2   -1    0    0  501    0  0.00000000000E+00  0.00000000000E+00 -0.23645689712E+04  0.23645689712E+04  0.25500000920E-02 0.  1.
    10030    2    1    2    0    0  0.00000000000E+00  0.00000000000E+00 -0.67506153284E+03  0.40540764096E+04  0.39974776375E+04 0.  0.
        2    1    3    3  502    0 -0.45872128851E+03  0.19345039768E+04 -0.54592989737E+03  0.20617396319E+04  0.25500000920E-02 0.  1.
       -2    1    3    3    0  502  0.45872128851E+03 -0.19345039768E+04 -0.12913163547E+03  0.19923367778E+04  0.25500000920E-02 0. -1.
</event>
<event>
 5   0  0.2078125E-09  0.4000066E+04  0.7818609E-02  0.8004533E-01
        1   -1    0    0  501    0  0.00000000000E+00  0.00000000000E+00  0.19006015379E+04  0.19006015379E+04  0.50400001928E-02 0. -1.
       -1   -1    0    0    0  501  0.00000000000E+00  0.00000000000E+00 -0.21046660637E+04  0.21046660638E+04  0.50400001928E-02 0.  1.
    10030    2    1    2    0    0  0.00000000000E+00  0.00000000000E+00 -0.20406452582E+03  0.40052676017E+04  0.40000657783E+04 0.  0.
        3    1    3    3  502    0  0.19287468110E+04  0.13169513956E+03 -0.61526459893E+03  0.20287824939E+04  0.10100000352E+00 0.  1.
       -3    1    3    3    0  502 -0.19287468110E+04 -0.13169513956E+03  0.41120007311E+03  0.19764851077E+04  0.10100000352E+00 0. -1.
</event>
<event>
 5   0  0.2078125E-09  0.3999799E+04  0.7818609E-02  0.8004587E-01
       -1   -1    0    0    0  501  0.00000000000E+00  0.00000000000E+00  0.29582676571E+04  0.29582676571E+04  0.50400001928E-02 0. -1.
        1   -1    0    0  501    0  0.00000000000E+00  0.00000000000E+00 -0.13520067881E+04  0.13520067881E+04  0.50400001928E-02 0.  1.
    10030    2    1    2    0    0  0.00000000000E+00  0.00000000000E+00  0.16062608690E+04  0.43102744451E+04  0.39997989716E+04 0.  0.
        4    1    3    3  502    0  0.14609339173E+04  0.56480544156E+03  0.21431417795E+04  0.26545039833E+04  0.12699999809E+01 0. -1.
       -4    1    3    3    0  502 -0.14609339173E+04 -0.56480544156E+03 -0.53688091047E+03  0.16557704619E+04  0.12699999809E+01 0.  1.
</event>
<event>
 5   0  0.6599276E-09  0.4000374E+04  0.7818609E-02  0.8004471E-01
       -2   -1    0    0    0  501  0.00000000000E+00  0.00000000000E+00  0.31129105341E+04  0.31129105341E+04  0.25500000920E-02 0. -1.
        2   -1    0    0  501    0  0.00000000000E+00  0.00000000000E+00 -0.12852115832E+04  0.12852115832E+04  0.25500000920E-02 0.  1.
    10030    2    1    2    0    0  0.00000000000E+00  0.00000000000E+00  0.18276989509E+04  0.43981221173E+04  0.40003743204E+04 0.  0.
        2    1    3    3  502    0  0.47493424186E+03 -0.14507436646E+03  0.30440567345E+04  0.30842974093E+04  0.25500000920E-02 0. -1.
       -2    1    3    3    0  502 -0.47493424186E+03  0.14507436646E+03 -0.12163577836E+04  0.13138247081E+04  0.25500000920E-02 0.  1.
</event>
<event>
 5   0  0.6547327E-09  0.4003653E+04  0.7818609E-02  0.8003810E-01
        2   -1    0    0  501    0  0.00000000000E+00  0.00000000000E+00  0.14486943493E+04  0.14486943493E+04  0.25500000920E-02 0.  1.
       -2   -1    0    0    0  501  0.00000000000E+00  0.00000000000E+00 -0.27661523766E+04  0.27661523766E+04  0.25500000920E-02 0. -1.
    10030    2    1    2    0    0  0.00000000000E+00  0.00000000000E+00 -0.13174580273E+04  0.42148467259E+04  0.40036529906E+04 0.  0.
        5    1    3    3  502    0 -0.11980779125E+04  0.94941325528E+03  0.70193227427E+03  0.16821139145E+04  0.46999998093E+01 0.  1.
       -5    1    3    3    0  502  0.11980779125E+04 -0.94941325528E+03 -0.20193903016E+04  0.25327328114E+04  0.46999998093E+01 0. -1.
</event>
<event>
 5   0  0.2078125E-09  0.4000975E+04  0.7818609E-02  0.8004350E-01
       -1   -1    0    0    0  501  0.00000000000E+00  0.00000000000E+00  0.15943116968E+04  0.15943116968E+04  0.50400001928E-02 0. -1.
        1   -1    0    0  501    0  0.00000000000E+00  0.00000000000E+00 -0.25101425092E+04  0.25101425092E+04  0.50400001928E-02 0.  1.
    10030    2    1    2    0    0  0.00000000000E+00  0.00000000000E+00 -0.91583081242E+03  0.41044542061E+04  0.40009746628E+04 0.  0.
        1    1    3    3  502    0 -0.12363775137E+04 -0.38179675560E+03 -0.20230051943E+04  0.24014470919E+04  0.50400001928E-02 0.  1.
       -1    1    3    3    0  502  0.12363775137E+04  0.38179675560E+03  0.11071743819E+04  0.17030071142E+04  0.50400001928E-02 0. -1.
</event>
<event>
 5   0  0.2078125E-09  0.3999116E+04  0.7818609E-02  0.8004725E-01
       -1   -1    0    0    0  501  0.00000000000E+00  0.00000000000E+00  0.26052770617E+04  0.26052770617E+04  0.50400001928E-02 0. -1.
        1   -1    0    0  501    0  0.00000000000E+00  0.00000000000E+00 -0.15346666558E+04  0.15346666558E+04  0.50400001928E-02 0.  1.
    10030    2    1    2    0    0  0.00000000000E+00  0.00000000000E+00  0.10706104058E+04  0.41399437175E+04  0.39991158202E+04 0.  0.
        2    1    3    3  502    0  0.15590653205E+04 -0.20730128334E+03 -0.74291187390E+03  0.17394184511E+04  0.25500000920E-02 0. -1.
       -2    1    3    3    0  502 -0.15590653205E+04  0.20730128334E+03  0.18135222797E+04  0.24005252664E+04  0.25500000920E-02 0.  1.
</event>
<event>
 5   0  0.6538370E-09  0.3992281E+04  0.7818609E-02  0.8006105E-01
        2   -1    0    0  501    0  0.00000000000E+00  0.00000000000E+00  0.21995753169E+04  0.21995753169E+04  0.25500000920E-02 0.  1.
       -2   -1    0    0    0  501  0.00000000000E+00  0.00000000000E+00 -0.18115214367E+04  0.18115214367E+04  0.25500000920E-02 0. -1.
    10030    2    1    2    0    0  0.00000000000E+00  0.00000000000E+00  0.38805388021E+03  0.40110967536E+04  0.39922814722E+04 0.  0.
        4    1    3    3  502    0 -0.16190171747E+04  0.15650291754E+03  0.13565741928E+04  0.21180191049E+04  0.12699999809E+01 0.  1.
       -4    1    3    3    0  502  0.16190171747E+04 -0.15650291754E+03 -0.96852031258E+03  0.18930776487E+04  0.12699999809E+01 0. -1.
</event>
<event>
 5   0  0.6538370E-09  0.3999852E+04  0.7818609E-02  0.8004576E-01
       -2   -1    0    0    0  501  0.00000000000E+00  0.00000000000E+00  0.16736962963E+04  0.16736962963E+04  0.25500000920E-02 0.  1.
        2   -1    0    0  501    0  0.00000000000E+00  0.00000000000E+00 -0.23897428609E+04  0.23897428609E+04  0.25500000920E-02 0. -1.
    10030    2    1    2    0    0  0.00000000000E+00  0.00000000000E+00 -0.71604656455E+03  0.40634391572E+04  0.39998518849E+04 0.  0.
        4    1    3    3  502    0 -0.14041039918E+04  0.78722486161E+03 -0.15636804463E+04  0.22441767207E+04  0.12699999809E+01 0. -1.
       -4    1    3    3    0  502  0.14041039918E+04 -0.78722486161E+03  0.84763388175E+03  0.18192624365E+04  0.12699999809E+01 0.  1.
</event>
<event>
 5   0  0.6538370E-09  0.3989689E+04  0.7818609E-02  0.8006630E-01
       -2   -1    0    0    0  501  0.00000000000E+00  0.00000000000E+00  0.20408363462E+04  0.20408363462E+04  0.25500000920E-02 0. -1.
        2   -1    0    0  501    0  0.00000000000E+00  0.00000000000E+00 -0.19498892686E+04  0.19498892686E+04  0.25500000920E-02 0.  1.
    10030    2    1    2    0    0  0.00000000000E+00  0.00000000000E+00  0.90947077615E+02  0.39907256149E+04  0.39896891561E+04 0.  0.
        4    1    3    3  502    0 -0.14964188735E+04  0.72931149585E+03 -0.10540110764E+04  0.19703059826E+04  0.12699999809E+01 0.  1.
       -4    1    3    3    0  502  0.14964188735E+04 -0.72931149585E+03  0.11449581540E+04  0.20204196323E+04  0.12699999809E+01 0. -1.
</event>
<event>
 5   0  0.6645526E-09  0.3998655E+04  0.7818609E-02  0.8004818E-01
        2   -1    0    0  501    0  0.00000000000E+00  0.00000000000E+00  0.30888060931E+04  0.30888060931E+04  0.25500000920E-02 0.  1.
       -2   -1    0    0    0  501  0.00000000000E+00  0.00000000000E+00 -0.12941282728E+04  0.12941282728E+04  0.25500000920E-02 0. -1.
    10030    2    1    2    0    0  0.00000000000E+00  0.00000000000E+00  0.17946778203E+04  0.43829343659E+04  0.39986554211E+04 0.  0.
        3    1    3    3  502    0 -0.19900398574E+04  0.14138992155E+03  0.10405115722E+04  0.22500920173E+04  0.10100000352E+00 0.  1.
       -3    1    3    3    0  502  0.19900398574E+04 -0.14138992155E+03  0.75416624813E+03  0.21328423486E+04  0.10100000352E+00 0. -1.
</event>
<event>
 5   0  0.2078125E-09  0.3999591E+04  0.7818609E-02  0.8004629E-01
        1   -1    0    0  501    0  0.00000000000E+00  0.00000000000E+00  0.16112245022E+04  0.16112245022E+04  0.50400001928E-02 0. -1.
       -1   -1    0    0    0  501  0.00000000000E+00  0.00000000000E+00 -0.24820767219E+04  0.24820767219E+04  0.50400001928E-02 0.  1.
    10030    2    1    2    0    0  0.00000000000E+00  0.00000000000E+00 -0.87085221972E+03  0.40933012241E+04  0.39995913944E+04 0.  0.
        2    1    3    3  502    0  0.17005995363E+04  0.79093961934E+02 -0.15092416557E+04  0.22751054949E+04  0.25500000920E-02 0.  1.
       -2    1    3    3    0  502 -0.17005995363E+04 -0.79093961934E+02  0.63838943602E+03  0.18181957292E+04  0.25500000920E-02 0. -1.
</event>
<event>
 5   0  0.2078125E-09  0.3997540E+04  0.7818609E-02  0.8005043E-01
        1   -1    0    0  501    0  0.00000000000E+00  0.00000000000E+00  0.23176359027E+04  0.23176359027E+04  0.50400001928E-02 0. -1.
       -1   -1    0    0    0  501  0.00000000000E+00  0.00000000000E+00 -0.17237741600E+04  0.17237741600E+04  0.50400001928E-02 0.  1.
    10030    2    1    2    0    0  0.00000000000E+00  0.00000000000E+00  0.59386174270E+03  0.40414100627E+04  0.39975396840E+04 0.  0.
        1    1    3    3  502    0  0.24147644885E+02 -0.56463214376E+03  0.22351794474E+04  0.23055194054E+04  0.50400001928E-02 0. -1.
       -1    1    3    3    0  502 -0.24147644885E+02  0.56463214376E+03 -0.16413177047E+04  0.17358906573E+04  0.50400001928E-02 0.  1.
</event>
<event>
 5   0  0.6736335E-09  0.4000329E+04  0.7818609E-02  0.8004480E-01
       -2   -1    0    0    0  501  0.00000000000E+00  0.00000000000E+00  0.17390402536E+04  0.17390402536E+04  0.25500000920E-02 0.  1.
        2   -1    0    0  501    0  0.00000000000E+00  0.00000000000E+00 -0.23004971404E+04  0.23004971404E+04  0.25500000920E-02 0. -1.
    10030    2    1    2    0    0  0.00000000000E+00  0.00000000000E+00 -0.56145688680E+03  0.40395373940E+04  0.40003285518E+04 0.  0.
        1    1    3    3  502    0  0.72416503134E+03  0.18334317327E+04  0.61369589236E+02  0.19722203573E+04  0.50400001928E-02 0.  1.
       -1    1    3    3    0  502 -0.72416503134E+03 -0.18334317327E+04 -0.62282647604E+03  0.20673170368E+04  0.50400001928E-02 0. -1.
</event>
<event>
 5   0  0.6547327E-09  0.3999781E+04  0.7818609E-02  0.8004591E-01
        2   -1    0    0  501    0  0.00000000000E+00  0.00000000000E+00  0.15181058617E+04  0.15181058617E+04  0.25500000920E-02 0. -1.
       -2   -1    0    0    0  501  0.00000000000E+00  0.00000000000E+00 -0.26345742648E+04  0.26345742648E+04  0.25500000920E-02 0.  1.
    10030    2    1    2    0    0  0.00000000000E+00  0.00000000000E+00 -0.11164684031E+04  0.41526801265E+04  0.39997813113E+04 0.  0.
        5    1    3    3  502    0 -0.17578691492E+04  0.94357094642E+03 -0.70175931277E+03  0.21149274928E+04  0.46999998093E+01 0.  1.
       -5    1    3    3    0  502  0.17578691492E+04 -0.94357094642E+03 -0.41470909037E+03  0.20377526337E+04  0.46999998093E+01 0. -1.
</event>
<event>
 5   0  0.6538370E-09  0.3998046E+04  0.7818609E-02  0.8004941E-01
       -2   -1    0    0    0  501  0.00000000000E+00  0.00000000000E+00  0.17637864911E+04  0.17637864911E+04  0.25500000920E-02 0. -1.
        2   -1    0    0  501    0  0.00000000000E+00  0.00000000000E+00 -0.22656332788E+04  0.22656332788E+04  0.25500000920E-02 0.  1.
    10030    2    1    2    0    0  0.00000000000E+00  0.00000000000E+00 -0.50184678769E+03  0.40294197700E+04  0.39980462084E+04 0.  0.
        4    1    3    3  502    0  0.19554067634E+04 -0.31010413572E+03 -0.52933664803E+03  0.20493850504E+04  0.12699999809E+01 0.  1.
       -4    1    3    3    0  502 -0.19554067634E+04  0.31010413572E+03  0.27489860342E+02  0.19800347195E+04  0.12699999809E+01 0. -1.
</event>
<event>
 5   0  0.2078125E-09  0.3996800E+04  0.7818609E-02  0.8005192E-01
        3   -1    0    0  501    0  0.00000000000E+00  0.00000000000E+00  0.15330680836E+04  0.15330680869E+04  0.10100000352E+00 0.  1.
       -3   -1    0    0    0  501  0.00000000000E+00  0.00000000000E+00 -0.26049739474E+04  0.26049739493E+04  0.10100000352E+00 0. -1.
    10030    2    1    2    0    0  0.00000000000E+00  0.00000000000E+00 -0.10719058638E+04  0.41380420362E+04  0.39967999340E+04 0.  0.
        3    1    3    3  502    0  0.18638555478E+04 -0.12415116645E+03 -0.12711392789E+04  0.22594614606E+04  0.10100000352E+00 0. -1.
       -3    1    3    3    0  502 -0.18638555478E+04  0.12415116645E+03  0.19923341509E+03  0.18785805756E+04  0.10100000352E+00 0.  1.
</event>
<event>
 5   0  0.2078125E-09  0.3999306E+04  0.7818609E-02  0.8004687E-01
        1   -1    0    0  501    0  0.00000000000E+00  0.00000000000E+00  0.22022584560E+04  0.22022584560E+04  0.50400001928E-02 0.  1.
       -1   -1    0    0    0  501  0.00000000000E+00  0.00000000000E+00 -0.18156866525E+04  0.18156866525E+04  0.50400001928E-02 0. -1.
    10030    2    1    2    0    0  0.00000000000E+00  0.00000000000E+00  0.38657180352E+03  0.40179451086E+04  0.39993055817E+04 0.  0.
        3    1    3    3  502    0  0.88404512785E+03  0.80445155658E+02  0.19934528577E+04  0.21821689938E+04  0.10100000352E+00 0.  1.
       -3    1    3    3    0  502 -0.88404512785E+03 -0.80445155658E+02 -0.16068810542E+04  0.18357761148E+04  0.10100000352E+00 0. -1.
</event>
<event>
 5   0  0.2078125E-09  0.3997250E+04  0.7818609E-02  0.8005102E-01
       -1   -1    0    0    0  501  0.00000000000E+00  0.00000000000E+00  0.18049600230E+04  0.18049600230E+04  0.50400001928E-02 0. -1.
        1   -1    0    0  501    0  0.00000000000E+00  0.00000000000E+00 -0.22130691024E+04  0.22130691024E+04  0.50400001928E-02 0.  1.
    10030    2    1    2    0    0  0.00000000000E+00  0.00000000000E+00 -0.40810907940E+03  0.40180291253E+04  0.39972496834E+04 0.  0.
        2    1    3    3  502    0 -0.90599974654E+03 -0.17738442310E+04 -0.38448711495E+02  0.19921940669E+04  0.25500000920E-02 0.  1.
       -2    1    3    3    0  502  0.90599974654E+03  0.17738442310E+04 -0.36966036791E+03  0.20258350585E+04  0.25500000920E-02 0. -1.
</event>
<event>
 5   0  0.2078125E-09  0.4000189E+04  0.7818609E-02  0.8004508E-01
        1   -1    0    0  501    0  0.00000000000E+00  0.00000000000E+00  0.27844671176E+04  0.27844671176E+04  0.50400001928E-02 0.  1.
       -1   -1    0    0    0  501  0.00000000000E+00  0.00000000000E+00 -0.14366765565E+04  0.14366765565E+04  0.50400001928E-02 0. -1.
    10030    2    1    2    0    0  0.00000000000E+00  0.00000000000E+00  0.13477905611E+04  0.42211436741E+04  0.40001893106E+04 0.  0.
        2    1    3    3  502    0  0.13951451498E+04 -0.82236596042E+03 -0.56467617234E+03  0.17151020207E+04  0.25500000920E-02 0. -1.
       -2    1    3    3    0  502 -0.13951451498E+04  0.82236596042E+03  0.19124667334E+04  0.25060416534E+04  0.25500000920E-02 0.  1.
</event>
<event>
 5   0  0.2078125E-09  0.4002367E+04  0.7818609E-02  0.8004069E-01
       -1   -1    0    0    0  501  0.00000000000E+00  0.00000000000E+00  0.13359866854E+04  0.13359866854E+04  0.50400001928E-02 0.  1.
        1   -1    0    0  501    0  0.00000000000E+00  0.00000000000E+00 -0.29975855844E+04  0.29975855844E+04  0.50400001928E-02 0. -1.
    10030    2    1    2    0    0  0.00000000000E+00  0.00000000000E+00 -0.16615988990E+04  0.43335722698E+04  0.40023665145E+04 0.  0.
        5    1    3    3  502    0 -0.14632078998E+04 -0.13410694322E+04 -0.55418265824E+03  0.20607244087E+04  0.46999998093E+01 0. -1.
       -5    1    3    3    0  502  0.14632078998E+04  0.13410694322E+04 -0.11074162408E+04  0.22728478612E+04  0.46999998093E+01 0.  1.
</event>
<event>
 5   0  0.6736335E-09  0.4000611E+04  0.7818609E-02  0.8004423E-01
        2   -1    0    0  501    0  0.00000000000E+00  0.00000000000E+00  0.21954961161E+04  0.21954961161E+04  0.25500000920E-02 0. -1.
       -2   -1    0    0    0  501  0.00000000000E+00  0.00000000000E+00 -0.18224680773E+04  0.18224680773E+04  0.25500000920E-02 0.  1.
    10030    2    1    2    0    0  0.00000000000E+00  0.00000000000E+00  0.37302803883E+03  0.40179641934E+04  0.40006107461E+04 0.  0.
        1    1    3    3  502    0  0.13875026593E+03  0.12081838063E+04 -0.14085379939E+04  0.18608973713E+04  0.50400001928E-02 0.  1.
       -1    1    3    3    0  502 -0.13875026593E+03 -0.12081838063E+04  0.17815660328E+04  0.21570668221E+04  0.50400001928E-02 0. -1.
</event>
<event>
 5   0  0.2078125E-09  0.3999811E+04  0.7818609E-02  0.8004585E-01
       -1   -1    0    0    0  501  0.00000000000E+00  0.00000000000E+00  0.13826691703E+04  0.13826691703E+04  0.50400001928E-02 0.  1.
        1   -1    0    0  501    0  0.00000000000E+00  0.00000000000E+00 -0.28926821541E+04  0.28926821541E+04  0.50400001928E-02 0. -1.
    10030    2    1    2    0    0  0.00000000000E+00  0.00000000000E+00 -0.15100129838E+04  0.42753513244E+04  0.39998112125E+04 0.  0.
        4    1    3    3  502    0  0.72127915064E+03  0.17088517863E+04 -0.15543196750E+04  0.24199853937E+04  0.12699999809E+01 0.  1.
       -4    1    3    3    0  502 -0.72127915064E+03 -0.17088517863E+04  0.44306691200E+02  0.18553659306E+04  0.12699999809E+01 0. -1.
</event>
<event>
 5   0  0.2078125E-09  0.4001000E+04  0.7818609E-02  0.8004345E-01
        1   -1    0    0  501    0  0.00000000000E+00  0.00000000000E+00  0.20363437027E+04  0.20363437027E+04  0.50400001928E-02 0.  1.
       -1   -1    0    0    0  501  0.00000000000E+00  0.00000000000E+00 -0.19652871096E+04  0.19652871096E+04  0.50400001928E-02 0. -1.
    10030    2    1    2    0    0  0.00000000000E+00  0.00000000000E+00  0.71056593085E+02  0.40016308122E+04  0.40009998898E+04 0.  0.
        1    1    3    3  502    0 -0.17667930481E+04 -0.52372353153E+03  0.81421128920E+03  0.20146424089E+04  0.50400001928E-02 0. -1.
       -1    1    3    3    0  502  0.17667930481E+04  0.52372353153E+03 -0.74315469611E+03  0.19869884033E+04  0.50400001928E-02 0.  1.
</event>
<event>
 5   0  0.6538370E-09  0.3999518E+04  0.7818609E-02  0.8004644E-01
        2   -1    0    0  501    0  0.00000000000E+00  0.00000000000E+00  0.16501320494E+04  0.16501320494E+04  0.25500000920E-02 0.  1.
       -2   -1    0    0    0  501  0.00000000000E+00  0.00000000000E+00 -0.24234641293E+04  0.24234641293E+04  0.25500000920E-02 0. -1.
    10030    2    1    2    0    0  0.00000000000E+00  0.00000000000E+00 -0.77333207993E+03  0.40735961787E+04  0.39995178861E+04 0.  0.
        4    1    3    3  502    0 -0.88598870856E+03 -0.17543399278E+04 -0.76276084517E+03  0.21081959809E+04  0.12699999809E+01 0.  1.
       -4    1    3    3    0  502  0.88598870856E+03  0.17543399278E+04 -0.10571234756E+02  0.19654001979E+04  0.12699999809E+01 0. -1.
</event>
<event>
 5   0  0.2078125E-09  0.3999990E+04  0.7818609E-02  0.8004549E-01
        1   -1    0    0  501    0  0.00000000000E+00  0.00000000000E+00  0.26486471999E+04  0.26486471999E+04  0.50400001928E-02 0.  1.
       -1   -1    0    0    0  501  0.00000000000E+00  0.00000000000E+00 -0.15101975640E+04  0.15101975640E+04  0.50400001928E-02 0. -1.
    10030    2    1    2    0    0  0.00000000000E+00  0.00000000000E+00  0.11384496359E+04  0.41588447639E+04  0.39999902746E+04 0.  0.
        5    1    3    3  502    0  0.11783045453E+04 -0.10455531660E+04 -0.71193514693E+03  0.17287153519E+04  0.46999998093E+01 0. -1.
       -5    1    3    3    0  502 -0.11783045453E+04  0.10455531660E+04  0.18503847828E+04  0.24301294120E+04  0.46999998093E+01 0.  1.
</event>
<event>
 5   0  0.2078125E-09  0.4001741E+04  0.7818609E-02  0.8004195E-01
       -1   -1    0    0    0  501  0.00000000000E+00  0.00000000000E+00  0.18071078716E+04  0.18071078716E+04  0.50400001928E-02 0.  1.
        1   -1    0    0  501    0  0.00000000000E+00  0.00000000000E+00 -0.22154093666E+04  0.22154093666E+04  0.50400001928E-02 0. -1.
    10030    2    1    2    0    0  0.00000000000E+00  0.00000000000E+00 -0.40830149500E+03  0.40225172382E+04  0.40017414735E+04 0.  0.
        4    1    3    3  502    0  0.10339415681E+04 -0.13583126705E+03 -0.19206452098E+04  0.21854896326E+04  0.12699999809E+01 0. -1.
       -4    1    3    3    0  502 -0.10339415681E+04  0.13583126705E+03  0.15123437148E+04  0.18370276056E+04  0.12699999809E+01 0.  1.
</event>
<event>
 5   0  0.6736335E-09  0.4005800E+04  0.7818609E-02  0.8003378E-01
       -2   -1    0    0    0  501  0.00000000000E+00  0.00000000000E+00  0.20555301996E+04  0.20555301996E+04  0.25500000920E-02 0. -1.
        2   -1    0    0  501    0  0.00000000000E+00  0.00000000000E+00 -0.19516172027E+04  0.19516172027E+04  0.25500000920E-02 0.  1.
    10030    2    1    2    0    0  0.00000000000E+00  0.00000000000E+00  0.10391299686E+03  0.40071474023E+04  0.40057998443E+04 0.  0.
        1    1    3    3  502    0 -0.15696162655E+04 -0.67674615925E+03  0.10963036359E+04  0.20306556200E+04  0.50400001928E-02 0. -1.
       -1    1    3    3    0  502  0.15696162655E+04  0.67674615925E+03 -0.99239063904E+03  0.19764917823E+04  0.50400001928E-02 0.  1.
</event>
<event>
 5   0  0.2078125E-09  0.3998777E+04  0.7818609E-02  0.8004793E-01
       -1   -1    0    0    0  501  0.00000000000E+00  0.00000000000E+00  0.28308217416E+04  0.28308217416E+04  0.50400001928E-02 0. -1.
        1   -1    0    0  501    0  0.00000000000E+00  0.00000000000E+00 -0.14121536357E+04  0.14121536357E+04  0.50400001928E-02 0.  1.
    10030    2    1    2    0    0  0.00000000000E+00  0.00000000000E+00  0.14186681060E+04  0.42429753773E+04  0.39987774204E+04 0.  0.
        4    1    3    3  502    0  0.76660899882E+03  0.18182129700E+04  0.10514620494E+04  0.22358805459E+04  0.12699999809E+01 0. -1.
       -4    1    3    3    0  502 -0.76660899882E+03 -0.18182129700E+04  0.36720605659E+03  0.20070948314E+04  0.12699999809E+01 0.  1.
</event>
<event>
 5   0  0.6736335E-09  0.3999018E+04  0.7818609E-02  0.8004745E-01
        2   -1    0    0  501    0  0.00000000000E+00  0.00000000000E+00  0.19812665872E+04  0.19812665872E+04  0.25500000920E-02 0. -1.
       -2   -1    0    0    0  501  0.00000000000E+00  0.00000000000E+00 -0.20179195467E+04  0.20179195467E+04  0.25500000920E-02 0.  1.
    10030    2    1    2    0    0  0.00000000000E+00  0.00000000000E+00 -0.36652959426E+02  0.39991861339E+04  0.39990181663E+04 0.  0.
        1    1    3    3  502    0  0.11099833551E+04  0.11157753414E+04 -0.12516742358E+04  0.20108968282E+04  0.50400001928E-02 0.  1.
       -1    1    3    3    0  502 -0.11099833551E+04 -0.11157753414E+04  0.12150212763E+04  0.19882893057E+04  0.50400001928E-02 0. -1.
</event>
<event>
 5   0  0.6645526E-09  0.4000074E+04  0.7818609E-02  0.8004532E-01
        2   -1    0    0  501    0  0.00000000000E+00  0.00000000000E+00  0.28107625639E+04  0.28107625639E+04  0.25500000920E-02 0. -1.
       -2   -1    0    0    0  501  0.00000000000E+00  0.00000000000E+00 -0.14231540753E+04  0.14231540753E+04  0.25500000920E-02 0.  1.
    10030    2    1    2    0    0  0.00000000000E+00  0.00000000000E+00  0.13876084887E+04  0.42339166392E+04  0.40000740981E+04 0.  0.
        3    1    3    3  502    0 -0.20552587447E+03  0.45429270312E+02  0.27990064516E+04  0.28069096583E+04  0.10100000352E+00 0. -1.
       -3    1    3    3    0  502  0.20552587447E+03 -0.45429270312E+02 -0.14113979629E+04  0.14270069809E+04  0.10100000352E+00 0.  1.
</event>
<event>
 5   0  0.6645526E-09  0.4000803E+04  0.7818609E-02  0.8004385E-01
        2   -1    0    0  501    0  0.00000000000E+00  0.00000000000E+00  0.12149483239E+04  0.12149483239E+04  0.25500000920E-02 0. -1.
       -2   -1    0    0    0  501  0.00000000000E+00  0.00000000000E+00 -0.32936429518E+04  0.32936429518E+04  0.25500000920E-02 0.  1.
    10030    2    1    2    0    0  0.00000000000E+00  0.00000000000E+00 -0.20786946279E+04  0.45085912757E+04  0.40008029114E+04 0.  0.
        3    1    3    3  502    0  0.18499507790E+03  0.17800756370E+04 -0.20464858812E+04  0.27186387999E+04  0.10100000352E+00 0.  1.
       -3    1    3    3    0  502 -0.18499507790E+03 -0.17800756370E+04 -0.32208746664E+02  0.17899524758E+04  0.10100000352E+00 0. -1.
</event>
<event>
 5   0  0.2078125E-09  0.4002848E+04  0.7818609E-02  0.8003972E-01
        1   -1    0    0  501    0  0.00000000000E+00  0.00000000000E+00  0.26467038439E+04  0.26467038439E+04  0.50400001928E-02 0. -1.
       -1   -1    0    0    0  501  0.00000000000E+00  0.00000000000E+00 -0.15134664106E+04  0.15134664107E+04  0.50400001928E-02 0.  1.
    10030    2    1    2    0    0  0.00000000000E+00  0.00000000000E+00  0.11332374332E+04  0.41601702545E+04  0.40028476697E+04 0.  0.
        1    1    3    3  502    0 -0.10450047123E+04  0.53535412173E+03 -0.11179041542E+04  0.16212182402E+04  0.50400001928E-02 0.  1.
       -1    1    3    3    0  502  0.10450047123E+04 -0.53535412173E+03  0.22511415875E+04  0.25389520143E+04  0.50400001928E-02 0. -1.
</event>
<event>
 5   0  0.2078125E-09  0.3993853E+04  0.7818609E-02  0.8005788E-01
        1   -1    0    0  501    0  0.00000000000E+00  0.00000000000E+00  0.23407878740E+04  0.23407878740E+04  0.50400001928E-02 0. -1.
       -1   -1    0    0    0  501  0.00000000000E+00  0.00000000000E+00 -0.17035786706E+04  0.17035786706E+04  0.50400001928E-02 0.  1.
    10030    2    1    2    0    0  0.00000000000E+00  0.00000000000E+00  0.63720920343E+03  0.40443665447E+04  0.39938534248E+04 0.  0.
        5    1    3    3  502    0  0.12080319494E+04 -0.14285927315E+04 -0.38842065299E+03  0.19107880775E+04  0.46999998093E+01 0.  1.
       -5    1    3    3    0  502 -0.12080319494E+04  0.14285927315E+04  0.10256298564E+04  0.21335784672E+04  0.46999998093E+01 0. -1.
</event>
<event>
 5   0  0.6645526E-09  0.4001774E+04  0.7818609E-02  0.8004189E-01
       -2   -1    0    0    0  501  0.00000000000E+00  0.00000000000E+00  0.17910205276E+04  0.17910205276E+04  0.25500000920E-02 0.  1.
        2   -1    0    0  501    0  0.00000000000E+00  0.00000000000E+00 -0.22353454905E+04  0.22353454905E+04  0.25500000920E-02 0. -1.
    10030    2    1    2    0    0  0.00000000000E+00  0.00000000000E+00 -0.44432496289E+03  0.40263660181E+04  0.40017744363E+04 0.  0.
        3    1    3    3  502    0  0.98595507882E+03  0.96019661813E+03  0.12391623908E+04  0.18519201937E+04  0.10100000352E+00 0.  1.
       -3    1    3    3    0  502 -0.98595507882E+03 -0.96019661813E+03 -0.16834873537E+04  0.21744458244E+04  0.10100000352E+00 0. -1.
</event>
<event>
 5   0  0.2078125E-09  0.3999987E+04  0.7818609E-02  0.8004549E-01
       -1   -1    0    0    0  501  0.00000000000E+00  0.00000000000E+00  0.17243887998E+04  0.17243887998E+04  0.50400001928E-02 0.  1.
        1   -1    0    0  501    0  0.00000000000E+00  0.00000000000E+00 -0.23196468316E+04  0.23196468317E+04  0.50400001928E-02 0. -1.
    10030    2    1    2    0    0  0.00000000000E+00  0.00000000000E+00 -0.59525803186E+03  0.40440356315E+04  0.39999865080E+04 0.  0.
        5    1    3    3  502    0  0.19629589517E+04  0.19273470416E+03  0.37070140861E+02  0.19727520873E+04  0.46999998093E+01 0.  1.
       -5    1    3    3    0  502 -0.19629589517E+04 -0.19273470416E+03 -0.63232817272E+03  0.20712835442E+04  0.46999998093E+01 0. -1.
</event>
<event>
 5   0  0.6599276E-09  0.3999183E+04  0.7818609E-02  0.8004711E-01
        2   -1    0    0  501    0  0.00000000000E+00  0.00000000000E+00  0.17840148666E+04  0.17840148666E+04  0.25500000920E-02 0. -1.
       -2   -1    0    0    0  501  0.00000000000E+00  0.00000000000E+00 -0.22412174803E+04  0.22412174803E+04  0.25500000920E-02 0.  1.
    10030    2    1    2    0    0  0.00000000000E+00  0.00000000000E+00 -0.45720261367E+03  0.40252323469E+04  0.39991825686E+04 0.  0.
        2    1    3    3  502    0  0.16410103972E+04  0.95606951437E+03 -0.85828107456E+03  0.20841378176E+04  0.25500000920E-02 0.  1.
       -2    1    3    3    0  502 -0.16410103972E+04 -0.95606951437E+03  0.40107846088E+03  0.19410945293E+04  0.25500000920E-02 0. -1.
</event>
<event>
 5   0  0.2078125E-09  0.4001933E+04  0.7818609E-02  0.8004157E-01
       -1   -1    0    0    0  501  0.00000000000E+00  0.00000000000E+00  0.27519800713E+04  0.27519800713E+04  0.50400001928E-02 0. -1.
        1   -1    0    0  501    0  0.00000000000E+00  0.00000000000E+00 -0.14549041138E+04  0.14549041138E+04  0.50400001928E-02 0.  1.
    10030    2    1    2    0    0  0.00000000000E+00  0.00000000000E+00  0.12970759575E+04  0.42068841850E+04  0.40019330962E+04 0.  0.
        3    1    3    3  502    0  0.15594761329E+04 -0.85560214471E+03 -0.31482650893E+03  0.18064153952E+04  0.10100000352E+00 0.  1.
       -3    1    3    3    0  502 -0.15594761329E+04  0.85560214471E+03  0.16119024664E+04  0.24004687898E+04  0.10100000352E+00 0. -1.
</event>
<event>
 5   0  0.2078125E-09  0.4000321E+04  0.7818609E-02  0.8004482E-01
       -1   -1    0    0    0  501  0.00000000000E+00  0.00000000000E+00  0.19012501731E+04  0.19012501731E+04  0.50400001928E-02 0. -1.
        1   -1    0    0  501    0  0.00000000000E+00  0.00000000000E+00 -0.21042169512E+04  0.21042169512E+04  0.50400001928E-02 0.  1.
    10030    2    1    2    0    0  0.00000000000E+00  0.00000000000E+00 -0.20296677809E+03  0.40054671243E+04  0.40003214085E+04 0.  0.
        3    1    3    3  502    0  0.14939597055E+04  0.58087553388E+02  0.12288916054E+04  0.19353202199E+04  0.10100000352E+00 0. -1.
       -3    1    3    3    0  502 -0.14939597055E+04 -0.58087553388E+02 -0.14318583835E+04  0.20701469044E+04  0.10100000352E+00 0.  1.
</event>
<event>
 5   0  0.2078125E-09  0.4000853E+04  0.7818609E-02  0.8004375E-01
       -1   -1    0    0    0  501  0.00000000000E+00  0.00000000000E+00  0.27847119147E+04  0.27847119147E+04  0.50400001928E-02 0.  1.
        1   -1    0    0  501    0  0.00000000000E+00  0.00000000000E+00 -0.14370266601E+04  0.14370266601E+04  0.50400001928E-02 0. -1.
    10030    2    1    2    0    0  0.00000000000E+00  0.00000000000E+00  0.13476852546E+04  0.42217385748E+04  0.40008525402E+04 0.  0.
        4    1    3    3  502    0  0.84413797368E+03 -0.13679800451E+04  0.19302803511E+04  0.25119558454E+04  0.12699999809E+01 0.  1.
       -4    1    3    3    0  502 -0.84413797368E+03  0.13679800451E+04 -0.58259509644E+03  0.17097827294E+04  0.12699999809E+01 0. -1.
</event>
<event>
 5   0  0.6538370E-09  0.3998901E+04  0.7818609E-02  0.8004768E-01
        2   -1    0    0  501    0  0.00000000000E+00  0.00000000000E+00  0.13774949897E+04  0.13774949897E+04  0.25500000920E-02 0.  1.
       -2   -1    0    0    0  501  0.00000000000E+00  0.00000000000E+00 -0.29022261130E+04  0.29022261130E+04  0.25500000920E-02 0. -1.
    10030    2    1    2    0    0  0.00000000000E+00  0.00000000000E+00 -0.15247311233E+04  0.42797211028E+04  0.39989008139E+04 0.  0.
        4    1    3    3  502    0 -0.10015196400E+04 -0.43053771152E+02 -0.26138552987E+04  0.27994885876E+04  0.12699999809E+01 0. -1.
       -4    1    3    3    0  502  0.10015196400E+04  0.43053771152E+02  0.10891241754E+04  0.14802325152E+04  0.12699999809E+01 0.  1.
</event>
<event>
 5   0  0.2078125E-09  0.3999270E+04  0.7818609E-02  0.8004694E-01
       -1   -1    0    0    0  501  0.00000000000E+00  0.00000000000E+00  0.18697585170E+04  0.18697585170E+04  0.50400001928E-02 0. -1.
        1   -1    0    0  501    0  0.00000000000E+00  0.00000000000E+00 -0.21385326278E+04  0.21385326278E+04  0.50400001928E-02 0.  1.
    10030    2    1    2    0    0  0.00000000000E+00  0.00000000000E+00 -0.26877411088E+03  0.40082911448E+04  0.39992697307E+04 0.  0.
        5    1    3    3  502    0  0.12346800734E+04 -0.40208038622E+03 -0.16584796633E+04  0.21063428981E+04  0.46999998093E+01 0.  1.
       -5    1    3    3    0  502 -0.12346800734E+04  0.40208038622E+03  0.13897055524E+04  0.19019482467E+04  0.46999998093E+01 0. -1.
</event>
<event>
 5   0  0.2078125E-09  0.3994971E+04  0.7818609E-02  0.8005562E-01
        3   -1    0    0  501    0  0.00000000000E+00  0.00000000000E+00  0.23211310486E+04  0.23211310508E+04  0.10100000352E+00 0.  1.
       -3   -1    0    0    0  501  0.00000000000E+00  0.00000000000E+00 -0.17189673421E+04  0.17189673451E+04  0.10100000352E+00 0. -1.
    10030    2    1    2    0    0  0.00000000000E+00  0.00000000000E+00  0.60216370651E+03  0.40400983959E+04  0.39949710786E+04 0.  0.
        4    1    3    3  502    0  0.18734441464E+04  0.56598135333E+03 -0.10320769501E+03  0.19597911376E+04  0.12699999809E+01 0. -1.
       -4    1    3    3    0  502 -0.18734441464E+04 -0.56598135333E+03  0.70537140152E+03  0.20803072583E+04  0.12699999809E+01 0.  1.
</event>
<event>
 5   0  0.2078125E-09  0.3995924E+04  0.7818609E-02  0.8005369E-01
        1   -1    0    0  501    0  0.00000000000E+00  0.00000000000E+00  0.33796598424E+04  0.33796598424E+04  0.50400001928E-02 0. -1.
       -1   -1    0    0    0  501  0.00000000000E+00  0.00000000000E+00 -0.11811402564E+04  0.11811402564E+04  0.50400001928E-02 0.  1.
    10030    2    1    2    0    0  0.00000000000E+00  0.00000000000E+00  0.21985195860E+04  0.45608000988E+04  0.39959240698E+04 0.  0.
        4    1    3    3  502    0 -0.15150651344E+04 -0.98599456752E+03  0.12793164837E+03  0.18121743206E+04  0.12699999809E+01 0.  1.
       -4    1    3    3    0  502  0.15150651344E+04  0.98599456752E+03  0.20705879376E+04  0.27486257783E+04  0.12699999809E+01 0. -1.
</event>
<event>
 5   0  0.6599276E-09  0.3999947E+04  0.7818609E-02  0.8004557E-01
        2   -1    0    0  501    0  0.00000000000E+00  0.00000000000E+00  0.23124159687E+04  0.23124159687E+04  0.25500000920E-02 0. -1.
       -2   -1    0    0    0  501  0.00000000000E+00  0.00000000000E+00 -0.17297469277E+04  0.17297469277E+04  0.25500000920E-02 0.  1.
    10030    2    1    2    0    0  0.00000000000E+00  0.00000000000E+00  0.58266904098E+03  0.40421628965E+04  0.39999472084E+04 0.  0.
        2    1    3    3  502    0 -0.15317806594E+04  0.12494673522E+04 -0.15803707480E+02  0.19768081368E+04  0.25500000920E-02 0.  1.
       -2    1    3    3    0  502  0.15317806594E+04 -0.12494673522E+04  0.59847274846E+03  0.20653547597E+04  0.25500000920E-02 0. -1.
</event>
<event>
 5   0  0.6538370E-09  0.3996064E+04  0.7818609E-02  0.8005341E-01
       -2   -1    0    0    0  501  0.00000000000E+00  0.00000000000E+00  0.19233955542E+04  0.19233955542E+04  0.25500000920E-02 0. -1.
        2   -1    0    0  501    0  0.00000000000E+00  0.00000000000E+00 -0.20755649926E+04  0.20755649926E+04  0.25500000920E-02 0.  1.
    10030    2    1    2    0    0  0.00000000000E+00  0.00000000000E+00 -0.15216943842E+03  0.39989605468E+04  0.39960643034E+04 0.  0.
        4    1    3    3  502    0  0.15065077394E+04  0.12288419617E+04 -0.53740986441E+03  0.20170347322E+04  0.12699999809E+01 0.  1.
       -4    1    3    3    0  502 -0.15065077394E+04 -0.12288419617E+04  0.38524042599E+03  0.19819258146E+04  0.12699999809E+01 0. -1.
</event>
<event>
 5   0  0.6538370E-09  0.4001332E+04  0.7818609E-02  0.8004278E-01
        2   -1    0    0  501    0  0.00000000000E+00  0.00000000000E+00  0.20676741277E+04  0.20676741277E+04  0.25500000920E-02 0.  1.
       -2   -1    0    0    0  501  0.00000000000E+00  0.00000000000E+00 -0.19358292860E+04  0.19358292860E+04  0.25500000920E-02 0. -1.
    10030    2    1    2    0    0  0.00000000000E+00  0.00000000000E+00  0.13184484166E+03  0.40035034137E+04  0.40013318434E+04 0.  0.
        4    1    3    3  502    0 -0.10990259514E+04 -0.91364925902E+03 -0.13348550664E+04  0.19556207893E+04  0.12699999809E+01 0. -1.
       -4    1    3    3    0  502  0.10990259514E+04  0.91364925902E+03  0.14666999080E+04  0.20478826244E+04  0.12699999809E+01 0.  1.
</event>
<event>
 5   0  0.2078125E-09  0.3999269E+04  0.7818609E-02  0.8004694E-01
       -1   -1    0    0    0  501  0.00000000000E+00  0.00000000000E+00  0.17752108275E+04  0.17752108275E+04  0.50400001928E-02 0. -1.
        1   -1    0    0  501    0  0.00000000000E+00  0.00000000000E+00 -0.22524300801E+04  0.22524300801E+04  0.50400001928E-02 0.  1.
    10030    2    1    2    0    0  0.00000000000E+00  0.00000000000E+00 -0.47721925259E+03  0.40276409075E+04  0.39992690663E+04 0.  0.
        4    1    3    3  502    0 -0.68502624460E+03  0.15955588792E+04  0.76012507292E+03  0.18954843266E+04  0.12699999809E+01 0. -1.
       -4    1    3    3    0  502  0.68502624460E+03 -0.15955588792E+04 -0.12373443255E+04  0.21321565810E+04  0.12699999809E+01 0.  1.
</event>
<event>
 5   0  0.6599276E-09  0.3999889E+04  0.7818609E-02  0.8004569E-01
       -2   -1    0    0    0  501  0.00000000000E+00  0.00000000000E+00  0.13016004560E+04  0.13016004560E+04  0.25500000920E-02 0. -1.
        2   -1    0    0  501    0  0.00000000000E+00  0.00000000000E+00 -0.30729690082E+04  0.30729690082E+04  0.25500000920E-02 0.  1.
    10030    2    1    2    0    0  0.00000000000E+00  0.00000000000E+00 -0.17713685521E+04  0.43745694642E+04  0.39998889297E+04 0.  0.
        2    1    3    3  502    0  0.10366619075E+04  0.76906833099E+02 -0.27542955302E+04  0.29439304406E+04  0.25500000920E-02 0.  1.
       -2    1    3    3    0  502 -0.10366619075E+04 -0.76906833099E+02  0.98292697811E+03  0.14306390236E+04  0.25500000920E-02 0. -1.
</event>
<event>
 5   0  0.6538370E-09  0.3973332E+04  0.7818609E-02  0.8009948E-01
        2   -1    0    0  501    0  0.00000000000E+00  0.00000000000E+00  0.16196372732E+04  0.16196372732E+04  0.25500000920E-02 0.  1.
       -2   -1    0    0    0  501  0.00000000000E+00  0.00000000000E+00 -0.24368679982E+04  0.24368679982E+04  0.25500000920E-02 0. -1.
    10030    2    1    2    0    0  0.00000000000E+00  0.00000000000E+00 -0.81723072498E+03  0.40565052714E+04  0.39733322236E+04 0.  0.
        4    1    3    3  502    0 -0.15319865533E+04  0.40972445493E+03  0.81308921842E+03  0.17821258705E+04  0.12699999809E+01 0.  1.
       -4    1    3    3    0  502  0.15319865533E+04 -0.40972445493E+03 -0.16303199434E+04  0.22743794009E+04  0.12699999809E+01 0. -1.
</event>
<event>
 5   0  0.6547327E-09  0.3999233E+04  0.7818609E-02  0.8004701E-01
       -2   -1    0    0    0  501  0.00000000000E+00  0.00000000000E+00  0.15593053795E+04  0.15593053795E+04  0.25500000920E-02 0. -1.
        2   -1    0    0  501    0  0.00000000000E+00  0.00000000000E+00 -0.25642613567E+04  0.25642613567E+04  0.25500000920E-02 0.  1.
    10030    2    1    2    0    0  0.00000000000E+00  0.00000000000E+00 -0.10049559771E+04  0.41235667362E+04  0.39992331905E+04 0.  0.
        5    1    3    3  502    0  0.39153416305E+03 -0.18997104843E+04 -0.13160459397E+01  0.19396450054E+04  0.46999998093E+01 0. -1.
       -5    1    3    3    0  502 -0.39153416305E+03  0.18997104843E+04 -0.10036399312E+04  0.21839217308E+04  0.46999998093E+01 0.  1.
</event>
<event>
 5   0  0.2078125E-09  0.3999775E+04  0.7818609E-02  0.8004592E-01
       -1   -1    0    0    0  501  0.00000000000E+00  0.00000000000E+00  0.18366841626E+04  0.18366841626E+04  0.50400001928E-02 0. -1.
        1   -1    0    0  501    0  0.00000000000E+00  0.00000000000E+00 -0.21775923173E+04  0.21775923173E+04  0.50400001928E-02 0.  1.
    10030    2    1    2    0    0  0.00000000000E+00  0.00000000000E+00 -0.34090815471E+03  0.40142764799E+04  0.39997746546E+04 0.  0.
        2    1    3    3  502    0 -0.43852903642E+03  0.16750041915E+04 -0.11748836034E+04  0.20924383477E+04  0.25500000920E-02 0.  1.
       -2    1    3    3    0  502  0.43852903642E+03 -0.16750041915E+04  0.83397544869E+03  0.19218381322E+04  0.25500000920E-02 0. -1.
</event>
<event>
 5   0  0.6547327E-09  0.4001535E+04  0.7818609E-02  0.8004237E-01
        2   -1    0    0  501    0  0.00000000000E+00  0.00000000000E+00  0.29160867412E+04  0.29160867412E+04  0.25500000920E-02 0.  1.
       -2   -1    0    0    0  501  0.00000000000E+00  0.00000000000E+00 -0.13727544355E+04  0.13727544355E+04  0.25500000920E-02 0. -1.
    10030    2    1    2    0    0  0.00000000000E+00  0.00000000000E+00  0.15433323057E+04  0.42888411766E+04  0.40015352095E+04 0.  0.
        5    1    3    3  502    0 -0.17787281065E+04 -0.51958668918E+03  0.15802920417E+04  0.24354032585E+04  0.46999998093E+01 0. -1.
       -5    1    3    3    0  502  0.17787281065E+04  0.51958668918E+03 -0.36959736023E+02  0.18534379181E+04  0.46999998093E+01 0.  1.
</event>
<event>
 5   0  0.2078125E-09  0.4009094E+04  0.7818609E-02  0.8002715E-01
       -1   -1    0    0    0  501  0.00000000000E+00  0.00000000000E+00  0.18116796560E+04  0.18116796560E+04  0.50400001928E-02 0.  1.
        1   -1    0    0  501    0  0.00000000000E+00  0.00000000000E+00 -0.22179465693E+04  0.22179465693E+04  0.50400001928E-02 0. -1.
    10030    2    1    2    0    0  0.00000000000E+00  0.00000000000E+00 -0.40626691335E+03  0.40296262253E+04  0.40090940012E+04 0.  0.
        2    1    3    3  502    0  0.77467054605E+02  0.44903818503E+03  0.17589326006E+04  0.18169976141E+04  0.25500000920E-02 0.  1.
       -2    1    3    3    0  502 -0.77467054605E+02 -0.44903818503E+03 -0.21651995139E+04  0.22126286112E+04  0.25500000920E-02 0. -1.
</event>
<event>
 5   0  0.6736335E-09  0.3999659E+04  0.7818609E-02  0.8004615E-01
        2   -1    0    0  501    0  0.00000000000E+00  0.00000000000E+00  0.24029476709E+04  0.24029476709E+04  0.25500000920E-02 0. -1.
       -2   -1    0    0    0  501  0.00000000000E+00  0.00000000000E+00 -0.16643381625E+04  0.16643381625E+04  0.25500000920E-02 0.  1.
    10030    2    1    2    0    0  0.00000000000E+00  0.00000000000E+00  0.73860950844E+03  0.40672858334E+04  0.39996587410E+04 0.  0.
        1    1    3    3  502    0  0.19453344190E+04  0.39578461175E+03  0.12367131551E+03  0.19890364639E+04  0.50400001928E-02 0. -1.
       -1    1    3    3    0  502 -0.19453344190E+04 -0.39578461175E+03  0.61493819293E+03  0.20782493695E+04  0.50400001928E-02 0.  1.
</event>
<event>
 5   0  0.2078125E-09  0.4001627E+04  0.7818609E-02  0.8004218E-01
        1   -1    0    0  501    0  0.00000000000E+00  0.00000000000E+00  0.13914122375E+04  0.13914122375E+04  0.50400001928E-02 0.  1.
       -1   -1    0    0    0  501  0.00000000000E+00  0.00000000000E+00 -0.28771164951E+04  0.28771164951E+04  0.50400001928E-02 0. -1.
    10030    2    1    2    0    0  0.00000000000E+00  0.00000000000E+00 -0.14857042576E+04  0.42685287326E+04  0.40016272190E+04 0.  0.
        4    1    3    3  502    0 -0.70523417445E+03 -0.39525465498E+03  0.12094306457E+04  0.14547527566E+04  0.12699999809E+01 0.  1.
       -4    1    3    3    0  502  0.70523417445E+03  0.39525465498E+03 -0.26951349034E+04  0.28137759760E+04  0.12699999809E+01 0. -1.
</event>
<event>
 5   0  0.6645526E-09  0.3998130E+04  0.7818609E-02  0.8004924E-01
        2   -1    0    0  501    0  0.00000000000E+00  0.00000000000E+00  0.21148422575E+04  0.21148422575E+04  0.25500000920E-02 0.  1.
       -2   -1    0    0    0  501  0.00000000000E+00  0.00000000000E+00 -0.18896261809E+04  0.18896261809E+04  0.25500000920E-02 0. -1.
    10030    2    1    2    0    0  0.00000000000E+00  0.00000000000E+00  0.22521607653E+03  0.40044684384E+04  0.39981302121E+04 0.  0.
        3    1    3    3  502    0 -0.42635894516E+03 -0.11613774502E+04 -0.14601302208E+04  0.19137815455E+04  0.10100000352E+00 0. -1.
       -3    1    3    3    0  502  0.42635894516E+03  0.11613774502E+04  0.16853462974E+04  0.20906868929E+04  0.10100000352E+00 0.  1.
</event>
<event>
 5   0  0.2078125E-09  0.3999083E+04  0.7818609E-02  0.8004732E-01
        1   -1    0    0  501    0  0.00000000000E+00  0.00000000000E+00  0.17033928486E+04  0.17033928486E+04  0.50400001928E-02 0.  1.
       -1   -1    0    0    0  501  0.00000000000E+00  0.00000000000E+00 -0.23471776115E+04  0.23471776115E+04  0.50400001928E-02 0. -1.
    10030    2    1    2    0    0  0.00000000000E+00  0.00000000000E+00 -0.64378476289E+03  0.40505704601E+04  0.39990826737E+04 0.  0.
        5    1    3    3  502    0  0.75489726735E+03  0.20438613277E+03  0.15420451010E+04  0.17290369455E+04  0.46999998093E+01 0.  1.
       -5    1    3    3    0  502 -0.75489726735E+03 -0.20438613277E+03 -0.21858298639E+04  0.23215335146E+04  0.46999998093E+01 0. -1.
</event>
<event>
 5   0  0.2078125E-09  0.3997340E+04  0.7818609E-02  0.8005083E-01
        1   -1    0    0  501    0  0.00000000000E+00  0.00000000000E+00  0.21879824144E+04  0.21879824144E+04  0.50400001928E-02 0.  1.
       -1   -1    0    0    0  501  0.00000000000E+00  0.00000000000E+00 -0.18257372935E+04  0.18257372935E+04  0.50400001928E-02 0. -1.
    10030    2    1    2    0    0  0.00000000000E+00  0.00000000000E+00  0.36224512094E+03  0.40137197079E+04  0.39973396610E+04 0.  0.
        3    1    3    3  502    0  0.50189314383E+03 -0.97758178133E+03  0.18574300410E+04  0.21581494930E+04  0.10100000352E+00 0.  1.
       -3    1    3    3    0  502 -0.50189314383E+03  0.97758178133E+03 -0.14951849200E+04  0.18555702149E+04  0.10100000352E+00 0. -1.
</event>
<event>
 5   0  0.6599276E-09  0.4006195E+04  0.7818609E-02  0.8003298E-01
        2   -1    0    0  501    0  0.00000000000E+00  0.00000000000E+00  0.24001498657E+04  0.24001498657E+04  0.25500000920E-02 0.  1.
       -2   -1    0    0    0  501  0.00000000000E+00  0.00000000000E+00 -0.16717287514E+04  0.16717287514E+04  0.25500000920E-02 0. -1.
    10030    2    1    2    0    0  0.00000000000E+00  0.00000000000E+00  0.72842111429E+03  0.40718786171E+04  0.40061949718E+04 0.  0.
        2    1    3    3  502    0  0.11060416972E+04 -0.13799744557E+04  0.13202394457E+04  0.22069639617E+04  0.25500000920E-02 0.  1.
       -2    1    3    3    0  502 -0.11060416972E+04  0.13799744557E+04 -0.59181833139E+03  0.18649146554E+04  0.25500000920E-02 0. -1.
</event>
<event>
 5   0  0.6547327E-09  0.4001880E+04  0.7818609E-02  0.8004167E-01
       -2   -1    0    0    0  501  0.00000000000E+00  0.00000000000E+00  0.22864367359E+04  0.22864367359E+04  0.25500000920E-02 0.  1.
        2   -1    0    0  501    0  0.00000000000E+00  0.00000000000E+00 -0.17510919508E+04  0.17510919508E+04  0.25500000920E-02 0. -1.
    10030    2    1    2    0    0  0.00000000000E+00  0.00000000000E+00  0.53534478512E+03  0.40375286867E+04  0.40018800403E+04 0.  0.
        5    1    3    3  502    0  0.62740544003E+03  0.17052852128E+04 -0.57770798762E+03  0.19066735044E+04  0.46999998093E+01 0. -1.
       -5    1    3    3    0  502 -0.62740544003E+03 -0.17052852128E+04  0.11130527727E+04  0.21308551824E+04  0.46999998093E+01 0.  1.
</event>
<event>
 5   0  0.2078125E-09  0.4001171E+04  0.7818609E-02  0.8004310E-01
       -1   -1    0    0    0  501  0.00000000000E+00  0.00000000000E+00  0.33874409319E+04  0.33874409319E+04  0.50400001928E-02 0.  1.
        1   -1    0    0  501    0  0.00000000000E+00  0.00000000000E+00 -0.11815237159E+04  0.11815237160E+04  0.50400001928E-02 0. -1.
    10030    2    1    2    0    0  0.00000000000E+00  0.00000000000E+00  0.22059172160E+04  0.45689646479E+04  0.40011707274E+04 0.  0.
        4    1    3    3  502    0  0.11135641517E+03 -0.18763610290E+04  0.18851517152E+04  0.26621287656E+04  0.12699999809E+01 0.  1.
       -4    1    3    3    0  502 -0.11135641517E+03  0.18763610290E+04  0.32076550078E+03  0.19068358823E+04  0.12699999809E+01 0. -1.
</event>
<event>
 5   0  0.6538370E-09  0.4000256E+04  0.7818609E-02  0.8004495E-01
       -2   -1    0    0    0  501  0.00000000000E+00  0.00000000000E+00  0.26120387011E+04  0.26120387011E+04  0.25500000920E-02 0. -1.
        2   -1    0    0  501    0  0.00000000000E+00  0.00000000000E+00 -0.15315669842E+04  0.15315669842E+04  0.25500000920E-02 0.  1.
    10030    2    1    2    0    0  0.00000000000E+00  0.00000000000E+00  0.10804717169E+04  0.41436056853E+04  0.40002561098E+04 0.  0.
        4    1    3    3  502    0 -0.37466704674E+03  0.50571924410E+03 -0.14263191811E+04  0.15590110228E+04  0.12699999809E+01 0.  1.
       -4    1    3    3    0  502  0.37466704674E+03 -0.50571924410E+03  0.25067908981E+04  0.25845946625E+04  0.12699999809E+01 0. -1.
</event>
<event>
 5   0  0.2078125E-09  0.4000938E+04  0.7818609E-02  0.8004357E-01
        1   -1    0    0  501    0  0.00000000000E+00  0.00000000000E+00  0.17634319813E+04  0.17634319813E+04  0.50400001928E-02 0.  1.
       -1   -1    0    0    0  501  0.00000000000E+00  0.00000000000E+00 -0.22693679783E+04  0.22693679784E+04  0.50400001928E-02 0. -1.
    10030    2    1    2    0    0  0.00000000000E+00  0.00000000000E+00 -0.50593599705E+03  0.40327999597E+04  0.40009379252E+04 0.  0.
        5    1    3    3  502    0 -0.57609205346E+03  0.18425197573E+04  0.27570184025E+03  0.19500755639E+04  0.46999998093E+01 0. -1.
       -5    1    3    3    0  502  0.57609205346E+03 -0.18425197573E+04 -0.78163783729E+03  0.20827243958E+04  0.46999998093E+01 0.  1.
</event>
<event>
 5   0  0.6599276E-09  0.4000270E+04  0.7818609E-02  0.8004492E-01
        2   -1    0    0  501    0  0.00000000000E+00  0.00000000000E+00  0.26791045434E+04  0.26791045434E+04  0.25500000920E-02 0. -1.
       -2   -1    0    0    0  501  0.00000000000E+00  0.00000000000E+00 -0.14932374276E+04  0.14932374276E+04  0.25500000920E-02 0.  1.
    10030    2    1    2    0    0  0.00000000000E+00  0.00000000000E+00  0.11858671158E+04  0.41723419709E+04  0.40002695792E+04 0.  0.
        2    1    3    3  502    0  0.45078142695E+03  0.68581022729E+03  0.24954000323E+04  0.26268918676E+04  0.25500000920E-02 0. -1.
       -2    1    3    3    0  502 -0.45078142695E+03 -0.68581022729E+03 -0.13095329165E+04  0.15454501034E+04  0.25500000920E-02 0.  1.
</event>
<event>
 5   0  0.6645526E-09  0.4000791E+04  0.7818609E-02  0.8004387E-01
       -2   -1    0    0    0  501  0.00000000000E+00  0.00000000000E+00  0.15829253871E+04  0.15829253871E+04  0.25500000920E-02 0. -1.
        2   -1    0    0  501    0  0.00000000000E+00  0.00000000000E+00 -0.25279665092E+04  0.25279665092E+04  0.25500000920E-02 0.  1.
    10030    2    1    2    0    0  0.00000000000E+00  0.00000000000E+00 -0.94504112210E+03  0.41108918964E+04  0.40007911044E+04 0.  0.
        3    1    3    3  502    0  0.17731430142E+03 -0.10227940427E+04 -0.22295596151E+04  0.24593666061E+04  0.10100000352E+00 0.  1.
       -3    1    3    3    0  502 -0.17731430142E+03  0.10227940427E+04  0.12845184930E+04  0.16515252903E+04  0.10100000352E+00 0. -1.
</event>
<event>
 5   0  0.2078125E-09  0.4003963E+04  0.7818609E-02  0.8003747E-01
       -1   -1    0    0    0  501  0.00000000000E+00  0.00000000000E+00  0.21842807779E+04  0.21842807779E+04  0.50400001928E-02 0.  1.
        1   -1    0    0  501    0  0.00000000000E+00  0.00000000000E+00 -0.18348973084E+04  0.18348973084E+04  0.50400001928E-02 0. -1.
    10030    2    1    2    0    0  0.00000000000E+00  0.00000000000E+00  0.34938346953E+03  0.40191780863E+04  0.40039634964E+04 0.  0.
        2    1    3    3  502    0  0.37874007817E+03 -0.62959221282E+03  0.20440518773E+04  0.21720908080E+04  0.25500000920E-02 0.  1.
       -2    1    3    3    0  502 -0.37874007817E+03  0.62959221282E+03 -0.16946684077E+04  0.18470872782E+04  0.25500000920E-02 0. -1.
</event>
<event>
 5   0  0.2078125E-09  0.4007326E+04  0.7818609E-02  0.8003070E-01
        1   -1    0    0  501    0  0.00000000000E+00  0.00000000000E+00  0.20119070076E+04  0.20119070076E+04  0.50400001928E-02 0. -1.
       -1   -1    0    0    0  501  0.00000000000E+00  0.00000000000E+00 -0.19954523579E+04  0.19954523579E+04  0.50400001928E-02 0.  1.
    10030    2    1    2    0    0  0.00000000000E+00  0.00000000000E+00  0.16454649696E+02  0.40073593656E+04  0.40073255831E+04 0.  0.
        5    1    3    3  502    0 -0.87208391879E+03  0.13692834194E+04 -0.11661654126E+04  0.19988574996E+04  0.46999998093E+01 0.  1.
       -5    1    3    3    0  502  0.87208391879E+03 -0.13692834194E+04  0.11826200623E+04  0.20085018660E+04  0.46999998093E+01 0. -1.
</event>
<event>
 5   0  0.6645526E-09  0.3995565E+04  0.7818609E-02  0.8005442E-01
        2   -1    0    0  501    0  0.00000000000E+00  0.00000000000E+00  0.24047384434E+04  0.24047384434E+04  0.25500000920E-02 0.  1.
       -2   -1    0    0    0  501  0.00000000000E+00  0.00000000000E+00 -0.16596963107E+04  0.16596963107E+04  0.25500000920E-02 0. -1.
    10030    2    1    2    0    0  0.00000000000E+00  0.00000000000E+00  0.74504213269E+03  0.40644347541E+04  0.39955653030E+04 0.  0.
        3    1    3    3  502    0  0.34101344783E+03  0.85474065423E+03 -0.14312499651E+04  0.17015722819E+04  0.10100000352E+00 0. -1.
       -3    1    3    3    0  502 -0.34101344783E+03 -0.85474065423E+03  0.21762920978E+04  0.23628624722E+04  0.10100000352E+00 0.  1.
</event>
<event>
 5   0  0.6645526E-09  0.3999596E+04  0.7818609E-02  0.8004628E-01
        2   -1    0    0  501    0  0.00000000000E+00  0.00000000000E+00  0.23832925869E+04  0.23832925869E+04  0.25500000920E-02 0.  1.
       -2   -1    0    0    0  501  0.00000000000E+00  0.00000000000E+00 -0.16780113916E+04  0.16780113916E+04  0.25500000920E-02 0. -1.
    10030    2    1    2    0    0  0.00000000000E+00  0.00000000000E+00  0.70528119533E+03  0.40613039785E+04  0.39995960348E+04 0.  0.
        3    1    3    3  502    0 -0.17418770560E+03 -0.64340116340E+03  0.22671706477E+04  0.23631269897E+04  0.10100000352E+00 0.  1.
       -3    1    3    3    0  502  0.17418770560E+03  0.64340116340E+03 -0.15618894523E+04  0.16981769888E+04  0.10100000352E+00 0. -1.
</event>
<event>
 5   0  0.6599276E-09  0.4000421E+04  0.7818609E-02  0.8004462E-01
        2   -1    0    0  501    0  0.00000000000E+00  0.00000000000E+00  0.24105887204E+04  0.24105887204E+04  0.25500000920E-02 0.  1.
       -2   -1    0    0    0  501  0.00000000000E+00  0.00000000000E+00 -0.16596951303E+04  0.16596951303E+04  0.25500000920E-02 0. -1.
    10030    2    1    2    0    0  0.00000000000E+00  0.00000000000E+00  0.75089359010E+03  0.40702838508E+04  0.40004211581E+04 0.  0.
        2    1    3    3  502    0 -0.78015046094E+03 -0.88069242216E+03 -0.12703897198E+04  0.17315149218E+04  0.25500000920E-02 0. -1.
       -2    1    3    3    0  502  0.78015046094E+03  0.88069242216E+03  0.20212833099E+04  0.23387689290E+04  0.25500000920E-02 0.  1.
</event>
<event>
 5   0  0.2078125E-09  0.4001269E+04  0.7818609E-02  0.8004291E-01
       -1   -1    0    0    0  501  0.00000000000E+00  0.00000000000E+00  0.28271995488E+04  0.28271995488E+04  0.50400001928E-02 0.  1.
        1   -1    0    0  501    0  0.00000000000E+00  0.00000000000E+00 -0.14157251548E+04  0.14157251549E+04  0.50400001928E-02 0. -1.
    10030    2    1    2    0    0  0.00000000000E+00  0.00000000000E+00  0.14114743939E+04  0.42429247036E+04  0.40012685583E+04 0.  0.
        1    1    3    3  502    0 -0.11046004038E+04  0.98814241862E+03  0.21307635387E+04  0.25955193603E+04  0.50400001928E-02 0.  1.
       -1    1    3    3    0  502  0.11046004038E+04 -0.98814241862E+03 -0.71928914479E+03  0.16474053434E+04  0.50400001928E-02 0. -1.
</event>
<event>
 5   0  0.6538370E-09  0.3999551E+04  0.7818609E-02  0.8004637E-01
        2   -1    0    0  501    0  0.00000000000E+00  0.00000000000E+00  0.23608978321E+04  0.23608978321E+04  0.25500000920E-02 0. -1.
       -2   -1    0    0    0  501  0.00000000000E+00  0.00000000000E+00 -0.16938905572E+04  0.16938905572E+04  0.25500000920E-02 0.  1.
    10030    2    1    2    0    0  0.00000000000E+00  0.00000000000E+00  0.66700727487E+03  0.40547883892E+04  0.39995512469E+04 0.  0.
        4    1    3    3  502    0 -0.16212144663E+04  0.56275246336E+03 -0.70735686956E+03  0.18561740313E+04  0.12699999809E+01 0.  1.
       -4    1    3    3    0  502  0.16212144663E+04 -0.56275246336E+03  0.13743641444E+04  0.21986143580E+04  0.12699999809E+01 0. -1.
</event>
<event>
 5   0  0.6645526E-09  0.4005787E+04  0.7818609E-02  0.8003380E-01
       -2   -1    0    0    0  501  0.00000000000E+00  0.00000000000E+00  0.19146610528E+04  0.19146610528E+04  0.25500000920E-02 0. -1.
        2   -1    0    0  501    0  0.00000000000E+00  0.00000000000E+00 -0.20951915649E+04  0.20951915649E+04  0.25500000920E-02 0.  1.
    10030    2    1    2    0    0  0.00000000000E+00  0.00000000000E+00 -0.18053051202E+03  0.40098526177E+04  0.40057866581E+04 0.  0.
        3    1    3    3  502    0 -0.14590816187E+03 -0.19960321263E+04 -0.16875553440E+03  0.20084600772E+04  0.10100000352E+00 0.  1.
       -3    1    3    3    0  502  0.14590816187E+03  0.19960321263E+04 -0.11774977618E+02  0.20013925405E+04  0.10100000352E+00 0. -1.
</event>
<event>
 5   0  0.2078125E-09  0.3999153E+04  0.7818609E-02  0.8004717E-01
        1   -1    0    0  501    0  0.00000000000E+00  0.00000000000E+00  0.24260484133E+04  0.24260484133E+04  0.50400001928E-02 0. -1.
       -1   -1    0    0    0  501  0.00000000000E+00  0.00000000000E+00 -0.16480733846E+04  0.16480733846E+04  0.50400001928E-02 0.  1.
    10030    2    1    2    0    0  0.00000000000E+00  0.00000000000E+00  0.77797502870E+03  0.40741217980E+04  0.39991528202E+04 0.  0.
        2    1    3    3  502    0 -0.10167400671E+03 -0.13113906690E+04  0.19232824698E+04  0.23300426068E+04  0.25500000920E-02 0. -1.
       -2    1    3    3    0  502  0.10167400671E+03  0.13113906690E+04 -0.11453074412E+04  0.17440791912E+04  0.25500000920E-02 0.  1.
</event>
<event>
 5   0  0.2078125E-09  0.3996693E+04  0.7818609E-02  0.8005214E-01
       -1   -1    0    0    0  501  0.00000000000E+00  0.00000000000E+00  0.10233662467E+04  0.10233662467E+04  0.50400001928E-02 0.  1.
        1   -1    0    0  501    0  0.00000000000E+00  0.00000000000E+00 -0.39022085540E+04  0.39022085540E+04  0.50400001928E-02 0. -1.
    10030    2    1    2    0    0  0.00000000000E+00  0.00000000000E+00 -0.28788423073E+04  0.49255748007E+04  0.39966928938E+04 0.  0.
        1    1    3    3  502    0  0.82714872167E+03  0.15762021481E+04 -0.25586800271E+04  0.31169587262E+04  0.50400001928E-02 0. -1.
       -1    1    3    3    0  502 -0.82714872167E+03 -0.15762021481E+04 -0.32016228019E+03  0.18086160745E+04  0.50400001928E-02 0.  1.
</event>
<event>
 5   0  0.6736335E-09  0.4000142E+04  0.7818609E-02  0.8004518E-01
        2   -1    0    0  501    0  0.00000000000E+00  0.00000000000E+00  0.21237999405E+04  0.21237999405E+04  0.25500000920E-02 0. -1.
       -2   -1    0    0    0  501  0.00000000000E+00  0.00000000000E+00 -0.18835499912E+04  0.18835499912E+04  0.25500000920E-02 0.  1.
    10030    2    1    2    0    0  0.00000000000E+00  0.00000000000E+00  0.24024994929E+03  0.40073499316E+04  0.40001416770E+04 0.  0.
        1    1    3    3  502    0  0.11939127554E+04 -0.10195795369E+03  0.17244039119E+04  0.20998552196E+04  0.50400001928E-02 0. -1.
       -1    1    3    3    0  502 -0.11939127554E+04  0.10195795369E+03 -0.14841539626E+04  0.19074947121E+04  0.50400001928E-02 0.  1.
</event>
<event>
 5   0  0.2078125E-09  0.3999236E+04  0.7818609E-02  0.8004701E-01
       -1   -1    0    0    0  501  0.00000000000E+00  0.00000000000E+00  0.22378716402E+04  0.22378716402E+04  0.50400001928E-02 0. -1.
        1   -1    0    0  501    0  0.00000000000E+00  0.00000000000E+00 -0.17867297687E+04  0.17867297687E+04  0.50400001928E-02 0.  1.
    10030    2    1    2    0    0  0.00000000000E+00  0.00000000000E+00  0.45114187153E+03  0.40246014089E+04  0.39992358660E+04 0.  0.
        5    1    3    3  502    0 -0.87575440781E+03 -0.14856574452E+04  0.12440801121E+04  0.21264715475E+04  0.46999998093E+01 0. -1.
       -5    1    3    3    0  502  0.87575440781E+03  0.14856574452E+04 -0.79293824054E+03  0.18981298614E+04  0.46999998093E+01 0.  1.
</event>
<event>
 5   0  0.2078125E-09  0.3998753E+04  0.7818609E-02  0.8004798E-01
       -1   -1    0    0    0  501  0.00000000000E+00  0.00000000000E+00  0.18455876088E+04  0.18455876088E+04  0.50400001928E-02 0.  1.
        1   -1    0    0  501    0  0.00000000000E+00  0.00000000000E+00 -0.21659803906E+04  0.21659803906E+04  0.50400001928E-02 0. -1.
    10030    2    1    2    0    0  0.00000000000E+00  0.00000000000E+00 -0.32039278181E+03  0.40115679993E+04  0.39987530905E+04 0.  0.
        1    1    3    3  502    0 -0.15817482238E+04  0.12126762676E+04 -0.31880237912E+03  0.20184514189E+04  0.50400001928E-02 0.  1.
       -1    1    3    3    0  502  0.15817482238E+04 -0.12126762676E+04 -0.15904026865E+01  0.19931165804E+04  0.50400001928E-02 0. -1.
</event>
<event>
 5   0  0.6645526E-09  0.3998084E+04  0.7818609E-02  0.8004933E-01
       -2   -1    0    0    0  501  0.00000000000E+00  0.00000000000E+00  0.19085304489E+04  0.19085304489E+04  0.25500000920E-02 0.  1.
        2   -1    0    0  501    0  0.00000000000E+00  0.00000000000E+00 -0.20938463939E+04  0.20938463939E+04  0.25500000920E-02 0. -1.
    10030    2    1    2    0    0  0.00000000000E+00  0.00000000000E+00 -0.18531594494E+03  0.40023768428E+04  0.39980843404E+04 0.  0.
        3    1    3    3  502    0 -0.55177929547E+03  0.16141049387E+04  0.95075395287E+03  0.19528769119E+04  0.10100000352E+00 0.  1.
       -3    1    3    3    0  502  0.55177929547E+03 -0.16141049387E+04 -0.11360698978E+04  0.20494999309E+04  0.10100000352E+00 0. -1.
</event>
<event>
 5   0  0.2078125E-09  0.3999762E+04  0.7818609E-02  0.8004594E-01
       -1   -1    0    0    0  501  0.00000000000E+00  0.00000000000E+00  0.17747934949E+04  0.17747934949E+04  0.50400001928E-02 0.  1.
        1   -1    0    0  501    0  0.00000000000E+00  0.00000000000E+00 -0.22535156168E+04  0.22535156168E+04  0.50400001928E-02 0. -1.
    10030    2    1    2    0    0  0.00000000000E+00  0.00000000000E+00 -0.47872212184E+03  0.40283091117E+04  0.39997624217E+04 0.  0.
        1    1    3    3  502    0 -0.80792082142E+03  0.13222460174E+04 -0.15126844055E+04  0.21654756279E+04  0.50400001928E-02 0. -1.
       -1    1    3    3    0  502  0.80792082142E+03 -0.13222460174E+04  0.10339622837E+04  0.18628334838E+04  0.50400001928E-02 0.  1.
</event>
<event>
 5   0  0.2078125E-09  0.4004775E+04  0.7818609E-02  0.8003584E-01
        1   -1    0    0  501    0  0.00000000000E+00  0.00000000000E+00  0.21193828319E+04  0.21193828319E+04  0.50400001928E-02 0.  1.
       -1   -1    0    0    0  501  0.00000000000E+00  0.00000000000E+00 -0.18918506411E+04  0.18918506411E+04  0.50400001928E-02 0. -1.
    10030    2    1    2    0    0  0.00000000000E+00  0.00000000000E+00  0.22753219082E+03  0.40112334730E+04  0.40047750345E+04 0.  0.
        1    1    3    3  502    0 -0.53727823175E+03 -0.11188334498E+04 -0.14601048527E+04  0.19163408798E+04  0.50400001928E-02 0. -1.
       -1    1    3    3    0  502  0.53727823175E+03  0.11188334498E+04  0.16876370435E+04  0.20948925933E+04  0.50400001928E-02 0.  1.
</event>
<event>
 5   0  0.2078125E-09  0.4001821E+04  0.7818609E-02  0.8004179E-01
        1   -1    0    0  501    0  0.00000000000E+00  0.00000000000E+00  0.26517496135E+04  0.26517496135E+04  0.50400001928E-02 0. -1.
       -1   -1    0    0    0  501  0.00000000000E+00  0.00000000000E+00 -0.15098117834E+04  0.15098117834E+04  0.50400001928E-02 0.  1.
    10030    2    1    2    0    0  0.00000000000E+00  0.00000000000E+00  0.11419378301E+04  0.41615613969E+04  0.40018209921E+04 0.  0.
        2    1    3    3  502    0  0.13330001782E+04  0.88694573156E+03  0.18189041565E+04  0.24232157429E+04  0.25500000920E-02 0. -1.
       -2    1    3    3    0  502 -0.13330001782E+04 -0.88694573156E+03 -0.67696632637E+03  0.17383456541E+04  0.25500000920E-02 0.  1.
</event>
<event>
 5   0  0.6736335E-09  0.4001472E+04  0.7818609E-02  0.8004250E-01
        2   -1    0    0  501    0  0.00000000000E+00  0.00000000000E+00  0.21308320404E+04  0.21308320404E+04  0.25500000920E-02 0.  1.
       -2   -1    0    0    0  501  0.00000000000E+00  0.00000000000E+00 -0.18785830343E+04  0.18785830343E+04  0.25500000920E-02 0. -1.
    10030    2    1    2    0    0  0.00000000000E+00  0.00000000000E+00  0.25224900608E+03  0.40094150747E+04  0.40014721891E+04 0.  0.
        1    1    3    3  502    0 -0.72945321687E+03  0.13827685874E+03  0.19876935482E+04  0.21218266015E+04  0.50400001928E-02 0.  1.
       -1    1    3    3    0  502  0.72945321687E+03 -0.13827685874E+03 -0.17354445421E+04  0.18875884732E+04  0.50400001928E-02 0. -1.
</event>
<event>
 5   0  0.6645526E-09  0.4001129E+04  0.7818609E-02  0.8004319E-01
       -2   -1    0    0    0  501  0.00000000000E+00  0.00000000000E+00  0.14331453781E+04  0.14331453781E+04  0.25500000920E-02 0.  1.
        2   -1    0    0  501    0  0.00000000000E+00  0.00000000000E+00 -0.27926391370E+04  0.27926391370E+04  0.25500000920E-02 0. -1.
    10030    2    1    2    0    0  0.00000000000E+00  0.00000000000E+00 -0.13594937588E+04  0.42257845151E+04  0.40011287767E+04 0.  0.
        3    1    3    3  502    0  0.15856899534E+04 -0.12147725051E+04 -0.79627306316E+03  0.21503803545E+04  0.10100000352E+00 0.  1.
       -3    1    3    3    0  502 -0.15856899534E+04  0.12147725051E+04 -0.56322069568E+03  0.20754041606E+04  0.10100000352E+00 0. -1.
</event>
<event>
 5   0  0.6599276E-09  0.4001268E+04  0.7818609E-02  0.8004291E-01
       -2   -1    0    0    0  501  0.00000000000E+00  0.00000000000E+00  0.24031794824E+04  0.24031794824E+04  0.25500000920E-02 0. -1.
        2   -1    0    0  501    0  0.00000000000E+00  0.00000000000E+00 -0.16655171829E+04  0.16655171829E+04  0.25500000920E-02 0.  1.
    10030    2    1    2    0    0  0.00000000000E+00  0.00000000000E+00  0.73766229946E+03  0.40686966652E+04  0.40012681597E+04 0.  0.
        2    1    3    3  502    0  0.94225025061E+03 -0.91892962957E+03 -0.11633014886E+04  0.17565698256E+04  0.25500000920E-02 0.  1.
       -2    1    3    3    0  502 -0.94225025061E+03  0.91892962957E+03  0.19009637881E+04  0.23121268396E+04  0.25500000920E-02 0. -1.
</event>
<event>
 5   0  0.6538370E-09  0.3999961E+04  0.7818609E-02  0.8004554E-01
        2   -1    0    0  501    0  0.00000000000E+00  0.00000000000E+00  0.21650720973E+04  0.21650720973E+04  0.25500000920E-02 0.  1.
       -2   -1    0    0    0  501  0.00000000000E+00  0.00000000000E+00 -0.18474776688E+04  0.18474776688E+04  0.25500000920E-02 0. -1.
    10030    2    1    2    0    0  0.00000000000E+00  0.00000000000E+00  0.31759442857E+03  0.40125497661E+04  0.39999611754E+04 0.  0.
        4    1    3    3  502    0 -0.59721655296E+03 -0.13438507357E+04  0.15185403010E+04  0.21138989261E+04  0.12699999809E+01 0.  1.
       -4    1    3    3    0  502  0.59721655296E+03  0.13438507357E+04 -0.12009458725E+04  0.18986508400E+04  0.12699999809E+01 0. -1.
</event>
<event>
 5   0  0.6645526E-09  0.4029051E+04  0.7818609E-02  0.7998711E-01
       -2   -1    0    0    0  501  0.00000000000E+00  0.00000000000E+00  0.17291202426E+04  0.17291202426E+04  0.25500000920E-02 0.  1.
        2   -1    0    0  501    0  0.00000000000E+00  0.00000000000E+00 -0.23470396905E+04  0.23470396905E+04  0.25500000920E-02 0. -1.
    10030    2    1    2    0    0  0.00000000000E+00  0.00000000000E+00 -0.61791944795E+03  0.40761599331E+04  0.40290514214E+04 0.  0.
        3    1    3    3  502    0  0.12823127525E+04  0.15162868778E+04  0.33915792420E+02  0.19861022588E+04  0.10100000352E+00 0.  1.
       -3    1    3    3    0  502 -0.12823127525E+04 -0.15162868778E+04 -0.65183524037E+03  0.20900576743E+04  0.10100000352E+00 0. -1.
</event>
<event>
 5   0  0.2078125E-09  0.4001362E+04  0.7818609E-02  0.8004272E-01
        1   -1    0    0  501    0  0.00000000000E+00  0.00000000000E+00  0.12725832444E+04  0.12725832444E+04  0.50400001928E-02 0.  1.
       -1   -1    0    0    0  501  0.00000000000E+00  0.00000000000E+00 -0.31453534471E+04  0.31453534471E+04  0.50400001928E-02 0. -1.
    10030    2    1    2    0    0  0.00000000000E+00  0.00000000000E+00 -0.18727702027E+04  0.44179366914E+04  0.40013618153E+04 0.  0.
        3    1    3    3  502    0  0.90967145592E+03 -0.47412190323E+03 -0.28328916559E+04  0.30129004101E+04  0.10100000352E+00 0. -1.
       -3    1    3    3    0  502 -0.90967145592E+03  0.47412190323E+03  0.96012145319E+03  0.14050362813E+04  0.10100000352E+00 0.  1.
</event>
<event>
 5   0  0.6538370E-09  0.3999325E+04  0.7818609E-02  0.8004683E-01
        2   -1    0    0  501    0  0.00000000000E+00  0.00000000000E+00  0.14757545025E+04  0.14757545025E+04  0.25500000920E-02 0.  1.
       -2   -1    0    0    0  501  0.00000000000E+00  0.00000000000E+00 -0.27095636810E+04  0.27095636810E+04  0.25500000920E-02 0. -1.
    10030    2    1    2    0    0  0.00000000000E+00  0.00000000000E+00 -0.12338091785E+04  0.41853181836E+04  0.39993253442E+04 0.  0.
        4    1    3    3  502    0 -0.67639242550E+03  0.58108438044E+03 -0.24899701777E+04  0.26448287031E+04  0.12699999809E+01 0. -1.
       -4    1    3    3    0  502  0.67639242550E+03 -0.58108438044E+03  0.12561609992E+04  0.15404894804E+04  0.12699999809E+01 0.  1.
</event>
<event>
 5   0  0.6599276E-09  0.3999903E+04  0.7818609E-02  0.8004566E-01
       -2   -1    0    0    0  501  0.00000000000E+00  0.00000000000E+00  0.19718554063E+04  0.19718554063E+04  0.25500000920E-02 0.  1.
        2   -1    0    0  501    0  0.00000000000E+00  0.00000000000E+00 -0.20284479139E+04  0.20284479140E+04  0.25500000920E-02 0. -1.
    10030    2    1    2    0    0  0.00000000000E+00  0.00000000000E+00 -0.56592507688E+02  0.40003033202E+04  0.39999029915E+04 0.  0.
        2    1    3    3  502    0  0.15862097660E+04 -0.64278444323E+03 -0.10630846523E+04  0.20147908676E+04  0.25500000920E-02 0. -1.
       -2    1    3    3    0  502 -0.15862097660E+04  0.64278444323E+03  0.10064921446E+04  0.19855124526E+04  0.25500000920E-02 0.  1.
</event>
<event>
 5   0  0.2078125E-09  0.3998424E+04  0.7818609E-02  0.8004865E-01
       -1   -1    0    0    0  501  0.00000000000E+00  0.00000000000E+00  0.14312962670E+04  0.14312962670E+04  0.50400001928E-02 0. -1.
        1   -1    0    0  501    0  0.00000000000E+00  0.00000000000E+00 -0.27924679637E+04  0.27924679637E+04  0.50400001928E-02 0.  1.
    10030    2    1    2    0    0  0.00000000000E+00  0.00000000000E+00 -0.13611716968E+04  0.42237642307E+04  0.39984241757E+04 0.  0.
        2    1    3    3  502    0 -0.10987277032E+03 -0.19648040256E+04 -0.10530504032E+04  0.22319144330E+04  0.25500000920E-02 0.  1.
       -2    1    3    3    0  502  0.10987277032E+03  0.19648040256E+04 -0.30812129360E+03  0.19918497977E+04  0.25500000920E-02 0. -1.
</event>
<event>
 5   0  0.2078125E-09  0.4002331E+04  0.7818609E-02  0.8004077E-01
        1   -1    0    0  501    0  0.00000000000E+00  0.00000000000E+00  0.21759438076E+04  0.21759438076E+04  0.50400001928E-02 0.  1.
       -1   -1    0    0    0  501  0.00000000000E+00  0.00000000000E+00 -0.18404256716E+04  0.18404256717E+04  0.50400001928E-02 0. -1.
    10030    2    1    2    0    0  0.00000000000E+00  0.00000000000E+00  0.33551813594E+03  0.40163694792E+04  0.40023307427E+04 0.  0.
        2    1    3    3  502    0  0.14832438590E+04 -0.12000125419E+04 -0.43819703453E+03  0.19575645805E+04  0.25500000920E-02 0. -1.
       -2    1    3    3    0  502 -0.14832438590E+04  0.12000125419E+04  0.77371517047E+03  0.20588048987E+04  0.25500000920E-02 0.  1.
</event>
<event>
 5   0  0.6736335E-09  0.3999958E+04  0.7818609E-02  0.8004555E-01
        2   -1    0    0  501    0  0.00000000000E+00  0.00000000000E+00  0.22526694125E+04  0.22526694125E+04  0.25500000920E-02 0. -1.
       -2   -1    0    0    0  501  0.00000000000E+00  0.00000000000E+00 -0.17756334936E+04  0.17756334936E+04  0.25500000920E-02 0.  1.
    10030    2    1    2    0    0  0.00000000000E+00  0.00000000000E+00  0.47703591888E+03  0.40283029062E+04  0.39999576293E+04 0.  0.
        1    1    3    3  502    0  0.35800197224E+03 -0.47502205317E+03  0.21615266572E+04  0.22418761904E+04  0.50400001928E-02 0. -1.
       -1    1    3    3    0  502 -0.35800197224E+03  0.47502205317E+03 -0.16844907384E+04  0.17864267158E+04  0.50400001928E-02 0.  1.
</event>
<event>
 5   0  0.2078125E-09  0.3998253E+04  0.7818609E-02  0.8004899E-01
        1   -1    0    0  501    0  0.00000000000E+00  0.00000000000E+00  0.22009094003E+04  0.22009094003E+04  0.50400001928E-02 0.  1.
       -1   -1    0    0    0  501  0.00000000000E+00  0.00000000000E+00 -0.18158434846E+04  0.18158434846E+04  0.50400001928E-02 0. -1.
    10030    2    1    2    0    0  0.00000000000E+00  0.00000000000E+00  0.38506591562E+03  0.40167528849E+04  0.39982531159E+04 0.  0.
        1    1    3    3  502    0  0.33705661429E+03 -0.19425836941E+04  0.52462018464E+03  0.20402119762E+04  0.50400001928E-02 0.  1.
       -1    1    3    3    0  502 -0.33705661429E+03  0.19425836941E+04 -0.13955426902E+03  0.19765409087E+04  0.50400001928E-02 0. -1.
</event>
<event>
 5   0  0.2078125E-09  0.4001358E+04  0.7818609E-02  0.8004273E-01
        3   -1    0    0  501    0  0.00000000000E+00  0.00000000000E+00  0.14875794301E+04  0.14875794335E+04  0.10100000352E+00 0. -1.
       -3   -1    0    0    0  501  0.00000000000E+00  0.00000000000E+00 -0.26907585534E+04  0.26907585553E+04  0.10100000352E+00 0.  1.
    10030    2    1    2    0    0  0.00000000000E+00  0.00000000000E+00 -0.12031791233E+04  0.41783379888E+04  0.40013583126E+04 0.  0.
        2    1    3    3  502    0 -0.14996366180E+04 -0.13145091383E+04 -0.43362484701E+03  0.20408024815E+04  0.25500000920E-02 0.  1.
       -2    1    3    3    0  502  0.14996366180E+04  0.13145091383E+04 -0.76955427629E+03  0.21375355073E+04  0.25500000920E-02 0. -1.
</event>
<event>
 5   0  0.2078125E-09  0.4001911E+04  0.7818609E-02  0.8004161E-01
       -1   -1    0    0    0  501  0.00000000000E+00  0.00000000000E+00  0.20471147647E+04  0.20471147647E+04  0.50400001928E-02 0. -1.
        1   -1    0    0  501    0  0.00000000000E+00  0.00000000000E+00 -0.19558372836E+04  0.19558372836E+04  0.50400001928E-02 0.  1.
    10030    2    1    2    0    0  0.00000000000E+00  0.00000000000E+00  0.91277481038E+02  0.40029520483E+04  0.40019112337E+04 0.  0.
        1    1    3    3  502    0 -0.70972075529E+03  0.10137425838E+03 -0.18229592896E+04  0.19588672396E+04  0.50400001928E-02 0.  1.
       -1    1    3    3    0  502  0.70972075529E+03 -0.10137425838E+03  0.19142367707E+04  0.20440848087E+04  0.50400001928E-02 0. -1.
</event>
<event>
 5   0  0.2078125E-09  0.3998623E+04  0.7818609E-02  0.8004824E-01
       -1   -1    0    0    0  501  0.00000000000E+00  0.00000000000E+00  0.27684431908E+04  0.27684431908E+04  0.50400001928E-02 0. -1.
        1   -1    0    0  501    0  0.00000000000E+00  0.00000000000E+00 -0.14438605973E+04  0.14438605973E+04  0.50400001928E-02 0.  1.
    10030    2    1    2    0    0  0.00000000000E+00  0.00000000000E+00  0.13245825935E+04  0.42123037881E+04  0.39986227824E+04 0.  0.
        3    1    3    3  502    0 -0.14259729380E+04  0.72894826810E+03  0.19231133003E+04  0.25026244571E+04  0.10100000352E+00 0. -1.
       -3    1    3    3    0  502  0.14259729380E+04 -0.72894826810E+03 -0.59853070682E+03  0.17096793309E+04  0.10100000352E+00 0.  1.
</event>
<event>
 5   0  0.6645526E-09  0.4000690E+04  0.7818609E-02  0.8004407E-01
        2   -1    0    0  501    0  0.00000000000E+00  0.00000000000E+00  0.17192537041E+04  0.17192537041E+04  0.25500000920E-02 0.  1.
       -2   -1    0    0    0  501  0.00000000000E+00  0.00000000000E+00 -0.23273935876E+04  0.23273935876E+04  0.25500000920E-02 0. -1.
    10030    2    1    2    0    0  0.00000000000E+00  0.00000000000E+00 -0.60813988355E+03  0.40466472917E+04  0.40006899637E+04 0.  0.
        3    1    3    3  502    0 -0.25740319432E+03 -0.12726221442E+04  0.12351055802E+04  0.17920126481E+04  0.10100000352E+00 0.  1.
       -3    1    3    3    0  502  0.25740319432E+03  0.12726221442E+04 -0.18432454638E+04  0.22546346436E+04  0.10100000352E+00 0. -1.
</event>
<event>
 5   0  0.6736335E-09  0.3999873E+04  0.7818609E-02  0.8004572E-01
       -2   -1    0    0    0  501  0.00000000000E+00  0.00000000000E+00  0.21362370547E+04  0.21362370547E+04  0.25500000920E-02 0. -1.
        2   -1    0    0  501    0  0.00000000000E+00  0.00000000000E+00 -0.18723324059E+04  0.18723324059E+04  0.25500000920E-02 0.  1.
    10030    2    1    2    0    0  0.00000000000E+00  0.00000000000E+00  0.26390464878E+03  0.40085694606E+04  0.39998729301E+04 0.  0.
        1    1    3    3  502    0  0.63371563649E+03 -0.82057611951E+03 -0.15819721918E+04  0.18914483053E+04  0.50400001928E-02 0.  1.
       -1    1    3    3    0  502 -0.63371563649E+03  0.82057611951E+03  0.18458768406E+04  0.21171211554E+04  0.50400001928E-02 0. -1.
</event>
<event>
 5   0  0.6538370E-09  0.3992224E+04  0.7818609E-02  0.8006117E-01
        2   -1    0    0  501    0  0.00000000000E+00  0.00000000000E+00  0.17011587957E+04  0.17011587957E+04  0.25500000920E-02 0. -1.
       -2   -1    0    0    0  501  0.00000000000E+00  0.00000000000E+00 -0.23422057718E+04  0.23422057718E+04  0.25500000920E-02 0.  1.
    10030    2    1    2    0    0  0.00000000000E+00  0.00000000000E+00 -0.64104697612E+03  0.40433645675E+04  0.39922244175E+04 0.  0.
        4    1    3    3  502    0 -0.41486436780E+03  0.15849850869E+04 -0.14753809557E+04  0.22047768020E+04  0.12699999809E+01 0.  1.
       -4    1    3    3    0  502  0.41486436780E+03 -0.15849850869E+04  0.83433397955E+03  0.18385877655E+04  0.12699999809E+01 0. -1.
</event>
<event>
 5   0  0.2078125E-09  0.4000114E+04  0.7818609E-02  0.8004524E-01
        1   -1    0    0  501    0  0.00000000000E+00  0.00000000000E+00  0.23472504860E+04  0.23472504860E+04  0.50400001928E-02 0.  1.
       -1   -1    0    0    0  501  0.00000000000E+00  0.00000000000E+00 -0.17042186441E+04  0.17042186441E+04  0.50400001928E-02 0. -1.
    10030    2    1    2    0    0  0.00000000000E+00  0.00000000000E+00  0.64303184191E+03  0.40514691301E+04  0.40001140187E+04 0.  0.
        2    1    3    3  502    0  0.11282698483E+04 -0.14879483683E+04  0.10471245869E+04  0.21409000672E+04  0.25500000920E-02 0.  1.
       -2    1    3    3    0  502 -0.11282698483E+04  0.14879483683E+04 -0.40409274499E+03  0.19105690629E+04  0.25500000920E-02 0. -1.
</event>
<event>
 5   0  0.6547327E-09  0.4000097E+04  0.7818609E-02  0.8004527E-01
       -2   -1    0    0    0  501  0.00000000000E+00  0.00000000000E+00  0.18770948681E+04  0.18770948681E+04  0.25500000920E-02 0. -1.
        2   -1    0    0  501    0  0.00000000000E+00  0.00000000000E+00 -0.21310556035E+04  0.21310556035E+04  0.25500000920E-02 0.  1.
    10030    2    1    2    0    0  0.00000000000E+00  0.00000000000E+00 -0.25396073536E+03  0.40081504715E+04  0.40000967673E+04 0.  0.
        5    1    3    3  502    0 -0.81213318065E+03 -0.17551889833E+04  0.38387232676E+03  0.19717070583E+04  0.46999998093E+01 0. -1.
       -5    1    3    3    0  502  0.81213318065E+03  0.17551889833E+04 -0.63783306212E+03  0.20364434133E+04  0.46999998093E+01 0.  1.
</event>
<event>
 5   0  0.6547327E-09  0.4000099E+04  0.7818609E-02  0.8004527E-01
        2   -1    0    0  501    0  0.00000000000E+00  0.00000000000E+00  0.11826227742E+04  0.11826227742E+04  0.25500000920E-02 0.  1.
       -2   -1    0    0    0  501  0.00000000000E+00  0.00000000000E+00 -0.33824803833E+04  0.33824803833E+04  0.25500000920E-02 0. -1.
    10030    2    1    2    0    0  0.00000000000E+00  0.00000000000E+00 -0.21998576091E+04  0.45651031575E+04  0.40000991661E+04 0.  0.
        5    1    3    3  502    0  0.10147970532E+04 -0.15895835523E+04 -0.18600264673E+04  0.26488317195E+04  0.46999998093E+01 0. -1.
       -5    1    3    3    0  502 -0.10147970532E+04  0.15895835523E+04 -0.33983114178E+03  0.19162714380E+04  0.46999998093E+01 0.  1.
</event>
<event>
 5   0  0.6645526E-09  0.3999263E+04  0.7818609E-02  0.8004695E-01
       -2   -1    0    0    0  501  0.00000000000E+00  0.00000000000E+00  0.17152270939E+04  0.17152270939E+04  0.25500000920E-02 0.  1.
        2   -1    0    0  501    0  0.00000000000E+00  0.00000000000E+00 -0.23311935360E+04  0.23311935360E+04  0.25500000920E-02 0. -1.
    10030    2    1    2    0    0  0.00000000000E+00  0.00000000000E+00 -0.61596644213E+03  0.40464206298E+04  0.39992630891E+04 0.  0.
        3    1    3    3  502    0  0.16903131215E+04 -0.27883971680E+03  0.73549535481E+03  0.18643667728E+04  0.10100000352E+00 0.  1.
       -3    1    3    3    0  502 -0.16903131215E+04  0.27883971680E+03 -0.13514617969E+04  0.21820538571E+04  0.10100000352E+00 0. -1.
</event>
<event>
 5   0  0.6547327E-09  0.3994235E+04  0.7818609E-02  0.8005711E-01
       -2   -1    0    0    0  501  0.00000000000E+00  0.00000000000E+00  0.16919723856E+04  0.16919723856E+04  0.25500000920E-02 0. -1.
        2   -1    0    0  501    0  0.00000000000E+00  0.00000000000E+00 -0.23572951812E+04  0.23572951812E+04  0.25500000920E-02 0.  1.
    10030    2    1    2    0    0  0.00000000000E+00  0.00000000000E+00 -0.66532279557E+03  0.40492675668E+04  0.39942350213E+04 0.  0.
        5    1    3    3  502    0 -0.93220092139E+03  0.69136167962E+02  0.14564996314E+04  0.17306621952E+04  0.46999998093E+01 0. -1.
       -5    1    3    3    0  502  0.93220092139E+03 -0.69136167962E+02 -0.21218224270E+04  0.23186053716E+04  0.46999998093E+01 0.  1.
</event>
<event>
 5   0  0.6599276E-09  0.4008378E+04  0.7818609E-02  0.8002859E-01
       -2   -1    0    0    0  501  0.00000000000E+00  0.00000000000E+00  0.21969705825E+04  0.21969705825E+04  0.25500000920E-02 0.  1.
        2   -1    0    0  501    0  0.00000000000E+00  0.00000000000E+00 -0.18283239768E+04  0.18283239768E+04  0.25500000920E-02 0. -1.
    10030    2    1    2    0    0  0.00000000000E+00  0.00000000000E+00  0.36864660568E+03  0.40252945593E+04  0.40083782218E+04 0.  0.
        2    1    3    3  502    0 -0.99324590348E+03  0.49771145947E+03  0.18594517334E+04  0.21660597569E+04  0.25500000920E-02 0.  1.
       -2    1    3    3    0  502  0.99324590348E+03 -0.49771145947E+03 -0.14908051277E+04  0.18592348024E+04  0.25500000920E-02 0. -1.
</event>
<event>
 5   0  0.6547327E-09  0.4000444E+04  0.7818609E-02  0.8004457E-01
       -2   -1    0    0    0  501  0.00000000000E+00  0.00000000000E+00  0.11925063278E+04  0.11925063278E+04  0.25500000920E-02 0.  1.
        2   -1    0    0  501    0  0.00000000000E+00  0.00000000000E+00 -0.33550246305E+04  0.33550246305E+04  0.25500000920E-02 0. -1.
    10030    2    1    2    0    0  0.00000000000E+00  0.00000000000E+00 -0.21625183027E+04  0.45475309584E+04  0.40004440263E+04 0.  0.
        5    1    3    3  502    0  0.59984909944E+03 -0.18250817178E+04 -0.17143047736E+04  0.25748019663E+04  0.46999998093E+01 0.  1.
       -5    1    3    3    0  502 -0.59984909944E+03  0.18250817178E+04 -0.44821352907E+03  0.19727289921E+04  0.46999998093E+01 0. -1.
</event>
<event>
 5   0  0.6599276E-09  0.4002702E+04  0.7818609E-02  0.8004002E-01
        2   -1    0    0  501    0  0.00000000000E+00  0.00000000000E+00  0.18621448283E+04  0.18621448283E+04  0.25500000920E-02 0.  1.
       -2   -1    0    0    0  501  0.00000000000E+00  0.00000000000E+00 -0.21509637687E+04  0.21509637687E+04  0.25500000920E-02 0. -1.
    10030    2    1    2    0    0  0.00000000000E+00  0.00000000000E+00 -0.28881894042E+03  0.40131085969E+04  0.40027021161E+04 0.  0.
        2    1    3    3  502    0  0.18833913715E+04 -0.30783029839E+03  0.46005391077E+03  0.19630517445E+04  0.25500000920E-02 0. -1.
       -2    1    3    3    0  502 -0.18833913715E+04  0.30783029839E+03 -0.74887285119E+03  0.20500568524E+04  0.25500000920E-02 0.  1.
</event>
<event>
 5   0  0.6538370E-09  0.4002592E+04  0.7818609E-02  0.8004024E-01
       -2   -1    0    0    0  501  0.00000000000E+00  0.00000000000E+00  0.23233341086E+04  0.23233341086E+04  0.25500000920E-02 0. -1.
        2   -1    0    0  501    0  0.00000000000E+00  0.00000000000E+00 -0.17238953042E+04  0.17238953042E+04  0.25500000920E-02 0.  1.
    10030    2    1    2    0    0  0.00000000000E+00  0.00000000000E+00  0.59943880434E+03  0.40472294128E+04  0.40025915405E+04 0.  0.
        4    1    3    3  502    0 -0.16294010817E+04  0.89738003175E+03  0.10461554810E+04  0.21341700283E+04  0.12699999809E+01 0.  1.
       -4    1    3    3    0  502  0.16294010817E+04 -0.89738003175E+03 -0.44671667662E+03  0.19130593845E+04  0.12699999809E+01 0. -1.
</event>
<event>
 5   0  0.6736335E-09  0.3998359E+04  0.7818609E-02  0.8004878E-01
       -2   -1    0    0    0  501  0.00000000000E+00  0.00000000000E+00  0.17422341446E+04  0.17422341446E+04  0.25500000920E-02 0.  1.
        2   -1    0    0  501    0  0.00000000000E+00  0.00000000000E+00 -0.22940187863E+04  0.22940187863E+04  0.25500000920E-02 0. -1.
    10030    2    1    2    0    0  0.00000000000E+00  0.00000000000E+00 -0.55178464168E+03  0.40362529309E+04  0.39983585922E+04 0.  0.
        1    1    3    3  502    0  0.17562180340E+03  0.39358100507E+03 -0.22465642513E+04  0.22875314120E+04  0.50400001928E-02 0. -1.
       -1    1    3    3    0  502 -0.17562180340E+03 -0.39358100507E+03  0.16947796097E+04  0.17487215189E+04  0.50400001928E-02 0.  1.
</event>
<event>
 5   0  0.2078125E-09  0.4004133E+04  0.7818609E-02  0.8003713E-01
       -1   -1    0    0    0  501  0.00000000000E+00  0.00000000000E+00  0.16397614569E+04  0.16397614569E+04  0.50400001928E-02 0.  1.
        1   -1    0    0  501    0  0.00000000000E+00  0.00000000000E+00 -0.24444221945E+04  0.24444221945E+04  0.50400001928E-02 0. -1.
    10030    2    1    2    0    0  0.00000000000E+00  0.00000000000E+00 -0.80466073754E+03  0.40841836514E+04  0.40041325148E+04 0.  0.
        1    1    3    3  502    0  0.13081716349E+04  0.33270317624E+03 -0.19104931148E+04  0.23392281572E+04  0.50400001928E-02 0. -1.
       -1    1    3    3    0  502 -0.13081716349E+04 -0.33270317624E+03  0.11058323773E+04  0.17449554941E+04  0.50400001928E-02 0.  1.
</event>
<event>
 5   0  0.2078125E-09  0.4001727E+04  0.7818609E-02  0.8004198E-01
       -1   -1    0    0    0  501  0.00000000000E+00  0.00000000000E+00  0.19229168036E+04  0.19229168036E+04  0.50400001928E-02 0.  1.
        1   -1    0    0  501    0  0.00000000000E+00  0.00000000000E+00 -0.20819700878E+04  0.20819700878E+04  0.50400001928E-02 0. -1.
    10030    2    1    2    0    0  0.00000000000E+00  0.00000000000E+00 -0.15905328413E+03  0.40048868914E+04  0.40017272603E+04 0.  0.
        5    1    3    3  502    0 -0.15865649180E+04 -0.12144767944E+04 -0.18586990942E+03  0.20066668474E+04  0.46999998093E+01 0. -1.
       -5    1    3    3    0  502  0.15865649180E+04  0.12144767944E+04  0.26816625282E+02  0.19982200441E+04  0.46999998093E+01 0.  1.
</event>
<event>
 5   0  0.2078125E-09  0.3999448E+04  0.7818609E-02  0.8004658E-01
       -1   -1    0    0    0  501  0.00000000000E+00  0.00000000000E+00  0.19581437289E+04  0.19581437289E+04  0.50400001928E-02 0. -1.
        1   -1    0    0  501    0  0.00000000000E+00  0.00000000000E+00 -0.20421870029E+04  0.20421870029E+04  0.50400001928E-02 0.  1.
    10030    2    1    2    0    0  0.00000000000E+00  0.00000000000E+00 -0.84043274040E+02  0.40003307318E+04  0.39994477983E+04 0.  0.
        2    1    3    3  502    0 -0.40011145215E+03  0.15805141400E+04 -0.12001984843E+04  0.20244975976E+04  0.25500000920E-02 0.  1.
       -2    1    3    3    0  502  0.40011145215E+03 -0.15805141400E+04  0.11161552103E+04  0.19758331342E+04  0.25500000920E-02 0. -1.
</event>
<event>
 5   0  0.2078125E-09  0.4000733E+04  0.7818609E-02  0.8004399E-01
        3   -1    0    0  501    0  0.00000000000E+00  0.00000000000E+00  0.21503483028E+04  0.21503483051E+04  0.10100000352E+00 0.  1.
       -3   -1    0    0    0  501  0.00000000000E+00  0.00000000000E+00 -0.18608458976E+04  0.18608459003E+04  0.10100000352E+00 0. -1.
    10030    2    1    2    0    0  0.00000000000E+00  0.00000000000E+00  0.28950240517E+03  0.40111942055E+04  0.40007333467E+04 0.  0.
        5    1    3    3  502    0 -0.14958164970E+04 -0.57172245181E+03  0.13466814582E+04  0.20923447599E+04  0.46999998093E+01 0.  1.
       -5    1    3    3    0  502  0.14958164970E+04  0.57172245181E+03 -0.10571790530E+04  0.19188494456E+04  0.46999998093E+01 0. -1.
</event>
<event>
 5   0  0.6736335E-09  0.4000324E+04  0.7818609E-02  0.8004481E-01
        2   -1    0    0  501    0  0.00000000000E+00  0.00000000000E+00  0.23827066393E+04  0.23827066393E+04  0.25500000920E-02 0.  1.
       -2   -1    0    0    0  501  0.00000000000E+00  0.00000000000E+00 -0.16790350958E+04  0.16790350958E+04  0.25500000920E-02 0. -1.
    10030    2    1    2    0    0  0.00000000000E+00  0.00000000000E+00  0.70367154350E+03  0.40617417351E+04  0.40003240221E+04 0.  0.
        1    1    3    3  502    0 -0.17008541472E+04 -0.17172455537E+03  0.14061684263E+04  0.22135274555E+04  0.50400001928E-02 0.  1.
       -1    1    3    3    0  502  0.17008541472E+04  0.17172455537E+03 -0.70249688276E+03  0.18482142796E+04  0.50400001928E-02 0. -1.
</event>
<event>
 5   0  0.6538370E-09  0.4000122E+04  0.7818609E-02  0.8004522E-01
        2   -1    0    0  501    0  0.00000000000E+00  0.00000000000E+00  0.25734260093E+04  0.25734260093E+04  0.25500000920E-02 0. -1.
       -2   -1    0    0    0  501  0.00000000000E+00  0.00000000000E+00 -0.15544430053E+04  0.15544430053E+04  0.25500000920E-02 0.  1.
    10030    2    1    2    0    0  0.00000000000E+00  0.00000000000E+00  0.10189830040E+04  0.41278690146E+04  0.40001220280E+04 0.  0.
        4    1    3    3  502    0  0.73335835308E+03  0.17854324878E+04 -0.31324371433E+02  0.19304316802E+04  0.12699999809E+01 0.  1.
       -4    1    3    3    0  502 -0.73335835308E+03 -0.17854324878E+04  0.10503073755E+04  0.21974373344E+04  0.12699999809E+01 0. -1.
</event>
<event>
 5   0  0.2078125E-09  0.4015866E+04  0.7818609E-02  0.8001353E-01
       -1   -1    0    0    0  501  0.00000000000E+00  0.00000000000E+00  0.18736714558E+04  0.18736714558E+04  0.50400001928E-02 0.  1.
        1   -1    0    0  501    0  0.00000000000E+00  0.00000000000E+00 -0.21518158295E+04  0.21518158295E+04  0.50400001928E-02 0. -1.
    10030    2    1    2    0    0  0.00000000000E+00  0.00000000000E+00 -0.27814437371E+03  0.40254872854E+04  0.40158664809E+04 0.  0.
        4    1    3    3  502    0  0.82617137381E+03  0.16634156410E+04  0.62583097355E+03  0.19598920261E+04  0.12699999809E+01 0.  1.
       -4    1    3    3    0  502 -0.82617137381E+03 -0.16634156410E+04 -0.90397534725E+03  0.20655952593E+04  0.12699999809E+01 0. -1.
</event>
<event>
 5   0  0.2078125E-09  0.4002368E+04  0.7818609E-02  0.8004069E-01
        1   -1    0    0  501    0  0.00000000000E+00  0.00000000000E+00  0.24353619078E+04  0.24353619078E+04  0.50400001928E-02 0.  1.
       -1   -1    0    0    0  501  0.00000000000E+00  0.00000000000E+00 -0.16444112641E+04  0.16444112641E+04  0.50400001928E-02 0. -1.
    10030    2    1    2    0    0  0.00000000000E+00  0.00000000000E+00  0.79095064367E+03  0.40797731719E+04  0.40023675760E+04 0.  0.
        2    1    3    3  502    0  0.15025174764E+04 -0.73814456274E+03 -0.72223471921E+03  0.18231947653E+04  0.25500000920E-02 0. -1.
       -2    1    3    3    0  502 -0.15025174764E+04  0.73814456274E+03  0.15131853629E+04  0.22565784066E+04  0.25500000920E-02 0.  1.
</event>
<event>
 5   0  0.2078125E-09  0.3998960E+04  0.7818609E-02  0.8004756E-01
       -1   -1    0    0    0  501  0.00000000000E+00  0.00000000000E+00  0.20197804039E+04  0.20197804039E+04  0.50400001928E-02 0. -1.
        1   -1    0    0  501    0  0.00000000000E+00  0.00000000000E+00 -0.19793838323E+04  0.19793838323E+04  0.50400001928E-02 0.  1.
    10030    2    1    2    0    0  0.00000000000E+00  0.00000000000E+00  0.40396571625E+02  0.39991642362E+04  0.39989602030E+04 0.  0.
        2    1    3    3  502    0 -0.19966724919E+04  0.48192907207E+02  0.11452743221E+03  0.20005349607E+04  0.25500000920E-02 0.  1.
       -2    1    3    3    0  502  0.19966724919E+04 -0.48192907207E+02 -0.74130860580E+02  0.19986292755E+04  0.25500000920E-02 0. -1.
</event>
<event>
 5   0  0.6599276E-09  0.3999828E+04  0.7818609E-02  0.8004581E-01
        2   -1    0    0  501    0  0.00000000000E+00  0.00000000000E+00  0.20894513546E+04  0.20894513546E+04  0.25500000920E-02 0.  1.
       -2   -1    0    0    0  501  0.00000000000E+00  0.00000000000E+00 -0.19142134207E+04  0.19142134207E+04  0.25500000920E-02 0. -1.
    10030    2    1    2    0    0  0.00000000000E+00  0.00000000000E+00  0.17523793385E+03  0.40036647753E+04  0.39998279088E+04 0.  0.
        2    1    3    3  502    0 -0.77937361020E+03 -0.61706325920E+03 -0.16494031544E+04  0.19258040025E+04  0.25500000920E-02 0. -1.
       -2    1    3    3    0  502  0.77937361020E+03  0.61706325920E+03  0.18246410883E+04  0.20778607728E+04  0.25500000920E-02 0.  1.
</event>
<event>
 5   0  0.2078125E-09  0.4002010E+04  0.7818609E-02  0.8004141E-01
       -1   -1    0    0    0  501  0.00000000000E+00  0.00000000000E+00  0.27267339935E+04  0.27267339935E+04  0.50400001928E-02 0. -1.
        1   -1    0    0  501    0  0.00000000000E+00  0.00000000000E+00 -0.14684314033E+04  0.14684314033E+04  0.50400001928E-02 0.  1.
    10030    2    1    2    0    0  0.00000000000E+00  0.00000000000E+00  0.12583025902E+04  0.41951653968E+04  0.40020104070E+04 0.  0.
        1    1    3    3  502    0  0.13558402141E+04 -0.22517503580E+03  0.21536520196E+04  0.25548431468E+04  0.50400001928E-02 0. -1.
       -1    1    3    3    0  502 -0.13558402141E+04  0.22517503580E+03 -0.89534942943E+03  0.16403222500E+04  0.50400001928E-02 0.  1.
</event>
<event>
 5   0  0.2078125E-09  0.4005328E+04  0.7818609E-02  0.8003473E-01
        1   -1    0    0  501    0  0.00000000000E+00  0.00000000000E+00  0.24332575729E+04  0.24332575730E+04  0.50400001928E-02 0. -1.
       -1   -1    0    0    0  501  0.00000000000E+00  0.00000000000E+00 -0.16482690164E+04  0.16482690165E+04  0.50400001928E-02 0.  1.
    10030    2    1    2    0    0  0.00000000000E+00  0.00000000000E+00  0.78498855650E+03  0.40815265894E+04  0.40053279848E+04 0.  0.
        4    1    3    3  502    0  0.12068672489E+04 -0.82476203855E+03  0.17874415953E+04  0.23090495981E+04  0.12699999809E+01 0. -1.
       -4    1    3    3    0  502 -0.12068672489E+04  0.82476203855E+03 -0.10024530388E+04  0.17724769913E+04  0.12699999809E+01 0.  1.
</event>
<event>
 5   0  0.2078125E-09  0.3999983E+04  0.7818609E-02  0.8004550E-01
       -1   -1    0    0    0  501  0.00000000000E+00  0.00000000000E+00  0.25981586887E+04  0.25981586887E+04  0.50400001928E-02 0. -1.
        1   -1    0    0  501    0  0.00000000000E+00  0.00000000000E+00 -0.15395390358E+04  0.15395390358E+04  0.50400001928E-02 0.  1.
    10030    2    1    2    0    0  0.00000000000E+00  0.00000000000E+00  0.10586196529E+04  0.41376977245E+04  0.39999833612E+04 0.  0.
        3    1    3    3  502    0 -0.66858036940E+02 -0.31866247053E+03 -0.15119383689E+04  0.15466005977E+04  0.10100000352E+00 0.  1.
       -3    1    3    3    0  502  0.66858036940E+02  0.31866247053E+03  0.25705580218E+04  0.25910971269E+04  0.10100000352E+00 0. -1.
</event>
<event>
 5   0  0.2078125E-09  0.3999212E+04  0.7818609E-02  0.8004705E-01
       -1   -1    0    0    0  501  0.00000000000E+00  0.00000000000E+00  0.31220525755E+04  0.31220525755E+04  0.50400001928E-02 0. -1.
        1   -1    0    0  501    0  0.00000000000E+00  0.00000000000E+00 -0.12807038264E+04  0.12807038264E+04  0.50400001928E-02 0.  1.
    10030    2    1    2    0    0  0.00000000000E+00  0.00000000000E+00  0.18413487491E+04  0.44027564018E+04  0.39992122622E+04 0.  0.
        4    1    3    3  502    0 -0.87459173952E+03  0.46467036044E+03  0.28330825522E+04  0.30011976968E+04  0.12699999809E+01 0. -1.
       -4    1    3    3    0  502  0.87459173952E+03 -0.46467036044E+03 -0.99173380307E+03  0.14015587051E+04  0.12699999809E+01 0.  1.
</event>
<event>
 5   0  0.6538370E-09  0.3988292E+04  0.7818609E-02  0.8006913E-01
       -2   -1    0    0    0  501  0.00000000000E+00  0.00000000000E+00  0.22614554963E+04  0.22614554963E+04  0.25500000920E-02 0. -1.
        2   -1    0    0  501    0  0.00000000000E+00  0.00000000000E+00 -0.17584332599E+04  0.17584332599E+04  0.25500000920E-02 0.  1.
    10030    2    1    2    0    0  0.00000000000E+00  0.00000000000E+00  0.50302223642E+03  0.40198887563E+04  0.39882921461E+04 0.  0.
        4    1    3    3  502    0  0.18615399838E+04 -0.46825098961E+02  0.97067147544E+03  0.20999353389E+04  0.12699999809E+01 0. -1.
       -4    1    3    3    0  502 -0.18615399838E+04  0.46825098961E+02 -0.46764923902E+03  0.19199534174E+04  0.12699999809E+01 0.  1.
</event>
<event>
 5   0  0.6599276E-09  0.4000681E+04  0.7818609E-02  0.8004409E-01
       -2   -1    0    0    0  501  0.00000000000E+00  0.00000000000E+00  0.27518674852E+04  0.27518674852E+04  0.25500000920E-02 0. -1.
        2   -1    0    0  501    0  0.00000000000E+00  0.00000000000E+00 -0.14540535296E+04  0.14540535296E+04  0.25500000920E-02 0.  1.
    10030    2    1    2    0    0  0.00000000000E+00  0.00000000000E+00  0.12978139555E+04  0.42059210148E+04  0.40006812569E+04 0.  0.
        2    1    3    3  502    0 -0.77873628240E+03 -0.44432087335E+03 -0.12309863713E+04  0.15228849866E+04  0.25500000920E-02 0.  1.
       -2    1    3    3    0  502  0.77873628240E+03  0.44432087335E+03  0.25288003268E+04  0.26830360282E+04  0.25500000920E-02 0. -1.
</event>
<event>
 5   0  0.6547327E-09  0.4001189E+04  0.7818609E-02  0.8004307E-01
        2   -1    0    0  501    0  0.00000000000E+00  0.00000000000E+00  0.15825423294E+04  0.15825423294E+04  0.25500000920E-02 0.  1.
       -2   -1    0    0    0  501  0.00000000000E+00  0.00000000000E+00 -0.25290814751E+04  0.25290814751E+04  0.25500000920E-02 0. -1.
    10030    2    1    2    0    0  0.00000000000E+00  0.00000000000E+00 -0.94653914567E+03  0.41116238045E+04  0.40011890677E+04 0.  0.
        5    1    3    3  502    0 -0.16235602498E+04 -0.27659539664E+02  0.72759204352E+03  0.17793608983E+04  0.46999998093E+01 0.  1.
       -5    1    3    3    0  502  0.16235602498E+04  0.27659539664E+02 -0.16741311892E+04  0.23322629061E+04  0.46999998093E+01 0. -1.
</event>
<event>
 5   0  0.6645526E-09  0.3999720E+04  0.7818609E-02  0.8004603E-01
        2   -1    0    0  501    0  0.00000000000E+00  0.00000000000E+00  0.31923318997E+04  0.31923318997E+04  0.25500000920E-02 0. -1.
       -2   -1    0    0    0  501  0.00000000000E+00  0.00000000000E+00 -0.12528274262E+04  0.12528274262E+04  0.25500000920E-02 0.  1.
    10030    2    1    2    0    0  0.00000000000E+00  0.00000000000E+00  0.19395044735E+04  0.44451593259E+04  0.39997204690E+04 0.  0.
        3    1    3    3  502    0  0.18281604592E+04  0.30238538103E+03  0.13376053379E+03  0.18578211630E+04  0.10100000352E+00 0. -1.
       -3    1    3    3    0  502 -0.18281604592E+04 -0.30238538103E+03  0.18057439397E+04  0.25873381629E+04  0.10100000352E+00 0.  1.
</event>
<event>
 5   0  0.6736335E-09  0.4001702E+04  0.7818609E-02  0.8004203E-01
        2   -1    0    0  501    0  0.00000000000E+00  0.00000000000E+00  0.26503338416E+04  0.26503338416E+04  0.25500000920E-02 0. -1.
       -2   -1    0    0    0  501  0.00000000000E+00  0.00000000000E+00 -0.15105283048E+04  0.15105283048E+04  0.25500000920E-02 0.  1.
    10030    2    1    2    0    0  0.00000000000E+00  0.00000000000E+00  0.11398055368E+04  0.41608621465E+04  0.40017017805E+04 0.  0.
        1    1    3    3  502    0  0.21801627965E+03  0.19140346007E+04  0.77087188064E+01  0.19264264780E+04  0.50400001928E-02 0.  1.
       -1    1    3    3    0  502 -0.21801627965E+03 -0.19140346007E+04  0.11320968180E+04  0.22344356684E+04  0.50400001928E-02 0. -1.
</event>
<event>
 5   0  0.2078125E-09  0.4001948E+04  0.7818609E-02  0.8004154E-01
       -1   -1    0    0    0  501  0.00000000000E+00  0.00000000000E+00  0.19817906942E+04  0.19817906942E+04  0.50400001928E-02 0. -1.
        1   -1    0    0  501    0  0.00000000000E+00  0.00000000000E+00 -0.20203431438E+04  0.20203431438E+04  0.50400001928E-02 0.  1.
    10030    2    1    2    0    0  0.00000000000E+00  0.00000000000E+00 -0.38552449636E+02  0.40021338380E+04  0.40019481463E+04 0.  0.
        5    1    3    3  502    0 -0.42157751174E+02 -0.12245042924E+03  0.19775897652E+04  0.19818311616E+04  0.46999998093E+01 0. -1.
       -5    1    3    3    0  502  0.42157751174E+02  0.12245042924E+03 -0.20161422149E+04  0.20203026764E+04  0.46999998093E+01 0.  1.
</event>
<event>
 5   0  0.2078125E-09  0.3999756E+04  0.7818609E-02  0.8004596E-01
       -1   -1    0    0    0  501  0.00000000000E+00  0.00000000000E+00  0.17727212693E+04  0.17727212693E+04  0.50400001928E-02 0. -1.
        1   -1    0    0  501    0  0.00000000000E+00  0.00000000000E+00 -0.22561422362E+04  0.22561422362E+04  0.50400001928E-02 0.  1.
    10030    2    1    2    0    0  0.00000000000E+00  0.00000000000E+00 -0.48342096694E+03  0.40288635055E+04  0.39997556569E+04 0.  0.
        3    1    3    3  502    0 -0.99161215190E+03 -0.16726537912E+04 -0.71249383340E+03  0.20709207705E+04  0.10100000352E+00 0.  1.
       -3    1    3    3    0  502  0.99161215190E+03  0.16726537912E+04  0.22907286646E+03  0.19579427350E+04  0.10100000352E+00 0. -1.
</event>
<event>
 5   0  0.6547327E-09  0.3999405E+04  0.7818609E-02  0.8004666E-01
       -2   -1    0    0    0  501  0.00000000000E+00  0.00000000000E+00  0.12818579847E+04  0.12818579847E+04  0.25500000920E-02 0. -1.
        2   -1    0    0  501    0  0.00000000000E+00  0.00000000000E+00 -0.31195429348E+04  0.31195429348E+04  0.25500000920E-02 0.  1.
    10030    2    1    2    0    0  0.00000000000E+00  0.00000000000E+00 -0.18376849501E+04  0.44014009195E+04  0.39994054656E+04 0.  0.
        5    1    3    3  502    0  0.15206501815E+03 -0.19816647135E+04 -0.67605475497E+03  0.20993310668E+04  0.46999998093E+01 0.  1.
       -5    1    3    3    0  502 -0.15206501815E+03  0.19816647135E+04 -0.11616301951E+04  0.23020698527E+04  0.46999998093E+01 0. -1.
</event>
<event>
 5   0  0.2078125E-09  0.4000232E+04  0.7818609E-02  0.8004500E-01
       -1   -1    0    0    0  501  0.00000000000E+00  0.00000000000E+00  0.22754267516E+04  0.22754267516E+04  0.50400001928E-02 0.  1.
        1   -1    0    0  501    0  0.00000000000E+00  0.00000000000E+00 -0.17581162695E+04  0.17581162695E+04  0.50400001928E-02 0. -1.
    10030    2    1    2    0    0  0.00000000000E+00  0.00000000000E+00  0.51731048211E+03  0.40335430211E+04  0.40002323893E+04 0.  0.
        4    1    3    3  502    0 -0.56625944956E+03 -0.14775672844E+04  0.14922018146E+04  0.21749764855E+04  0.12699999809E+01 0.  1.
       -4    1    3    3    0  502  0.56625944956E+03  0.14775672844E+04 -0.97489133247E+03  0.18585665356E+04  0.12699999809E+01 0. -1.
</event>
<event>
 5   0  0.6736335E-09  0.3999394E+04  0.7818609E-02  0.8004669E-01
        2   -1    0    0  501    0  0.00000000000E+00  0.00000000000E+00  0.20510069822E+04  0.20510069822E+04  0.25500000920E-02 0.  1.
       -2   -1    0    0    0  501  0.00000000000E+00  0.00000000000E+00 -0.19496707882E+04  0.19496707883E+04  0.25500000920E-02 0. -1.
    10030    2    1    2    0    0  0.00000000000E+00  0.00000000000E+00  0.10133619398E+03  0.40006777705E+04  0.39993941540E+04 0.  0.
        1    1    3    3  502    0 -0.13187998869E+04  0.11524188108E+04 -0.91477696333E+03  0.19758843969E+04  0.50400001928E-02 0. -1.
       -1    1    3    3    0  502  0.13187998869E+04 -0.11524188108E+04  0.10161131573E+04  0.20247933736E+04  0.50400001928E-02 0.  1.
</event>
<event>
 5   0  0.6645526E-09  0.3998237E+04  0.7818609E-02  0.8004902E-01
       -2   -1    0    0    0  501  0.00000000000E+00  0.00000000000E+00  0.22063472320E+04  0.22063472320E+04  0.25500000920E-02 0. -1.
        2   -1    0    0  501    0  0.00000000000E+00  0.00000000000E+00 -0.18113536771E+04  0.18113536771E+04  0.25500000920E-02 0.  1.
    10030    2    1    2    0    0  0.00000000000E+00  0.00000000000E+00  0.39499355488E+03  0.40177009091E+04  0.39982371974E+04 0.  0.
        3    1    3    3  502    0  0.24941743693E+03  0.19350204820E+04  0.63546462540E+03  0.20519085321E+04  0.10100000352E+00 0. -1.
       -3    1    3    3    0  502 -0.24941743693E+03 -0.19350204820E+04 -0.24047107053E+03  0.19657923771E+04  0.10100000352E+00 0.  1.
</event>
<event>
 5   0  0.2078125E-09  0.3998656E+04  0.7818609E-02  0.8004818E-01
       -1   -1    0    0    0  501  0.00000000000E+00  0.00000000000E+00  0.17326462224E+04  0.17326462224E+04  0.50400001928E-02 0. -1.
        1   -1    0    0  501    0  0.00000000000E+00  0.00000000000E+00 -0.23070562142E+04  0.23070562142E+04  0.50400001928E-02 0.  1.
    10030    2    1    2    0    0  0.00000000000E+00  0.00000000000E+00 -0.57440999175E+03  0.40397024366E+04  0.39986558914E+04 0.  0.
        3    1    3    3  502    0 -0.54512473838E+03  0.22959193975E+03 -0.22166364318E+04  0.22941993201E+04  0.10100000352E+00 0.  1.
       -3    1    3    3    0  502  0.54512473838E+03 -0.22959193975E+03  0.16422264401E+04  0.17455031165E+04  0.10100000352E+00 0. -1.
</event>
<event>
 5   0  0.6645526E-09  0.3988291E+04  0.7818609E-02  0.8006913E-01
        2   -1    0    0  501    0  0.00000000000E+00  0.00000000000E+00  0.27191902553E+04  0.27191902553E+04  0.25500000920E-02 0. -1.
       -2   -1    0    0    0  501  0.00000000000E+00  0.00000000000E+00 -0.14624263077E+04  0.14624263077E+04  0.25500000920E-02 0.  1.
    10030    2    1    2    0    0  0.00000000000E+00  0.00000000000E+00  0.12567639476E+04  0.41816165630E+04  0.39882905435E+04 0.  0.
        3    1    3    3  502    0 -0.10588455554E+04  0.53059068079E+03 -0.10537350419E+04  0.15852564239E+04  0.10100000352E+00 0.  1.
       -3    1    3    3    0  502  0.10588455554E+04 -0.53059068079E+03  0.23104989896E+04  0.25963601391E+04  0.10100000352E+00 0. -1.
</event>
<event>
 5   0  0.6736335E-09  0.4002152E+04  0.7818609E-02  0.8004113E-01
       -2   -1    0    0    0  501  0.00000000000E+00  0.00000000000E+00  0.17626712400E+04  0.17626712400E+04  0.25500000920E-02 0. -1.
        2   -1    0    0  501    0  0.00000000000E+00  0.00000000000E+00 -0.22717258178E+04  0.22717258178E+04  0.25500000920E-02 0.  1.
    10030    2    1    2    0    0  0.00000000000E+00  0.00000000000E+00 -0.50905457780E+03  0.40343970577E+04  0.40021523030E+04 0.  0.
        1    1    3    3  502    0  0.93069452134E+03  0.87222700032E+03  0.12997556671E+04  0.18210812795E+04  0.50400001928E-02 0. -1.
       -1    1    3    3    0  502 -0.93069452134E+03 -0.87222700032E+03 -0.18088102449E+04  0.22133157783E+04  0.50400001928E-02 0.  1.
</event>
<event>
 5   0  0.2078125E-09  0.3993960E+04  0.7818609E-02  0.8005766E-01
       -1   -1    0    0    0  501  0.00000000000E+00  0.00000000000E+00  0.26284167146E+04  0.26284167146E+04  0.50400001928E-02 0.  1.
        1   -1    0    0  501    0  0.00000000000E+00  0.00000000000E+00 -0.15172360953E+04  0.15172360953E+04  0.50400001928E-02 0. -1.
    10030    2    1    2    0    0  0.00000000000E+00  0.00000000000E+00  0.11111806194E+04  0.41456528099E+04  0.39939597959E+04 0.  0.
        2    1    3    3  502    0 -0.52896851267E+03  0.23838479242E+03  0.25390008827E+04  0.26044501299E+04  0.25500000920E-02 0.  1.
       -2    1    3    3    0  502  0.52896851267E+03 -0.23838479242E+03 -0.14278202633E+04  0.15412026800E+04  0.25500000920E-02 0. -1.
</event>
<event>
 5   0  0.6538370E-09  0.4000278E+04  0.7818609E-02  0.8004491E-01
       -2   -1    0    0    0  501  0.00000000000E+00  0.00000000000E+00  0.17222504074E+04  0.17222504074E+04  0.25500000920E-02 0.  1.
        2   -1    0    0  501    0  0.00000000000E+00  0.00000000000E+00 -0.23228652384E+04  0.23228652384E+04  0.25500000920E-02 0. -1.
    10030    2    1    2    0    0  0.00000000000E+00  0.00000000000E+00 -0.60061483098E+03  0.40451156458E+04  0.40002777920E+04 0.  0.
        4    1    3    3  502    0  0.17219762254E+03 -0.74718601434E+03 -0.21683399703E+04  0.22999214771E+04  0.12699999809E+01 0. -1.
       -4    1    3    3    0  502 -0.17219762254E+03  0.74718601434E+03  0.15677251393E+04  0.17451941687E+04  0.12699999809E+01 0.  1.
</event>
<event>
 5   0  0.6599276E-09  0.4012883E+04  0.7818609E-02  0.8001953E-01
        2   -1    0    0  501    0  0.00000000000E+00  0.00000000000E+00  0.18774118348E+04  0.18774118348E+04  0.25500000920E-02 0. -1.
       -2   -1    0    0    0  501  0.00000000000E+00  0.00000000000E+00 -0.21443395323E+04  0.21443395323E+04  0.25500000920E-02 0.  1.
    10030    2    1    2    0    0  0.00000000000E+00  0.00000000000E+00 -0.26692769758E+03  0.40217513671E+04  0.40128834600E+04 0.  0.
        2    1    3    3  502    0  0.33744697826E+03  0.32477139983E+03 -0.20887908206E+04  0.21406527083E+04  0.25500000920E-02 0.  1.
       -2    1    3    3    0  502 -0.33744697826E+03 -0.32477139983E+03  0.18218631230E+04  0.18810986588E+04  0.25500000920E-02 0. -1.
</event>
<event>
 5   0  0.2078125E-09  0.4000420E+04  0.7818609E-02  0.8004462E-01
        1   -1    0    0  501    0  0.00000000000E+00  0.00000000000E+00  0.20011087432E+04  0.20011087432E+04  0.50400001928E-02 0.  1.
       -1   -1    0    0    0  501  0.00000000000E+00  0.00000000000E+00 -0.19993119703E+04  0.19993119703E+04  0.50400001928E-02 0. -1.
    10030    2    1    2    0    0  0.00000000000E+00  0.00000000000E+00  0.17967729233E+01  0.40004207135E+04  0.40004203100E+04 0.  0.
        3    1    3    3  502    0 -0.37201231913E+03  0.16661379069E+04  0.10432189623E+04  0.20006785109E+04  0.10100000352E+00 0.  1.
       -3    1    3    3    0  502  0.37201231913E+03 -0.16661379069E+04 -0.10414221894E+04  0.19997422026E+04  0.10100000352E+00 0. -1.
</event>
<event>
 5   0  0.2078125E-09  0.3996430E+04  0.7818609E-02  0.8005267E-01
       -1   -1    0    0    0  501  0.00000000000E+00  0.00000000000E+00  0.19342313306E+04  0.19342313306E+04  0.50400001928E-02 0.  1.
        1   -1    0    0  501    0  0.00000000000E+00  0.00000000000E+00 -0.20643154115E+04  0.20643154115E+04  0.50400001928E-02 0. -1.
    10030    2    1    2    0    0  0.00000000000E+00  0.00000000000E+00 -0.13008408092E+03  0.39985467421E+04  0.39964301796E+04 0.  0.
        4    1    3    3  502    0  0.95703818717E+03 -0.14915132446E+04  0.85866306903E+03  0.19692226206E+04  0.12699999809E+01 0.  1.
       -4    1    3    3    0  502 -0.95703818717E+03  0.14915132446E+04 -0.98874714995E+03  0.20293241215E+04  0.12699999809E+01 0. -1.
</event>
<event>
 5   0  0.2078125E-09  0.3993356E+04  0.7818609E-02  0.8005888E-01
        3   -1    0    0  501    0  0.00000000000E+00  0.00000000000E+00  0.30534131376E+04  0.30534131393E+04  0.10100000352E+00 0.  1.
       -3   -1    0    0    0  501  0.00000000000E+00  0.00000000000E+00 -0.13056609620E+04  0.13056609659E+04  0.10100000352E+00 0. -1.
    10030    2    1    2    0    0  0.00000000000E+00  0.00000000000E+00  0.17477521756E+04  0.43590741052E+04  0.39933556550E+04 0.  0.
        2    1    3    3  502    0 -0.19186706691E+04 -0.33949188078E+03  0.39785323265E+03  0.19886777185E+04  0.25500000920E-02 0. -1.
       -2    1    3    3    0  502  0.19186706691E+04  0.33949188078E+03  0.13498989430E+04  0.23703963866E+04  0.25500000920E-02 0.  1.
</event>
<event>
 5   0  0.2078125E-09  0.4000368E+04  0.7818609E-02  0.8004472E-01
        1   -1    0    0  501    0  0.00000000000E+00  0.00000000000E+00  0.15222882982E+04  0.15222882983E+04  0.50400001928E-02 0.  1.
       -1   -1    0    0    0  501  0.00000000000E+00  0.00000000000E+00 -0.26281063234E+04  0.26281063234E+04  0.50400001928E-02 0. -1.
    10030    2    1    2    0    0  0.00000000000E+00  0.00000000000E+00 -0.11058180251E+04  0.41503946216E+04  0.40003677344E+04 0.  0.
        4    1    3    3  502    0 -0.19516082295E+04  0.18078414409E+03 -0.13884731622E+03  0.19648760211E+04  0.12699999809E+01 0.  1.
       -4    1    3    3    0  502  0.19516082295E+04 -0.18078414409E+03 -0.96697070889E+03  0.21855186005E+04  0.12699999809E+01 0. -1.
</event>
<event>
 5   0  0.2078125E-09  0.3998352E+04  0.7818609E-02  0.8004879E-01
        1   -1    0    0  501    0  0.00000000000E+00  0.00000000000E+00  0.27832649730E+04  0.27832649730E+04  0.50400001928E-02 0.  1.
       -1   -1    0    0    0  501  0.00000000000E+00  0.00000000000E+00 -0.14359772894E+04  0.14359772894E+04  0.50400001928E-02 0. -1.
    10030    2    1    2    0    0  0.00000000000E+00  0.00000000000E+00  0.13472876836E+04  0.42192422623E+04  0.39983523064E+04 0.  0.
        1    1    3    3  502    0 -0.15966536037E+04  0.42630481413E+03  0.18608143317E+04  0.24887081994E+04  0.50400001928E-02 0.  1.
       -1    1    3    3    0  502  0.15966536037E+04 -0.42630481413E+03 -0.51352664814E+03  0.17305340629E+04  0.50400001928E-02 0. -1.
</event>
<event>
 5   0  0.6547327E-09  0.3997986E+04  0.7818609E-02  0.8004953E-01
        2   -1    0    0  501    0  0.00000000000E+00  0.00000000000E+00  0.26645911957E+04  0.26645911957E+04  0.25500000920E-02 0. -1.
       -2   -1    0    0    0  501  0.00000000000E+00  0.00000000000E+00 -0.14996571110E+04  0.14996571110E+04  0.25500000920E-02 0.  1.
    10030    2    1    2    0    0  0.00000000000E+00  0.00000000000E+00  0.11649340847E+04  0.41642483067E+04  0.39979860602E+04 0.  0.
        5    1    3    3  502    0 -0.44105157661E+02 -0.19072228510E+04 -0.39445387360E+02  0.19081462986E+04  0.46999998093E+01 0.  1.
       -5    1    3    3    0  502  0.44105157661E+02  0.19072228510E+04  0.12043794721E+04  0.22561020081E+04  0.46999998093E+01 0. -1.
</event>
<event>
 5   0  0.2078125E-09  0.3999159E+04  0.7818609E-02  0.8004716E-01
        1   -1    0    0  501    0  0.00000000000E+00  0.00000000000E+00  0.13331498379E+04  0.13331498380E+04  0.50400001928E-02 0. -1.
       -1   -1    0    0    0  501  0.00000000000E+00  0.00000000000E+00 -0.29991519067E+04  0.29991519067E+04  0.50400001928E-02 0.  1.
    10030    2    1    2    0    0  0.00000000000E+00  0.00000000000E+00 -0.16660020688E+04  0.43323017447E+04  0.39991593509E+04 0.  0.
        4    1    3    3  502    0  0.12177461112E+04 -0.56684304584E+03 -0.24376434206E+04  0.27832218181E+04  0.12699999809E+01 0.  1.
       -4    1    3    3    0  502 -0.12177461112E+04  0.56684304584E+03  0.77164135185E+03  0.15490799265E+04  0.12699999809E+01 0. -1.
</event>
<event>
 5   0  0.6547327E-09  0.3999236E+04  0.7818609E-02  0.8004701E-01
       -2   -1    0    0    0  501  0.00000000000E+00  0.00000000000E+00  0.18723794488E+04  0.18723794488E+04  0.25500000920E-02 0.  1.
        2   -1    0    0  501    0  0.00000000000E+00  0.00000000000E+00 -0.21355036165E+04  0.21355036165E+04  0.25500000920E-02 0. -1.
    10030    2    1    2    0    0  0.00000000000E+00  0.00000000000E+00 -0.26312416767E+03  0.40078830652E+04  0.39992364693E+04 0.  0.
        5    1    3    3  502    0  0.37462858375E+03 -0.19342912640E+04 -0.47379965695E+03  0.20264099967E+04  0.46999998093E+01 0.  1.
       -5    1    3    3    0  502 -0.37462858375E+03  0.19342912640E+04  0.21067548928E+03  0.19814730686E+04  0.46999998093E+01 0. -1.
</event>
<event>
 5   0  0.6645526E-09  0.3989962E+04  0.7818609E-02  0.8006575E-01
       -2   -1    0    0    0  501  0.00000000000E+00  0.00000000000E+00  0.15589552298E+04  0.15589552298E+04  0.25500000920E-02 0.  1.
        2   -1    0    0  501    0  0.00000000000E+00  0.00000000000E+00 -0.25529595657E+04  0.25529595657E+04  0.25500000920E-02 0. -1.
    10030    2    1    2    0    0  0.00000000000E+00  0.00000000000E+00 -0.99400433591E+03  0.41119147954E+04  0.39899622385E+04 0.  0.
        3    1    3    3  502    0  0.87956065154E+03  0.15118363293E+04 -0.14858470577E+04  0.22949983693E+04  0.10100000352E+00 0. -1.
       -3    1    3    3    0  502 -0.87956065154E+03 -0.15118363293E+04  0.49184272177E+03  0.18169164261E+04  0.10100000352E+00 0.  1.
</event>
<event>
 5   0  0.6645526E-09  0.3997258E+04  0.7818609E-02  0.8005100E-01
        2   -1    0    0  501    0  0.00000000000E+00  0.00000000000E+00  0.20474407956E+04  0.20474407956E+04  0.25500000920E-02 0. -1.
       -2   -1    0    0    0  501  0.00000000000E+00  0.00000000000E+00 -0.19509810583E+04  0.19509810583E+04  0.25500000920E-02 0.  1.
    10030    2    1    2    0    0  0.00000000000E+00  0.00000000000E+00  0.96459737286E+02  0.39984218539E+04  0.39972581654E+04 0.  0.
        3    1    3    3  502    0  0.86659544026E+03 -0.15605884160E+04  0.94743224573E+03  0.20209036918E+04  0.10100000352E+00 0. -1.
       -3    1    3    3    0  502 -0.86659544026E+03  0.15605884160E+04 -0.85097250844E+03  0.19775181621E+04  0.10100000352E+00 0.  1.
</event>
<event>
 5   0  0.2078125E-09  0.4001776E+04  0.7818609E-02  0.8004188E-01
       -1   -1    0    0    0  501  0.00000000000E+00  0.00000000000E+00  0.17982894453E+04  0.17982894453E+04  0.50400001928E-02 0.  1.
        1   -1    0    0  501    0  0.00000000000E+00  0.00000000000E+00 -0.22263120025E+04  0.22263120025E+04  0.50400001928E-02 0. -1.
    10030    2    1    2    0    0  0.00000000000E+00  0.00000000000E+00 -0.42802255720E+03  0.40246014478E+04  0.40017762937E+04 0.  0.
        5    1    3    3  502    0  0.15756604715E+03 -0.19484223281E+04  0.21545444032E+03  0.19666263838E+04  0.46999998093E+01 0.  1.
       -5    1    3    3    0  502 -0.15756604715E+03  0.19484223281E+04 -0.64347699751E+03  0.20579750640E+04  0.46999998093E+01 0. -1.
</event>
<event>
 5   0  0.6547327E-09  0.3999974E+04  0.7818609E-02  0.8004552E-01
        2   -1    0    0  501    0  0.00000000000E+00  0.00000000000E+00  0.26278318371E+04  0.26278318371E+04  0.25500000920E-02 0.  1.
       -2   -1    0    0    0  501  0.00000000000E+00  0.00000000000E+00 -0.15221477881E+04  0.15221477881E+04  0.25500000920E-02 0. -1.
    10030    2    1    2    0    0  0.00000000000E+00  0.00000000000E+00  0.11056840490E+04  0.41499796252E+04  0.39999742091E+04 0.  0.
        5    1    3    3  502    0  0.14936541896E+04 -0.12419682573E+04  0.10465427357E+04  0.22065270852E+04  0.46999998093E+01 0.  1.
       -5    1    3    3    0  502 -0.14936541896E+04  0.12419682573E+04  0.59141313340E+02  0.19434525400E+04  0.46999998093E+01 0. -1.
</event>
<event>
 5   0  0.6645526E-09  0.4004900E+04  0.7818609E-02  0.8003559E-01
       -2   -1    0    0    0  501  0.00000000000E+00  0.00000000000E+00  0.14025293417E+04  0.14025293417E+04  0.25500000920E-02 0.  1.
        2   -1    0    0  501    0  0.00000000000E+00  0.00000000000E+00 -0.28589817329E+04  0.28589817329E+04  0.25500000920E-02 0. -1.
    10030    2    1    2    0    0  0.00000000000E+00  0.00000000000E+00 -0.14564523912E+04  0.42615110745E+04  0.40048998827E+04 0.  0.
        3    1    3    3  502    0 -0.16157160413E+04 -0.18339184704E+02  0.53032278185E+03  0.17006225080E+04  0.10100000352E+00 0.  1.
       -3    1    3    3    0  502  0.16157160413E+04  0.18339184704E+02 -0.19867751730E+04  0.25608885665E+04  0.10100000352E+00 0. -1.
</event>
<event>
 5   0  0.2078125E-09  0.3999892E+04  0.7818609E-02  0.8004568E-01
        1   -1    0    0  501    0  0.00000000000E+00  0.00000000000E+00  0.17661286634E+04  0.17661286634E+04  0.50400001928E-02 0.  1.
       -1   -1    0    0    0  501  0.00000000000E+00  0.00000000000E+00 -0.22647181551E+04  0.22647181551E+04  0.50400001928E-02 0. -1.
    10030    2    1    2    0    0  0.00000000000E+00  0.00000000000E+00 -0.49858949168E+03  0.40308468185E+04  0.39998918227E+04 0.  0.
        3    1    3    3  502    0 -0.24701939802E+02 -0.53907466175E+03  0.16913739637E+04  0.17753753328E+04  0.10100000352E+00 0.  1.
       -3    1    3    3    0  502  0.24701939802E+02  0.53907466175E+03 -0.21899634554E+04  0.22554714858E+04  0.10100000352E+00 0. -1.
</event>
<event>
 5   0  0.2078125E-09  0.3999672E+04  0.7818609E-02  0.8004613E-01
        1   -1    0    0  501    0  0.00000000000E+00  0.00000000000E+00  0.17550732041E+04  0.17550732041E+04  0.50400001928E-02 0.  1.
       -1   -1    0    0    0  501  0.00000000000E+00  0.00000000000E+00 -0.22787329393E+04  0.22787329393E+04  0.50400001928E-02 0. -1.
    10030    2    1    2    0    0  0.00000000000E+00  0.00000000000E+00 -0.52365973523E+03  0.40338061435E+04  0.39996715471E+04 0.  0.
        3    1    3    3  502    0 -0.12835394066E+04  0.14274339130E+04 -0.82724099899E+03  0.20903034863E+04  0.10100000352E+00 0.  1.
       -3    1    3    3    0  502  0.12835394066E+04 -0.14274339130E+04  0.30358126376E+03  0.19435026571E+04  0.10100000352E+00 0. -1.
</event>
<event>
 5   0  0.2078125E-09  0.4000165E+04  0.7818609E-02  0.8004513E-01
       -1   -1    0    0    0  501  0.00000000000E+00  0.00000000000E+00  0.17370929196E+04  0.17370929196E+04  0.50400001928E-02 0. -1.
        1   -1    0    0  501    0  0.00000000000E+00  0.00000000000E+00 -0.23028882075E+04  0.23028882075E+04  0.50400001928E-02 0.  1.
    10030    2    1    2    0    0  0.00000000000E+00  0.00000000000E+00 -0.56579528792E+03  0.40399811272E+04  0.40001653966E+04 0.  0.
        4    1    3    3  502    0 -0.91340801424E+03 -0.10624778920E+04 -0.17243938412E+04  0.22218706542E+04  0.12699999809E+01 0.  1.
       -4    1    3    3    0  502  0.91340801424E+03  0.10624778920E+04  0.11585985533E+04  0.18181104730E+04  0.12699999809E+01 0. -1.
</event>
<event>
 5   0  0.6736335E-09  0.3999233E+04  0.7818609E-02  0.8004701E-01
        2   -1    0    0  501    0  0.00000000000E+00  0.00000000000E+00  0.16196565177E+04  0.16196565177E+04  0.25500000920E-02 0. -1.
       -2   -1    0    0    0  501  0.00000000000E+00  0.00000000000E+00 -0.24687119647E+04  0.24687119647E+04  0.25500000920E-02 0.  1.
    10030    2    1    2    0    0  0.00000000000E+00  0.00000000000E+00 -0.84905544702E+03  0.40883684824E+04  0.39992326383E+04 0.  0.
        1    1    3    3  502    0 -0.11961683850E+04 -0.29473382263E+03 -0.20346815419E+04  0.23785743227E+04  0.50400001928E-02 0.  1.
       -1    1    3    3    0  502  0.11961683850E+04  0.29473382263E+03  0.11856260949E+04  0.17097941597E+04  0.50400001928E-02 0. -1.
</event>
<event>
 5   0  0.6547327E-09  0.4000759E+04  0.7818609E-02  0.8004394E-01
        2   -1    0    0  501    0  0.00000000000E+00  0.00000000000E+00  0.27393981476E+04  0.27393981476E+04  0.25500000920E-02 0.  1.
       -2   -1    0    0    0  501  0.00000000000E+00  0.00000000000E+00 -0.14607287466E+04  0.14607287466E+04  0.25500000920E-02 0. -1.
    10030    2    1    2    0    0  0.00000000000E+00  0.00000000000E+00  0.12786694009E+04  0.42001268942E+04  0.40007587394E+04 0.  0.
        5    1    3    3  502    0 -0.18191711070E+04 -0.82842163304E+03  0.71949142221E+03  0.21244660306E+04  0.46999998093E+01 0.  1.
       -5    1    3    3    0  502  0.18191711070E+04  0.82842163304E+03  0.55917797873E+03  0.20756608636E+04  0.46999998093E+01 0. -1.
</event>
<event>
 5   0  0.6599276E-09  0.3998222E+04  0.7818609E-02  0.8004905E-01
        2   -1    0    0  501    0  0.00000000000E+00  0.00000000000E+00  0.20750142970E+04  0.20750142970E+04  0.25500000920E-02 0. -1.
       -2   -1    0    0    0  501  0.00000000000E+00  0.00000000000E+00 -0.19259846604E+04  0.19259846604E+04  0.25500000920E-02 0.  1.
    10030    2    1    2    0    0  0.00000000000E+00  0.00000000000E+00  0.14902963653E+03  0.40009989574E+04  0.39982224581E+04 0.  0.
        2    1    3    3  502    0  0.51874903952E+03  0.11496937690E+04 -0.14775455947E+04  0.19426881666E+04  0.25500000920E-02 0.  1.
       -2    1    3    3    0  502 -0.51874903952E+03 -0.11496937690E+04  0.16265752312E+04  0.20583107907E+04  0.25500000920E-02 0. -1.
</event>
<event>
 5   0  0.6645526E-09  0.3997032E+04  0.7818609E-02  0.8005146E-01
       -2   -1    0    0    0  501  0.00000000000E+00  0.00000000000E+00  0.21723281285E+04  0.21723281285E+04  0.25500000920E-02 0.  1.
        2   -1    0    0  501    0  0.00000000000E+00  0.00000000000E+00 -0.18386107080E+04  0.18386107080E+04  0.25500000920E-02 0. -1.
    10030    2    1    2    0    0  0.00000000000E+00  0.00000000000E+00  0.33371742058E+03  0.40109388365E+04  0.39970317779E+04 0.  0.
        3    1    3    3  502    0 -0.96088913189E+03 -0.11510170198E+04 -0.11590704301E+04  0.18951496975E+04  0.10100000352E+00 0. -1.
       -3    1    3    3    0  502  0.96088913189E+03  0.11510170198E+04  0.14927878507E+04  0.21157891391E+04  0.10100000352E+00 0.  1.
</event>
<event>
 5   0  0.2078125E-09  0.3999723E+04  0.7818609E-02  0.8004602E-01
        1   -1    0    0  501    0  0.00000000000E+00  0.00000000000E+00  0.25178307868E+04  0.25178307868E+04  0.50400001928E-02 0. -1.
       -1   -1    0    0    0  501  0.00000000000E+00  0.00000000000E+00 -0.15884491716E+04  0.15884491716E+04  0.50400001928E-02 0.  1.
    10030    2    1    2    0    0  0.00000000000E+00  0.00000000000E+00  0.92938161529E+03  0.41062799584E+04  0.39997231042E+04 0.  0.
        4    1    3    3  502    0 -0.68415792026E+03 -0.16547813618E+04  0.13789613310E+04  0.22600684459E+04  0.12699999809E+01 0. -1.
       -4    1    3    3    0  502  0.68415792026E+03  0.16547813618E+04 -0.44957971566E+03  0.18462115125E+04  0.12699999809E+01 0.  1.
</event>
<event>
 5   0  0.2078125E-09  0.4001023E+04  0.7818609E-02  0.8004340E-01
        1   -1    0    0  501    0  0.00000000000E+00  0.00000000000E+00  0.27493348064E+04  0.27493348064E+04  0.50400001928E-02 0. -1.
       -1   -1    0    0    0  501  0.00000000000E+00  0.00000000000E+00 -0.14556416351E+04  0.14556416351E+04  0.50400001928E-02 0.  1.
    10030    2    1    2    0    0  0.00000000000E+00  0.00000000000E+00  0.12936931713E+04  0.42049764416E+04  0.40010229758E+04 0.  0.
        1    1    3    3  502    0  0.90106287422E+03 -0.11353379621E+04  0.20959504955E+04  0.25483161246E+04  0.50400001928E-02 0. -1.
       -1    1    3    3    0  502 -0.90106287422E+03  0.11353379621E+04 -0.80225732422E+03  0.16566603169E+04  0.50400001928E-02 0.  1.
</event>
<event>
 5   0  0.6645526E-09  0.3997085E+04  0.7818609E-02  0.8005135E-01
        2   -1    0    0  501    0  0.00000000000E+00  0.00000000000E+00  0.28166029000E+04  0.28166029000E+04  0.25500000920E-02 0. -1.
       -2   -1    0    0    0  501  0.00000000000E+00  0.00000000000E+00 -0.14180811170E+04  0.14180811170E+04  0.25500000920E-02 0.  1.
    10030    2    1    2    0    0  0.00000000000E+00  0.00000000000E+00  0.13985217829E+04  0.42346840170E+04  0.39970846309E+04 0.  0.
        3    1    3    3  502    0 -0.14043890188E+04  0.38817523070E+03 -0.74996398507E+03  0.16387295430E+04  0.10100000352E+00 0.  1.
       -3    1    3    3    0  502  0.14043890188E+04 -0.38817523070E+03  0.21484857680E+04  0.25959544740E+04  0.10100000352E+00 0. -1.
</event>
<event>
 5   0  0.6547327E-09  0.4000061E+04  0.7818609E-02  0.8004534E-01
        2   -1    0    0  501    0  0.00000000000E+00  0.00000000000E+00  0.26252251962E+04  0.26252251962E+04  0.25500000920E-02 0. -1.
       -2   -1    0    0    0  501  0.00000000000E+00  0.00000000000E+00 -0.15237249454E+04  0.15237249454E+04  0.25500000920E-02 0.  1.
    10030    2    1    2    0    0  0.00000000000E+00  0.00000000000E+00  0.11015002508E+04  0.41489501416E+04  0.40000605589E+04 0.  0.
        5    1    3    3  502    0  0.17596940987E+04  0.51249522728E+03 -0.27962634649E+03  0.18540193264E+04  0.46999998093E+01 0.  1.
       -5    1    3    3    0  502 -0.17596940987E+04 -0.51249522728E+03  0.13811265973E+04  0.22949308153E+04  0.46999998093E+01 0. -1.
</event>
<event>
 5   0  0.2078125E-09  0.4001154E+04  0.7818609E-02  0.8004314E-01
        1   -1    0    0  501    0  0.00000000000E+00  0.00000000000E+00  0.15631692566E+04  0.15631692566E+04  0.50400001928E-02 0. -1.
       -1   -1    0    0    0  501  0.00000000000E+00  0.00000000000E+00 -0.25603806102E+04  0.25603806102E+04  0.50400001928E-02 0.  1.
    10030    2    1    2    0    0  0.00000000000E+00  0.00000000000E+00 -0.99721135356E+03  0.41235498668E+04  0.40011539611E+04 0.  0.
        3    1    3    3  502    0  0.14009279976E+04 -0.85073311562E+03  0.68363987349E+03  0.17758686819E+04  0.10100000352E+00 0. -1.
       -3    1    3    3    0  502 -0.14009279976E+04  0.85073311562E+03 -0.16808512271E+04  0.23476811849E+04  0.10100000352E+00 0.  1.
</event>
<event>
 5   0  0.2078125E-09  0.4000690E+04  0.7818609E-02  0.8004407E-01
       -1   -1    0    0    0  501  0.00000000000E+00  0.00000000000E+00  0.29225281791E+04  0.29225281791E+04  0.50400001928E-02 0.  1.
        1   -1    0    0  501    0  0.00000000000E+00  0.00000000000E+00 -0.13691499735E+04  0.13691499735E+04  0.50400001928E-02 0. -1.
    10030    2    1    2    0    0  0.00000000000E+00  0.00000000000E+00  0.15533782055E+04  0.42916781526E+04  0.40006896300E+04 0.  0.
        4    1    3    3  502    0  0.66387213089E+03 -0.44310115249E+03  0.27443056991E+04  0.28580203324E+04  0.12699999809E+01 0.  1.
       -4    1    3    3    0  502 -0.66387213089E+03  0.44310115249E+03 -0.11909274936E+04  0.14336578202E+04  0.12699999809E+01 0. -1.
</event>
<event>
 5   0  0.2078125E-09  0.4001003E+04  0.7818609E-02  0.8004344E-01
       -1   -1    0    0    0  501  0.00000000000E+00  0.00000000000E+00  0.13854708262E+04  0.13854708262E+04  0.50400001928E-02 0. -1.
        1   -1    0    0  501    0  0.00000000000E+00  0.00000000000E+00 -0.28885528998E+04  0.28885528998E+04  0.50400001928E-02 0.  1.
    10030    2    1    2    0    0  0.00000000000E+00  0.00000000000E+00 -0.15030820736E+04  0.42740237261E+04  0.40010027607E+04 0.  0.
        2    1    3    3  502    0  0.18011742419E+04  0.81161980751E+03 -0.10877398833E+04  0.22552457549E+04  0.25500000920E-02 0.  1.
       -2    1    3    3    0  502 -0.18011742419E+04 -0.81161980751E+03 -0.41534219035E+03  0.20187779711E+04  0.25500000920E-02 0. -1.
</event>
<event>
 5   0  0.6538370E-09  0.3997913E+04  0.7818609E-02  0.8004968E-01
       -2   -1    0    0    0  501  0.00000000000E+00  0.00000000000E+00  0.14825703010E+04  0.14825703010E+04  0.25500000920E-02 0.  1.
        2   -1    0    0  501    0  0.00000000000E+00  0.00000000000E+00 -0.26952026381E+04  0.26952026381E+04  0.25500000920E-02 0. -1.
    10030    2    1    2    0    0  0.00000000000E+00  0.00000000000E+00 -0.12126323370E+04  0.41777729391E+04  0.39979131489E+04 0.  0.
        4    1    3    3  502    0 -0.64973141583E+03 -0.18198247412E+04 -0.71518117606E+02  0.19336570160E+04  0.12699999809E+01 0.  1.
       -4    1    3    3    0  502  0.64973141583E+03  0.18198247412E+04 -0.11411142194E+04  0.22441159231E+04  0.12699999809E+01 0. -1.
</event>
<event>
 5   0  0.2078125E-09  0.3999366E+04  0.7818609E-02  0.8004675E-01
       -1   -1    0    0    0  501  0.00000000000E+00  0.00000000000E+00  0.18031843141E+04  0.18031843141E+04  0.50400001928E-02 0. -1.
        1   -1    0    0  501    0  0.00000000000E+00  0.00000000000E+00 -0.22175944088E+04  0.22175944088E+04  0.50400001928E-02 0.  1.
    10030    2    1    2    0    0  0.00000000000E+00  0.00000000000E+00 -0.41441009471E+03  0.40207787230E+04  0.39993656763E+04 0.  0.
        5    1    3    3  502    0 -0.10387274352E+04 -0.17084668033E+04 -0.23729623092E+03  0.20134907732E+04  0.46999998093E+01 0. -1.
       -5    1    3    3    0  502  0.10387274352E+04  0.17084668033E+04 -0.17711386379E+03  0.20072879498E+04  0.46999998093E+01 0.  1.
</event>
<event>
 5   0  0.6547327E-09  0.4000501E+04  0.7818609E-02  0.8004445E-01
        2   -1    0    0  501    0  0.00000000000E+00  0.00000000000E+00  0.20399215864E+04  0.20399215864E+04  0.25500000920E-02 0. -1.
       -2   -1    0    0    0  501  0.00000000000E+00  0.00000000000E+00 -0.19613511400E+04  0.19613511400E+04  0.25500000920E-02 0.  1.
    10030    2    1    2    0    0  0.00000000000E+00  0.00000000000E+00  0.78570446416E+02  0.40012727265E+04  0.40005012332E+04 0.  0.
        5    1    3    3  502    0 -0.21878964679E+03 -0.32835173286E+03  0.20006061905E+04  0.20391495750E+04  0.46999998093E+01 0. -1.
       -5    1    3    3    0  502  0.21878964679E+03  0.32835173286E+03 -0.19220357440E+04  0.19621231514E+04  0.46999998093E+01 0.  1.
</event>
<event>
 5   0  0.2078125E-09  0.3999223E+04  0.7818609E-02  0.8004703E-01
        1   -1    0    0  501    0  0.00000000000E+00  0.00000000000E+00  0.16895712571E+04  0.16895712572E+04  0.50400001928E-02 0.  1.
       -1   -1    0    0    0  501  0.00000000000E+00  0.00000000000E+00 -0.23665452015E+04  0.23665452015E+04  0.50400001928E-02 0. -1.
    10030    2    1    2    0    0  0.00000000000E+00  0.00000000000E+00 -0.67697394432E+03  0.40561164586E+04  0.39992233002E+04 0.  0.
        2    1    3    3  502    0 -0.11262261346E+04  0.11924624974E+04 -0.14984772370E+04  0.22216629231E+04  0.25500000920E-02 0. -1.
       -2    1    3    3    0  502  0.11262261346E+04 -0.11924624974E+04  0.82150329270E+03  0.18344535355E+04  0.25500000920E-02 0.  1.
</event>
<event>
 5   0  0.6736335E-09  0.4001373E+04  0.7818609E-02  0.8004270E-01
        2   -1    0    0  501    0  0.00000000000E+00  0.00000000000E+00  0.24538349443E+04  0.24538349443E+04  0.25500000920E-02 0. -1.
       -2   -1    0    0    0  501  0.00000000000E+00  0.00000000000E+00 -0.16312210147E+04  0.16312210147E+04  0.25500000920E-02 0.  1.
    10030    2    1    2    0    0  0.00000000000E+00  0.00000000000E+00  0.82261392958E+03  0.40850559591E+04  0.40013733282E+04 0.  0.
        1    1    3    3  502    0  0.92321481640E+03 -0.38250629340E+02  0.22229490467E+04  0.24073411001E+04  0.50400001928E-02 0. -1.
       -1    1    3    3    0  502 -0.92321481640E+03  0.38250629340E+02 -0.14003351171E+04  0.16777148590E+04  0.50400001928E-02 0.  1.
</event>
<event>
 5   0  0.2078125E-09  0.3995326E+04  0.7818609E-02  0.8005490E-01
        1   -1    0    0  501    0  0.00000000000E+00  0.00000000000E+00  0.24771764648E+04  0.24771764648E+04  0.50400001928E-02 0. -1.
       -1   -1    0    0    0  501  0.00000000000E+00  0.00000000000E+00 -0.16109704438E+04  0.16109704439E+04  0.50400001928E-02 0.  1.
    10030    2    1    2    0    0  0.00000000000E+00  0.00000000000E+00  0.86620602094E+03  0.40881469086E+04  0.39953263041E+04 0.  0.
        5    1    3    3  502    0  0.48810801338E+03  0.94062872251E+03  0.21658447601E+04  0.24112107832E+04  0.46999998093E+01 0. -1.
       -5    1    3    3    0  502 -0.48810801338E+03 -0.94062872251E+03 -0.12996387392E+04  0.16769361254E+04  0.46999998093E+01 0.  1.
</event>
<event>
 5   0  0.2078125E-09  0.4002805E+04  0.7818609E-02  0.8003981E-01
        1   -1    0    0  501    0  0.00000000000E+00  0.00000000000E+00  0.20562539002E+04  0.20562539002E+04  0.50400001928E-02 0.  1.
       -1   -1    0    0    0  501  0.00000000000E+00  0.00000000000E+00 -0.19480144228E+04  0.19480144228E+04  0.50400001928E-02 0. -1.
    10030    2    1    2    0    0  0.00000000000E+00  0.00000000000E+00  0.10823947743E+03  0.40042683231E+04  0.40028051437E+04 0.  0.
        2    1    3    3  502    0 -0.12891982881E+04  0.41786800202E+03  0.15273991870E+04  0.20419584152E+04  0.25500000920E-02 0.  1.
       -2    1    3    3    0  502  0.12891982881E+04 -0.41786800202E+03 -0.14191597096E+04  0.19623099078E+04  0.25500000920E-02 0. -1.
</event>
<event>
 5   0  0.6599276E-09  0.4006460E+04  0.7818609E-02  0.8003245E-01
        2   -1    0    0  501    0  0.00000000000E+00  0.00000000000E+00  0.17379057906E+04  0.17379057906E+04  0.25500000920E-02 0.  1.
       -2   -1    0    0    0  501  0.00000000000E+00  0.00000000000E+00 -0.23090611377E+04  0.23090611377E+04  0.25500000920E-02 0. -1.
    10030    2    1    2    0    0  0.00000000000E+00  0.00000000000E+00 -0.57115534710E+03  0.40469669283E+04  0.40064601444E+04 0.  0.
        2    1    3    3  502    0 -0.12047242174E+04  0.23087402395E+03  0.13141857065E+04  0.17977061290E+04  0.25500000920E-02 0.  1.
       -2    1    3    3    0  502  0.12047242174E+04 -0.23087402395E+03 -0.18853410536E+04  0.22492607993E+04  0.25500000920E-02 0. -1.
</event>
<event>
 5   0  0.6599276E-09  0.3997276E+04  0.7818609E-02  0.8005096E-01
        2   -1    0    0  501    0  0.00000000000E+00  0.00000000000E+00  0.19809716093E+04  0.19809716093E+04  0.25500000920E-02 0. -1.
       -2   -1    0    0    0  501  0.00000000000E+00  0.00000000000E+00 -0.20164622400E+04  0.20164622400E+04  0.25500000920E-02 0.  1.
    10030    2    1    2    0    0  0.00000000000E+00  0.00000000000E+00 -0.35490630771E+02  0.39974338493E+04  0.39972762970E+04 0.  0.
        2    1    3    3  502    0 -0.61200495342E+03 -0.27367024427E+03  0.18651748765E+04  0.19819996936E+04  0.25500000920E-02 0. -1.
       -2    1    3    3    0  502  0.61200495342E+03  0.27367024427E+03 -0.19006655072E+04  0.20154341557E+04  0.25500000920E-02 0.  1.
</event>
<event>
 5   0  0.6538370E-09  0.3999433E+04  0.7818609E-02  0.8004661E-01
       -2   -1    0    0    0  501  0.00000000000E+00  0.00000000000E+00  0.13893942669E+04  0.13893942669E+04  0.25500000920E-02 0.  1.
        2   -1    0    0  501    0  0.00000000000E+00  0.00000000000E+00 -0.28781361601E+04  0.28781361601E+04  0.25500000920E-02 0. -1.
    10030    2    1    2    0    0  0.00000000000E+00  0.00000000000E+00 -0.14887418932E+04  0.42675304270E+04  0.39994328999E+04 0.  0.
        4    1    3    3  502    0 -0.11633644866E+04  0.12552271265E+04  0.35930125327E+03  0.17487455708E+04  0.12699999809E+01 0.  1.
       -4    1    3    3    0  502  0.11633644866E+04 -0.12552271265E+04 -0.18480431465E+04  0.25187848562E+04  0.12699999809E+01 0. -1.
</event>
<event>
 5   0  0.6599276E-09  0.4004566E+04  0.7818609E-02  0.8003626E-01
        2   -1    0    0  501    0  0.00000000000E+00  0.00000000000E+00  0.17203024585E+04  0.17203024585E+04  0.25500000920E-02 0. -1.
       -2   -1    0    0    0  501  0.00000000000E+00  0.00000000000E+00 -0.23304838586E+04  0.23304838586E+04  0.25500000920E-02 0.  1.
    10030    2    1    2    0    0  0.00000000000E+00  0.00000000000E+00 -0.61018140010E+03  0.40507863171E+04  0.40045659497E+04 0.  0.
        2    1    3    3  502    0 -0.12161792877E+04  0.14953476250E+04  0.24336703985E+03  0.19427774179E+04  0.25500000920E-02 0. -1.
       -2    1    3    3    0  502  0.12161792877E+04 -0.14953476250E+04 -0.85354843995E+03  0.21080088992E+04  0.25500000920E-02 0.  1.
</event>
<event>
 5   0  0.6599276E-09  0.3998966E+04  0.7818609E-02  0.8004755E-01
       -2   -1    0    0    0  501  0.00000000000E+00  0.00000000000E+00  0.14205355821E+04  0.14205355821E+04  0.25500000920E-02 0.  1.
        2   -1    0    0  501    0  0.00000000000E+00  0.00000000000E+00 -0.28143834271E+04  0.28143834271E+04  0.25500000920E-02 0. -1.
    10030    2    1    2    0    0  0.00000000000E+00  0.00000000000E+00 -0.13938478449E+04  0.42349190092E+04  0.39989657663E+04 0.  0.
        2    1    3    3  502    0  0.14918553859E+04  0.65221717042E+03  0.53211898564E+03  0.17129420144E+04  0.25500000920E-02 0.  1.
       -2    1    3    3    0  502 -0.14918553859E+04 -0.65221717042E+03 -0.19259668306E+04  0.25219769948E+04  0.25500000920E-02 0. -1.
</event>
<event>
 5   0  0.6645526E-09  0.3999644E+04  0.7818609E-02  0.8004618E-01
        2   -1    0    0  501    0  0.00000000000E+00  0.00000000000E+00  0.12715456238E+04  0.12715456238E+04  0.25500000920E-02 0.  1.
       -2   -1    0    0    0  501  0.00000000000E+00  0.00000000000E+00 -0.31452185439E+04  0.31452185439E+04  0.25500000920E-02 0. -1.
    10030    2    1    2    0    0  0.00000000000E+00  0.00000000000E+00 -0.18736729202E+04  0.44167641677E+04  0.39996444219E+04 0.  0.
        3    1    3    3  502    0  0.15396099154E+03 -0.16866779151E+04  0.23740389501E+03  0.17102476416E+04  0.10100000352E+00 0.  1.
       -3    1    3    3    0  502 -0.15396099154E+03  0.16866779151E+04 -0.21110768152E+04  0.27065165261E+04  0.10100000352E+00 0. -1.
</event>
<event>
 5   0  0.2078125E-09  0.3999200E+04  0.7818609E-02  0.8004708E-01
        1   -1    0    0  501    0  0.00000000000E+00  0.00000000000E+00  0.28250279436E+04  0.28250279436E+04  0.50400001928E-02 0. -1.
       -1   -1    0    0    0  501  0.00000000000E+00  0.00000000000E+00 -0.14153485388E+04  0.14153485388E+04  0.50400001928E-02 0.  1.
    10030    2    1    2    0    0  0.00000000000E+00  0.00000000000E+00  0.14096794047E+04  0.42403764824E+04  0.39991995060E+04 0.  0.
        4    1    3    3  502    0  0.22556783724E+03 -0.15497169248E+04  0.20231608712E+04  0.25584536189E+04  0.12699999809E+01 0. -1.
       -4    1    3    3    0  502 -0.22556783724E+03  0.15497169248E+04 -0.61348146646E+03  0.16819228635E+04  0.12699999809E+01 0.  1.
</event>
<event>
 5   0  0.2078125E-09  0.4001079E+04  0.7818609E-02  0.8004329E-01
        1   -1    0    0  501    0  0.00000000000E+00  0.00000000000E+00  0.15635889296E+04  0.15635889296E+04  0.50400001928E-02 0. -1.
       -1   -1    0    0    0  501  0.00000000000E+00  0.00000000000E+00 -0.25595977648E+04  0.25595977648E+04  0.50400001928E-02 0.  1.
    10030    2    1    2    0    0  0.00000000000E+00  0.00000000000E+00 -0.99600883525E+03  0.41231866945E+04  0.40010792191E+04 0.  0.
        1    1    3    3  502    0  0.22888088766E+03  0.72508883092E+03  0.14088779279E+04  0.16009613641E+04  0.50400001928E-02 0. -1.
       -1    1    3    3    0  502 -0.22888088766E+03 -0.72508883092E+03 -0.24048867632E+04  0.25222253304E+04  0.50400001928E-02 0.  1.
</event>
<event>
 5   0  0.2078125E-09  0.3999397E+04  0.7818609E-02  0.8004668E-01
       -1   -1    0    0    0  501  0.00000000000E+00  0.00000000000E+00  0.18205617636E+04  0.18205617636E+04  0.50400001928E-02 0.  1.
        1   -1    0    0  501    0  0.00000000000E+00  0.00000000000E+00 -0.21964612273E+04  0.21964612273E+04  0.50400001928E-02 0. -1.
    10030    2    1    2    0    0  0.00000000000E+00  0.00000000000E+00 -0.37589946371E+03  0.40170229909E+04  0.39993966173E+04 0.  0.
        3    1    3    3  502    0 -0.59465026295E+03 -0.17764821702E+04 -0.89052918366E+03  0.20742565110E+04  0.10100000352E+00 0. -1.
       -3    1    3    3    0  502  0.59465026295E+03  0.17764821702E+04  0.51462971996E+03  0.19427664798E+04  0.10100000352E+00 0.  1.
</event>
<event>
 5   0  0.2078125E-09  0.3999196E+04  0.7818609E-02  0.8004709E-01
       -1   -1    0    0    0  501  0.00000000000E+00  0.00000000000E+00  0.18763186261E+04  0.18763186261E+04  0.50400001928E-02 0. -1.
        1   -1    0    0  501    0  0.00000000000E+00  0.00000000000E+00 -0.21309770192E+04  0.21309770192E+04  0.50400001928E-02 0.  1.
    10030    2    1    2    0    0  0.00000000000E+00  0.00000000000E+00 -0.25465839316E+03  0.40072956453E+04  0.39991958556E+04 0.  0.
        2    1    3    3  502    0 -0.35147523139E+03 -0.17486821814E+04  0.77836408080E+03  0.19460922003E+04  0.25500000920E-02 0. -1.
       -2    1    3    3    0  502  0.35147523139E+03  0.17486821814E+04 -0.10330224740E+04  0.20612034450E+04  0.25500000920E-02 0.  1.
</event>
<event>
 5   0  0.2078125E-09  0.4000887E+04  0.7818609E-02  0.8004368E-01
       -1   -1    0    0    0  501  0.00000000000E+00  0.00000000000E+00  0.23202832112E+04  0.23202832112E+04  0.50400001928E-02 0. -1.
        1   -1    0    0  501    0  0.00000000000E+00  0.00000000000E+00 -0.17246918793E+04  0.17246918793E+04  0.50400001928E-02 0.  1.
    10030    2    1    2    0    0  0.00000000000E+00  0.00000000000E+00  0.59559133192E+03  0.40449750904E+04  0.40008867077E+04 0.  0.
        3    1    3    3  502    0 -0.11188073105E+04  0.27464158091E+03 -0.13556514203E+04  0.17790302358E+04  0.10100000352E+00 0.  1.
       -3    1    3    3    0  502  0.11188073105E+04 -0.27464158091E+03  0.19512427523E+04  0.22659448547E+04  0.10100000352E+00 0. -1.
</event>
<event>
 5   0  0.6538370E-09  0.4001229E+04  0.7818609E-02  0.8004299E-01
        2   -1    0    0  501    0  0.00000000000E+00  0.00000000000E+00  0.17735512935E+04  0.17735512935E+04  0.25500000920E-02 0. -1.
       -2   -1    0    0    0  501  0.00000000000E+00  0.00000000000E+00 -0.22567481975E+04  0.22567481975E+04  0.25500000920E-02 0.  1.
    10030    2    1    2    0    0  0.00000000000E+00  0.00000000000E+00 -0.48319690394E+03  0.40302994910E+04  0.40012291535E+04 0.  0.
        4    1    3    3  502    0 -0.13732281999E+03 -0.17451696653E+04  0.73393289531E+03  0.18981922519E+04  0.12699999809E+01 0.  1.
       -4    1    3    3    0  502  0.13732281999E+03  0.17451696653E+04 -0.12171297993E+04  0.21321072390E+04  0.12699999809E+01 0. -1.
</event>
<event>
 5   0  0.6538370E-09  0.4007147E+04  0.7818609E-02  0.8003106E-01
       -2   -1    0    0    0  501  0.00000000000E+00  0.00000000000E+00  0.24527844386E+04  0.24527844386E+04  0.25500000920E-02 0. -1.
        2   -1    0    0  501    0  0.00000000000E+00  0.00000000000E+00 -0.16366322333E+04  0.16366322333E+04  0.25500000920E-02 0.  1.
    10030    2    1    2    0    0  0.00000000000E+00  0.00000000000E+00  0.81615220528E+03  0.40894166719E+04  0.40071466524E+04 0.  0.
        4    1    3    3  502    0  0.18532060090E+04  0.57011420130E+03 -0.10716740930E+03  0.19418777461E+04  0.12699999809E+01 0. -1.
       -4    1    3    3    0  502 -0.18532060090E+04 -0.57011420130E+03  0.92331961457E+03  0.21475389258E+04  0.12699999809E+01 0.  1.
</event>
<event>
 5   0  0.6599276E-09  0.3999100E+04  0.7818609E-02  0.8004728E-01
       -2   -1    0    0    0  501  0.00000000000E+00  0.00000000000E+00  0.15089722988E+04  0.15089722988E+04  0.25500000920E-02 0.  1.
        2   -1    0    0  501    0  0.00000000000E+00  0.00000000000E+00 -0.26496176386E+04  0.26496176386E+04  0.25500000920E-02 0. -1.
    10030    2    1    2    0    0  0.00000000000E+00  0.00000000000E+00 -0.11406453398E+04  0.41585899375E+04  0.39990997083E+04 0.  0.
        2    1    3    3  502    0  0.17700698663E+04 -0.27272257430E+03  0.35433884667E+03  0.18256727396E+04  0.25500000920E-02 0.  1.
       -2    1    3    3    0  502 -0.17700698663E+04  0.27272257430E+03 -0.14949841865E+04  0.23329171978E+04  0.25500000920E-02 0. -1.
</event>
<event>
 5   0  0.2078125E-09  0.4004706E+04  0.7818609E-02  0.8003598E-01
        1   -1    0    0  501    0  0.00000000000E+00  0.00000000000E+00  0.18636757194E+04  0.18636757194E+04  0.50400001928E-02 0.  1.
       -1   -1    0    0    0  501  0.00000000000E+00  0.00000000000E+00 -0.21513497708E+04  0.21513497709E+04  0.50400001928E-02 0. -1.
    10030    2    1    2    0    0  0.00000000000E+00  0.00000000000E+00 -0.28767405145E+03  0.40150254903E+04  0.40047063972E+04 0.  0.
        4    1    3    3  502    0  0.12036206353E+04  0.14630908572E+04 -0.79364229579E+03  0.20540708841E+04  0.12699999809E+01 0. -1.
       -4    1    3    3    0  502 -0.12036206353E+04 -0.14630908572E+04  0.50596824434E+03  0.19609546062E+04  0.12699999809E+01 0.  1.
</event>
<event>
 5   0  0.2078125E-09  0.3998633E+04  0.7818609E-02  0.8004822E-01
        1   -1    0    0  501    0  0.00000000000E+00  0.00000000000E+00  0.24147555189E+04  0.24147555189E+04  0.50400001928E-02 0.  1.
       -1   -1    0    0    0  501  0.00000000000E+00  0.00000000000E+00 -0.16553502196E+04  0.16553502196E+04  0.50400001928E-02 0. -1.
    10030    2    1    2    0    0  0.00000000000E+00  0.00000000000E+00  0.75940529930E+03  0.40701057385E+04  0.39986328056E+04 0.  0.
        3    1    3    3  502    0  0.10144234939E+04 -0.82634609478E+02 -0.13719235195E+04  0.17082323195E+04  0.10100000352E+00 0. -1.
       -3    1    3    3    0  502 -0.10144234939E+04  0.82634609478E+02  0.21313288188E+04  0.23618734191E+04  0.10100000352E+00 0.  1.
</event>
<event>
 5   0  0.2078125E-09  0.3999148E+04  0.7818609E-02  0.8004718E-01
        1   -1    0    0  501    0  0.00000000000E+00  0.00000000000E+00  0.32734073504E+04  0.32734073504E+04  0.50400001928E-02 0.  1.
       -1   -1    0    0    0  501  0.00000000000E+00  0.00000000000E+00 -0.12214476625E+04  0.12214476625E+04  0.50400001928E-02 0. -1.
    10030    2    1    2    0    0  0.00000000000E+00  0.00000000000E+00  0.20519596879E+04  0.44948550130E+04  0.39991477876E+04 0.  0.
        4    1    3    3  502    0  0.33853582595E+03 -0.14778064031E+04  0.24913389389E+04  0.29163829639E+04  0.12699999809E+01 0.  1.
       -4    1    3    3    0  502 -0.33853582595E+03  0.14778064031E+04 -0.43937925102E+03  0.15784720491E+04  0.12699999809E+01 0. -1.
</event>
<event>
 5   0  0.2078125E-09  0.3999616E+04  0.7818609E-02  0.8004624E-01
        1   -1    0    0  501    0  0.00000000000E+00  0.00000000000E+00  0.15093305075E+04  0.15093305075E+04  0.50400001928E-02 0.  1.
       -1   -1    0    0    0  501  0.00000000000E+00  0.00000000000E+00 -0.26496724023E+04  0.26496724023E+04  0.50400001928E-02 0. -1.
    10030    2    1    2    0    0  0.00000000000E+00  0.00000000000E+00 -0.11403418947E+04  0.41590029098E+04  0.39996156774E+04 0.  0.
        4    1    3    3  502    0 -0.34567450597E+03 -0.45334511535E+03  0.14230404896E+04  0.15329900540E+04  0.12699999809E+01 0.  1.
       -4    1    3    3    0  502  0.34567450597E+03  0.45334511535E+03 -0.25633823844E+04  0.26260128558E+04  0.12699999809E+01 0. -1.
</event>
<event>
 5   0  0.6736335E-09  0.4000536E+04  0.7818609E-02  0.8004439E-01
       -2   -1    0    0    0  501  0.00000000000E+00  0.00000000000E+00  0.14832221464E+04  0.14832221464E+04  0.25500000920E-02 0.  1.
        2   -1    0    0  501    0  0.00000000000E+00  0.00000000000E+00 -0.26975535256E+04  0.26975535256E+04  0.25500000920E-02 0. -1.
    10030    2    1    2    0    0  0.00000000000E+00  0.00000000000E+00 -0.12143313792E+04  0.41807756720E+04  0.40005355292E+04 0.  0.
        1    1    3    3  502    0  0.13492792434E+04  0.11026397643E+04 -0.16336099456E+04  0.23885247290E+04  0.50400001928E-02 0.  1.
       -1    1    3    3    0  502 -0.13492792434E+04 -0.11026397643E+04  0.41927856645E+03  0.17922509430E+04  0.50400001928E-02 0. -1.
</event>
<event>
 5   0  0.6599276E-09  0.4002612E+04  0.7818609E-02  0.8004020E-01
        2   -1    0    0  501    0  0.00000000000E+00  0.00000000000E+00  0.13323039900E+04  0.13323039900E+04  0.25500000920E-02 0. -1.
       -2   -1    0    0    0  501  0.00000000000E+00  0.00000000000E+00 -0.30062406173E+04  0.30062406173E+04  0.25500000920E-02 0.  1.
    10030    2    1    2    0    0  0.00000000000E+00  0.00000000000E+00 -0.16739366273E+04  0.43385446073E+04  0.40026123317E+04 0.  0.
        2    1    3    3  502    0 -0.65030040474E+03 -0.89920107274E+03  0.96827610357E+03  0.14727565306E+04  0.25500000920E-02 0. -1.
       -2    1    3    3    0  502  0.65030040474E+03  0.89920107274E+03 -0.26422127309E+04  0.28657880768E+04  0.25500000920E-02 0.  1.
</event>
<event>
 5   0  0.6645526E-09  0.4001720E+04  0.7818609E-02  0.8004200E-01
        2   -1    0    0  501    0  0.00000000000E+00  0.00000000000E+00  0.21906956315E+04  0.21906956315E+04  0.25500000920E-02 0. -1.
       -2   -1    0    0    0  501  0.00000000000E+00  0.00000000000E+00 -0.18274742835E+04  0.18274742835E+04  0.25500000920E-02 0.  1.
    10030    2    1    2    0    0  0.00000000000E+00  0.00000000000E+00  0.36322134799E+03  0.40181699149E+04  0.40017195951E+04 0.  0.
        3    1    3    3  502    0 -0.10028698599E+04 -0.17295759628E+04  0.26104943544E+03  0.20162658021E+04  0.10100000352E+00 0. -1.
       -3    1    3    3    0  502  0.10028698599E+04  0.17295759628E+04  0.10217191255E+03  0.20019041128E+04  0.10100000352E+00 0.  1.
</event>
<event>
 5   0  0.6547327E-09  0.4002110E+04  0.7818609E-02  0.8004121E-01
        2   -1    0    0  501    0  0.00000000000E+00  0.00000000000E+00  0.17151193985E+04  0.17151193985E+04  0.25500000920E-02 0. -1.
       -2   -1    0    0    0  501  0.00000000000E+00  0.00000000000E+00 -0.23346597549E+04  0.23346597549E+04  0.25500000920E-02 0.  1.
    10030    2    1    2    0    0  0.00000000000E+00  0.00000000000E+00 -0.61954035640E+03  0.40497791533E+04  0.40021095609E+04 0.  0.
        5    1    3    3  502    0 -0.18623119654E+04 -0.11366311967E+03  0.42208223886E+03  0.19129298647E+04  0.46999998093E+01 0. -1.
       -5    1    3    3    0  502  0.18623119654E+04  0.11366311967E+03 -0.10416225953E+04  0.21368492886E+04  0.46999998093E+01 0.  1.
</event>
<event>
 5   0  0.2078125E-09  0.3993055E+04  0.7818609E-02  0.8005949E-01
       -1   -1    0    0    0  501  0.00000000000E+00  0.00000000000E+00  0.22511636354E+04  0.22511636354E+04  0.50400001928E-02 0. -1.
        1   -1    0    0  501    0  0.00000000000E+00  0.00000000000E+00 -0.17706943521E+04  0.17706943521E+04  0.50400001928E-02 0.  1.
    10030    2    1    2    0    0  0.00000000000E+00  0.00000000000E+00  0.48046928333E+03  0.40218579875E+04  0.39930553388E+04 0.  0.
        5    1    3    3  502    0  0.67444525560E+02  0.52985419411E+03  0.21778590048E+04  0.22424063338E+04  0.46999998093E+01 0. -1.
       -5    1    3    3    0  502 -0.67444525560E+02 -0.52985419411E+03 -0.16973897215E+04  0.17794516536E+04  0.46999998093E+01 0.  1.
</event>
<event>
 5   0  0.2078125E-09  0.4000850E+04  0.7818609E-02  0.8004375E-01
       -1   -1    0    0    0  501  0.00000000000E+00  0.00000000000E+00  0.19902398800E+04  0.19902398800E+04  0.50400001928E-02 0.  1.
        1   -1    0    0  501    0  0.00000000000E+00  0.00000000000E+00 -0.20106624851E+04  0.20106624851E+04  0.50400001928E-02 0. -1.
    10030    2    1    2    0    0  0.00000000000E+00  0.00000000000E+00 -0.20422605091E+02  0.40009023652E+04  0.40008502412E+04 0.  0.
        2    1    3    3  502    0  0.61161385456E+03 -0.43667339952E+03  0.18437129282E+04  0.19909878268E+04  0.25500000920E-02 0.  1.
       -2    1    3    3    0  502 -0.61161385456E+03  0.43667339952E+03 -0.18641355333E+04  0.20099145383E+04  0.25500000920E-02 0. -1.
</event>
<event>
 5   0  0.2078125E-09  0.3997969E+04  0.7818609E-02  0.8004956E-01
        1   -1    0    0  501    0  0.00000000000E+00  0.00000000000E+00  0.28505919622E+04  0.28505919622E+04  0.50400001928E-02 0. -1.
       -1   -1    0    0    0  501  0.00000000000E+00  0.00000000000E+00 -0.14017927696E+04  0.14017927696E+04  0.50400001928E-02 0.  1.
    10030    2    1    2    0    0  0.00000000000E+00  0.00000000000E+00  0.14487991925E+04  0.42523847318E+04  0.39979690853E+04 0.  0.
        5    1    3    3  502    0  0.49770251651E+03 -0.13245115420E+04 -0.77750540297E+03  0.16144891952E+04  0.46999998093E+01 0.  1.
       -5    1    3    3    0  502 -0.49770251651E+03  0.13245115420E+04  0.22263045955E+04  0.26378955366E+04  0.46999998093E+01 0. -1.
</event>
<event>
 5   0  0.6599276E-09  0.4000496E+04  0.7818609E-02  0.8004447E-01
       -2   -1    0    0    0  501  0.00000000000E+00  0.00000000000E+00  0.27629401765E+04  0.27629401765E+04  0.25500000920E-02 0.  1.
        2   -1    0    0  501    0  0.00000000000E+00  0.00000000000E+00 -0.14480921309E+04  0.14480921309E+04  0.25500000920E-02 0. -1.
    10030    2    1    2    0    0  0.00000000000E+00  0.00000000000E+00  0.13148480456E+04  0.42110323075E+04  0.40004959332E+04 0.  0.
        2    1    3    3  502    0  0.12607843803E+04 -0.96703590772E+03  0.19363800457E+04  0.25048559603E+04  0.25500000920E-02 0.  1.
       -2    1    3    3    0  502 -0.12607843803E+04  0.96703590772E+03 -0.62153200008E+03  0.17061763472E+04  0.25500000920E-02 0. -1.
</event>
<event>
 5   0  0.6736335E-09  0.3999585E+04  0.7818609E-02  0.8004630E-01
       -2   -1    0    0    0  501  0.00000000000E+00  0.00000000000E+00  0.23374443631E+04  0.23374443631E+04  0.25500000920E-02 0. -1.
        2   -1    0    0  501    0  0.00000000000E+00  0.00000000000E+00 -0.17109157771E+04  0.17109157771E+04  0.25500000920E-02 0.  1.
    10030    2    1    2    0    0  0.00000000000E+00  0.00000000000E+00  0.62652858603E+03  0.40483601403E+04  0.39995851980E+04 0.  0.
        1    1    3    3  502    0 -0.10628395388E+04 -0.14703770445E+04  0.11646724654E+04  0.21559449181E+04  0.50400001928E-02 0.  1.
       -1    1    3    3    0  502  0.10628395388E+04  0.14703770445E+04 -0.53814387937E+03  0.18924152222E+04  0.50400001928E-02 0. -1.
</event>
<event>
 5   0  0.6736335E-09  0.3987113E+04  0.7818609E-02  0.8007151E-01
        2   -1    0    0  501    0  0.00000000000E+00  0.00000000000E+00  0.23613967873E+04  0.23613967873E+04  0.25500000920E-02 0. -1.
       -2   -1    0    0    0  501  0.00000000000E+00  0.00000000000E+00 -0.16830156565E+04  0.16830156565E+04  0.25500000920E-02 0.  1.
    10030    2    1    2    0    0  0.00000000000E+00  0.00000000000E+00  0.67838113080E+03  0.40444124437E+04  0.39871131231E+04 0.  0.
        1    1    3    3  502    0  0.24935980376E+03  0.18593732495E+04 -0.34490373984E+03  0.19074610828E+04  0.50400001928E-02 0.  1.
       -1    1    3    3    0  502 -0.24935980376E+03 -0.18593732495E+04  0.10232848706E+04  0.21369513609E+04  0.50400001928E-02 0. -1.
</event>
<event>
 5   0  0.6645526E-09  0.4000470E+04  0.7818609E-02  0.8004452E-01
       -2   -1    0    0    0  501  0.00000000000E+00  0.00000000000E+00  0.20164188901E+04  0.20164188901E+04  0.25500000920E-02 0. -1.
        2   -1    0    0  501    0  0.00000000000E+00  0.00000000000E+00 -0.19841807780E+04  0.19841807780E+04  0.25500000920E-02 0.  1.
    10030    2    1    2    0    0  0.00000000000E+00  0.00000000000E+00  0.32238112075E+02  0.40005996681E+04  0.40004697735E+04 0.  0.
        3    1    3    3  502    0  0.13590224279E+03  0.42572623861E+03 -0.19336178997E+04  0.19845882299E+04  0.10100000352E+00 0.  1.
       -3    1    3    3    0  502 -0.13590224279E+03 -0.42572623861E+03  0.19658560118E+04  0.20160114382E+04  0.10100000352E+00 0. -1.
</event>
<event>
 5   0  0.2078125E-09  0.4003841E+04  0.7818609E-02  0.8003772E-01
       -1   -1    0    0    0  501  0.00000000000E+00  0.00000000000E+00  0.22464981474E+04  0.22464981474E+04  0.50400001928E-02 0.  1.
        1   -1    0    0  501    0  0.00000000000E+00  0.00000000000E+00 -0.17839705851E+04  0.17839705851E+04  0.50400001928E-02 0. -1.
    10030    2    1    2    0    0  0.00000000000E+00  0.00000000000E+00  0.46252756231E+03  0.40304687324E+04  0.40038414625E+04 0.  0.
        4    1    3    3  502    0 -0.10218193234E+04  0.17211375050E+04  0.19558855497E+03  0.20111403572E+04  0.12699999809E+01 0. -1.
       -4    1    3    3    0  502  0.10218193234E+04 -0.17211375050E+04  0.26693900734E+03  0.20193283753E+04  0.12699999809E+01 0.  1.
</event>
<event>
 5   0  0.6645526E-09  0.3999159E+04  0.7818609E-02  0.8004716E-01
        2   -1    0    0  501    0  0.00000000000E+00  0.00000000000E+00  0.17704403522E+04  0.17704403522E+04  0.25500000920E-02 0. -1.
       -2   -1    0    0    0  501  0.00000000000E+00  0.00000000000E+00 -0.22583745208E+04  0.22583745208E+04  0.25500000920E-02 0.  1.
    10030    2    1    2    0    0  0.00000000000E+00  0.00000000000E+00 -0.48793416863E+03  0.40288148730E+04  0.39991586025E+04 0.  0.
        3    1    3    3  502    0 -0.13616487100E+04 -0.94115111446E+03  0.88616501343E+03  0.18775359041E+04  0.10100000352E+00 0. -1.
       -3    1    3    3    0  502  0.13616487100E+04  0.94115111446E+03 -0.13740991821E+04  0.21512789689E+04  0.10100000352E+00 0.  1.
</event>
<event>
 5   0  0.2078125E-09  0.3997996E+04  0.7818609E-02  0.8004951E-01
        1   -1    0    0  501    0  0.00000000000E+00  0.00000000000E+00  0.19808438307E+04  0.19808438307E+04  0.50400001928E-02 0.  1.
       -1   -1    0    0    0  501  0.00000000000E+00  0.00000000000E+00 -0.20173188122E+04  0.20173188122E+04  0.50400001928E-02 0. -1.
    10030    2    1    2    0    0  0.00000000000E+00  0.00000000000E+00 -0.36474981568E+02  0.39981626429E+04  0.39979962600E+04 0.  0.
        2    1    3    3  502    0  0.47216915193E+03  0.96847314410E+03  0.16656109480E+04  0.19837196801E+04  0.25500000920E-02 0.  1.
       -2    1    3    3    0  502 -0.47216915193E+03 -0.96847314410E+03 -0.17020859296E+04  0.20144429628E+04  0.25500000920E-02 0. -1.
</event>
<event>
 5   0  0.6547327E-09  0.4001710E+04  0.7818609E-02  0.8004202E-01
        2   -1    0    0  501    0  0.00000000000E+00  0.00000000000E+00  0.23963898645E+04  0.23963898645E+04  0.25500000920E-02 0.  1.
       -2   -1    0    0    0  501  0.00000000000E+00  0.00000000000E+00 -0.16706050474E+04  0.16706050474E+04  0.25500000920E-02 0. -1.
    10030    2    1    2    0    0  0.00000000000E+00  0.00000000000E+00  0.72578481707E+03  0.40669949119E+04  0.40017101360E+04 0.  0.
        5    1    3    3  502    0  0.15656185918E+04  0.73225405729E+03  0.13873257147E+04  0.22163150291E+04  0.46999998093E+01 0.  1.
       -5    1    3    3    0  502 -0.15656185918E+04 -0.73225405729E+03 -0.66154089764E+03  0.18506798828E+04  0.46999998093E+01 0. -1.
</event>
<event>
 5   0  0.6645526E-09  0.4000370E+04  0.7818609E-02  0.8004472E-01
       -2   -1    0    0    0  501  0.00000000000E+00  0.00000000000E+00  0.19037535070E+04  0.19037535070E+04  0.25500000920E-02 0. -1.
        2   -1    0    0  501    0  0.00000000000E+00  0.00000000000E+00 -0.21015015359E+04  0.21015015359E+04  0.25500000920E-02 0.  1.
    10030    2    1    2    0    0  0.00000000000E+00  0.00000000000E+00 -0.19774802891E+03  0.40052550428E+04  0.40003704422E+04 0.  0.
        3    1    3    3  502    0  0.25571944175E+03  0.13793554349E+04 -0.15263522667E+04  0.20731051833E+04  0.10100000352E+00 0.  1.
       -3    1    3    3    0  502 -0.25571944175E+03 -0.13793554349E+04  0.13286042378E+04  0.19321498595E+04  0.10100000352E+00 0. -1.
</event>
<event>
 5   0  0.2078125E-09  0.4000981E+04  0.7818609E-02  0.8004349E-01
       -1   -1    0    0    0  501  0.00000000000E+00  0.00000000000E+00  0.21508290357E+04  0.21508290357E+04  0.50400001928E-02 0. -1.
        1   -1    0    0  501    0  0.00000000000E+00  0.00000000000E+00 -0.18606601498E+04  0.18606601498E+04  0.50400001928E-02 0.  1.
    10030    2    1    2    0    0  0.00000000000E+00  0.00000000000E+00  0.29016888588E+03  0.40114891855E+04  0.40009808176E+04 0.  0.
        2    1    3    3  502    0  0.97546832612E+03 -0.16538973216E+03 -0.15981798460E+04  0.18796465197E+04  0.25500000920E-02 0.  1.
       -2    1    3    3    0  502 -0.97546832612E+03  0.16538973216E+03  0.18883487319E+04  0.21318426658E+04  0.25500000920E-02 0. -1.
</event>
<event>
 5   0  0.2078125E-09  0.3968775E+04  0.7818609E-02  0.8010875E-01
       -1   -1    0    0    0  501  0.00000000000E+00  0.00000000000E+00  0.18775715120E+04  0.18775715120E+04  0.50400001928E-02 0.  1.
        1   -1    0    0  501    0  0.00000000000E+00  0.00000000000E+00 -0.20972801103E+04  0.20972801104E+04  0.50400001928E-02 0. -1.
    10030    2    1    2    0    0  0.00000000000E+00  0.00000000000E+00 -0.21970859835E+03  0.39748516224E+04  0.39687748174E+04 0.  0.
        2    1    3    3  502    0  0.19700098569E+04 -0.22975395704E+03 -0.17373024819E+03  0.19909565330E+04  0.25500000920E-02 0.  1.
       -2    1    3    3    0  502 -0.19700098569E+04  0.22975395704E+03 -0.45978350159E+02  0.19838950894E+04  0.25500000920E-02 0. -1.
</event>
<event>
 5   0  0.6599276E-09  0.3999933E+04  0.7818609E-02  0.8004560E-01
        2   -1    0    0  501    0  0.00000000000E+00  0.00000000000E+00  0.16220401100E+04  0.16220401101E+04  0.25500000920E-02 0. -1.
       -2   -1    0    0    0  501  0.00000000000E+00  0.00000000000E+00 -0.24659476588E+04  0.24659476588E+04  0.25500000920E-02 0.  1.
    10030    2    1    2    0    0  0.00000000000E+00  0.00000000000E+00 -0.84390754870E+03  0.40879877688E+04  0.39999330053E+04 0.  0.
        2    1    3    3  502    0 -0.10201201838E+04 -0.17196613822E+04 -0.46749425499E+03  0.20533950758E+04  0.25500000920E-02 0. -1.
       -2    1    3    3    0  502  0.10201201838E+04  0.17196613822E+04 -0.37641329372E+03  0.20345926930E+04  0.25500000920E-02 0.  1.
</event>
<event>
 5   0  0.6599276E-09  0.4000447E+04  0.7818609E-02  0.8004456E-01
        2   -1    0    0  501    0  0.00000000000E+00  0.00000000000E+00  0.15737808807E+04  0.15737808807E+04  0.25500000920E-02 0.  1.
       -2   -1    0    0    0  501  0.00000000000E+00  0.00000000000E+00 -0.25422176570E+04  0.25422176570E+04  0.25500000920E-02 0. -1.
    10030    2    1    2    0    0  0.00000000000E+00  0.00000000000E+00 -0.96843677630E+03  0.41159985377E+04  0.40004467466E+04 0.  0.
        2    1    3    3  502    0  0.17913970026E+04  0.88316747425E+03 -0.59601008378E+03  0.20843022882E+04  0.25500000920E-02 0.  1.
       -2    1    3    3    0  502 -0.17913970026E+04 -0.88316747425E+03 -0.37242669252E+03  0.20316962494E+04  0.25500000920E-02 0. -1.
</event>
<event>
 5   0  0.2078125E-09  0.3997241E+04  0.7818609E-02  0.8005103E-01
       -1   -1    0    0    0  501  0.00000000000E+00  0.00000000000E+00  0.18713676092E+04  0.18713676092E+04  0.50400001928E-02 0. -1.
        1   -1    0    0  501    0  0.00000000000E+00  0.00000000000E+00 -0.21345269018E+04  0.21345269018E+04  0.50400001928E-02 0.  1.
    10030    2    1    2    0    0  0.00000000000E+00  0.00000000000E+00 -0.26315929266E+03  0.40058945110E+04  0.39972413012E+04 0.  0.
        3    1    3    3  502    0  0.18306438048E+04 -0.74538724813E+03  0.16507739232E+03  0.19834589599E+04  0.10100000352E+00 0. -1.
       -3    1    3    3    0  502 -0.18306438048E+04  0.74538724813E+03 -0.42823668497E+03  0.20224355511E+04  0.10100000352E+00 0.  1.
</event>
<event>
 5   0  0.6538370E-09  0.3999282E+04  0.7818609E-02  0.8004691E-01
       -2   -1    0    0    0  501  0.00000000000E+00  0.00000000000E+00  0.24640662915E+04  0.24640662915E+04  0.25500000920E-02 0.  1.
        2   -1    0    0  501    0  0.00000000000E+00  0.00000000000E+00 -0.16227503850E+04  0.16227503850E+04  0.25500000920E-02 0. -1.
    10030    2    1    2    0    0  0.00000000000E+00  0.00000000000E+00  0.84131590649E+03  0.40868166765E+04  0.39992821972E+04 0.  0.
        4    1    3    3  502    0 -0.90544324260E+03  0.17010381692E+04  0.96639239533E+03  0.21557537413E+04  0.12699999809E+01 0.  1.
       -4    1    3    3    0  502  0.90544324260E+03 -0.17010381692E+04 -0.12507648885E+03  0.19310629351E+04  0.12699999809E+01 0. -1.
</event>
<event>
 5   0  0.2078125E-09  0.3998958E+04  0.7818609E-02  0.8004757E-01
       -1   -1    0    0    0  501  0.00000000000E+00  0.00000000000E+00  0.30049703835E+04  0.30049703835E+04  0.50400001928E-02 0.  1.
        1   -1    0    0  501    0  0.00000000000E+00  0.00000000000E+00 -0.13304347551E+04  0.13304347551E+04  0.50400001928E-02 0. -1.
    10030    2    1    2    0    0  0.00000000000E+00  0.00000000000E+00  0.16745356284E+04  0.43354051386E+04  0.39989583826E+04 0.  0.
        1    1    3    3  502    0 -0.12435717918E+04 -0.43829106470E+03  0.24668425731E+04  0.27971203297E+04  0.50400001928E-02 0.  1.
       -1    1    3    3    0  502  0.12435717918E+04  0.43829106470E+03 -0.79230694470E+03  0.15382848089E+04  0.50400001928E-02 0. -1.
</event>
<event>
 5   0  0.6599276E-09  0.4001247E+04  0.7818609E-02  0.8004295E-01
       -2   -1    0    0    0  501  0.00000000000E+00  0.00000000000E+00  0.12694937686E+04  0.12694937686E+04  0.25500000920E-02 0. -1.
        2   -1    0    0  501    0  0.00000000000E+00  0.00000000000E+00 -0.31528268274E+04  0.31528268274E+04  0.25500000920E-02 0.  1.
    10030    2    1    2    0    0  0.00000000000E+00  0.00000000000E+00 -0.18833330589E+04  0.44223205960E+04  0.40012468111E+04 0.  0.
        2    1    3    3  502    0  0.53175191858E+02 -0.14144944262E+04  0.62093184058E+03  0.15456967469E+04  0.25500000920E-02 0. -1.
       -2    1    3    3    0  502 -0.53175191858E+02  0.14144944262E+04 -0.25042648994E+04  0.28766238491E+04  0.25500000920E-02 0.  1.
</event>
<event>
 5   0  0.2078125E-09  0.3999257E+04  0.7818609E-02  0.8004696E-01
       -1   -1    0    0    0  501  0.00000000000E+00  0.00000000000E+00  0.15606573944E+04  0.15606573945E+04  0.50400001928E-02 0. -1.
        1   -1    0    0  501    0  0.00000000000E+00  0.00000000000E+00 -0.25620702330E+04  0.25620702330E+04  0.50400001928E-02 0.  1.
    10030    2    1    2    0    0  0.00000000000E+00  0.00000000000E+00 -0.10014128385E+04  0.41227276274E+04  0.39992568581E+04 0.  0.
        5    1    3    3  502    0 -0.15799683225E+04  0.12228052637E+04 -0.41483304585E+03  0.20405051234E+04  0.46999998093E+01 0. -1.
       -5    1    3    3    0  502  0.15799683225E+04 -0.12228052637E+04 -0.58657979267E+03  0.20822225040E+04  0.46999998093E+01 0.  1.
</event>
<event>
 5   0  0.6736335E-09  0.4000115E+04  0.7818609E-02  0.8004523E-01
       -2   -1    0    0    0  501  0.00000000000E+00  0.00000000000E+00  0.13987905012E+04  0.13987905012E+04  0.25500000920E-02 0.  1.
        2   -1    0    0  501    0  0.00000000000E+00  0.00000000000E+00 -0.28597775152E+04  0.28597775152E+04  0.25500000920E-02 0. -1.
    10030    2    1    2    0    0  0.00000000000E+00  0.00000000000E+00 -0.14609870140E+04  0.42585680164E+04  0.40001148102E+04 0.  0.
        1    1    3    3  502    0  0.80412562260E+03 -0.14951458428E+04 -0.18562417186E+04  0.25154944695E+04  0.50400001928E-02 0. -1.
       -1    1    3    3    0  502 -0.80412562260E+03  0.14951458428E+04  0.39525470465E+03  0.17430735469E+04  0.50400001928E-02 0.  1.
</event>
<event>
 5   0  0.6547327E-09  0.4000507E+04  0.7818609E-02  0.8004444E-01
       -2   -1    0    0    0  501  0.00000000000E+00  0.00000000000E+00  0.16885745690E+04  0.16885745690E+04  0.25500000920E-02 0.  1.
        2   -1    0    0  501    0  0.00000000000E+00  0.00000000000E+00 -0.23694625771E+04  0.23694625771E+04  0.25500000920E-02 0. -1.
    10030    2    1    2    0    0  0.00000000000E+00  0.00000000000E+00 -0.68088800813E+03  0.40580371462E+04  0.40005070928E+04 0.  0.
        5    1    3    3  502    0  0.28638615166E+03 -0.15175232869E+04 -0.16299840915E+04  0.22453873124E+04  0.46999998093E+01 0. -1.
       -5    1    3    3    0  502 -0.28638615166E+03  0.15175232869E+04  0.94909608341E+03  0.18126498337E+04  0.46999998093E+01 0.  1.
</event>
<event>
 5   0  0.2078125E-09  0.3999312E+04  0.7818609E-02  0.8004685E-01
       -1   -1    0    0    0  501  0.00000000000E+00  0.00000000000E+00  0.14343122711E+04  0.14343122711E+04  0.50400001928E-02 0. -1.
        1   -1    0    0  501    0  0.00000000000E+00  0.00000000000E+00 -0.27878340021E+04  0.27878340021E+04  0.50400001928E-02 0.  1.
    10030    2    1    2    0    0  0.00000000000E+00  0.00000000000E+00 -0.13535217310E+04  0.42221462732E+04  0.39993122003E+04 0.  0.
        3    1    3    3  502    0  0.15963726419E+04  0.49689092331E+03  0.48131824819E+03  0.17398199527E+04  0.10100000352E+00 0. -1.
       -3    1    3    3    0  502 -0.15963726419E+04 -0.49689092331E+03 -0.18348399792E+04  0.24823263204E+04  0.10100000352E+00 0.  1.
</event>
<event>
 5   0  0.2078125E-09  0.3999322E+04  0.7818609E-02  0.8004683E-01
       -1   -1    0    0    0  501  0.00000000000E+00  0.00000000000E+00  0.16234907682E+04  0.16234907682E+04  0.50400001928E-02 0.  1.
        1   -1    0    0  501    0  0.00000000000E+00  0.00000000000E+00 -0.24629910642E+04  0.24629910642E+04  0.50400001928E-02 0. -1.
    10030    2    1    2    0    0  0.00000000000E+00  0.00000000000E+00 -0.83950029602E+03  0.40864818324E+04  0.39993215699E+04 0.  0.
        4    1    3    3  502    0 -0.18170369803E+04 -0.83410182932E+03 -0.45648348955E+03  0.20507871754E+04  0.12699999809E+01 0.  1.
       -4    1    3    3    0  502  0.18170369803E+04  0.83410182932E+03 -0.38301680647E+03  0.20356946570E+04  0.12699999809E+01 0. -1.
</event>
<event>
 5   0  0.2078125E-09  0.3993467E+04  0.7818609E-02  0.8005866E-01
        1   -1    0    0  501    0  0.00000000000E+00  0.00000000000E+00  0.21347458707E+04  0.21347458707E+04  0.50400001928E-02 0. -1.
       -1   -1    0    0    0  501  0.00000000000E+00  0.00000000000E+00 -0.18676438853E+04  0.18676438853E+04  0.50400001928E-02 0.  1.
    10030    2    1    2    0    0  0.00000000000E+00  0.00000000000E+00  0.26710198541E+03  0.40023897561E+04  0.39934672014E+04 0.  0.
        4    1    3    3  502    0  0.28241179827E+03 -0.17345196074E+04 -0.81652734272E+03  0.19377908057E+04  0.12699999809E+01 0.  1.
       -4    1    3    3    0  502 -0.28241179827E+03  0.17345196074E+04  0.10836293281E+04  0.20645989504E+04  0.12699999809E+01 0. -1.
</event>
<event>
 5   0  0.6599276E-09  0.3999887E+04  0.7818609E-02  0.8004569E-01
        2   -1    0    0  501    0  0.00000000000E+00  0.00000000000E+00  0.27440169012E+04  0.27440169012E+04  0.25500000920E-02 0.  1.
       -2   -1    0    0    0  501  0.00000000000E+00  0.00000000000E+00 -0.14576345955E+04  0.14576345955E+04  0.25500000920E-02 0. -1.
    10030    2    1    2    0    0  0.00000000000E+00  0.00000000000E+00  0.12863823057E+04  0.42016514967E+04  0.39998869813E+04 0.  0.
        2    1    3    3  502    0 -0.55086565475E+03  0.22173409122E+03 -0.13628942448E+04  0.14866404069E+04  0.25500000920E-02 0. -1.
       -2    1    3    3    0  502  0.55086565475E+03 -0.22173409122E+03  0.26492765505E+04  0.27150110898E+04  0.25500000920E-02 0.  1.
</event>
<event>
 5   0  0.6599276E-09  0.3999949E+04  0.7818609E-02  0.8004557E-01
       -2   -1    0    0    0  501  0.00000000000E+00  0.00000000000E+00  0.16276243370E+04  0.16276243370E+04  0.25500000920E-02 0.  1.
        2   -1    0    0  501    0  0.00000000000E+00  0.00000000000E+00 -0.24575066375E+04  0.24575066375E+04  0.25500000920E-02 0. -1.
    10030    2    1    2    0    0  0.00000000000E+00  0.00000000000E+00 -0.82988230054E+03  0.40851309745E+04  0.39999488054E+04 0.  0.
        2    1    3    3  502    0  0.92813085325E+03 -0.84400323363E+03 -0.20057152857E+04  0.23657265578E+04  0.25500000920E-02 0. -1.
       -2    1    3    3    0  502 -0.92813085325E+03  0.84400323363E+03  0.11758329851E+04  0.17194044167E+04  0.25500000920E-02 0.  1.
</event>
<event>
 5   0  0.6538370E-09  0.4001863E+04  0.7818609E-02  0.8004171E-01
       -2   -1    0    0    0  501  0.00000000000E+00  0.00000000000E+00  0.31590489473E+04  0.31590489473E+04  0.25500000920E-02 0. -1.
        2   -1    0    0  501    0  0.00000000000E+00  0.00000000000E+00 -0.12673835310E+04  0.12673835310E+04  0.25500000920E-02 0.  1.
    10030    2    1    2    0    0  0.00000000000E+00  0.00000000000E+00  0.18916654164E+04  0.44264324783E+04  0.40018628709E+04 0.  0.
        4    1    3    3  502    0  0.28818711728E+03 -0.17557757212E+04 -0.66665265530E+02  0.17805184830E+04  0.12699999809E+01 0.  1.
       -4    1    3    3    0  502 -0.28818711728E+03  0.17557757212E+04  0.19583306819E+04  0.26459139953E+04  0.12699999809E+01 0. -1.
</event>
<event>
 5   0  0.6547327E-09  0.4000429E+04  0.7818609E-02  0.8004460E-01
        2   -1    0    0  501    0  0.00000000000E+00  0.00000000000E+00  0.17784361769E+04  0.17784361769E+04  0.25500000920E-02 0.  1.
       -2   -1    0    0    0  501  0.00000000000E+00  0.00000000000E+00 -0.22496500414E+04  0.22496500414E+04  0.25500000920E-02 0. -1.
    10030    2    1    2    0    0  0.00000000000E+00  0.00000000000E+00 -0.47121386450E+03  0.40280862184E+04  0.40004294865E+04 0.  0.
        5    1    3    3  502    0 -0.21381886857E+03  0.89186481381E+03  0.15542353317E+04  0.18046636559E+04  0.46999998093E+01 0.  1.
       -5    1    3    3    0  502  0.21381886857E+03 -0.89186481381E+03 -0.20254491962E+04  0.22234225624E+04  0.46999998093E+01 0. -1.
</event>
<event>
 5   0  0.6599276E-09  0.4001506E+04  0.7818609E-02  0.8004243E-01
       -2   -1    0    0    0  501  0.00000000000E+00  0.00000000000E+00  0.19437572830E+04  0.19437572830E+04  0.25500000920E-02 0.  1.
        2   -1    0    0  501    0  0.00000000000E+00  0.00000000000E+00 -0.20594203174E+04  0.20594203174E+04  0.25500000920E-02 0. -1.
    10030    2    1    2    0    0  0.00000000000E+00  0.00000000000E+00 -0.11566303437E+03  0.40031776004E+04  0.40015063367E+04 0.  0.
        2    1    3    3  502    0  0.48292108634E+03 -0.85887313391E+03 -0.17998621514E+04  0.20519209536E+04  0.25500000920E-02 0. -1.
       -2    1    3    3    0  502 -0.48292108634E+03  0.85887313391E+03  0.16841991170E+04  0.19512566468E+04  0.25500000920E-02 0.  1.
</event>
<event>
 5   0  0.6736335E-09  0.3999352E+04  0.7818609E-02  0.8004677E-01
        2   -1    0    0  501    0  0.00000000000E+00  0.00000000000E+00  0.17922015640E+04  0.17922015640E+04  0.25500000920E-02 0.  1.
       -2   -1    0    0    0  501  0.00000000000E+00  0.00000000000E+00 -0.22311686813E+04  0.22311686813E+04  0.25500000920E-02 0. -1.
    10030    2    1    2    0    0  0.00000000000E+00  0.00000000000E+00 -0.43896711733E+03  0.40233702453E+04  0.39993519476E+04 0.  0.
        1    1    3    3  502    0 -0.12650480216E+04 -0.50485176799E+03  0.12533725346E+04  0.18509901445E+04  0.50400001928E-02 0.  1.
       -1    1    3    3    0  502  0.12650480216E+04  0.50485176799E+03 -0.16923396520E+04  0.21723801008E+04  0.50400001928E-02 0. -1.
</event>
<event>
 5   0  0.6538370E-09  0.4002551E+04  0.7818609E-02  0.8004032E-01
       -2   -1    0    0    0  501  0.00000000000E+00  0.00000000000E+00  0.22656924126E+04  0.22656924126E+04  0.25500000920E-02 0.  1.
        2   -1    0    0  501    0  0.00000000000E+00  0.00000000000E+00 -0.17677168565E+04  0.17677168565E+04  0.25500000920E-02 0. -1.
    10030    2    1    2    0    0  0.00000000000E+00  0.00000000000E+00  0.49797555610E+03  0.40334092692E+04  0.40025505216E+04 0.  0.
        4    1    3    3  502    0 -0.78501293487E+03 -0.11399712975E+04  0.17055802933E+04  0.21965394640E+04  0.12699999809E+01 0.  1.
       -4    1    3    3    0  502  0.78501293487E+03  0.11399712975E+04 -0.12076047372E+04  0.18368698052E+04  0.12699999809E+01 0. -1.
</event>
<event>
 5   0  0.6538370E-09  0.3999743E+04  0.7818609E-02  0.8004598E-01
       -2   -1    0    0    0  501  0.00000000000E+00  0.00000000000E+00  0.23805403005E+04  0.23805403005E+04  0.25500000920E-02 0. -1.
        2   -1    0    0  501    0  0.00000000000E+00  0.00000000000E+00 -0.16800749747E+04  0.16800749747E+04  0.25500000920E-02 0.  1.
    10030    2    1    2    0    0  0.00000000000E+00  0.00000000000E+00  0.70046532583E+03  0.40606152752E+04  0.39997430843E+04 0.  0.
        4    1    3    3  502    0 -0.12075252529E+04  0.23403586404E+03  0.19511254083E+04  0.23064652597E+04  0.12699999809E+01 0. -1.
       -4    1    3    3    0  502  0.12075252529E+04 -0.23403586404E+03 -0.12506600825E+04  0.17541500155E+04  0.12699999809E+01 0.  1.
</event>
<event>
 5   0  0.6547327E-09  0.4000337E+04  0.7818609E-02  0.8004479E-01
       -2   -1    0    0    0  501  0.00000000000E+00  0.00000000000E+00  0.22053937259E+04  0.22053937259E+04  0.25500000920E-02 0.  1.
        2   -1    0    0  501    0  0.00000000000E+00  0.00000000000E+00 -0.18140405744E+04  0.18140405744E+04  0.25500000920E-02 0. -1.
    10030    2    1    2    0    0  0.00000000000E+00  0.00000000000E+00  0.39135315151E+03  0.40194343003E+04  0.40003368365E+04 0.  0.
        5    1    3    3  502    0  0.12498828516E+04 -0.28034267172E+03  0.17391913761E+04  0.21600018262E+04  0.46999998093E+01 0.  1.
       -5    1    3    3    0  502 -0.12498828516E+04  0.28034267172E+03 -0.13478382246E+04  0.18594324742E+04  0.46999998093E+01 0. -1.
</event>
<event>
 5   0  0.2078125E-09  0.3998582E+04  0.7818609E-02  0.8004833E-01
        1   -1    0    0  501    0  0.00000000000E+00  0.00000000000E+00  0.25922618935E+04  0.25922618936E+04  0.50400001928E-02 0. -1.
       -1   -1    0    0    0  501  0.00000000000E+00  0.00000000000E+00 -0.15419604965E+04  0.15419604965E+04  0.50400001928E-02 0.  1.
    10030    2    1    2    0    0  0.00000000000E+00  0.00000000000E+00  0.10503013970E+04  0.41342223901E+04  0.39985824671E+04 0.  0.
        4    1    3    3  502    0  0.14345535921E+04 -0.13783215449E+04  0.73050732236E+03  0.21192821545E+04  0.12699999809E+01 0. -1.
       -4    1    3    3    0  502 -0.14345535921E+04  0.13783215449E+04  0.31979407467E+03  0.20149402355E+04  0.12699999809E+01 0.  1.
</event>
<event>
 5   0  0.6547327E-09  0.4001790E+04  0.7818609E-02  0.8004186E-01
        2   -1    0    0  501    0  0.00000000000E+00  0.00000000000E+00  0.21433376205E+04  0.21433376205E+04  0.25500000920E-02 0. -1.
       -2   -1    0    0    0  501  0.00000000000E+00  0.00000000000E+00 -0.18679190149E+04  0.18679190149E+04  0.25500000920E-02 0.  1.
    10030    2    1    2    0    0  0.00000000000E+00  0.00000000000E+00  0.27541860561E+03  0.40112566355E+04  0.40017901478E+04 0.  0.
        5    1    3    3  502    0 -0.18364895086E+04  0.58355654697E+03 -0.40238536166E+03  0.19685446472E+04  0.46999998093E+01 0.  1.
       -5    1    3    3    0  502  0.18364895086E+04 -0.58355654697E+03  0.67780396727E+03  0.20427119882E+04  0.46999998093E+01 0. -1.
</event>
<event>
 5   0  0.6645526E-09  0.3999923E+04  0.7818609E-02  0.8004562E-01
       -2   -1    0    0    0  501  0.00000000000E+00  0.00000000000E+00  0.28835716188E+04  0.28835716188E+04  0.25500000920E-02 0.  1.
        2   -1    0    0  501    0  0.00000000000E+00  0.00000000000E+00 -0.13871153593E+04  0.13871153593E+04  0.25500000920E-02 0. -1.
    10030    2    1    2    0    0  0.00000000000E+00  0.00000000000E+00  0.14964562595E+04  0.42706869780E+04  0.39999232402E+04 0.  0.
        3    1    3    3  502    0 -0.94506181427E+02 -0.16369162170E+04  0.19709200525E+04  0.25637768981E+04  0.10100000352E+00 0. -1.
       -3    1    3    3    0  502  0.94506181427E+02  0.16369162170E+04 -0.47446379305E+03  0.17069100799E+04  0.10100000352E+00 0.  1.
</event>
<event>
 5   0  0.6547327E-09  0.4000311E+04  0.7818609E-02  0.8004484E-01
       -2   -1    0    0    0  501  0.00000000000E+00  0.00000000000E+00  0.15677118748E+04  0.15677118748E+04  0.25500000920E-02 0. -1.
        2   -1    0    0  501    0  0.00000000000E+00  0.00000000000E+00 -0.25518858214E+04  0.25518858214E+04  0.25500000920E-02 0.  1.
    10030    2    1    2    0    0  0.00000000000E+00  0.00000000000E+00 -0.98417394659E+03  0.41195976962E+04  0.40003108406E+04 0.  0.
        5    1    3    3  502    0 -0.15422299259E+04 -0.10802341960E+04 -0.11869064732E+04  0.22257915736E+04  0.46999998093E+01 0. -1.
       -5    1    3    3    0  502  0.15422299259E+04  0.10802341960E+04  0.20273252666E+03  0.18938061226E+04  0.46999998093E+01 0.  1.
</event>
<event>
 5   0  0.2078125E-09  0.3998383E+04  0.7818609E-02  0.8004873E-01
       -1   -1    0    0    0  501  0.00000000000E+00  0.00000000000E+00  0.20539505746E+04  0.20539505746E+04  0.50400001928E-02 0. -1.
        1   -1    0    0  501    0  0.00000000000E+00  0.00000000000E+00 -0.19458922638E+04  0.19458922638E+04  0.50400001928E-02 0.  1.
    10030    2    1    2    0    0  0.00000000000E+00  0.00000000000E+00  0.10805831079E+03  0.39998428384E+04  0.39983829398E+04 0.  0.
        1    1    3    3  502    0  0.16067944015E+04 -0.25347800567E+03 -0.11086030851E+04  0.19685121661E+04  0.50400001928E-02 0.  1.
       -1    1    3    3    0  502 -0.16067944015E+04  0.25347800567E+03  0.12166613959E+04  0.20313306723E+04  0.50400001928E-02 0. -1.
</event>
<event>
 5   0  0.2078125E-09  0.3999928E+04  0.7818609E-02  0.8004561E-01
        3   -1    0    0  501    0  0.00000000000E+00  0.00000000000E+00  0.19535815882E+04  0.19535815908E+04  0.10100000352E+00 0.  1.
       -3   -1    0    0    0  501  0.00000000000E+00  0.00000000000E+00 -0.20474476231E+04  0.20474476256E+04  0.10100000352E+00 0. -1.
    10030    2    1    2    0    0  0.00000000000E+00  0.00000000000E+00 -0.93866034926E+02  0.40010292165E+04  0.39999279942E+04 0.  0.
        4    1    3    3  502    0 -0.57919245335E+03  0.12053032931E+04  0.14406329107E+04  0.19656156090E+04  0.12699999809E+01 0.  1.
       -4    1    3    3    0  502  0.57919245335E+03 -0.12053032931E+04 -0.15344989456E+04  0.20354136074E+04  0.12699999809E+01 0. -1.
</event>
<event>
 5   0  0.2078125E-09  0.3991083E+04  0.7818609E-02  0.8006348E-01
       -1   -1    0    0    0  501  0.00000000000E+00  0.00000000000E+00  0.17532953534E+04  0.17532953535E+04  0.50400001928E-02 0.  1.
        1   -1    0    0  501    0  0.00000000000E+00  0.00000000000E+00 -0.22712577254E+04  0.22712577254E+04  0.50400001928E-02 0. -1.
    10030    2    1    2    0    0  0.00000000000E+00  0.00000000000E+00 -0.51796237196E+03  0.40245530789E+04  0.39910828688E+04 0.  0.
        5    1    3    3  502    0  0.31217558597E+03 -0.12197699268E+04  0.13021854734E+04  0.18113534630E+04  0.46999998093E+01 0.  1.
       -5    1    3    3    0  502 -0.31217558597E+03  0.12197699268E+04 -0.18201478453E+04  0.22131996159E+04  0.46999998093E+01 0. -1.
</event>
<event>
 5   0  0.6736335E-09  0.4000099E+04  0.7818609E-02  0.8004527E-01
        2   -1    0    0  501    0  0.00000000000E+00  0.00000000000E+00  0.24234722166E+04  0.24234722166E+04  0.25500000920E-02 0.  1.
       -2   -1    0    0    0  501  0.00000000000E+00  0.00000000000E+00 -0.16506060918E+04  0.16506060918E+04  0.25500000920E-02 0. -1.
    10030    2    1    2    0    0  0.00000000000E+00  0.00000000000E+00  0.77286612475E+03  0.40740783084E+04  0.40000990008E+04 0.  0.
        1    1    3    3  502    0 -0.55071216178E+03 -0.16382086303E+04  0.14116206787E+04  0.22315206345E+04  0.50400001928E-02 0.  1.
       -1    1    3    3    0  502  0.55071216178E+03  0.16382086303E+04 -0.63875455393E+03  0.18425576739E+04  0.50400001928E-02 0. -1.
</event>
<event>
 5   0  0.6736335E-09  0.4000469E+04  0.7818609E-02  0.8004452E-01
        2   -1    0    0  501    0  0.00000000000E+00  0.00000000000E+00  0.22259583444E+04  0.22259583444E+04  0.25500000920E-02 0.  1.
       -2   -1    0    0    0  501  0.00000000000E+00  0.00000000000E+00 -0.17974006774E+04  0.17974006774E+04  0.25500000920E-02 0. -1.
    10030    2    1    2    0    0  0.00000000000E+00  0.00000000000E+00  0.42855766704E+03  0.40233590218E+04  0.40004694905E+04 0.  0.
        1    1    3    3  502    0  0.40665258460E+03 -0.95932140379E+03  0.19314658709E+04  0.21945897773E+04  0.50400001928E-02 0.  1.
       -1    1    3    3    0  502 -0.40665258460E+03  0.95932140379E+03 -0.15029082038E+04  0.18287692445E+04  0.50400001928E-02 0. -1.
</event>
<event>
 5   0  0.2078125E-09  0.3999461E+04  0.7818609E-02  0.8004655E-01
       -1   -1    0    0    0  501  0.00000000000E+00  0.00000000000E+00  0.26785988559E+04  0.26785988559E+04  0.50400001928E-02 0.  1.
        1   -1    0    0  501    0  0.00000000000E+00  0.00000000000E+00 -0.14929158617E+04  0.14929158617E+04  0.50400001928E-02 0. -1.
    10030    2    1    2    0    0  0.00000000000E+00  0.00000000000E+00  0.11856829941E+04  0.41715147176E+04  0.39994613233E+04 0.  0.
        1    1    3    3  502    0  0.70651746282E+03 -0.12043861871E+04 -0.90024676401E+03  0.16613720983E+04  0.50400001928E-02 0. -1.
       -1    1    3    3    0  502 -0.70651746282E+03  0.12043861871E+04  0.20859297581E+04  0.25101426193E+04  0.50400001928E-02 0.  1.
</event>
<event>
 5   0  0.6599276E-09  0.3986821E+04  0.7818609E-02  0.8007210E-01
        2   -1    0    0  501    0  0.00000000000E+00  0.00000000000E+00  0.19081592761E+04  0.19081592761E+04  0.25500000920E-02 0.  1.
       -2   -1    0    0    0  501  0.00000000000E+00  0.00000000000E+00 -0.20824708399E+04  0.20824708399E+04  0.25500000920E-02 0. -1.
    10030    2    1    2    0    0  0.00000000000E+00  0.00000000000E+00 -0.17431156379E+03  0.39906301160E+04  0.39868213155E+04 0.  0.
        2    1    3    3  502    0 -0.62535234782E+03  0.13505417251E+04 -0.14145665715E+04  0.20532966408E+04  0.25500000920E-02 0. -1.
       -2    1    3    3    0  502  0.62535234782E+03 -0.13505417251E+04  0.12402550077E+04  0.19373334752E+04  0.25500000920E-02 0.  1.
</event>
<event>
 5   0  0.6547327E-09  0.4000122E+04  0.7818609E-02  0.8004522E-01
       -2   -1    0    0    0  501  0.00000000000E+00  0.00000000000E+00  0.19740057767E+04  0.19740057767E+04  0.25500000920E-02 0.  1.
        2   -1    0    0  501    0  0.00000000000E+00  0.00000000000E+00 -0.20264604240E+04  0.20264604240E+04  0.25500000920E-02 0. -1.
    10030    2    1    2    0    0  0.00000000000E+00  0.00000000000E+00 -0.52454647312E+02  0.40004662007E+04  0.40001222898E+04 0.  0.
        5    1    3    3  502    0  0.12521158782E+04 -0.15287254588E+04  0.28271150823E+03  0.19961822531E+04  0.46999998093E+01 0.  1.
       -5    1    3    3    0  502 -0.12521158782E+04  0.15287254588E+04 -0.33516615554E+03  0.20042839476E+04  0.46999998093E+01 0. -1.
</event>
<event>
 5   0  0.6547327E-09  0.3998200E+04  0.7818609E-02  0.8004910E-01
       -2   -1    0    0    0  501  0.00000000000E+00  0.00000000000E+00  0.20698654913E+04  0.20698654913E+04  0.25500000920E-02 0. -1.
        2   -1    0    0  501    0  0.00000000000E+00  0.00000000000E+00 -0.19307543409E+04  0.19307543409E+04  0.25500000920E-02 0.  1.
    10030    2    1    2    0    0  0.00000000000E+00  0.00000000000E+00  0.13911115033E+03  0.40006198322E+04  0.39982004864E+04 0.  0.
        5    1    3    3  502    0  0.99424201507E+03  0.88989118385E+03 -0.14199540048E+04  0.19485160942E+04  0.46999998093E+01 0.  1.
       -5    1    3    3    0  502 -0.99424201507E+03 -0.88989118385E+03  0.15590651551E+04  0.20521037380E+04  0.46999998093E+01 0. -1.
</event>
<event>
 5   0  0.2078125E-09  0.4001439E+04  0.7818609E-02  0.8004256E-01
       -1   -1    0    0    0  501  0.00000000000E+00  0.00000000000E+00  0.15434932027E+04  0.15434932027E+04  0.50400001928E-02 0.  1.
        1   -1    0    0  501    0  0.00000000000E+00  0.00000000000E+00 -0.25933897349E+04  0.25933897349E+04  0.50400001928E-02 0. -1.
    10030    2    1    2    0    0  0.00000000000E+00  0.00000000000E+00 -0.10498965322E+04  0.41368829376E+04  0.40014394549E+04 0.  0.
        1    1    3    3  502    0  0.62890866067E+03  0.31626534190E+03  0.14112296813E+04  0.15770602662E+04  0.50400001928E-02 0.  1.
       -1    1    3    3    0  502 -0.62890866067E+03 -0.31626534190E+03 -0.24611262135E+04  0.25598226714E+04  0.50400001928E-02 0. -1.
</event>
<event>
 5   0  0.2078125E-09  0.4000368E+04  0.7818609E-02  0.8004472E-01
       -1   -1    0    0    0  501  0.00000000000E+00  0.00000000000E+00  0.17293096166E+04  0.17293096166E+04  0.50400001928E-02 0. -1.
        1   -1    0    0  501    0  0.00000000000E+00  0.00000000000E+00 -0.23134876001E+04  0.23134876001E+04  0.50400001928E-02 0.  1.
    10030    2    1    2    0    0  0.00000000000E+00  0.00000000000E+00 -0.58417798351E+03  0.40427972167E+04  0.40003681605E+04 0.  0.
        4    1    3    3  502    0 -0.99622207402E+03  0.13054751242E+04 -0.14461336816E+04  0.21881562921E+04  0.12699999809E+01 0.  1.
       -4    1    3    3    0  502  0.99622207402E+03 -0.13054751242E+04  0.86195569811E+03  0.18546409246E+04  0.12699999809E+01 0. -1.
</event>
<event>
 5   0  0.6645526E-09  0.4000193E+04  0.7818609E-02  0.8004508E-01
        2   -1    0    0  501    0  0.00000000000E+00  0.00000000000E+00  0.17380780731E+04  0.17380780731E+04  0.25500000920E-02 0.  1.
       -2   -1    0    0    0  501  0.00000000000E+00  0.00000000000E+00 -0.23016147405E+04  0.23016147405E+04  0.25500000920E-02 0. -1.
    10030    2    1    2    0    0  0.00000000000E+00  0.00000000000E+00 -0.56353666739E+03  0.40396928136E+04  0.40001930519E+04 0.  0.
        3    1    3    3  502    0 -0.11225129816E+04 -0.67102885517E+03 -0.18100093894E+04  0.22330358524E+04  0.10100000352E+00 0. -1.
       -3    1    3    3    0  502  0.11225129816E+04  0.67102885517E+03  0.12464727220E+04  0.18066569611E+04  0.10100000352E+00 0.  1.
</event>
<event>
 5   0  0.6736335E-09  0.4000513E+04  0.7818609E-02  0.8004443E-01
        2   -1    0    0  501    0  0.00000000000E+00  0.00000000000E+00  0.22543567320E+04  0.22543567320E+04  0.25500000920E-02 0. -1.
       -2   -1    0    0    0  501  0.00000000000E+00  0.00000000000E+00 -0.17747976258E+04  0.17747976258E+04  0.25500000920E-02 0.  1.
    10030    2    1    2    0    0  0.00000000000E+00  0.00000000000E+00  0.47955910626E+03  0.40291543578E+04  0.40005134548E+04 0.  0.
        1    1    3    3  502    0  0.85414026944E+03 -0.16182753707E+04  0.10534347532E+04  0.21114202695E+04  0.50400001928E-02 0. -1.
       -1    1    3    3    0  502 -0.85414026944E+03  0.16182753707E+04 -0.57387564695E+03  0.19177340883E+04  0.50400001928E-02 0.  1.
</event>
<event>
 5   0  0.6547327E-09  0.3995686E+04  0.7818609E-02  0.8005417E-01
        2   -1    0    0  501    0  0.00000000000E+00  0.00000000000E+00  0.21505485423E+04  0.21505485423E+04  0.25500000920E-02 0.  1.
       -2   -1    0    0    0  501  0.00000000000E+00  0.00000000000E+00 -0.18559804923E+04  0.18559804923E+04  0.25500000920E-02 0. -1.
    10030    2    1    2    0    0  0.00000000000E+00  0.00000000000E+00  0.29456805001E+03  0.40065290345E+04  0.39956857445E+04 0.  0.
        5    1    3    3  502    0  0.33773767822E+03 -0.16761131130E+04 -0.88892841001E+03  0.19270801008E+04  0.46999998093E+01 0. -1.
       -5    1    3    3    0  502 -0.33773767822E+03  0.16761131130E+04  0.11834964600E+04  0.20794489337E+04  0.46999998093E+01 0.  1.
</event>
<event>
 5   0  0.2078125E-09  0.4001042E+04  0.7818609E-02  0.8004336E-01
       -4   -1    0    0    0  501  0.00000000000E+00  0.00000000000E+00  0.25021510399E+04  0.25021513622E+04  0.12699999809E+01 0. -1.
        4   -1    0    0  501    0  0.00000000000E+00  0.00000000000E+00 -0.15994566742E+04  0.15994571784E+04  0.12699999809E+01 0.  1.
    10030    2    1    2    0    0  0.00000000000E+00  0.00000000000E+00  0.90269436573E+03  0.41016085406E+04  0.40010418021E+04 0.  0.
        4    1    3    3  502    0  0.51193033178E+03 -0.22173152242E+02 -0.15310420535E+04  0.16145140742E+04  0.12699999809E+01 0.  1.
       -4    1    3    3    0  502 -0.51193033178E+03  0.22173152242E+02  0.24337364192E+04  0.24870944663E+04  0.12699999809E+01 0. -1.
</event>
<event>
 5   0  0.6645526E-09  0.4002313E+04  0.7818609E-02  0.8004080E-01
       -2   -1    0    0    0  501  0.00000000000E+00  0.00000000000E+00  0.16422432332E+04  0.16422432332E+04  0.25500000920E-02 0.  1.
        2   -1    0    0  501    0  0.00000000000E+00  0.00000000000E+00 -0.24385103929E+04  0.24385103929E+04  0.25500000920E-02 0. -1.
    10030    2    1    2    0    0  0.00000000000E+00  0.00000000000E+00 -0.79626715969E+03  0.40807536261E+04  0.40023129272E+04 0.  0.
        3    1    3    3  502    0  0.18635784584E+04  0.16283181480E+03  0.32656261383E+03  0.18989686731E+04  0.10100000352E+00 0.  1.
       -3    1    3    3    0  502 -0.18635784584E+04 -0.16283181480E+03 -0.11228297735E+04  0.21817849530E+04  0.10100000352E+00 0. -1.
</event>
<event>
 5   0  0.6538370E-09  0.3992681E+04  0.7818609E-02  0.8006025E-01
        2   -1    0    0  501    0  0.00000000000E+00  0.00000000000E+00  0.24875973316E+04  0.24875973316E+04  0.25500000920E-02 0. -1.
       -2   -1    0    0    0  501  0.00000000000E+00  0.00000000000E+00 -0.16020982960E+04  0.16020982960E+04  0.25500000920E-02 0.  1.
    10030    2    1    2    0    0  0.00000000000E+00  0.00000000000E+00  0.88549903562E+03  0.40896956277E+04  0.39926810272E+04 0.  0.
        4    1    3    3  502    0 -0.82565500578E+03  0.22261928453E+03  0.22904959499E+04  0.24449210302E+04  0.12699999809E+01 0. -1.
       -4    1    3    3    0  502  0.82565500578E+03 -0.22261928453E+03 -0.14049969143E+04  0.16447745975E+04  0.12699999809E+01 0.  1.
</event>
<event>
 5   0  0.6645526E-09  0.4000304E+04  0.7818609E-02  0.8004485E-01
        2   -1    0    0  501    0  0.00000000000E+00  0.00000000000E+00  0.23247617791E+04  0.23247617791E+04  0.25500000920E-02 0. -1.
       -2   -1    0    0    0  501  0.00000000000E+00  0.00000000000E+00 -0.17208680962E+04  0.17208680962E+04  0.25500000920E-02 0.  1.
    10030    2    1    2    0    0  0.00000000000E+00  0.00000000000E+00  0.60389368283E+03  0.40456298753E+04  0.40003041769E+04 0.  0.
        3    1    3    3  502    0 -0.48446003580E+03  0.19315698610E+04  0.11289371299E+03  0.19945948598E+04  0.10100000352E+00 0. -1.
       -3    1    3    3    0  502  0.48446003580E+03 -0.19315698610E+04  0.49099996984E+03  0.20510350155E+04  0.10100000352E+00 0.  1.
</event>
<event>
 5   0  0.6538370E-09  0.3999747E+04  0.7818609E-02  0.8004598E-01
        2   -1    0    0  501    0  0.00000000000E+00  0.00000000000E+00  0.31304646666E+04  0.31304646666E+04  0.25500000920E-02 0. -1.
       -2   -1    0    0    0  501  0.00000000000E+00  0.00000000000E+00 -0.12776042105E+04  0.12776042105E+04  0.25500000920E-02 0.  1.
    10030    2    1    2    0    0  0.00000000000E+00  0.00000000000E+00  0.18528604561E+04  0.44080688771E+04  0.39997474114E+04 0.  0.
        4    1    3    3  502    0 -0.17925937169E+04 -0.52360484835E+03  0.13788811102E+03  0.18725835136E+04  0.12699999809E+01 0.  1.
       -4    1    3    3    0  502  0.17925937169E+04  0.52360484835E+03  0.17149723450E+04  0.25354853635E+04  0.12699999809E+01 0. -1.
</event>
<event>
 5   0  0.6736335E-09  0.3986889E+04  0.7818609E-02  0.8007197E-01
       -2   -1    0    0    0  501  0.00000000000E+00  0.00000000000E+00  0.16049757112E+04  0.16049757112E+04  0.25500000920E-02 0. -1.
        2   -1    0    0  501    0  0.00000000000E+00  0.00000000000E+00 -0.24759380339E+04  0.24759380339E+04  0.25500000920E-02 0.  1.
    10030    2    1    2    0    0  0.00000000000E+00  0.00000000000E+00 -0.87096232280E+03  0.40809137451E+04  0.39868887152E+04 0.  0.
        1    1    3    3  502    0 -0.47029480982E+03  0.13570869965E+04 -0.18504565383E+04  0.23424456716E+04  0.50400001928E-02 0.  1.
       -1    1    3    3    0  502  0.47029480982E+03 -0.13570869965E+04  0.97949421553E+03  0.17384680735E+04  0.50400001928E-02 0. -1.
</event>
<event>
 5   0  0.2078125E-09  0.3995730E+04  0.7818609E-02  0.8005408E-01
       -1   -1    0    0    0  501  0.00000000000E+00  0.00000000000E+00  0.23026264858E+04  0.23026264858E+04  0.50400001928E-02 0. -1.
        1   -1    0    0  501    0  0.00000000000E+00  0.00000000000E+00 -0.17334399426E+04  0.17334399426E+04  0.50400001928E-02 0.  1.
    10030    2    1    2    0    0  0.00000000000E+00  0.00000000000E+00  0.56918654318E+03  0.40360664284E+04  0.39957300827E+04 0.  0.
        4    1    3    3  502    0 -0.78914382579E+03 -0.62494891002E+03 -0.14585606502E+04  0.17722048136E+04  0.12699999809E+01 0.  1.
       -4    1    3    3    0  502  0.78914382579E+03  0.62494891002E+03  0.20277471934E+04  0.22638616149E+04  0.12699999809E+01 0. -1.
</event>
<event>
 5   0  0.6645526E-09  0.3999556E+04  0.7818609E-02  0.8004636E-01
       -2   -1    0    0    0  501  0.00000000000E+00  0.00000000000E+00  0.18800255459E+04  0.18800255459E+04  0.25500000920E-02 0. -1.
        2   -1    0    0  501    0  0.00000000000E+00  0.00000000000E+00 -0.21271581383E+04  0.21271581383E+04  0.25500000920E-02 0.  1.
    10030    2    1    2    0    0  0.00000000000E+00  0.00000000000E+00 -0.24713259236E+03  0.40071836842E+04  0.39995557954E+04 0.  0.
        3    1    3    3  502    0  0.25364971190E+03  0.26613081493E+03 -0.20930079471E+04  0.21250520144E+04  0.10100000352E+00 0.  1.
       -3    1    3    3    0  502 -0.25364971190E+03 -0.26613081493E+03  0.18458753547E+04  0.18821316698E+04  0.10100000352E+00 0. -1.
</event>
<event>
 5   0  0.6547327E-09  0.3999675E+04  0.7818609E-02  0.8004612E-01
        2   -1    0    0  501    0  0.00000000000E+00  0.00000000000E+00  0.14678047615E+04  0.14678047615E+04  0.25500000920E-02 0.  1.
       -2   -1    0    0    0  501  0.00000000000E+00  0.00000000000E+00 -0.27247159211E+04  0.27247159211E+04  0.25500000920E-02 0. -1.
    10030    2    1    2    0    0  0.00000000000E+00  0.00000000000E+00 -0.12569111596E+04  0.41925206826E+04  0.39996754882E+04 0.  0.
        5    1    3    3  502    0  0.60874110963E+03 -0.18596685331E+04 -0.10611490183E+04  0.22259811591E+04  0.46999998093E+01 0. -1.
       -5    1    3    3    0  502 -0.60874110963E+03  0.18596685331E+04 -0.19576214131E+03  0.19665395235E+04  0.46999998093E+01 0.  1.
</event>
<event>
 5   0  0.2078125E-09  0.4000170E+04  0.7818609E-02  0.8004512E-01
       -1   -1    0    0    0  501  0.00000000000E+00  0.00000000000E+00  0.16910879653E+04  0.16910879653E+04  0.50400001928E-02 0. -1.
        1   -1    0    0  501    0  0.00000000000E+00  0.00000000000E+00 -0.23655423079E+04  0.23655423079E+04  0.50400001928E-02 0.  1.
    10030    2    1    2    0    0  0.00000000000E+00  0.00000000000E+00 -0.67445434260E+03  0.40566302732E+04  0.40001700605E+04 0.  0.
        3    1    3    3  502    0  0.14841606413E+03 -0.25657488725E+03  0.16686907342E+04  0.16948117233E+04  0.10100000352E+00 0. -1.
       -3    1    3    3    0  502 -0.14841606413E+03  0.25657488725E+03 -0.23431450768E+04  0.23618185498E+04  0.10100000352E+00 0.  1.
</event>
<event>
 5   0  0.2078125E-09  0.3991548E+04  0.7818609E-02  0.8006254E-01
        1   -1    0    0  501    0  0.00000000000E+00  0.00000000000E+00  0.13142220376E+04  0.13142220376E+04  0.50400001928E-02 0.  1.
       -1   -1    0    0    0  501  0.00000000000E+00  0.00000000000E+00 -0.30307771308E+04  0.30307771308E+04  0.50400001928E-02 0. -1.
    10030    2    1    2    0    0  0.00000000000E+00  0.00000000000E+00 -0.17165550932E+04  0.43449991684E+04  0.39915481189E+04 0.  0.
        4    1    3    3  502    0  0.14496655072E+04 -0.97398743191E+03 -0.19096898712E+04  0.25878753095E+04  0.12699999809E+01 0. -1.
       -4    1    3    3    0  502 -0.14496655072E+04  0.97398743191E+03  0.19313477802E+03  0.17571238589E+04  0.12699999809E+01 0.  1.
</event>
<event>
 5   0  0.6538370E-09  0.3999070E+04  0.7818609E-02  0.8004734E-01
       -2   -1    0    0    0  501  0.00000000000E+00  0.00000000000E+00  0.18476458319E+04  0.18476458319E+04  0.25500000920E-02 0. -1.
        2   -1    0    0  501    0  0.00000000000E+00  0.00000000000E+00 -0.21639105512E+04  0.21639105512E+04  0.25500000920E-02 0.  1.
    10030    2    1    2    0    0  0.00000000000E+00  0.00000000000E+00 -0.31626471930E+03  0.40115563832E+04  0.39990700472E+04 0.  0.
        4    1    3    3  502    0  0.40991001139E+03 -0.25211700579E+03  0.17886873250E+04  0.18522940268E+04  0.12699999809E+01 0. -1.
       -4    1    3    3    0  502 -0.40991001139E+03  0.25211700579E+03 -0.21049520443E+04  0.21592623564E+04  0.12699999809E+01 0.  1.
</event>
<event>
 5   0  0.2078125E-09  0.3999338E+04  0.7818609E-02  0.8004680E-01
        1   -1    0    0  501    0  0.00000000000E+00  0.00000000000E+00  0.26740362108E+04  0.26740362108E+04  0.50400001928E-02 0. -1.
       -1   -1    0    0    0  501  0.00000000000E+00  0.00000000000E+00 -0.14953707153E+04  0.14953707153E+04  0.50400001928E-02 0.  1.
    10030    2    1    2    0    0  0.00000000000E+00  0.00000000000E+00  0.11786654955E+04  0.41694069262E+04  0.39993376659E+04 0.  0.
        3    1    3    3  502    0 -0.18721913551E+04 -0.59682031601E+03  0.97574306293E+03  0.21939392642E+04  0.10100000352E+00 0. -1.
       -3    1    3    3    0  502  0.18721913551E+04  0.59682031601E+03  0.20292243261E+03  0.19754676620E+04  0.10100000352E+00 0.  1.
</event>
<event>
 5   0  0.6547327E-09  0.4001432E+04  0.7818609E-02  0.8004258E-01
        2   -1    0    0  501    0  0.00000000000E+00  0.00000000000E+00  0.30584369328E+04  0.30584369328E+04  0.25500000920E-02 0.  1.
       -2   -1    0    0    0  501  0.00000000000E+00  0.00000000000E+00 -0.13087943004E+04  0.13087943004E+04  0.25500000920E-02 0. -1.
    10030    2    1    2    0    0  0.00000000000E+00  0.00000000000E+00  0.17496426324E+04  0.43672312332E+04  0.40014321566E+04 0.  0.
        5    1    3    3  502    0 -0.33621149495E+03  0.17723259923E+04  0.18191746899E+04  0.25619516457E+04  0.46999998093E+01 0.  1.
       -5    1    3    3    0  502  0.33621149495E+03 -0.17723259923E+04 -0.69532057582E+02  0.18052795876E+04  0.46999998093E+01 0. -1.
</event>
<event>
 5   0  0.6599276E-09  0.3998756E+04  0.7818609E-02  0.8004797E-01
       -2   -1    0    0    0  501  0.00000000000E+00  0.00000000000E+00  0.18883939314E+04  0.18883939314E+04  0.25500000920E-02 0.  1.
        2   -1    0    0  501    0  0.00000000000E+00  0.00000000000E+00 -0.21168852574E+04  0.21168852574E+04  0.25500000920E-02 0. -1.
    10030    2    1    2    0    0  0.00000000000E+00  0.00000000000E+00 -0.22849132604E+03  0.40052791888E+04  0.39987564434E+04 0.  0.
        2    1    3    3  502    0 -0.86897323865E+03 -0.15293347116E+04 -0.10663403043E+04  0.20569542518E+04  0.25500000920E-02 0. -1.
       -2    1    3    3    0  502  0.86897323865E+03  0.15293347116E+04  0.83784897828E+03  0.19483249369E+04  0.25500000920E-02 0.  1.
</event>
<event>
 5   0  0.6547327E-09  0.3990318E+04  0.7818609E-02  0.8006503E-01
       -2   -1    0    0    0  501  0.00000000000E+00  0.00000000000E+00  0.14787630684E+04  0.14787630684E+04  0.25500000920E-02 0. -1.
        2   -1    0    0  501    0  0.00000000000E+00  0.00000000000E+00 -0.26918840388E+04  0.26918840388E+04  0.25500000920E-02 0.  1.
    10030    2    1    2    0    0  0.00000000000E+00  0.00000000000E+00 -0.12131209704E+04  0.41706471071E+04  0.39903176319E+04 0.  0.
        5    1    3    3  502    0  0.17794831086E+04 -0.84856720200E+03 -0.28609340678E+03  0.19921089221E+04  0.46999998093E+01 0. -1.
       -5    1    3    3    0  502 -0.17794831086E+04  0.84856720200E+03 -0.92702756358E+03  0.21785381851E+04  0.46999998093E+01 0.  1.
</event>
<event>
 5   0  0.2078125E-09  0.3999030E+04  0.7818609E-02  0.8004742E-01
        1   -1    0    0  501    0  0.00000000000E+00  0.00000000000E+00  0.12417679976E+04  0.12417679976E+04  0.50400001928E-02 0. -1.
       -1   -1    0    0    0  501  0.00000000000E+00  0.00000000000E+00 -0.32196510211E+04  0.32196510211E+04  0.50400001928E-02 0.  1.
    10030    2    1    2    0    0  0.00000000000E+00  0.00000000000E+00 -0.19778830236E+04  0.44614190187E+04  0.39990296830E+04 0.  0.
        5    1    3    3  502    0 -0.97625195245E+03  0.57144866825E+03 -0.28283422224E+04  0.30461719046E+04  0.46999998093E+01 0.  1.
       -5    1    3    3    0  502  0.97625195245E+03 -0.57144866825E+03  0.85045919887E+03  0.14152471141E+04  0.46999998093E+01 0. -1.
</event>
<event>
 5   0  0.2078125E-09  0.4000334E+04  0.7818609E-02  0.8004479E-01
       -1   -1    0    0    0  501  0.00000000000E+00  0.00000000000E+00  0.15377497129E+04  0.15377497129E+04  0.50400001928E-02 0.  1.
        1   -1    0    0  501    0  0.00000000000E+00  0.00000000000E+00 -0.26016377836E+04  0.26016377836E+04  0.50400001928E-02 0. -1.
    10030    2    1    2    0    0  0.00000000000E+00  0.00000000000E+00 -0.10638880707E+04  0.41393874965E+04  0.40003338635E+04 0.  0.
        4    1    3    3  502    0 -0.60162143030E+03  0.20766032896E+03  0.14301744434E+04  0.15653982590E+04  0.12699999809E+01 0.  1.
       -4    1    3    3    0  502  0.60162143030E+03 -0.20766032896E+03 -0.24940625142E+04  0.25739892376E+04  0.12699999809E+01 0. -1.
</event>
<event>
 5   0  0.6645526E-09  0.4000351E+04  0.7818609E-02  0.8004476E-01
       -2   -1    0    0    0  501  0.00000000000E+00  0.00000000000E+00  0.18786847373E+04  0.18786847373E+04  0.25500000920E-02 0.  1.
        2   -1    0    0  501    0  0.00000000000E+00  0.00000000000E+00 -0.21295227229E+04  0.21295227229E+04  0.25500000920E-02 0. -1.
    10030    2    1    2    0    0  0.00000000000E+00  0.00000000000E+00 -0.25083798560E+03  0.40082074602E+04  0.40003509032E+04 0.  0.
        3    1    3    3  502    0  0.22021510620E+03  0.28399266095E+03 -0.20969101668E+04  0.21274817936E+04  0.10100000352E+00 0. -1.
       -3    1    3    3    0  502 -0.22021510620E+03 -0.28399266095E+03  0.18460721812E+04  0.18807256666E+04  0.10100000352E+00 0.  1.
</event>
<event>
 5   0  0.2078125E-09  0.4029033E+04  0.7818609E-02  0.7998715E-01
        1   -1    0    0  501    0  0.00000000000E+00  0.00000000000E+00  0.17214280314E+04  0.17214280315E+04  0.50400001928E-02 0.  1.
       -1   -1    0    0    0  501  0.00000000000E+00  0.00000000000E+00 -0.23575053831E+04  0.23575053831E+04  0.50400001928E-02 0. -1.
    10030    2    1    2    0    0  0.00000000000E+00  0.00000000000E+00 -0.63607735165E+03  0.40789334146E+04  0.40290325642E+04 0.  0.
        2    1    3    3  502    0 -0.11863695136E+04 -0.81583600165E+02  0.13281843220E+04  0.17827512726E+04  0.25500000920E-02 0.  1.
       -2    1    3    3    0  502  0.11863695136E+04  0.81583600165E+02 -0.19642616737E+04  0.22961821420E+04  0.25500000920E-02 0. -1.
</event>
<event>
 5   0  0.6538370E-09  0.4001223E+04  0.7818609E-02  0.8004300E-01
       -2   -1    0    0    0  501  0.00000000000E+00  0.00000000000E+00  0.22478710963E+04  0.22478710963E+04  0.25500000920E-02 0.  1.
        2   -1    0    0  501    0  0.00000000000E+00  0.00000000000E+00 -0.17805495400E+04  0.17805495400E+04  0.25500000920E-02 0. -1.
    10030    2    1    2    0    0  0.00000000000E+00  0.00000000000E+00  0.46732155628E+03  0.40284206363E+04  0.40012227364E+04 0.  0.
        4    1    3    3  502    0  0.11643539948E+04  0.54835055310E+03 -0.13084280486E+04  0.18353185351E+04  0.12699999809E+01 0. -1.
       -4    1    3    3    0  502 -0.11643539948E+04 -0.54835055310E+03  0.17757496048E+04  0.21931021012E+04  0.12699999809E+01 0.  1.
</event>
<event>
 5   0  0.2078125E-09  0.3997714E+04  0.7818609E-02  0.8005008E-01
       -1   -1    0    0    0  501  0.00000000000E+00  0.00000000000E+00  0.17597090969E+04  0.17597090969E+04  0.50400001928E-02 0. -1.
        1   -1    0    0  501    0  0.00000000000E+00  0.00000000000E+00 -0.22705061370E+04  0.22705061370E+04  0.50400001928E-02 0.  1.
    10030    2    1    2    0    0  0.00000000000E+00  0.00000000000E+00 -0.51079704012E+03  0.40302152338E+04  0.39977144989E+04 0.  0.
        4    1    3    3  502    0 -0.53125609396E+03  0.16835529629E+04  0.68969030177E+03  0.18953252865E+04  0.12699999809E+01 0. -1.
       -4    1    3    3    0  502  0.53125609396E+03 -0.16835529629E+04 -0.12004873419E+04  0.21348899474E+04  0.12699999809E+01 0.  1.
</event>
<event>
 5   0  0.2078125E-09  0.3986549E+04  0.7818609E-02  0.8007265E-01
       -1   -1    0    0    0  501  0.00000000000E+00  0.00000000000E+00  0.21647163809E+04  0.21647163809E+04  0.50400001928E-02 0.  1.
        1   -1    0    0  501    0  0.00000000000E+00  0.00000000000E+00 -0.18354107614E+04  0.18354107614E+04  0.50400001928E-02 0. -1.
    10030    2    1    2    0    0  0.00000000000E+00  0.00000000000E+00  0.32930561945E+03  0.40001271423E+04  0.39865492552E+04 0.  0.
        1    1    3    3  502    0  0.14979868437E+04  0.31152306073E+03 -0.11172478551E+04  0.18945326524E+04  0.50400001928E-02 0. -1.
       -1    1    3    3    0  502 -0.14979868437E+04 -0.31152306073E+03  0.14465534745E+04  0.21055944899E+04  0.50400001928E-02 0.  1.
</event>
<event>
 5   0  0.2078125E-09  0.3999867E+04  0.7818609E-02  0.8004573E-01
        1   -1    0    0  501    0  0.00000000000E+00  0.00000000000E+00  0.24824408909E+04  0.24824408909E+04  0.50400001928E-02 0.  1.
       -1   -1    0    0    0  501  0.00000000000E+00  0.00000000000E+00 -0.16112099788E+04  0.16112099788E+04  0.50400001928E-02 0. -1.
    10030    2    1    2    0    0  0.00000000000E+00  0.00000000000E+00  0.87123091209E+03  0.40936508696E+04  0.39998667653E+04 0.  0.
        5    1    3    3  502    0  0.10184129961E+04  0.10644435428E+03  0.21938053315E+04  0.24210120515E+04  0.46999998093E+01 0.  1.
       -5    1    3    3    0  502 -0.10184129961E+04 -0.10644435428E+03 -0.13225744194E+04  0.16726388181E+04  0.46999998093E+01 0. -1.
</event>
<event>
 5   0  0.2078125E-09  0.3998120E+04  0.7818609E-02  0.8004926E-01
       -1   -1    0    0    0  501  0.00000000000E+00  0.00000000000E+00  0.30344640457E+04  0.30344640457E+04  0.50400001928E-02 0.  1.
        1   -1    0    0  501    0  0.00000000000E+00  0.00000000000E+00 -0.13169512179E+04  0.13169512179E+04  0.50400001928E-02 0. -1.
    10030    2    1    2    0    0  0.00000000000E+00  0.00000000000E+00  0.17175128278E+04  0.43514152635E+04  0.39981201185E+04 0.  0.
        3    1    3    3  502    0  0.95291529206E+03 -0.15220878536E+04 -0.97174193550E+02  0.17983997948E+04  0.10100000352E+00 0. -1.
       -3    1    3    3    0  502 -0.95291529206E+03  0.15220878536E+04  0.18146870213E+04  0.25530154687E+04  0.10100000352E+00 0.  1.
</event>
<event>
 5   0  0.6599276E-09  0.4001249E+04  0.7818609E-02  0.8004295E-01
       -2   -1    0    0    0  501  0.00000000000E+00  0.00000000000E+00  0.14814064307E+04  0.14814064307E+04  0.25500000920E-02 0.  1.
        2   -1    0    0  501    0  0.00000000000E+00  0.00000000000E+00 -0.27018227227E+04  0.27018227227E+04  0.25500000920E-02 0. -1.
    10030    2    1    2    0    0  0.00000000000E+00  0.00000000000E+00 -0.12204162920E+04  0.41832291535E+04  0.40012485832E+04 0.  0.
        2    1    3    3  502    0 -0.39280875383E+03 -0.11850809484E+04  0.10241504500E+04  0.16148064019E+04  0.25500000920E-02 0.  1.
       -2    1    3    3    0  502  0.39280875383E+03  0.11850809484E+04 -0.22445667420E+04  0.25684227515E+04  0.25500000920E-02 0. -1.
</event>
<event>
 5   0  0.2078125E-09  0.3999436E+04  0.7818609E-02  0.8004660E-01
       -1   -1    0    0    0  501  0.00000000000E+00  0.00000000000E+00  0.25950775318E+04  0.25950775318E+04  0.50400001928E-02 0.  1.
        1   -1    0    0  501    0  0.00000000000E+00  0.00000000000E+00 -0.15409451795E+04  0.15409451795E+04  0.50400001928E-02 0. -1.
    10030    2    1    2    0    0  0.00000000000E+00  0.00000000000E+00  0.10541323522E+04  0.41360227113E+04  0.39994360668E+04 0.  0.
        4    1    3    3  502    0  0.44504602701E+03 -0.63266404768E+03 -0.13799665829E+04  0.15819731812E+04  0.12699999809E+01 0. -1.
       -4    1    3    3    0  502 -0.44504602701E+03  0.63266404768E+03  0.24340989351E+04  0.25540495301E+04  0.12699999809E+01 0.  1.
</event>
<event>
 5   0  0.6645526E-09  0.4000476E+04  0.7818609E-02  0.8004450E-01
        2   -1    0    0  501    0  0.00000000000E+00  0.00000000000E+00  0.26206229995E+04  0.26206229995E+04  0.25500000920E-02 0.  1.
       -2   -1    0    0    0  501  0.00000000000E+00  0.00000000000E+00 -0.15267181987E+04  0.15267181987E+04  0.25500000920E-02 0. -1.
    10030    2    1    2    0    0  0.00000000000E+00  0.00000000000E+00  0.10939048008E+04  0.41473411982E+04  0.40004763842E+04 0.  0.
        3    1    3    3  502    0 -0.33437506646E+03 -0.13431166346E+04  0.20439814564E+04  0.24685277360E+04  0.10100000352E+00 0.  1.
       -3    1    3    3    0  502  0.33437506646E+03  0.13431166346E+04 -0.95007665553E+03  0.16788134622E+04  0.10100000352E+00 0. -1.
</event>
<event>
 5   0  0.6538370E-09  0.4009284E+04  0.7818609E-02  0.8002676E-01
        2   -1    0    0  501    0  0.00000000000E+00  0.00000000000E+00  0.24177745042E+04  0.24177745042E+04  0.25500000920E-02 0.  1.
       -2   -1    0    0    0  501  0.00000000000E+00  0.00000000000E+00 -0.16621030052E+04  0.16621030052E+04  0.25500000920E-02 0. -1.
    10030    2    1    2    0    0  0.00000000000E+00  0.00000000000E+00  0.75567149906E+03  0.40798775094E+04  0.40092843597E+04 0.  0.
        4    1    3    3  502    0  0.10951073989E+02  0.52967605804E+03 -0.15895739185E+04  0.16755367819E+04  0.12699999809E+01 0. -1.
       -4    1    3    3    0  502 -0.10951073989E+02 -0.52967605804E+03  0.23452454175E+04  0.24043407275E+04  0.12699999809E+01 0.  1.
</event>
<event>
 5   0  0.2078125E-09  0.4000502E+04  0.7818609E-02  0.8004445E-01
        1   -1    0    0  501    0  0.00000000000E+00  0.00000000000E+00  0.25939372482E+04  0.25939372482E+04  0.50400001928E-02 0.  1.
       -1   -1    0    0    0  501  0.00000000000E+00  0.00000000000E+00 -0.15424446380E+04  0.15424446380E+04  0.50400001928E-02 0. -1.
    10030    2    1    2    0    0  0.00000000000E+00  0.00000000000E+00  0.10514926102E+04  0.41363818862E+04  0.40005022683E+04 0.  0.
        3    1    3    3  502    0  0.17052643629E+04 -0.71962840058E+03  0.13099347808E+04  0.22675362671E+04  0.10100000352E+00 0.  1.
       -3    1    3    3    0  502 -0.17052643629E+04  0.71962840058E+03 -0.25844217059E+03  0.18688456191E+04  0.10100000352E+00 0. -1.
</event>
<event>
 5   0  0.6547327E-09  0.4000485E+04  0.7818609E-02  0.8004449E-01
       -2   -1    0    0    0  501  0.00000000000E+00  0.00000000000E+00  0.16491727005E+04  0.16491727005E+04  0.25500000920E-02 0.  1.
        2   -1    0    0  501    0  0.00000000000E+00  0.00000000000E+00 -0.24260462239E+04  0.24260462239E+04  0.25500000920E-02 0. -1.
    10030    2    1    2    0    0  0.00000000000E+00  0.00000000000E+00 -0.77687352339E+03  0.40752189245E+04  0.40004845720E+04 0.  0.
        5    1    3    3  502    0 -0.96189940664E+03 -0.34583643413E+03  0.13630120546E+04  0.17037245254E+04  0.46999998093E+01 0.  1.
       -5    1    3    3    0  502  0.96189940664E+03  0.34583643413E+03 -0.21398855780E+04  0.23714943990E+04  0.46999998093E+01 0. -1.
</event>
<event>
 5   0  0.6736335E-09  0.3999685E+04  0.7818609E-02  0.8004610E-01
       -2   -1    0    0    0  501  0.00000000000E+00  0.00000000000E+00  0.17283256830E+04  0.17283256830E+04  0.25500000920E-02 0.  1.
        2   -1    0    0  501    0  0.00000000000E+00  0.00000000000E+00 -0.23140145443E+04  0.23140145443E+04  0.25500000920E-02 0. -1.
    10030    2    1    2    0    0  0.00000000000E+00  0.00000000000E+00 -0.58568886129E+03  0.40423402272E+04  0.39996853714E+04 0.  0.
        1    1    3    3  502    0  0.46486817955E+03 -0.25255388497E+03  0.16563197982E+04  0.17387585120E+04  0.50400001928E-02 0.  1.
       -1    1    3    3    0  502 -0.46486817955E+03  0.25255388497E+03 -0.22420086595E+04  0.23035817152E+04  0.50400001928E-02 0. -1.
</event>
<event>
 5   0  0.6645526E-09  0.3999713E+04  0.7818609E-02  0.8004604E-01
        2   -1    0    0  501    0  0.00000000000E+00  0.00000000000E+00  0.13117235132E+04  0.13117235132E+04  0.25500000920E-02 0. -1.
       -2   -1    0    0    0  501  0.00000000000E+00  0.00000000000E+00 -0.30489862024E+04  0.30489862024E+04  0.25500000920E-02 0.  1.
    10030    2    1    2    0    0  0.00000000000E+00  0.00000000000E+00 -0.17372626892E+04  0.43607097155E+04  0.39997134362E+04 0.  0.
        3    1    3    3  502    0 -0.15252842210E+04  0.99010394152E+03  0.38726652990E+02  0.18188725996E+04  0.10100000352E+00 0. -1.
       -3    1    3    3    0  502  0.15252842210E+04 -0.99010394152E+03 -0.17759893422E+04  0.25418371159E+04  0.10100000352E+00 0.  1.
</event>
<event>
 5   0  0.2078125E-09  0.4000567E+04  0.7818609E-02  0.8004432E-01
       -1   -1    0    0    0  501  0.00000000000E+00  0.00000000000E+00  0.16740492553E+04  0.16740492553E+04  0.50400001928E-02 0.  1.
        1   -1    0    0  501    0  0.00000000000E+00  0.00000000000E+00 -0.23900934831E+04  0.23900934831E+04  0.50400001928E-02 0. -1.
    10030    2    1    2    0    0  0.00000000000E+00  0.00000000000E+00 -0.71604422774E+03  0.40641427384E+04  0.40005670676E+04 0.  0.
        1    1    3    3  502    0 -0.16822935176E+04  0.87234671187E+03  0.29249287184E+03  0.19174598679E+04  0.50400001928E-02 0.  1.
       -1    1    3    3    0  502  0.16822935176E+04 -0.87234671187E+03 -0.10085370996E+04  0.21466828705E+04  0.50400001928E-02 0. -1.
</event>
<event>
 5   0  0.2078125E-09  0.4003171E+04  0.7818609E-02  0.8003907E-01
       -1   -1    0    0    0  501  0.00000000000E+00  0.00000000000E+00  0.15464513972E+04  0.15464513972E+04  0.50400001928E-02 0. -1.
        1   -1    0    0  501    0  0.00000000000E+00  0.00000000000E+00 -0.25906693463E+04  0.25906693463E+04  0.50400001928E-02 0.  1.
    10030    2    1    2    0    0  0.00000000000E+00  0.00000000000E+00 -0.10442179491E+04  0.41371207435E+04  0.40031708584E+04 0.  0.
        2    1    3    3  502    0 -0.91505708906E+03  0.10904694075E+04  0.93205953314E+03  0.17015251918E+04  0.25500000920E-02 0. -1.
       -2    1    3    3    0  502  0.91505708906E+03 -0.10904694075E+04 -0.19762774822E+04  0.24355955517E+04  0.25500000920E-02 0.  1.
</event>
<event>
 5   0  0.6736335E-09  0.3998700E+04  0.7818609E-02  0.8004809E-01
       -2   -1    0    0    0  501  0.00000000000E+00  0.00000000000E+00  0.21064500950E+04  0.21064500950E+04  0.25500000920E-02 0. -1.
        2   -1    0    0  501    0  0.00000000000E+00  0.00000000000E+00 -0.18976949288E+04  0.18976949288E+04  0.25500000920E-02 0.  1.
    10030    2    1    2    0    0  0.00000000000E+00  0.00000000000E+00  0.20875516617E+03  0.40041450238E+04  0.39986996202E+04 0.  0.
        1    1    3    3  502    0  0.93114417913E+03 -0.13954835386E+04 -0.98475971805E+03  0.19452905930E+04  0.50400001928E-02 0.  1.
       -1    1    3    3    0  502 -0.93114417913E+03  0.13954835386E+04  0.11935148842E+04  0.20588544309E+04  0.50400001928E-02 0. -1.
</event>
<event>
 5   0  0.6645526E-09  0.4001622E+04  0.7818609E-02  0.8004219E-01
       -2   -1    0    0    0  501  0.00000000000E+00  0.00000000000E+00  0.14920985827E+04  0.14920985827E+04  0.25500000920E-02 0. -1.
        2   -1    0    0  501    0  0.00000000000E+00  0.00000000000E+00 -0.26829630777E+04  0.26829630777E+04  0.25500000920E-02 0.  1.
    10030    2    1    2    0    0  0.00000000000E+00  0.00000000000E+00 -0.11908644949E+04  0.41750616604E+04  0.40016223739E+04 0.  0.
        3    1    3    3  502    0  0.66007425504E+03  0.38447116096E+03 -0.25248339433E+04  0.26378594632E+04  0.10100000352E+00 0.  1.
       -3    1    3    3    0  502 -0.66007425504E+03 -0.38447116096E+03  0.13339694484E+04  0.15372021973E+04  0.10100000352E+00 0. -1.
</event>
<event>
 5   0  0.2078125E-09  0.4002478E+04  0.7818609E-02  0.8004047E-01
       -1   -1    0    0    0  501  0.00000000000E+00  0.00000000000E+00  0.13838061774E+04  0.13838061774E+04  0.50400001928E-02 0.  1.
        1   -1    0    0  501    0  0.00000000000E+00  0.00000000000E+00 -0.28941609960E+04  0.28941609961E+04  0.50400001928E-02 0. -1.
    10030    2    1    2    0    0  0.00000000000E+00  0.00000000000E+00 -0.15103548187E+04  0.42779671734E+04  0.40024781647E+04 0.  0.
        5    1    3    3  502    0  0.74405491992E+03  0.11645065794E+04 -0.23023031841E+04  0.26852030349E+04  0.46999998093E+01 0. -1.
       -5    1    3    3    0  502 -0.74405491992E+03 -0.11645065794E+04  0.79194836543E+03  0.15927641385E+04  0.46999998093E+01 0.  1.
</event>
<event>
 5   0  0.6645526E-09  0.3996877E+04  0.7818609E-02  0.8005177E-01
        2   -1    0    0  501    0  0.00000000000E+00  0.00000000000E+00  0.23683430431E+04  0.23683430431E+04  0.25500000920E-02 0. -1.
       -2   -1    0    0    0  501  0.00000000000E+00  0.00000000000E+00 -0.16863082888E+04  0.16863082888E+04  0.25500000920E-02 0.  1.
    10030    2    1    2    0    0  0.00000000000E+00  0.00000000000E+00  0.68203475423E+03  0.40546513319E+04  0.39968770330E+04 0.  0.
        3    1    3    3  502    0  0.18892721350E+04  0.63486315243E+03  0.19276781675E+03  0.20023885396E+04  0.10100000352E+00 0.  1.
       -3    1    3    3    0  502 -0.18892721350E+04 -0.63486315243E+03  0.48926693748E+03  0.20522627923E+04  0.10100000352E+00 0. -1.
</event>
<event>
 5   0  0.2078125E-09  0.4000454E+04  0.7818609E-02  0.8004455E-01
        1   -1    0    0  501    0  0.00000000000E+00  0.00000000000E+00  0.14790480460E+04  0.14790480460E+04  0.50400001928E-02 0. -1.
       -1   -1    0    0    0  501  0.00000000000E+00  0.00000000000E+00 -0.27050561857E+04  0.27050561857E+04  0.50400001928E-02 0.  1.
    10030    2    1    2    0    0  0.00000000000E+00  0.00000000000E+00 -0.12260081397E+04  0.41841042317E+04  0.40004540071E+04 0.  0.
        4    1    3    3  502    0 -0.29865584080E+03  0.50874323515E+03  0.13859904212E+04  0.15063153890E+04  0.12699999809E+01 0. -1.
       -4    1    3    3    0  502  0.29865584080E+03 -0.50874323515E+03 -0.26119985610E+04  0.26777888427E+04  0.12699999809E+01 0.  1.
</event>
<event>
 5   0  0.2078125E-09  0.4004964E+04  0.7818609E-02  0.8003546E-01
       -1   -1    0    0    0  501  0.00000000000E+00  0.00000000000E+00  0.24228744342E+04  0.24228744342E+04  0.50400001928E-02 0. -1.
        1   -1    0    0  501    0  0.00000000000E+00  0.00000000000E+00 -0.16550318950E+04  0.16550318950E+04  0.50400001928E-02 0.  1.
    10030    2    1    2    0    0  0.00000000000E+00  0.00000000000E+00  0.76784253924E+03  0.40779063292E+04  0.40049641527E+04 0.  0.
        4    1    3    3  502    0  0.19325948712E+04  0.42311116297E+03  0.68461118512E+02  0.19795541240E+04  0.12699999809E+01 0.  1.
       -4    1    3    3    0  502 -0.19325948712E+04 -0.42311116297E+03  0.69938142073E+03  0.20983522052E+04  0.12699999809E+01 0. -1.
</event>
<event>
 5   0  0.6645526E-09  0.4000421E+04  0.7818609E-02  0.8004462E-01
        2   -1    0    0  501    0  0.00000000000E+00  0.00000000000E+00  0.24831220607E+04  0.24831220607E+04  0.25500000920E-02 0.  1.
       -2   -1    0    0    0  501  0.00000000000E+00  0.00000000000E+00 -0.16112142741E+04  0.16112142741E+04  0.25500000920E-02 0. -1.
    10030    2    1    2    0    0  0.00000000000E+00  0.00000000000E+00  0.87190778659E+03  0.40943363349E+04  0.40004208322E+04 0.  0.
        3    1    3    3  502    0 -0.29382614501E+03 -0.71295909552E+03  0.23248702642E+04  0.24494216115E+04  0.10100000352E+00 0.  1.
       -3    1    3    3    0  502  0.29382614501E+03  0.71295909552E+03 -0.14529624776E+04  0.16449147233E+04  0.10100000352E+00 0. -1.
</event>
<event>
 5   0  0.2078125E-09  0.3999683E+04  0.7818609E-02  0.8004611E-01
        1   -1    0    0  501    0  0.00000000000E+00  0.00000000000E+00  0.14369003027E+04  0.14369003027E+04  0.50400001928E-02 0.  1.
       -1   -1    0    0    0  501  0.00000000000E+00  0.00000000000E+00 -0.27833287834E+04  0.27833287834E+04  0.50400001928E-02 0. -1.
    10030    2    1    2    0    0  0.00000000000E+00  0.00000000000E+00 -0.13464284807E+04  0.42202290861E+04  0.39996829731E+04 0.  0.
        5    1    3    3  502    0  0.18731832491E+04  0.68393974734E+03 -0.51404939727E+03  0.20593343428E+04  0.46999998093E+01 0.  1.
       -5    1    3    3    0  502 -0.18731832491E+04 -0.68393974734E+03 -0.83237908348E+03  0.21608947432E+04  0.46999998093E+01 0. -1.
</event>
<event>
 5   0  0.2078125E-09  0.4008359E+04  0.7818609E-02  0.8002862E-01
       -1   -1    0    0    0  501  0.00000000000E+00  0.00000000000E+00  0.17108161673E+04  0.17108161673E+04  0.50400001928E-02 0. -1.
        1   -1    0    0  501    0  0.00000000000E+00  0.00000000000E+00 -0.23478472775E+04  0.23478472775E+04  0.50400001928E-02 0.  1.
    10030    2    1    2    0    0  0.00000000000E+00  0.00000000000E+00 -0.63703111014E+03  0.40586634448E+04  0.40083588066E+04 0.  0.
        1    1    3    3  502    0 -0.12548672032E+04 -0.39115875056E+03  0.12134287314E+04  0.17888840522E+04  0.50400001928E-02 0. -1.
       -1    1    3    3    0  502  0.12548672032E+04  0.39115875056E+03 -0.18504598416E+04  0.22697793926E+04  0.50400001928E-02 0.  1.
</event>
<event>
 5   0  0.2078125E-09  0.4000687E+04  0.7818609E-02  0.8004408E-01
       -1   -1    0    0    0  501  0.00000000000E+00  0.00000000000E+00  0.18514640591E+04  0.18514640591E+04  0.50400001928E-02 0. -1.
        1   -1    0    0  501    0  0.00000000000E+00  0.00000000000E+00 -0.21611950234E+04  0.21611950234E+04  0.50400001928E-02 0.  1.
    10030    2    1    2    0    0  0.00000000000E+00  0.00000000000E+00 -0.30973096432E+03  0.40126590825E+04  0.40006873962E+04 0.  0.
        4    1    3    3  502    0 -0.82437274444E+03 -0.61008631199E+03  0.15677072027E+04  0.18733668131E+04  0.12699999809E+01 0. -1.
       -4    1    3    3    0  502  0.82437274444E+03  0.61008631199E+03 -0.18774381671E+04  0.21392922694E+04  0.12699999809E+01 0.  1.
</event>
<event>
 5   0  0.6599276E-09  0.3997126E+04  0.7818609E-02  0.8005126E-01
       -2   -1    0    0    0  501  0.00000000000E+00  0.00000000000E+00  0.15477100814E+04  0.15477100814E+04  0.25500000920E-02 0. -1.
        2   -1    0    0  501    0  0.00000000000E+00  0.00000000000E+00 -0.25807513820E+04  0.25807513820E+04  0.25500000920E-02 0.  1.
    10030    2    1    2    0    0  0.00000000000E+00  0.00000000000E+00 -0.10330413006E+04  0.41284614633E+04  0.39971264335E+04 0.  0.
        2    1    3    3  502    0  0.15373127042E+04 -0.12208745576E+04 -0.90351825277E+03  0.21610669284E+04  0.25500000920E-02 0.  1.
       -2    1    3    3    0  502 -0.15373127042E+04  0.12208745576E+04 -0.12952304783E+03  0.19673945349E+04  0.25500000920E-02 0. -1.
</event>
<event>
 5   0  0.6599276E-09  0.4001038E+04  0.7818609E-02  0.8004337E-01
        2   -1    0    0  501    0  0.00000000000E+00  0.00000000000E+00  0.21629060713E+04  0.21629060713E+04  0.25500000920E-02 0.  1.
       -2   -1    0    0    0  501  0.00000000000E+00  0.00000000000E+00 -0.18503232797E+04  0.18503232797E+04  0.25500000920E-02 0. -1.
    10030    2    1    2    0    0  0.00000000000E+00  0.00000000000E+00  0.31258279160E+03  0.40132293509E+04  0.40010375931E+04 0.  0.
        2    1    3    3  502    0  0.11867361447E+04  0.49888964521E+02 -0.14583478029E+04  0.18808535031E+04  0.25500000920E-02 0. -1.
       -2    1    3    3    0  502 -0.11867361447E+04 -0.49888964521E+02  0.17709305945E+04  0.21323758478E+04  0.25500000920E-02 0.  1.
</event>
<event>
 5   0  0.6599276E-09  0.3996464E+04  0.7818609E-02  0.8005260E-01
        2   -1    0    0  501    0  0.00000000000E+00  0.00000000000E+00  0.29103398838E+04  0.29103398838E+04  0.25500000920E-02 0.  1.
       -2   -1    0    0    0  501  0.00000000000E+00  0.00000000000E+00 -0.13719811566E+04  0.13719811566E+04  0.25500000920E-02 0. -1.
    10030    2    1    2    0    0  0.00000000000E+00  0.00000000000E+00  0.15383587272E+04  0.42823210405E+04  0.39964641773E+04 0.  0.
        2    1    3    3  502    0  0.93128524161E+02  0.62352733449E+03 -0.12626220919E+04  0.14112667380E+04  0.25500000920E-02 0. -1.
       -2    1    3    3    0  502 -0.93128524161E+02 -0.62352733449E+03  0.28009808191E+04  0.28710543025E+04  0.25500000920E-02 0.  1.
</event>
<event>
 5   0  0.2078125E-09  0.4000240E+04  0.7818609E-02  0.8004498E-01
        1   -1    0    0  501    0  0.00000000000E+00  0.00000000000E+00  0.17221532213E+04  0.17221532213E+04  0.50400001928E-02 0. -1.
       -1   -1    0    0    0  501  0.00000000000E+00  0.00000000000E+00 -0.23229520079E+04  0.23229520079E+04  0.50400001928E-02 0.  1.
    10030    2    1    2    0    0  0.00000000000E+00  0.00000000000E+00 -0.60079878658E+03  0.40451052292E+04  0.40002396345E+04 0.  0.
        2    1    3    3  502    0 -0.15097431555E+04  0.11854526645E+04 -0.86871420840E+03  0.21069615068E+04  0.25500000920E-02 0.  1.
       -2    1    3    3    0  502  0.15097431555E+04 -0.11854526645E+04  0.26791542182E+03  0.19381437224E+04  0.25500000920E-02 0. -1.
</event>
<event>
 5   0  0.2078125E-09  0.4011597E+04  0.7818609E-02  0.8002211E-01
       -1   -1    0    0    0  501  0.00000000000E+00  0.00000000000E+00  0.14061192601E+04  0.14061192601E+04  0.50400001928E-02 0. -1.
        1   -1    0    0  501    0  0.00000000000E+00  0.00000000000E+00 -0.28612282306E+04  0.28612282306E+04  0.50400001928E-02 0.  1.
    10030    2    1    2    0    0  0.00000000000E+00  0.00000000000E+00 -0.14551089705E+04  0.42673474907E+04  0.40115972492E+04 0.  0.
        4    1    3    3  502    0  0.66603053022E+03  0.18823640860E+04 -0.52478387835E+03  0.20645316542E+04  0.12699999809E+01 0.  1.
       -4    1    3    3    0  502 -0.66603053022E+03 -0.18823640860E+04 -0.93032509218E+03  0.22028158365E+04  0.12699999809E+01 0. -1.
</event>
<event>
 5   0  0.2078125E-09  0.3999741E+04  0.7818609E-02  0.8004599E-01
        1   -1    0    0  501    0  0.00000000000E+00  0.00000000000E+00  0.15124894051E+04  0.15124894051E+04  0.50400001928E-02 0.  1.
       -1   -1    0    0    0  501  0.00000000000E+00  0.00000000000E+00 -0.26443041552E+04  0.26443041552E+04  0.50400001928E-02 0. -1.
    10030    2    1    2    0    0  0.00000000000E+00  0.00000000000E+00 -0.11318147501E+04  0.41567935603E+04  0.39997410009E+04 0.  0.
        3    1    3    3  502    0  0.80259540646E+03 -0.18197158171E+04 -0.34801579579E+03  0.20190691037E+04  0.10100000352E+00 0.  1.
       -3    1    3    3    0  502 -0.80259540646E+03  0.18197158171E+04 -0.78379895428E+03  0.21377244566E+04  0.10100000352E+00 0. -1.
</event>
<event>
 5   0  0.6547327E-09  0.3997637E+04  0.7818609E-02  0.8005023E-01
        2   -1    0    0  501    0  0.00000000000E+00  0.00000000000E+00  0.20191005038E+04  0.20191005038E+04  0.25500000920E-02 0. -1.
       -2   -1    0    0    0  501  0.00000000000E+00  0.00000000000E+00 -0.19787400090E+04  0.19787400090E+04  0.25500000920E-02 0.  1.
    10030    2    1    2    0    0  0.00000000000E+00  0.00000000000E+00  0.40360494784E+02  0.39978405128E+04  0.39976367764E+04 0.  0.
        5    1    3    3  502    0  0.16770225131E+04 -0.98754632950E+03 -0.43547505844E+03  0.19943201545E+04  0.46999998093E+01 0.  1.
       -5    1    3    3    0  502 -0.16770225131E+04  0.98754632950E+03  0.47583555323E+03  0.20035203583E+04  0.46999998093E+01 0. -1.
</event>
<event>
 5   0  0.2078125E-09  0.4006628E+04  0.7818609E-02  0.8003211E-01
        1   -1    0    0  501    0  0.00000000000E+00  0.00000000000E+00  0.23546524984E+04  0.23546524984E+04  0.50400001928E-02 0.  1.
       -1   -1    0    0    0  501  0.00000000000E+00  0.00000000000E+00 -0.17043991436E+04  0.17043991436E+04  0.50400001928E-02 0. -1.
    10030    2    1    2    0    0  0.00000000000E+00  0.00000000000E+00  0.65025335482E+03  0.40590516420E+04  0.40066283590E+04 0.  0.
        4    1    3    3  502    0  0.68558791714E+03  0.13960097935E+04 -0.95408690793E+03  0.18245979219E+04  0.12699999809E+01 0. -1.
       -4    1    3    3    0  502 -0.68558791714E+03 -0.13960097935E+04  0.16043402627E+04  0.22344537201E+04  0.12699999809E+01 0.  1.
</event>
<event>
 5   0  0.6547327E-09  0.3997657E+04  0.7818609E-02  0.8005019E-01
       -2   -1    0    0    0  501  0.00000000000E+00  0.00000000000E+00  0.18272074748E+04  0.18272074748E+04  0.25500000920E-02 0.  1.
        2   -1    0    0  501    0  0.00000000000E+00  0.00000000000E+00 -0.21865686394E+04  0.21865686394E+04  0.25500000920E-02 0. -1.
    10030    2    1    2    0    0  0.00000000000E+00  0.00000000000E+00 -0.35936116462E+03  0.40137761142E+04  0.39976565946E+04 0.  0.
        5    1    3    3  502    0  0.15251770368E+04 -0.73200119586E+03  0.88917845807E+03  0.19111910330E+04  0.46999998093E+01 0.  1.
       -5    1    3    3    0  502 -0.15251770368E+04  0.73200119586E+03 -0.12485396227E+04  0.21025850812E+04  0.46999998093E+01 0. -1.
</event>
<event>
 5   0  0.2078125E-09  0.3999785E+04  0.7818609E-02  0.8004590E-01
        1   -1    0    0  501    0  0.00000000000E+00  0.00000000000E+00  0.19510207708E+04  0.19510207708E+04  0.50400001928E-02 0. -1.
       -1   -1    0    0    0  501  0.00000000000E+00  0.00000000000E+00 -0.20499888749E+04  0.20499888749E+04  0.50400001928E-02 0.  1.
    10030    2    1    2    0    0  0.00000000000E+00  0.00000000000E+00 -0.98968104046E+02  0.40010096457E+04  0.39997854317E+04 0.  0.
        4    1    3    3  502    0 -0.10047556650E+04 -0.15927058749E+04 -0.72298301372E+03  0.20171643466E+04  0.12699999809E+01 0.  1.
       -4    1    3    3    0  502  0.10047556650E+04  0.15927058749E+04  0.62401490968E+03  0.19838452991E+04  0.12699999809E+01 0. -1.
</event>
<event>
 5   0  0.2078125E-09  0.3999387E+04  0.7818609E-02  0.8004670E-01
       -1   -1    0    0    0  501  0.00000000000E+00  0.00000000000E+00  0.33575902088E+04  0.33575902088E+04  0.50400001928E-02 0. -1.
        1   -1    0    0  501    0  0.00000000000E+00  0.00000000000E+00 -0.11909656743E+04  0.11909656743E+04  0.50400001928E-02 0.  1.
    10030    2    1    2    0    0  0.00000000000E+00  0.00000000000E+00  0.21666245346E+04  0.45485558831E+04  0.39993872966E+04 0.  0.
        3    1    3    3  502    0 -0.19565812191E+04  0.37954695784E+03  0.89814064801E+03  0.21860747000E+04  0.10100000352E+00 0. -1.
       -3    1    3    3    0  502  0.19565812191E+04 -0.37954695784E+03  0.12684838865E+04  0.23624811831E+04  0.10100000352E+00 0.  1.
</event>
<event>
 5   0  0.2078125E-09  0.4007669E+04  0.7818609E-02  0.8003001E-01
       -1   -1    0    0    0  501  0.00000000000E+00  0.00000000000E+00  0.25344012176E+04  0.25344012176E+04  0.50400001928E-02 0. -1.
        1   -1    0    0  501    0  0.00000000000E+00  0.00000000000E+00 -0.15843401510E+04  0.15843401510E+04  0.50400001928E-02 0.  1.
    10030    2    1    2    0    0  0.00000000000E+00  0.00000000000E+00  0.95006106665E+03  0.41187413687E+04  0.40076694514E+04 0.  0.
        3    1    3    3  502    0  0.72710179806E+03  0.10152176556E+04 -0.11355693569E+04  0.16878571289E+04  0.10100000352E+00 0.  1.
       -3    1    3    3    0  502 -0.72710179806E+03 -0.10152176556E+04  0.20856304236E+04  0.24308842397E+04  0.10100000352E+00 0. -1.
</event>
<event>
 5   0  0.6538370E-09  0.4000497E+04  0.7818609E-02  0.8004446E-01
        2   -1    0    0  501    0  0.00000000000E+00  0.00000000000E+00  0.19614147133E+04  0.19614147133E+04  0.25500000920E-02 0.  1.
       -2   -1    0    0    0  501  0.00000000000E+00  0.00000000000E+00 -0.20398512770E+04  0.20398512770E+04  0.25500000920E-02 0. -1.
    10030    2    1    2    0    0  0.00000000000E+00  0.00000000000E+00 -0.78436563707E+02  0.40012659904E+04  0.40004971230E+04 0.  0.
        4    1    3    3  502    0 -0.55775213442E+03  0.19304129025E+03 -0.19507737925E+04  0.20381050968E+04  0.12699999809E+01 0. -1.
       -4    1    3    3    0  502  0.55775213442E+03 -0.19304129025E+03  0.18723372287E+04  0.19631608936E+04  0.12699999809E+01 0.  1.
</event>
<event>
 5   0  0.6599276E-09  0.3997400E+04  0.7818609E-02  0.8005071E-01
       -2   -1    0    0    0  501  0.00000000000E+00  0.00000000000E+00  0.16553681841E+04  0.16553681841E+04  0.25500000920E-02 0. -1.
        2   -1    0    0  501    0  0.00000000000E+00  0.00000000000E+00 -0.24132407630E+04  0.24132407630E+04  0.25500000920E-02 0.  1.
    10030    2    1    2    0    0  0.00000000000E+00  0.00000000000E+00 -0.75787257893E+03  0.40686089471E+04  0.39974001449E+04 0.  0.
        2    1    3    3  502    0 -0.46721691587E+03 -0.17109802899E+04 -0.13167934384E+04  0.22090020730E+04  0.25500000920E-02 0.  1.
       -2    1    3    3    0  502  0.46721691587E+03  0.17109802899E+04  0.55892085947E+03  0.18596068741E+04  0.25500000920E-02 0. -1.
</event>
<event>
 5   0  0.2078125E-09  0.4004259E+04  0.7818609E-02  0.8003688E-01
       -1   -1    0    0    0  501  0.00000000000E+00  0.00000000000E+00  0.15867446996E+04  0.15867446997E+04  0.50400001928E-02 0. -1.
        1   -1    0    0  501    0  0.00000000000E+00  0.00000000000E+00 -0.25262555327E+04  0.25262555327E+04  0.50400001928E-02 0.  1.
    10030    2    1    2    0    0  0.00000000000E+00  0.00000000000E+00 -0.93951083307E+03  0.41130002324E+04  0.40042590209E+04 0.  0.
        3    1    3    3  502    0 -0.19502309751E+04  0.41606557460E+03 -0.28598009349E+03  0.20145212937E+04  0.10100000352E+00 0. -1.
       -3    1    3    3    0  502  0.19502309751E+04 -0.41606557460E+03 -0.65353073959E+03  0.20984789387E+04  0.10100000352E+00 0.  1.
</event>
<event>
 5   0  0.6645526E-09  0.4000386E+04  0.7818609E-02  0.8004469E-01
        2   -1    0    0  501    0  0.00000000000E+00  0.00000000000E+00  0.23601444633E+04  0.23601444633E+04  0.25500000920E-02 0.  1.
       -2   -1    0    0    0  501  0.00000000000E+00  0.00000000000E+00 -0.16951387003E+04  0.16951387003E+04  0.25500000920E-02 0. -1.
    10030    2    1    2    0    0  0.00000000000E+00  0.00000000000E+00  0.66500576302E+03  0.40552831636E+04  0.40003860904E+04 0.  0.
        3    1    3    3  502    0  0.12168650664E+04 -0.66111073840E+03  0.17955492650E+04  0.22675592984E+04  0.10100000352E+00 0.  1.
       -3    1    3    3    0  502 -0.12168650664E+04  0.66111073840E+03 -0.11305435020E+04  0.17877238653E+04  0.10100000352E+00 0. -1.
</event>
<event>
 5   0  0.2078125E-09  0.4003679E+04  0.7818609E-02  0.8003805E-01
        1   -1    0    0  501    0  0.00000000000E+00  0.00000000000E+00  0.33424196841E+04  0.33424196841E+04  0.50400001928E-02 0.  1.
       -1   -1    0    0    0  501  0.00000000000E+00  0.00000000000E+00 -0.11989402612E+04  0.11989402612E+04  0.50400001928E-02 0. -1.
    10030    2    1    2    0    0  0.00000000000E+00  0.00000000000E+00  0.21434794229E+04  0.45413599453E+04  0.40036790726E+04 0.  0.
        1    1    3    3  502    0  0.42877416581E+02 -0.57890320701E+03  0.32448562560E+04  0.32963706584E+04  0.50400001928E-02 0.  1.
       -1    1    3    3    0  502 -0.42877416581E+02  0.57890320701E+03 -0.11013768331E+04  0.12449892868E+04  0.50400001928E-02 0. -1.
</event>
<event>
 5   0  0.2078125E-09  0.4000861E+04  0.7818609E-02  0.8004373E-01
        1   -1    0    0  501    0  0.00000000000E+00  0.00000000000E+00  0.30330211972E+04  0.30330211972E+04  0.50400001928E-02 0. -1.
       -1   -1    0    0    0  501  0.00000000000E+00  0.00000000000E+00 -0.13193847284E+04  0.13193847284E+04  0.50400001928E-02 0.  1.
    10030    2    1    2    0    0  0.00000000000E+00  0.00000000000E+00  0.17136364688E+04  0.43524059256E+04  0.40008608316E+04 0.  0.
        4    1    3    3  502    0  0.73612002240E+03 -0.48015775722E+03 -0.10981057752E+04  0.14065070443E+04  0.12699999809E+01 0.  1.
       -4    1    3    3    0  502 -0.73612002240E+03  0.48015775722E+03  0.28117422440E+04  0.29458988813E+04  0.12699999809E+01 0. -1.
</event>
<event>
 5   0  0.2078125E-09  0.4000745E+04  0.7818609E-02  0.8004396E-01
        1   -1    0    0  501    0  0.00000000000E+00  0.00000000000E+00  0.22230149985E+04  0.22230149985E+04  0.50400001928E-02 0. -1.
       -1   -1    0    0    0  501  0.00000000000E+00  0.00000000000E+00 -0.18000284604E+04  0.18000284604E+04  0.50400001928E-02 0.  1.
    10030    2    1    2    0    0  0.00000000000E+00  0.00000000000E+00  0.42298653815E+03  0.40230434589E+04  0.40007450632E+04 0.  0.
        5    1    3    3  502    0 -0.65953626121E+03 -0.14607307170E+04 -0.99215176481E+03  0.18849693690E+04  0.46999998093E+01 0.  1.
       -5    1    3    3    0  502  0.65953626121E+03  0.14607307170E+04  0.14151383030E+04  0.21380740899E+04  0.46999998093E+01 0. -1.
</event>
<event>
 5   0  0.6645526E-09  0.3992094E+04  0.7818609E-02  0.8006143E-01
       -2   -1    0    0    0  501  0.00000000000E+00  0.00000000000E+00  0.22591534895E+04  0.22591534895E+04  0.25500000920E-02 0. -1.
        2   -1    0    0  501    0  0.00000000000E+00  0.00000000000E+00 -0.17635823570E+04  0.17635823570E+04  0.25500000920E-02 0.  1.
    10030    2    1    2    0    0  0.00000000000E+00  0.00000000000E+00  0.49557113249E+03  0.40227358465E+04  0.39920938044E+04 0.  0.
        3    1    3    3  502    0  0.18320277128E+04 -0.70682042976E+03 -0.11312915436E+03  0.19669059144E+04  0.10100000352E+00 0. -1.
       -3    1    3    3    0  502 -0.18320277128E+04  0.70682042976E+03  0.60870028685E+03  0.20558299321E+04  0.10100000352E+00 0.  1.
</event>
<event>
 5   0  0.2078125E-09  0.3989168E+04  0.7818609E-02  0.8006735E-01
       -1   -1    0    0    0  501  0.00000000000E+00  0.00000000000E+00  0.15963020221E+04  0.15963020221E+04  0.50400001928E-02 0. -1.
        1   -1    0    0  501    0  0.00000000000E+00  0.00000000000E+00 -0.24922387191E+04  0.24922387191E+04  0.50400001928E-02 0.  1.
    10030    2    1    2    0    0  0.00000000000E+00  0.00000000000E+00 -0.89593669695E+03  0.40885407412E+04  0.39891681875E+04 0.  0.
        1    1    3    3  502    0  0.16994994505E+04  0.44444325950E+03 -0.14162444704E+04  0.22564522138E+04  0.50400001928E-02 0.  1.
       -1    1    3    3    0  502 -0.16994994505E+04 -0.44444325950E+03  0.52030777347E+03  0.18320885274E+04  0.50400001928E-02 0. -1.
</event>
<event>
 5   0  0.6736335E-09  0.4010179E+04  0.7818609E-02  0.8002496E-01
        2   -1    0    0  501    0  0.00000000000E+00  0.00000000000E+00  0.26325264200E+04  0.26325264200E+04  0.25500000920E-02 0.  1.
       -2   -1    0    0    0  501  0.00000000000E+00  0.00000000000E+00 -0.15271958739E+04  0.15271958739E+04  0.25500000920E-02 0. -1.
    10030    2    1    2    0    0  0.00000000000E+00  0.00000000000E+00  0.11053305461E+04  0.41597222939E+04  0.40101787923E+04 0.  0.
        1    1    3    3  502    0  0.10547860132E+04  0.28236460501E+03 -0.11917362660E+04  0.16163349379E+04  0.50400001928E-02 0. -1.
       -1    1    3    3    0  502 -0.10547860132E+04 -0.28236460501E+03  0.22970668120E+04  0.25433873560E+04  0.50400001928E-02 0.  1.
</event>
<event>
 5   0  0.2078125E-09  0.3999618E+04  0.7818609E-02  0.8004624E-01
       -1   -1    0    0    0  501  0.00000000000E+00  0.00000000000E+00  0.18750175558E+04  0.18750175558E+04  0.50400001928E-02 0.  1.
        1   -1    0    0  501    0  0.00000000000E+00  0.00000000000E+00 -0.21329060673E+04  0.21329060673E+04  0.50400001928E-02 0. -1.
    10030    2    1    2    0    0  0.00000000000E+00  0.00000000000E+00 -0.25788851152E+03  0.40079236231E+04  0.39996181423E+04 0.  0.
        4    1    3    3  502    0 -0.13229700978E+04  0.94403274655E+03 -0.12966051364E+04  0.20790945623E+04  0.12699999809E+01 0. -1.
       -4    1    3    3    0  502  0.13229700978E+04 -0.94403274655E+03  0.10387166249E+04  0.19288290608E+04  0.12699999809E+01 0.  1.
</event>
<event>
 5   0  0.2078125E-09  0.4000623E+04  0.7818609E-02  0.8004421E-01
       -1   -1    0    0    0  501  0.00000000000E+00  0.00000000000E+00  0.25226144202E+04  0.25226144202E+04  0.50400001928E-02 0.  1.
        1   -1    0    0  501    0  0.00000000000E+00  0.00000000000E+00 -0.15861501149E+04  0.15861501149E+04  0.50400001928E-02 0. -1.
    10030    2    1    2    0    0  0.00000000000E+00  0.00000000000E+00  0.93646430535E+03  0.41087645351E+04  0.40006225278E+04 0.  0.
        5    1    3    3  502    0 -0.11192641834E+04  0.16572803056E+04  0.42355052385E+03  0.20441984884E+04  0.46999998093E+01 0. -1.
       -5    1    3    3    0  502  0.11192641834E+04 -0.16572803056E+04  0.51291378150E+03  0.20645660467E+04  0.46999998093E+01 0.  1.
</event>
<event>
 5   0  0.2078125E-09  0.4000029E+04  0.7818609E-02  0.8004541E-01
        1   -1    0    0  501    0  0.00000000000E+00  0.00000000000E+00  0.25494639598E+04  0.25494639598E+04  0.50400001928E-02 0.  1.
       -1   -1    0    0    0  501  0.00000000000E+00  0.00000000000E+00 -0.15689799987E+04  0.15689799987E+04  0.50400001928E-02 0. -1.
    10030    2    1    2    0    0  0.00000000000E+00  0.00000000000E+00  0.98048396116E+03  0.41184439585E+04  0.40000289800E+04 0.  0.
        2    1    3    3  502    0 -0.18233191903E+04  0.27889008493E+03  0.12862962554E+04  0.22487397817E+04  0.25500000920E-02 0.  1.
       -2    1    3    3    0  502  0.18233191903E+04 -0.27889008493E+03 -0.30581229425E+03  0.18697041768E+04  0.25500000920E-02 0. -1.
</event>
<event>
 5   0  0.2078125E-09  0.4000275E+04  0.7818609E-02  0.8004491E-01
       -1   -1    0    0    0  501  0.00000000000E+00  0.00000000000E+00  0.21700829864E+04  0.21700829864E+04  0.50400001928E-02 0.  1.
        1   -1    0    0  501    0  0.00000000000E+00  0.00000000000E+00 -0.18435008540E+04  0.18435008540E+04  0.50400001928E-02 0. -1.
    10030    2    1    2    0    0  0.00000000000E+00  0.00000000000E+00  0.32658213240E+03  0.40135838404E+04  0.40002749099E+04 0.  0.
        4    1    3    3  502    0  0.16170997449E+04  0.55291384423E+02  0.13429918062E+04  0.21027832334E+04  0.12699999809E+01 0.  1.
       -4    1    3    3    0  502 -0.16170997449E+04 -0.55291384423E+02 -0.10164096738E+04  0.19108006071E+04  0.12699999809E+01 0. -1.
</event>
<event>
 5   0  0.2078125E-09  0.4000002E+04  0.7818609E-02  0.8004546E-01
        1   -1    0    0  501    0  0.00000000000E+00  0.00000000000E+00  0.17132095410E+04  0.17132095410E+04  0.50400001928E-02 0.  1.
       -1   -1    0    0    0  501  0.00000000000E+00  0.00000000000E+00 -0.23348019141E+04  0.23348019141E+04  0.50400001928E-02 0. -1.
    10030    2    1    2    0    0  0.00000000000E+00  0.00000000000E+00 -0.62159237307E+03  0.40480114552E+04  0.40000024579E+04 0.  0.
        5    1    3    3  502    0 -0.78934247798E+02 -0.19907095334E+04 -0.13311048310E+03  0.19967212005E+04  0.46999998093E+01 0. -1.
       -5    1    3    3    0  502  0.78934247798E+02  0.19907095334E+04 -0.48848188996E+03  0.20512902546E+04  0.46999998093E+01 0.  1.
</event>
<event>
 5   0  0.6599276E-09  0.3998975E+04  0.7818609E-02  0.8004753E-01
       -2   -1    0    0    0  501  0.00000000000E+00  0.00000000000E+00  0.22718037279E+04  0.22718037279E+04  0.25500000920E-02 0. -1.
        2   -1    0    0  501    0  0.00000000000E+00  0.00000000000E+00 -0.17598134129E+04  0.17598134129E+04  0.25500000920E-02 0.  1.
    10030    2    1    2    0    0  0.00000000000E+00  0.00000000000E+00  0.51199031498E+03  0.40316171409E+04  0.39989752047E+04 0.  0.
        2    1    3    3  502    0  0.23868586135E+03 -0.16608290530E+04  0.13523582091E+04  0.21550398626E+04  0.25500000920E-02 0. -1.
       -2    1    3    3    0  502 -0.23868586135E+03  0.16608290530E+04 -0.84036789417E+03  0.18765772782E+04  0.25500000920E-02 0.  1.
</event>
<event>
 5   0  0.2078125E-09  0.3995250E+04  0.7818609E-02  0.8005505E-01
        1   -1    0    0  501    0  0.00000000000E+00  0.00000000000E+00  0.19062964577E+04  0.19062964577E+04  0.50400001928E-02 0.  1.
       -1   -1    0    0    0  501  0.00000000000E+00  0.00000000000E+00 -0.20933288551E+04  0.20933288552E+04  0.50400001928E-02 0. -1.
    10030    2    1    2    0    0  0.00000000000E+00  0.00000000000E+00 -0.18703239743E+03  0.39996253129E+04  0.39952498702E+04 0.  0.
        1    1    3    3  502    0  0.39005800111E+03  0.18113056773E+04  0.65398211148E+03  0.19648577819E+04  0.50400001928E-02 0. -1.
       -1    1    3    3    0  502 -0.39005800111E+03 -0.18113056773E+04 -0.84101450891E+03  0.20347675310E+04  0.50400001928E-02 0.  1.
</event>
<event>
 5   0  0.2078125E-09  0.3999424E+04  0.7818609E-02  0.8004663E-01
        1   -1    0    0  501    0  0.00000000000E+00  0.00000000000E+00  0.24450064861E+04  0.24450064861E+04  0.50400001928E-02 0.  1.
       -1   -1    0    0    0  501  0.00000000000E+00  0.00000000000E+00 -0.16355167544E+04  0.16355167545E+04  0.50400001928E-02 0. -1.
    10030    2    1    2    0    0  0.00000000000E+00  0.00000000000E+00  0.80948973165E+03  0.40805232406E+04  0.39994244950E+04 0.  0.
        1    1    3    3  502    0 -0.12966592140E+04 -0.14555182474E+04  0.85987398230E+03  0.21305496360E+04  0.50400001928E-02 0. -1.
       -1    1    3    3    0  502  0.12966592140E+04  0.14555182474E+04 -0.50384250651E+02  0.19499736046E+04  0.50400001928E-02 0.  1.
</event>
<event>
 5   0  0.2078125E-09  0.3989705E+04  0.7818609E-02  0.8006627E-01
        1   -1    0    0  501    0  0.00000000000E+00  0.00000000000E+00  0.21419687378E+04  0.21419687378E+04  0.50400001928E-02 0. -1.
       -1   -1    0    0    0  501  0.00000000000E+00  0.00000000000E+00 -0.18578401595E+04  0.18578401595E+04  0.50400001928E-02 0.  1.
    10030    2    1    2    0    0  0.00000000000E+00  0.00000000000E+00  0.28412857836E+03  0.39998088973E+04  0.39897045211E+04 0.  0.
        3    1    3    3  502    0  0.55217298162E+03  0.16087817686E+04 -0.90286220859E+03  0.19256775323E+04  0.10100000352E+00 0.  1.
       -3    1    3    3    0  502 -0.55217298162E+03 -0.16087817686E+04  0.11869907869E+04  0.20741313650E+04  0.10100000352E+00 0. -1.
</event>
<event>
 5   0  0.6538370E-09  0.3999354E+04  0.7818609E-02  0.8004677E-01
       -2   -1    0    0    0  501  0.00000000000E+00  0.00000000000E+00  0.28750543024E+04  0.28750543024E+04  0.25500000920E-02 0.  1.
        2   -1    0    0  501    0  0.00000000000E+00  0.00000000000E+00 -0.13908283786E+04  0.13908283786E+04  0.25500000920E-02 0. -1.
    10030    2    1    2    0    0  0.00000000000E+00  0.00000000000E+00  0.14842259237E+04  0.42658826810E+04  0.39993535047E+04 0.  0.
        4    1    3    3  502    0 -0.16078750099E+04 -0.27817677505E+03 -0.49079960594E+03  0.17039748331E+04  0.12699999809E+01 0. -1.
       -4    1    3    3    0  502  0.16078750099E+04  0.27817677505E+03  0.19750255297E+04  0.25619078480E+04  0.12699999809E+01 0.  1.
</event>
<event>
 5   0  0.2078125E-09  0.4001835E+04  0.7818609E-02  0.8004176E-01
       -1   -1    0    0    0  501  0.00000000000E+00  0.00000000000E+00  0.25277762282E+04  0.25277762282E+04  0.50400001928E-02 0.  1.
        1   -1    0    0  501    0  0.00000000000E+00  0.00000000000E+00 -0.15838710729E+04  0.15838710729E+04  0.50400001928E-02 0. -1.
    10030    2    1    2    0    0  0.00000000000E+00  0.00000000000E+00  0.94390515535E+03  0.41116473012E+04  0.40018354023E+04 0.  0.
        3    1    3    3  502    0 -0.12028581878E+03 -0.52533250924E+03  0.24518034613E+04  0.25103352657E+04  0.10100000352E+00 0.  1.
       -3    1    3    3    0  502  0.12028581878E+03  0.52533250924E+03 -0.15078983059E+04  0.16013120354E+04  0.10100000352E+00 0. -1.
</event>
<event>
 5   0  0.6538370E-09  0.4001616E+04  0.7818609E-02  0.8004221E-01
       -2   -1    0    0    0  501  0.00000000000E+00  0.00000000000E+00  0.14670255792E+04  0.14670255792E+04  0.25500000920E-02 0.  1.
        2   -1    0    0  501    0  0.00000000000E+00  0.00000000000E+00 -0.27288085344E+04  0.27288085344E+04  0.25500000920E-02 0. -1.
    10030    2    1    2    0    0  0.00000000000E+00  0.00000000000E+00 -0.12617829552E+04  0.41958341136E+04  0.40016156340E+04 0.  0.
        4    1    3    3  502    0 -0.12304463617E+04 -0.43847072499E+03 -0.22200276680E+04  0.25758065310E+04  0.12699999809E+01 0. -1.
       -4    1    3    3    0  502  0.12304463617E+04  0.43847072499E+03  0.95824471279E+03  0.16200275825E+04  0.12699999809E+01 0.  1.
</event>
<event>
 5   0  0.6645526E-09  0.4000692E+04  0.7818609E-02  0.8004407E-01
        2   -1    0    0  501    0  0.00000000000E+00  0.00000000000E+00  0.26672677628E+04  0.26672677628E+04  0.25500000920E-02 0.  1.
       -2   -1    0    0    0  501  0.00000000000E+00  0.00000000000E+00 -0.15001811782E+04  0.15001811782E+04  0.25500000920E-02 0. -1.
    10030    2    1    2    0    0  0.00000000000E+00  0.00000000000E+00  0.11670865846E+04  0.41674489409E+04  0.40006923875E+04 0.  0.
        3    1    3    3  502    0 -0.82753668886E+03 -0.16233781837E+04  0.14433008717E+04  0.23244980351E+04  0.10100000352E+00 0.  1.
       -3    1    3    3    0  502  0.82753668886E+03  0.16233781837E+04 -0.27621428714E+03  0.18429509058E+04  0.10100000352E+00 0. -1.
</event>
<event>
 5   0  0.6736335E-09  0.3999500E+04  0.7818609E-02  0.8004647E-01
       -2   -1    0    0    0  501  0.00000000000E+00  0.00000000000E+00  0.13332917992E+04  0.13332917992E+04  0.25500000920E-02 0.  1.
        2   -1    0    0  501    0  0.00000000000E+00  0.00000000000E+00 -0.29993441574E+04  0.29993441574E+04  0.25500000920E-02 0. -1.
    10030    2    1    2    0    0  0.00000000000E+00  0.00000000000E+00 -0.16660523582E+04  0.43326359566E+04  0.39995004528E+04 0.  0.
        1    1    3    3  502    0  0.10215335896E+04  0.10612420952E+04  0.63212094571E+03  0.16029168879E+04  0.50400001928E-02 0.  1.
       -1    1    3    3    0  502 -0.10215335896E+04 -0.10612420952E+04 -0.22981733039E+04  0.27297190687E+04  0.50400001928E-02 0. -1.
</event>
<event>
 5   0  0.6538370E-09  0.3999106E+04  0.7818609E-02  0.8004727E-01
        2   -1    0    0  501    0  0.00000000000E+00  0.00000000000E+00  0.22996364051E+04  0.22996364051E+04  0.25500000920E-02 0. -1.
       -2   -1    0    0    0  501  0.00000000000E+00  0.00000000000E+00 -0.17386280589E+04  0.17386280589E+04  0.25500000920E-02 0.  1.
    10030    2    1    2    0    0  0.00000000000E+00  0.00000000000E+00  0.56100834617E+03  0.40382644640E+04  0.39991060897E+04 0.  0.
        4    1    3    3  502    0  0.95102448235E+03 -0.28203253498E+03 -0.14726470000E+04  0.17755789806E+04  0.12699999809E+01 0.  1.
       -4    1    3    3    0  502 -0.95102448235E+03  0.28203253498E+03  0.20336553462E+04  0.22626854834E+04  0.12699999809E+01 0. -1.
</event>
<event>
 5   0  0.2078125E-09  0.4001524E+04  0.7818609E-02  0.8004239E-01
       -1   -1    0    0    0  501  0.00000000000E+00  0.00000000000E+00  0.14510125913E+04  0.14510125913E+04  0.50400001928E-02 0. -1.
        1   -1    0    0  501    0  0.00000000000E+00  0.00000000000E+00 -0.27587967840E+04  0.27587967840E+04  0.50400001928E-02 0.  1.
    10030    2    1    2    0    0  0.00000000000E+00  0.00000000000E+00 -0.13077841926E+04  0.42098093753E+04  0.40015241449E+04 0.  0.
        3    1    3    3  502    0 -0.92104030071E+03  0.75632046744E+03 -0.23446252211E+04  0.26301337081E+04  0.10100000352E+00 0.  1.
       -3    1    3    3    0  502  0.92104030071E+03 -0.75632046744E+03  0.10368410285E+04  0.15796756672E+04  0.10100000352E+00 0. -1.
</event>
<event>
 5   0  0.6645526E-09  0.4000765E+04  0.7818609E-02  0.8004392E-01
        2   -1    0    0  501    0  0.00000000000E+00  0.00000000000E+00  0.21048211870E+04  0.21048211870E+04  0.25500000920E-02 0. -1.
       -2   -1    0    0    0  501  0.00000000000E+00  0.00000000000E+00 -0.19011261306E+04  0.19011261306E+04  0.25500000920E-02 0.  1.
    10030    2    1    2    0    0  0.00000000000E+00  0.00000000000E+00  0.20369505641E+03  0.40059473176E+04  0.40007652062E+04 0.  0.
        3    1    3    3  502    0  0.19561111290E+04  0.33529488953E+03 -0.14895072984E+03  0.19902210285E+04  0.10100000352E+00 0. -1.
       -3    1    3    3    0  502 -0.19561111290E+04 -0.33529488953E+03  0.35264578625E+03  0.20157262891E+04  0.10100000352E+00 0.  1.
</event>
<event>
 5   0  0.2078125E-09  0.4000437E+04  0.7818609E-02  0.8004458E-01
        1   -1    0    0  501    0  0.00000000000E+00  0.00000000000E+00  0.14520000464E+04  0.14520000464E+04  0.50400001928E-02 0. -1.
       -1   -1    0    0    0  501  0.00000000000E+00  0.00000000000E+00 -0.27554233994E+04  0.27554233994E+04  0.50400001928E-02 0.  1.
    10030    2    1    2    0    0  0.00000000000E+00  0.00000000000E+00 -0.13034233530E+04  0.42074234458E+04  0.40004374280E+04 0.  0.
        3    1    3    3  502    0 -0.14168940175E+04  0.63954656046E+02  0.83165163648E+03  0.16441786124E+04  0.10100000352E+00 0. -1.
       -3    1    3    3    0  502  0.14168940175E+04 -0.63954656046E+02 -0.21350749895E+04  0.25632448334E+04  0.10100000352E+00 0.  1.
</event>
<event>
 5   0  0.6538370E-09  0.3995992E+04  0.7818609E-02  0.8005356E-01
       -2   -1    0    0    0  501  0.00000000000E+00  0.00000000000E+00  0.25170661074E+04  0.25170661074E+04  0.25500000920E-02 0. -1.
        2   -1    0    0  501    0  0.00000000000E+00  0.00000000000E+00 -0.15859684654E+04  0.15859684654E+04  0.25500000920E-02 0.  1.
    10030    2    1    2    0    0  0.00000000000E+00  0.00000000000E+00  0.93109764200E+03  0.41030345728E+04  0.39959917276E+04 0.  0.
        4    1    3    3  502    0  0.24778864047E+03  0.43488975611E+03 -0.15205507011E+04  0.16008136550E+04  0.12699999809E+01 0.  1.
       -4    1    3    3    0  502 -0.24778864047E+03 -0.43488975611E+03  0.24516483431E+04  0.25022209178E+04  0.12699999809E+01 0. -1.
</event>
<event>
 5   0  0.6599276E-09  0.4001365E+04  0.7818609E-02  0.8004271E-01
       -2   -1    0    0    0  501  0.00000000000E+00  0.00000000000E+00  0.17227143734E+04  0.17227143734E+04  0.25500000920E-02 0.  1.
        2   -1    0    0  501    0  0.00000000000E+00  0.00000000000E+00 -0.23235015798E+04  0.23235015798E+04  0.25500000920E-02 0. -1.
    10030    2    1    2    0    0  0.00000000000E+00  0.00000000000E+00 -0.60078720641E+03  0.40462159532E+04  0.40013645513E+04 0.  0.
        2    1    3    3  502    0 -0.35843971518E+03 -0.18072579408E+04 -0.10889222347E+04  0.21401896942E+04  0.25500000920E-02 0. -1.
       -2    1    3    3    0  502  0.35843971518E+03  0.18072579408E+04  0.48813502826E+03  0.19060262590E+04  0.25500000920E-02 0.  1.
</event>
<event>
 5   0  0.6736335E-09  0.3997243E+04  0.7818609E-02  0.8005103E-01
       -2   -1    0    0    0  501  0.00000000000E+00  0.00000000000E+00  0.25730891468E+04  0.25730891468E+04  0.25500000920E-02 0.  1.
        2   -1    0    0  501    0  0.00000000000E+00  0.00000000000E+00 -0.15524092462E+04  0.15524092462E+04  0.25500000920E-02 0. -1.
    10030    2    1    2    0    0  0.00000000000E+00  0.00000000000E+00  0.10206799006E+04  0.41254983931E+04  0.39972427412E+04 0.  0.
        1    1    3    3  502    0 -0.13275419522E+04 -0.11842180218E+04 -0.42979209532E+03  0.18301533278E+04  0.50400001928E-02 0. -1.
       -1    1    3    3    0  502  0.13275419522E+04  0.11842180218E+04  0.14504719959E+04  0.22953450653E+04  0.50400001928E-02 0.  1.
</event>
<event>
 5   0  0.6645526E-09  0.3999268E+04  0.7818609E-02  0.8004694E-01
        2   -1    0    0  501    0  0.00000000000E+00  0.00000000000E+00  0.23809360493E+04  0.23809360493E+04  0.25500000920E-02 0. -1.
       -2   -1    0    0    0  501  0.00000000000E+00  0.00000000000E+00 -0.16793963898E+04  0.16793963898E+04  0.25500000920E-02 0.  1.
    10030    2    1    2    0    0  0.00000000000E+00  0.00000000000E+00  0.70153965943E+03  0.40603324391E+04  0.39992676358E+04 0.  0.
        3    1    3    3  502    0 -0.85659310844E+03  0.17505347663E+04 -0.10373932176E+03  0.19516366410E+04  0.10100000352E+00 0.  1.
       -3    1    3    3    0  502  0.85659310844E+03 -0.17505347663E+04  0.80527898119E+03  0.21086957981E+04  0.10100000352E+00 0. -1.
</event>
<event>
 5   0  0.6599276E-09  0.3999936E+04  0.7818609E-02  0.8004560E-01
        2   -1    0    0  501    0  0.00000000000E+00  0.00000000000E+00  0.15981417577E+04  0.15981417577E+04  0.25500000920E-02 0.  1.
       -2   -1    0    0    0  501  0.00000000000E+00  0.00000000000E+00 -0.25028263125E+04  0.25028263125E+04  0.25500000920E-02 0. -1.
    10030    2    1    2    0    0  0.00000000000E+00  0.00000000000E+00 -0.90468455477E+03  0.41009680702E+04  0.39999356206E+04 0.  0.
        2    1    3    3  502    0 -0.13949620373E+04 -0.26836727100E+03 -0.18957122625E+04  0.23688953248E+04  0.25500000920E-02 0. -1.
       -2    1    3    3    0  502  0.13949620373E+04  0.26836727100E+03  0.99102770775E+03  0.17320727453E+04  0.25500000920E-02 0.  1.
</event>
<event>
 5   0  0.2078125E-09  0.3971972E+04  0.7818609E-02  0.8010225E-01
       -1   -1    0    0    0  501  0.00000000000E+00  0.00000000000E+00  0.11460913545E+04  0.11460913545E+04  0.50400001928E-02 0.  1.
        1   -1    0    0  501    0  0.00000000000E+00  0.00000000000E+00 -0.34413839787E+04  0.34413839787E+04  0.50400001928E-02 0. -1.
    10030    2    1    2    0    0  0.00000000000E+00  0.00000000000E+00 -0.22952926241E+04  0.45874753332E+04  0.39719720168E+04 0.  0.
        2    1    3    3  502    0  0.59354954757E+03 -0.44482416522E+03 -0.32754012845E+04  0.33583363706E+04  0.25500000920E-02 0. -1.
       -2    1    3    3    0  502 -0.59354954757E+03  0.44482416522E+03  0.98010866036E+03  0.12291389627E+04  0.25500000920E-02 0.  1.
</event>
<event>
 5   0  0.2078125E-09  0.4001479E+04  0.7818609E-02  0.8004248E-01
       -1   -1    0    0    0  501  0.00000000000E+00  0.00000000000E+00  0.13321379110E+04  0.13321379110E+04  0.50400001928E-02 0. -1.
        1   -1    0    0  501    0  0.00000000000E+00  0.00000000000E+00 -0.30049136933E+04  0.30049136933E+04  0.50400001928E-02 0.  1.
    10030    2    1    2    0    0  0.00000000000E+00  0.00000000000E+00 -0.16727757822E+04  0.43370516043E+04  0.40014794515E+04 0.  0.
        2    1    3    3  502    0 -0.15187144413E+04 -0.62779842225E+03 -0.20732900881E+04  0.26455918435E+04  0.25500000920E-02 0.  1.
       -2    1    3    3    0  502  0.15187144413E+04  0.62779842225E+03  0.40051430581E+03  0.16914597608E+04  0.25500000920E-02 0. -1.
</event>
<event>
 5   0  0.2078125E-09  0.4001142E+04  0.7818609E-02  0.8004316E-01
       -1   -1    0    0    0  501  0.00000000000E+00  0.00000000000E+00  0.29575887934E+04  0.29575887934E+04  0.50400001928E-02 0.  1.
        1   -1    0    0  501    0  0.00000000000E+00  0.00000000000E+00 -0.13532251940E+04  0.13532251941E+04  0.50400001928E-02 0. -1.
    10030    2    1    2    0    0  0.00000000000E+00  0.00000000000E+00  0.16043635994E+04  0.43108139875E+04  0.40011416715E+04 0.  0.
        4    1    3    3  502    0 -0.91178709920E+03  0.17711442116E+04  0.10007693606E+04  0.22293156929E+04  0.12699999809E+01 0.  1.
       -4    1    3    3    0  502  0.91178709920E+03 -0.17711442116E+04  0.60359423874E+03  0.20814982946E+04  0.12699999809E+01 0. -1.
</event>
<event>
 5   0  0.2078125E-09  0.4011107E+04  0.7818609E-02  0.8002310E-01
        3   -1    0    0  501    0  0.00000000000E+00  0.00000000000E+00  0.16587558936E+04  0.16587558967E+04  0.10100000352E+00 0. -1.
       -3   -1    0    0    0  501  0.00000000000E+00  0.00000000000E+00 -0.24248567648E+04  0.24248567669E+04  0.10100000352E+00 0.  1.
    10030    2    1    2    0    0  0.00000000000E+00  0.00000000000E+00 -0.76610087121E+03  0.40836126636E+04  0.40111073086E+04 0.  0.
        2    1    3    3  502    0 -0.54557017950E+03 -0.18489064605E+04 -0.94635440433E+03  0.21474842442E+04  0.25500000920E-02 0.  1.
       -2    1    3    3    0  502  0.54557017950E+03  0.18489064605E+04  0.18025353311E+03  0.19361284194E+04  0.25500000920E-02 0. -1.
</event>
<event>
 5   0  0.2078125E-09  0.3998784E+04  0.7818609E-02  0.8004792E-01
       -1   -1    0    0    0  501  0.00000000000E+00  0.00000000000E+00  0.30996660016E+04  0.30996660016E+04  0.50400001928E-02 0. -1.
        1   -1    0    0  501    0  0.00000000000E+00  0.00000000000E+00 -0.12896771220E+04  0.12896771220E+04  0.50400001928E-02 0.  1.
    10030    2    1    2    0    0  0.00000000000E+00  0.00000000000E+00  0.18099888796E+04  0.43893431236E+04  0.39987839792E+04 0.  0.
        5    1    3    3  502    0  0.26991138009E+03  0.18806858306E+04  0.22151126305E+03  0.19128305404E+04  0.46999998093E+01 0.  1.
       -5    1    3    3    0  502 -0.26991138009E+03 -0.18806858306E+04  0.15884776166E+04  0.24765125832E+04  0.46999998093E+01 0. -1.
</event>
<event>
 5   0  0.6645526E-09  0.4000018E+04  0.7818609E-02  0.8004543E-01
       -2   -1    0    0    0  501  0.00000000000E+00  0.00000000000E+00  0.19874774192E+04  0.19874774192E+04  0.25500000920E-02 0.  1.
        2   -1    0    0  501    0  0.00000000000E+00  0.00000000000E+00 -0.20126193661E+04  0.20126193661E+04  0.25500000920E-02 0. -1.
    10030    2    1    2    0    0  0.00000000000E+00  0.00000000000E+00 -0.25141946848E+02  0.40000967853E+04  0.40000177717E+04 0.  0.
        3    1    3    3  502    0 -0.29463917119E+03  0.16380893101E+04 -0.11215954516E+04  0.20070189826E+04  0.10100000352E+00 0. -1.
       -3    1    3    3    0  502  0.29463917119E+03 -0.16380893101E+04  0.10964535048E+04  0.19930778027E+04  0.10100000352E+00 0.  1.
</event>
<event>
 5   0  0.6645526E-09  0.4000125E+04  0.7818609E-02  0.8004521E-01
        2   -1    0    0  501    0  0.00000000000E+00  0.00000000000E+00  0.26049497928E+04  0.26049497928E+04  0.25500000920E-02 0. -1.
       -2   -1    0    0    0  501  0.00000000000E+00  0.00000000000E+00 -0.15356342804E+04  0.15356342804E+04  0.25500000920E-02 0.  1.
    10030    2    1    2    0    0  0.00000000000E+00  0.00000000000E+00  0.10693155124E+04  0.41405840733E+04  0.40001250984E+04 0.  0.
        3    1    3    3  502    0 -0.94734831053E+03 -0.15953659249E+04 -0.23828104116E+03  0.18706787860E+04  0.10100000352E+00 0. -1.
       -3    1    3    3    0  502  0.94734831053E+03  0.15953659249E+04  0.13075965536E+04  0.22699052872E+04  0.10100000352E+00 0.  1.
</event>
<event>
 5   0  0.6736335E-09  0.4000884E+04  0.7818609E-02  0.8004368E-01
        2   -1    0    0  501    0  0.00000000000E+00  0.00000000000E+00  0.19109643028E+04  0.19109643028E+04  0.25500000920E-02 0. -1.
       -2   -1    0    0    0  501  0.00000000000E+00  0.00000000000E+00 -0.20941091110E+04  0.20941091110E+04  0.25500000920E-02 0.  1.
    10030    2    1    2    0    0  0.00000000000E+00  0.00000000000E+00 -0.18314480824E+03  0.40050734138E+04  0.40008837810E+04 0.  0.
        1    1    3    3  502    0 -0.34753823335E+03  0.10632694209E+04 -0.17517550714E+04  0.20784538762E+04  0.50400001928E-02 0.  1.
       -1    1    3    3    0  502  0.34753823335E+03 -0.10632694209E+04  0.15686102632E+04  0.19266195376E+04  0.50400001928E-02 0. -1.
</event>
<event>
 5   0  0.2078125E-09  0.3996940E+04  0.7818609E-02  0.8005164E-01
        1   -1    0    0  501    0  0.00000000000E+00  0.00000000000E+00  0.28794710908E+04  0.28794710908E+04  0.50400001928E-02 0. -1.
       -1   -1    0    0    0  501  0.00000000000E+00  0.00000000000E+00 -0.13870195254E+04  0.13870195254E+04  0.50400001928E-02 0.  1.
    10030    2    1    2    0    0  0.00000000000E+00  0.00000000000E+00  0.14924515655E+04  0.42664906162E+04  0.39969401425E+04 0.  0.
        2    1    3    3  502    0 -0.66319148737E+03  0.72454181972E+02  0.27570982540E+04  0.28366641218E+04  0.25500000920E-02 0. -1.
       -2    1    3    3    0  502  0.66319148737E+03 -0.72454181972E+02 -0.12646466885E+04  0.14298264945E+04  0.25500000920E-02 0.  1.
</event>
<event>
 5   0  0.6645526E-09  0.4001019E+04  0.7818609E-02  0.8004341E-01
        2   -1    0    0  501    0  0.00000000000E+00  0.00000000000E+00  0.15947483000E+04  0.15947483000E+04  0.25500000920E-02 0.  1.
       -2   -1    0    0    0  501  0.00000000000E+00  0.00000000000E+00 -0.25095111619E+04  0.25095111619E+04  0.25500000920E-02 0. -1.
    10030    2    1    2    0    0  0.00000000000E+00  0.00000000000E+00 -0.91476286192E+03  0.41042594619E+04  0.40010191998E+04 0.  0.
        3    1    3    3  502    0 -0.16169127131E+04 -0.88271250370E+03 -0.12575414018E+04  0.22304704601E+04  0.10100000352E+00 0.  1.
       -3    1    3    3    0  502  0.16169127131E+04  0.88271250370E+03  0.34277853986E+03  0.18737890018E+04  0.10100000352E+00 0. -1.
</event>
<event>
 5   0  0.6538370E-09  0.4000494E+04  0.7818609E-02  0.8004447E-01
        2   -1    0    0  501    0  0.00000000000E+00  0.00000000000E+00  0.24909494700E+04  0.24909494700E+04  0.25500000920E-02 0.  1.
       -2   -1    0    0    0  501  0.00000000000E+00  0.00000000000E+00 -0.16062102713E+04  0.16062102713E+04  0.25500000920E-02 0. -1.
    10030    2    1    2    0    0  0.00000000000E+00  0.00000000000E+00  0.88473919869E+03  0.40971597414E+04  0.40004942815E+04 0.  0.
        4    1    3    3  502    0  0.16515006017E+04  0.92611293479E+03 -0.21807492739E+03  0.19059637175E+04  0.12699999809E+01 0.  1.
       -4    1    3    3    0  502 -0.16515006017E+04 -0.92611293479E+03  0.11028141261E+04  0.21911960239E+04  0.12699999809E+01 0. -1.
</event>
<event>
 5   0  0.6547327E-09  0.3999046E+04  0.7818609E-02  0.8004739E-01
        2   -1    0    0  501    0  0.00000000000E+00  0.00000000000E+00  0.23153079431E+04  0.23153079431E+04  0.25500000920E-02 0. -1.
       -2   -1    0    0    0  501  0.00000000000E+00  0.00000000000E+00 -0.17268083590E+04  0.17268083590E+04  0.25500000920E-02 0.  1.
    10030    2    1    2    0    0  0.00000000000E+00  0.00000000000E+00  0.58849958409E+03  0.40421163021E+04  0.39990464412E+04 0.  0.
        5    1    3    3  502    0  0.11585081089E+04 -0.36717303706E+03  0.18991520739E+04  0.22547189997E+04  0.46999998093E+01 0. -1.
       -5    1    3    3    0  502 -0.11585081089E+04  0.36717303706E+03 -0.13106524898E+04  0.17873973024E+04  0.46999998093E+01 0.  1.
</event>
<event>
 5   0  0.2078125E-09  0.3989288E+04  0.7818609E-02  0.8006711E-01
       -1   -1    0    0    0  501  0.00000000000E+00  0.00000000000E+00  0.12559526902E+04  0.12559526902E+04  0.50400001928E-02 0.  1.
        1   -1    0    0  501    0  0.00000000000E+00  0.00000000000E+00 -0.31677982291E+04  0.31677982291E+04  0.50400001928E-02 0. -1.
    10030    2    1    2    0    0  0.00000000000E+00  0.00000000000E+00 -0.19118455388E+04  0.44237509193E+04  0.39892880106E+04 0.  0.
        1    1    3    3  502    0 -0.13476608225E+04 -0.27547238816E+03  0.64587464609E+03  0.15196146839E+04  0.50400001928E-02 0.  1.
       -1    1    3    3    0  502  0.13476608225E+04  0.27547238816E+03 -0.25577201849E+04  0.29041362354E+04  0.50400001928E-02 0. -1.
</event>
<event>
 5   0  0.2078125E-09  0.4000324E+04  0.7818609E-02  0.8004481E-01
       -1   -1    0    0    0  501  0.00000000000E+00  0.00000000000E+00  0.19507177325E+04  0.19507177325E+04  0.50400001928E-02 0. -1.
        1   -1    0    0  501    0  0.00000000000E+00  0.00000000000E+00 -0.20508592835E+04  0.20508592835E+04  0.50400001928E-02 0.  1.
    10030    2    1    2    0    0  0.00000000000E+00  0.00000000000E+00 -0.10014155094E+03  0.40015770160E+04  0.40003237725E+04 0.  0.
        3    1    3    3  502    0  0.47250243139E+03  0.11254938426E+04 -0.16350710821E+04  0.20404539670E+04  0.10100000352E+00 0.  1.
       -3    1    3    3    0  502 -0.47250243139E+03 -0.11254938426E+04  0.15349295312E+04  0.19611230490E+04  0.10100000352E+00 0. -1.
</event>
<event>
 5   0  0.2078125E-09  0.3995537E+04  0.7818609E-02  0.8005447E-01
        1   -1    0    0  501    0  0.00000000000E+00  0.00000000000E+00  0.26011032876E+04  0.26011032876E+04  0.50400001928E-02 0. -1.
       -1   -1    0    0    0  501  0.00000000000E+00  0.00000000000E+00 -0.15343796098E+04  0.15343796098E+04  0.50400001928E-02 0.  1.
    10030    2    1    2    0    0  0.00000000000E+00  0.00000000000E+00  0.10667236777E+04  0.41354828974E+04  0.39955374344E+04 0.  0.
        4    1    3    3  502    0  0.76123969788E+03  0.13180883107E+04  0.18726045963E+04  0.24131913018E+04  0.12699999809E+01 0. -1.
       -4    1    3    3    0  502 -0.76123969788E+03 -0.13180883107E+04 -0.80588091852E+03  0.17222915956E+04  0.12699999809E+01 0.  1.
</event>
<event>
 5   0  0.2078125E-09  0.3997303E+04  0.7818609E-02  0.8005091E-01
        1   -1    0    0  501    0  0.00000000000E+00  0.00000000000E+00  0.18192814113E+04  0.18192814113E+04  0.50400001928E-02 0. -1.
       -1   -1    0    0    0  501  0.00000000000E+00  0.00000000000E+00 -0.21957066226E+04  0.21957066226E+04  0.50400001928E-02 0.  1.
    10030    2    1    2    0    0  0.00000000000E+00  0.00000000000E+00 -0.37642521138E+03  0.40149880339E+04  0.39973032125E+04 0.  0.
        5    1    3    3  502    0 -0.10007285567E+03  0.18806469741E+04 -0.86030564876E+03  0.20705061016E+04  0.46999998093E+01 0. -1.
       -5    1    3    3    0  502  0.10007285567E+03 -0.18806469741E+04  0.48388043738E+03  0.19444819323E+04  0.46999998093E+01 0.  1.
</event>
<event>
 5   0  0.6645526E-09  0.3999933E+04  0.7818609E-02  0.8004560E-01
        2   -1    0    0  501    0  0.00000000000E+00  0.00000000000E+00  0.18078134858E+04  0.18078134858E+04  0.25500000920E-02 0.  1.
       -2   -1    0    0    0  501  0.00000000000E+00  0.00000000000E+00 -0.22125435809E+04  0.22125435809E+04  0.25500000920E-02 0. -1.
    10030    2    1    2    0    0  0.00000000000E+00  0.00000000000E+00 -0.40473009510E+03  0.40203570667E+04  0.39999330611E+04 0.  0.
        3    1    3    3  502    0 -0.14180839943E+04  0.62572009307E+03 -0.14726928064E+04  0.21380626655E+04  0.10100000352E+00 0. -1.
       -3    1    3    3    0  502  0.14180839943E+04 -0.62572009307E+03  0.10679627113E+04  0.18822944011E+04  0.10100000352E+00 0.  1.
</event>
<event>
 5   0  0.2078125E-09  0.3997013E+04  0.7818609E-02  0.8005149E-01
        1   -1    0    0  501    0  0.00000000000E+00  0.00000000000E+00  0.14462488649E+04  0.14462488649E+04  0.50400001928E-02 0.  1.
       -1   -1    0    0    0  501  0.00000000000E+00  0.00000000000E+00 -0.27616471770E+04  0.27616471770E+04  0.50400001928E-02 0. -1.
    10030    2    1    2    0    0  0.00000000000E+00  0.00000000000E+00 -0.13153983121E+04  0.42078960419E+04  0.39970134326E+04 0.  0.
        2    1    3    3  502    0  0.10950419949E+04  0.65655793831E+03  0.96089803219E+03  0.15979706898E+04  0.25500000920E-02 0.  1.
       -2    1    3    3    0  502 -0.10950419949E+04 -0.65655793831E+03 -0.22762963443E+04  0.26099253522E+04  0.25500000920E-02 0. -1.
</event>
<event>
 5   0  0.2078125E-09  0.3999036E+04  0.7818609E-02  0.8004741E-01
        1   -1    0    0  501    0  0.00000000000E+00  0.00000000000E+00  0.14424264397E+04  0.14424264397E+04  0.50400001928E-02 0.  1.
       -1   -1    0    0    0  501  0.00000000000E+00  0.00000000000E+00 -0.27717684024E+04  0.27717684024E+04  0.50400001928E-02 0. -1.
    10030    2    1    2    0    0  0.00000000000E+00  0.00000000000E+00 -0.13293419627E+04  0.42141948421E+04  0.39990358980E+04 0.  0.
        4    1    3    3  502    0 -0.72675845980E+03  0.37858685311E+03  0.12573462911E+04  0.15008088395E+04  0.12699999809E+01 0.  1.
       -4    1    3    3    0  502  0.72675845980E+03 -0.37858685311E+03 -0.25866882537E+04  0.27133860026E+04  0.12699999809E+01 0. -1.
</event>
<event>
 5   0  0.2078125E-09  0.4001695E+04  0.7818609E-02  0.8004205E-01
        1   -1    0    0  501    0  0.00000000000E+00  0.00000000000E+00  0.15665820006E+04  0.15665820006E+04  0.50400001928E-02 0. -1.
       -1   -1    0    0    0  501  0.00000000000E+00  0.00000000000E+00 -0.25554933141E+04  0.25554933141E+04  0.50400001928E-02 0.  1.
    10030    2    1    2    0    0  0.00000000000E+00  0.00000000000E+00 -0.98891131344E+03  0.41220753147E+04  0.40016945554E+04 0.  0.
        3    1    3    3  502    0 -0.77139741972E+03  0.29657197546E+03 -0.23714628623E+04  0.25113432727E+04  0.10100000352E+00 0.  1.
       -3    1    3    3    0  502  0.77139741972E+03 -0.29657197546E+03  0.13825515489E+04  0.16107320420E+04  0.10100000352E+00 0. -1.
</event>
<event>
 5   0  0.2078125E-09  0.4002806E+04  0.7818609E-02  0.8003981E-01
       -1   -1    0    0    0  501  0.00000000000E+00  0.00000000000E+00  0.21049123028E+04  0.21049123028E+04  0.50400001928E-02 0. -1.
        1   -1    0    0  501    0  0.00000000000E+00  0.00000000000E+00 -0.19029833886E+04  0.19029833886E+04  0.50400001928E-02 0.  1.
    10030    2    1    2    0    0  0.00000000000E+00  0.00000000000E+00  0.20192891424E+03  0.40078956914E+04  0.40028055894E+04 0.  0.
        4    1    3    3  502    0  0.40737535357E+03 -0.17118391560E+04 -0.85380123641E+03  0.19558440988E+04  0.12699999809E+01 0.  1.
       -4    1    3    3    0  502 -0.40737535357E+03  0.17118391560E+04  0.10557301507E+04  0.20520515926E+04  0.12699999809E+01 0. -1.
</event>
<event>
 5   0  0.6599276E-09  0.4000248E+04  0.7818609E-02  0.8004497E-01
       -2   -1    0    0    0  501  0.00000000000E+00  0.00000000000E+00  0.14234900227E+04  0.14234900227E+04  0.25500000920E-02 0. -1.
        2   -1    0    0  501    0  0.00000000000E+00  0.00000000000E+00 -0.28103428865E+04  0.28103428866E+04  0.25500000920E-02 0.  1.
    10030    2    1    2    0    0  0.00000000000E+00  0.00000000000E+00 -0.13868528639E+04  0.42338329092E+04  0.40002475220E+04 0.  0.
        2    1    3    3  502    0 -0.37859725712E+03 -0.14671628970E+04  0.68841146534E+03  0.16642755766E+04  0.25500000920E-02 0.  1.
       -2    1    3    3    0  502  0.37859725712E+03  0.14671628970E+04 -0.20752643292E+04  0.25695573326E+04  0.25500000920E-02 0. -1.
</event>
<event>
 5   0  0.6547327E-09  0.4001720E+04  0.7818609E-02  0.8004200E-01
       -2   -1    0    0    0  501  0.00000000000E+00  0.00000000000E+00  0.20940947230E+04  0.20940947230E+04  0.25500000920E-02 0. -1.
        2   -1    0    0  501    0  0.00000000000E+00  0.00000000000E+00 -0.19117764952E+04  0.19117764952E+04  0.25500000920E-02 0.  1.
    10030    2    1    2    0    0  0.00000000000E+00  0.00000000000E+00  0.18231822781E+03  0.40058712182E+04  0.40017201652E+04 0.  0.
        5    1    3    3  502    0  0.14481891457E+04 -0.11728401994E+04  0.82034663725E+03  0.20361229409E+04  0.46999998093E+01 0. -1.
       -5    1    3    3    0  502 -0.14481891457E+04  0.11728401994E+04 -0.63802840943E+03  0.19697482774E+04  0.46999998093E+01 0.  1.
</event>
<event>
 5   0  0.6645526E-09  0.3999618E+04  0.7818609E-02  0.8004624E-01
       -2   -1    0    0    0  501  0.00000000000E+00  0.00000000000E+00  0.22950166902E+04  0.22950166902E+04  0.25500000920E-02 0.  1.
        2   -1    0    0  501    0  0.00000000000E+00  0.00000000000E+00 -0.17425738684E+04  0.17425738684E+04  0.25500000920E-02 0. -1.
    10030    2    1    2    0    0  0.00000000000E+00  0.00000000000E+00  0.55244282188E+03  0.40375905586E+04  0.39996180377E+04 0.  0.
        3    1    3    3  502    0  0.62847985126E+03  0.11023445271E+04  0.18365627844E+04  0.22322887921E+04  0.10100000352E+00 0.  1.
       -3    1    3    3    0  502 -0.62847985126E+03 -0.11023445271E+04 -0.12841199625E+04  0.18053017665E+04  0.10100000352E+00 0. -1.
</event>
<event>
 5   0  0.6547327E-09  0.3998193E+04  0.7818609E-02  0.8004911E-01
        2   -1    0    0  501    0  0.00000000000E+00  0.00000000000E+00  0.21839874159E+04  0.21839874159E+04  0.25500000920E-02 0. -1.
       -2   -1    0    0    0  501  0.00000000000E+00  0.00000000000E+00 -0.18298582328E+04  0.18298582328E+04  0.25500000920E-02 0.  1.
    10030    2    1    2    0    0  0.00000000000E+00  0.00000000000E+00  0.35412918306E+03  0.40138456487E+04  0.39981932687E+04 0.  0.
        5    1    3    3  502    0 -0.16619722936E+04  0.65831971685E+03  0.10754581863E+04  0.20861853117E+04  0.46999998093E+01 0. -1.
       -5    1    3    3    0  502  0.16619722936E+04 -0.65831971685E+03 -0.72132900325E+03  0.19276603371E+04  0.46999998093E+01 0.  1.
</event>
<event>
 5   0  0.2078125E-09  0.3994270E+04  0.7818609E-02  0.8005704E-01
       -1   -1    0    0    0  501  0.00000000000E+00  0.00000000000E+00  0.14371921221E+04  0.14371921221E+04  0.50400001928E-02 0.  1.
        1   -1    0    0  501    0  0.00000000000E+00  0.00000000000E+00 -0.27752360632E+04  0.27752360632E+04  0.50400001928E-02 0. -1.
    10030    2    1    2    0    0  0.00000000000E+00  0.00000000000E+00 -0.13380439411E+04  0.42124281853E+04  0.39942695988E+04 0.  0.
        4    1    3    3  502    0  0.44259928665E+03  0.19158821810E+04 -0.10374553147E+04  0.22232439818E+04  0.12699999809E+01 0. -1.
       -4    1    3    3    0  502 -0.44259928665E+03 -0.19158821810E+04 -0.30058862640E+03  0.19891842034E+04  0.12699999809E+01 0.  1.
</event>
<event>
 5   0  0.2078125E-09  0.4001403E+04  0.7818609E-02  0.8004264E-01
        1   -1    0    0  501    0  0.00000000000E+00  0.00000000000E+00  0.23741768811E+04  0.23741768811E+04  0.50400001928E-02 0.  1.
       -1   -1    0    0    0  501  0.00000000000E+00  0.00000000000E+00 -0.16859766400E+04  0.16859766400E+04  0.50400001928E-02 0. -1.
    10030    2    1    2    0    0  0.00000000000E+00  0.00000000000E+00  0.68820024112E+03  0.40601535211E+04  0.40014031343E+04 0.  0.
        5    1    3    3  502    0  0.38494294914E+03  0.18666824995E+03 -0.16390158122E+04  0.16939365491E+04  0.46999998093E+01 0. -1.
       -5    1    3    3    0  502 -0.38494294914E+03 -0.18666824995E+03  0.23272160534E+04  0.23662169720E+04  0.46999998093E+01 0.  1.
</event>
<event>
 5   0  0.2078125E-09  0.3999728E+04  0.7818609E-02  0.8004601E-01
        1   -1    0    0  501    0  0.00000000000E+00  0.00000000000E+00  0.12183463867E+04  0.12183463867E+04  0.50400001928E-02 0.  1.
       -1   -1    0    0    0  501  0.00000000000E+00  0.00000000000E+00 -0.32826922796E+04  0.32826922796E+04  0.50400001928E-02 0. -1.
    10030    2    1    2    0    0  0.00000000000E+00  0.00000000000E+00 -0.20643458929E+04  0.45010386663E+04  0.39997281295E+04 0.  0.
        3    1    3    3  502    0 -0.10093903227E+04  0.10247090189E+04 -0.25957662297E+04  0.29676421157E+04  0.10100000352E+00 0. -1.
       -3    1    3    3    0  502  0.10093903227E+04 -0.10247090189E+04  0.53142033677E+03  0.15333965507E+04  0.10100000352E+00 0.  1.
</event>
<event>
 5   0  0.2078125E-09  0.3998996E+04  0.7818609E-02  0.8004749E-01
       -1   -1    0    0    0  501  0.00000000000E+00  0.00000000000E+00  0.21229886704E+04  0.21229886704E+04  0.50400001928E-02 0.  1.
        1   -1    0    0  501    0  0.00000000000E+00  0.00000000000E+00 -0.18831905700E+04  0.18831905700E+04  0.50400001928E-02 0. -1.
    10030    2    1    2    0    0  0.00000000000E+00  0.00000000000E+00  0.23979810036E+03  0.40061792404E+04  0.39989959962E+04 0.  0.
        5    1    3    3  502    0 -0.54795785998E+03 -0.18480855321E+04 -0.41236710187E+03  0.19712297347E+04  0.46999998093E+01 0. -1.
       -5    1    3    3    0  502  0.54795785998E+03  0.18480855321E+04  0.65216520223E+03  0.20349495058E+04  0.46999998093E+01 0.  1.
</event>
<event>
 5   0  0.6599276E-09  0.3999930E+04  0.7818609E-02  0.8004561E-01
       -2   -1    0    0    0  501  0.00000000000E+00  0.00000000000E+00  0.18405420406E+04  0.18405420406E+04  0.25500000920E-02 0.  1.
        2   -1    0    0  501    0  0.00000000000E+00  0.00000000000E+00 -0.21731972625E+04  0.21731972625E+04  0.25500000920E-02 0. -1.
    10030    2    1    2    0    0  0.00000000000E+00  0.00000000000E+00 -0.33265522187E+03  0.40137393031E+04  0.39999304614E+04 0.  0.
        2    1    3    3  502    0  0.76518234736E+03 -0.65351496068E+03 -0.19006679643E+04  0.21506102713E+04  0.25500000920E-02 0. -1.
       -2    1    3    3    0  502 -0.76518234736E+03  0.65351496068E+03  0.15680127424E+04  0.18631290318E+04  0.25500000920E-02 0.  1.
</event>
<event>
 5   0  0.6645526E-09  0.3996419E+04  0.7818609E-02  0.8005269E-01
        2   -1    0    0  501    0  0.00000000000E+00  0.00000000000E+00  0.16005982230E+04  0.16005982230E+04  0.25500000920E-02 0. -1.
       -2   -1    0    0    0  501  0.00000000000E+00  0.00000000000E+00 -0.24945930747E+04  0.24945930747E+04  0.25500000920E-02 0.  1.
    10030    2    1    2    0    0  0.00000000000E+00  0.00000000000E+00 -0.89399485166E+03  0.40951912977E+04  0.39964190183E+04 0.  0.
        3    1    3    3  502    0  0.27450507269E+03 -0.10283757514E+04  0.12859324661E+04  0.16692908789E+04  0.10100000352E+00 0. -1.
       -3    1    3    3    0  502 -0.27450507269E+03  0.10283757514E+04 -0.21799273178E+04  0.24259004188E+04  0.10100000352E+00 0.  1.
</event>
<event>
 5   0  0.6645526E-09  0.4000196E+04  0.7818609E-02  0.8004507E-01
       -2   -1    0    0    0  501  0.00000000000E+00  0.00000000000E+00  0.16679805560E+04  0.16679805560E+04  0.25500000920E-02 0.  1.
        2   -1    0    0  501    0  0.00000000000E+00  0.00000000000E+00 -0.23983447825E+04  0.23983447825E+04  0.25500000920E-02 0. -1.
    10030    2    1    2    0    0  0.00000000000E+00  0.00000000000E+00 -0.73036422657E+03  0.40663253385E+04  0.40001962271E+04 0.  0.
        3    1    3    3  502    0 -0.14225657708E+03  0.11296437246E+04  0.13064050792E+04  0.17329241528E+04  0.10100000352E+00 0.  1.
       -3    1    3    3    0  502  0.14225657708E+03 -0.11296437246E+04 -0.20367693058E+04  0.23334011857E+04  0.10100000352E+00 0. -1.
</event>
<event>
 5   0  0.2078125E-09  0.3999648E+04  0.7818609E-02  0.8004618E-01
        1   -1    0    0  501    0  0.00000000000E+00  0.00000000000E+00  0.16005329611E+04  0.16005329611E+04  0.50400001928E-02 0.  1.
       -1   -1    0    0    0  501  0.00000000000E+00  0.00000000000E+00 -0.24987278430E+04  0.24987278430E+04  0.50400001928E-02 0. -1.
    10030    2    1    2    0    0  0.00000000000E+00  0.00000000000E+00 -0.89819488194E+03  0.40992608041E+04  0.39996481213E+04 0.  0.
        2    1    3    3  502    0 -0.16262311982E+02 -0.19793309586E+04 -0.74129572582E+03  0.21136543850E+04  0.25500000920E-02 0.  1.
       -2    1    3    3    0  502  0.16262311982E+02  0.19793309586E+04 -0.15689915613E+03  0.19856064191E+04  0.25500000920E-02 0. -1.
</event>
<event>
 5   0  0.6538370E-09  0.3999783E+04  0.7818609E-02  0.8004590E-01
       -2   -1    0    0    0  501  0.00000000000E+00  0.00000000000E+00  0.19646897134E+04  0.19646897134E+04  0.25500000920E-02 0. -1.
        2   -1    0    0  501    0  0.00000000000E+00  0.00000000000E+00 -0.20357239885E+04  0.20357239885E+04  0.25500000920E-02 0.  1.
    10030    2    1    2    0    0  0.00000000000E+00  0.00000000000E+00 -0.71034275071E+02  0.40004137019E+04  0.39997829839E+04 0.  0.
        4    1    3    3  502    0  0.50255986231E+03  0.12095246453E+04 -0.15470621997E+04  0.20270469520E+04  0.12699999809E+01 0.  1.
       -4    1    3    3    0  502 -0.50255986231E+03 -0.12095246453E+04  0.14760279246E+04  0.19733667500E+04  0.12699999809E+01 0. -1.
</event>
<event>
 5   0  0.6645526E-09  0.3999716E+04  0.7818609E-02  0.8004604E-01
        2   -1    0    0  501    0  0.00000000000E+00  0.00000000000E+00  0.21907178124E+04  0.21907178124E+04  0.25500000920E-02 0.  1.
       -2   -1    0    0    0  501  0.00000000000E+00  0.00000000000E+00 -0.18256260405E+04  0.18256260405E+04  0.25500000920E-02 0. -1.
    10030    2    1    2    0    0  0.00000000000E+00  0.00000000000E+00  0.36509177183E+03  0.40163438529E+04  0.39997157328E+04 0.  0.
        3    1    3    3  502    0 -0.12789234564E+04  0.48735179030E+02 -0.13605309991E+04  0.18679038880E+04  0.10100000352E+00 0. -1.
       -3    1    3    3    0  502  0.12789234564E+04 -0.48735179030E+02  0.17256227709E+04  0.21484399649E+04  0.10100000352E+00 0.  1.
</event>
<event>
 5   0  0.6645526E-09  0.3999941E+04  0.7818609E-02  0.8004558E-01
       -2   -1    0    0    0  501  0.00000000000E+00  0.00000000000E+00  0.17714599126E+04  0.17714599126E+04  0.25500000920E-02 0. -1.
        2   -1    0    0  501    0  0.00000000000E+00  0.00000000000E+00 -0.22579578601E+04  0.22579578601E+04  0.25500000920E-02 0.  1.
    10030    2    1    2    0    0  0.00000000000E+00  0.00000000000E+00 -0.48649794749E+03  0.40294177727E+04  0.39999409163E+04 0.  0.
        3    1    3    3  502    0 -0.15779779377E+04 -0.48673805334E+03 -0.13798158482E+04  0.21519340347E+04  0.10100000352E+00 0.  1.
       -3    1    3    3    0  502  0.15779779377E+04  0.48673805334E+03  0.89331790076E+03  0.18774837380E+04  0.10100000352E+00 0. -1.
</event>
<event>
 5   0  0.6645526E-09  0.4000253E+04  0.7818609E-02  0.8004495E-01
        2   -1    0    0  501    0  0.00000000000E+00  0.00000000000E+00  0.27888151821E+04  0.27888151821E+04  0.25500000920E-02 0. -1.
       -2   -1    0    0    0  501  0.00000000000E+00  0.00000000000E+00 -0.14344824482E+04  0.14344824482E+04  0.25500000920E-02 0.  1.
    10030    2    1    2    0    0  0.00000000000E+00  0.00000000000E+00  0.13543327339E+04  0.42232976302E+04  0.40002532069E+04 0.  0.
        3    1    3    3  502    0 -0.11391903703E+04  0.50797118598E+03 -0.97357297689E+03  0.15822875140E+04  0.10100000352E+00 0.  1.
       -3    1    3    3    0  502  0.11391903703E+04 -0.50797118598E+03  0.23279057108E+04  0.26410101162E+04  0.10100000352E+00 0. -1.
</event>
<event>
 5   0  0.6547327E-09  0.4002885E+04  0.7818609E-02  0.8003965E-01
       -2   -1    0    0    0  501  0.00000000000E+00  0.00000000000E+00  0.18327479037E+04  0.18327479037E+04  0.25500000920E-02 0.  1.
        2   -1    0    0  501    0  0.00000000000E+00  0.00000000000E+00 -0.21856647209E+04  0.21856647209E+04  0.25500000920E-02 0. -1.
    10030    2    1    2    0    0  0.00000000000E+00  0.00000000000E+00 -0.35291681728E+03  0.40184126246E+04  0.40028851772E+04 0.  0.
        5    1    3    3  502    0  0.86833016159E+02  0.10832426561E+04  0.15107740448E+04  0.18610252361E+04  0.46999998093E+01 0.  1.
       -5    1    3    3    0  502 -0.86833016159E+02 -0.10832426561E+04 -0.18636908621E+04  0.21573873885E+04  0.46999998093E+01 0. -1.
</event>
<event>
 5   0  0.2078125E-09  0.3998475E+04  0.7818609E-02  0.8004854E-01
        1   -1    0    0  501    0  0.00000000000E+00  0.00000000000E+00  0.16379774843E+04  0.16379774843E+04  0.50400001928E-02 0. -1.
       -1   -1    0    0    0  501  0.00000000000E+00  0.00000000000E+00 -0.24401738273E+04  0.24401738273E+04  0.50400001928E-02 0.  1.
    10030    2    1    2    0    0  0.00000000000E+00  0.00000000000E+00 -0.80219634303E+03  0.40781513117E+04  0.39984746026E+04 0.  0.
        5    1    3    3  502    0  0.14803428663E+04 -0.12546035451E+04  0.89615555391E+02  0.19425493803E+04  0.46999998093E+01 0.  1.
       -5    1    3    3    0  502 -0.14803428663E+04  0.12546035451E+04 -0.89181189842E+03  0.21356019314E+04  0.46999998093E+01 0. -1.
</event>
<event>
 5   0  0.2078125E-09  0.4002578E+04  0.7818609E-02  0.8004027E-01
       -1   -1    0    0    0  501  0.00000000000E+00  0.00000000000E+00  0.26250146799E+04  0.26250146799E+04  0.50400001928E-02 0.  1.
        1   -1    0    0  501    0  0.00000000000E+00  0.00000000000E+00 -0.15257661957E+04  0.15257661957E+04  0.50400001928E-02 0. -1.
    10030    2    1    2    0    0  0.00000000000E+00  0.00000000000E+00  0.10992484841E+04  0.41507808756E+04  0.40025784998E+04 0.  0.
        2    1    3    3  502    0 -0.91245493651E+03 -0.11314481767E+04  0.19762088327E+04  0.24531918674E+04  0.25500000920E-02 0.  1.
       -2    1    3    3    0  502  0.91245493651E+03  0.11314481767E+04 -0.87696034857E+03  0.16975890082E+04  0.25500000920E-02 0. -1.
</event>
<event>
 5   0  0.2078125E-09  0.4007491E+04  0.7818609E-02  0.8003037E-01
       -1   -1    0    0    0  501  0.00000000000E+00  0.00000000000E+00  0.17296788319E+04  0.17296788319E+04  0.50400001928E-02 0.  1.
        1   -1    0    0  501    0  0.00000000000E+00  0.00000000000E+00 -0.23212376919E+04  0.23212376919E+04  0.50400001928E-02 0. -1.
    10030    2    1    2    0    0  0.00000000000E+00  0.00000000000E+00 -0.59155885997E+03  0.40509165237E+04  0.40074908356E+04 0.  0.
        4    1    3    3  502    0  0.40141085784E+03  0.18977743573E+04 -0.80353309170E+03  0.20996059703E+04  0.12699999809E+01 0. -1.
       -4    1    3    3    0  502 -0.40141085784E+03 -0.18977743573E+04  0.21197423174E+03  0.19513105534E+04  0.12699999809E+01 0.  1.
</event>
<event>
 5   0  0.6645526E-09  0.3999468E+04  0.7818609E-02  0.8004654E-01
        2   -1    0    0  501    0  0.00000000000E+00  0.00000000000E+00  0.19288427668E+04  0.19288427668E+04  0.25500000920E-02 0.  1.
       -2   -1    0    0    0  501  0.00000000000E+00  0.00000000000E+00 -0.20732303216E+04  0.20732303216E+04  0.25500000920E-02 0. -1.
    10030    2    1    2    0    0  0.00000000000E+00  0.00000000000E+00 -0.14438755483E+03  0.40020730884E+04  0.39994676195E+04 0.  0.
        3    1    3    3  502    0 -0.22745620437E+03 -0.71072690407E+03  0.17842954896E+04  0.19340577710E+04  0.10100000352E+00 0.  1.
       -3    1    3    3    0  502  0.22745620437E+03  0.71072690407E+03 -0.19286830444E+04  0.20680153174E+04  0.10100000352E+00 0. -1.
</event>
<event>
 5   0  0.6645526E-09  0.4000185E+04  0.7818609E-02  0.8004509E-01
        2   -1    0    0  501    0  0.00000000000E+00  0.00000000000E+00  0.21420452634E+04  0.21420452634E+04  0.25500000920E-02 0. -1.
       -2   -1    0    0    0  501  0.00000000000E+00  0.00000000000E+00 -0.18675471276E+04  0.18675471276E+04  0.25500000920E-02 0.  1.
    10030    2    1    2    0    0  0.00000000000E+00  0.00000000000E+00  0.27449813581E+03  0.40095923909E+04  0.40001852351E+04 0.  0.
        3    1    3    3  502    0 -0.16953975027E+03  0.19875498246E+04  0.28344279573E+03  0.20148046706E+04  0.10100000352E+00 0.  1.
       -3    1    3    3    0  502  0.16953975027E+03 -0.19875498246E+04 -0.89446599195E+01  0.19947877203E+04  0.10100000352E+00 0. -1.
</event>
<event>
 5   0  0.6736335E-09  0.3996054E+04  0.7818609E-02  0.8005343E-01
       -2   -1    0    0    0  501  0.00000000000E+00  0.00000000000E+00  0.14826452575E+04  0.14826452575E+04  0.25500000920E-02 0. -1.
        2   -1    0    0  501    0  0.00000000000E+00  0.00000000000E+00 -0.26925607074E+04  0.26925607074E+04  0.25500000920E-02 0.  1.
    10030    2    1    2    0    0  0.00000000000E+00  0.00000000000E+00 -0.12099154498E+04  0.41752059649E+04  0.39960542356E+04 0.  0.
        1    1    3    3  502    0  0.11342778481E+04 -0.51339289403E+03 -0.22376910518E+04  0.25607459350E+04  0.50400001928E-02 0.  1.
       -1    1    3    3    0  502 -0.11342778481E+04  0.51339289403E+03  0.10277756019E+04  0.16144600299E+04  0.50400001928E-02 0. -1.
</event>
<event>
 5   0  0.2078125E-09  0.3999864E+04  0.7818609E-02  0.8004574E-01
       -1   -1    0    0    0  501  0.00000000000E+00  0.00000000000E+00  0.28036467637E+04  0.28036467637E+04  0.50400001928E-02 0. -1.
        1   -1    0    0  501    0  0.00000000000E+00  0.00000000000E+00 -0.14266165958E+04  0.14266165958E+04  0.50400001928E-02 0.  1.
    10030    2    1    2    0    0  0.00000000000E+00  0.00000000000E+00  0.13770301679E+04  0.42302633595E+04  0.39998644986E+04 0.  0.
        1    1    3    3  502    0 -0.15995690383E+04 -0.39759204296E+03 -0.50943927350E+03  0.17251750388E+04  0.50400001928E-02 0.  1.
       -1    1    3    3    0  502  0.15995690383E+04  0.39759204296E+03  0.18864694414E+04  0.25050883207E+04  0.50400001928E-02 0. -1.
</event>
<event>
 5   0  0.6599276E-09  0.4001151E+04  0.7818609E-02  0.8004314E-01
        2   -1    0    0  501    0  0.00000000000E+00  0.00000000000E+00  0.20366428149E+04  0.20366428149E+04  0.25500000920E-02 0.  1.
       -2   -1    0    0    0  501  0.00000000000E+00  0.00000000000E+00 -0.19651468441E+04  0.19651468441E+04  0.25500000920E-02 0. -1.
    10030    2    1    2    0    0  0.00000000000E+00  0.00000000000E+00  0.71495970799E+02  0.40017896590E+04  0.40011509345E+04 0.  0.
        2    1    3    3  502    0  0.18380175722E+04 -0.42848070600E+03  0.69947873367E+03  0.20127530425E+04  0.25500000920E-02 0.  1.
       -2    1    3    3    0  502 -0.18380175722E+04  0.42848070600E+03 -0.62798276287E+03  0.19890366165E+04  0.25500000920E-02 0. -1.
</event>
<event>
 5   0  0.6645526E-09  0.3977565E+04  0.7818609E-02  0.8009088E-01
        2   -1    0    0  501    0  0.00000000000E+00  0.00000000000E+00  0.25224163050E+04  0.25224163050E+04  0.25500000920E-02 0.  1.
       -2   -1    0    0    0  501  0.00000000000E+00  0.00000000000E+00 -0.15680421807E+04  0.15680421807E+04  0.25500000920E-02 0. -1.
    10030    2    1    2    0    0  0.00000000000E+00  0.00000000000E+00  0.95437412434E+03  0.40904584857E+04  0.39775646637E+04 0.  0.
        3    1    3    3  502    0  0.65923438956E+03 -0.28259265558E+03  0.23847763265E+04  0.24903025372E+04  0.10100000352E+00 0.  1.
       -3    1    3    3    0  502 -0.65923438956E+03  0.28259265558E+03 -0.14304022021E+04  0.16001559485E+04  0.10100000352E+00 0. -1.
</event>
<event>
 5   0  0.2078125E-09  0.3999887E+04  0.7818609E-02  0.8004569E-01
       -1   -1    0    0    0  501  0.00000000000E+00  0.00000000000E+00  0.35580947045E+04  0.35580947045E+04  0.50400001928E-02 0.  1.
        1   -1    0    0  501    0  0.00000000000E+00  0.00000000000E+00 -0.11241338565E+04  0.11241338565E+04  0.50400001928E-02 0. -1.
    10030    2    1    2    0    0  0.00000000000E+00  0.00000000000E+00  0.24339608480E+04  0.46822285609E+04  0.39998873593E+04 0.  0.
        1    1    3    3  502    0  0.18407087938E+03 -0.85126428608E+03  0.33244463448E+04  0.34366373787E+04  0.50400001928E-02 0.  1.
       -1    1    3    3    0  502 -0.18407087938E+03  0.85126428608E+03 -0.89048549674E+03  0.12455911823E+04  0.50400001928E-02 0. -1.
</event>
<event>
 5   0  0.6538370E-09  0.4000979E+04  0.7818609E-02  0.8004349E-01
        2   -1    0    0  501    0  0.00000000000E+00  0.00000000000E+00  0.25173158308E+04  0.25173158308E+04  0.25500000920E-02 0. -1.
       -2   -1    0    0    0  501  0.00000000000E+00  0.00000000000E+00 -0.15897719923E+04  0.15897719923E+04  0.25500000920E-02 0.  1.
    10030    2    1    2    0    0  0.00000000000E+00  0.00000000000E+00  0.92754383858E+03  0.41070878231E+04  0.40009789820E+04 0.  0.
        4    1    3    3  502    0 -0.12473825474E+04  0.50265310283E+03 -0.10564956418E+04  0.17102070096E+04  0.12699999809E+01 0.  1.
       -4    1    3    3    0  502  0.12473825474E+04 -0.50265310283E+03  0.19840394804E+04  0.23968808135E+04  0.12699999809E+01 0. -1.
</event>
<event>
 5   0  0.6547327E-09  0.3999269E+04  0.7818609E-02  0.8004694E-01
       -2   -1    0    0    0  501  0.00000000000E+00  0.00000000000E+00  0.19826222611E+04  0.19826222611E+04  0.25500000920E-02 0.  1.
        2   -1    0    0  501    0  0.00000000000E+00  0.00000000000E+00 -0.20167924055E+04  0.20167924055E+04  0.25500000920E-02 0. -1.
    10030    2    1    2    0    0  0.00000000000E+00  0.00000000000E+00 -0.34170144460E+02  0.39994146666E+04  0.39992686927E+04 0.  0.
        5    1    3    3  502    0 -0.12834647572E+04 -0.72625382357E+03 -0.13676116989E+04  0.20112459443E+04  0.46999998093E+01 0. -1.
       -5    1    3    3    0  502  0.12834647572E+04  0.72625382357E+03  0.13334415545E+04  0.19881687223E+04  0.46999998093E+01 0.  1.
</event>
<event>
 5   0  0.6538370E-09  0.4000312E+04  0.7818609E-02  0.8004484E-01
        2   -1    0    0  501    0  0.00000000000E+00  0.00000000000E+00  0.23731973836E+04  0.23731973836E+04  0.25500000920E-02 0.  1.
       -2   -1    0    0    0  501  0.00000000000E+00  0.00000000000E+00 -0.16857525597E+04  0.16857525597E+04  0.25500000920E-02 0. -1.
    10030    2    1    2    0    0  0.00000000000E+00  0.00000000000E+00  0.68744482391E+03  0.40589499432E+04  0.40003117698E+04 0.  0.
        4    1    3    3  502    0  0.49345370467E+03 -0.14012833937E+04  0.17025808251E+04  0.22596182835E+04  0.12699999809E+01 0.  1.
       -4    1    3    3    0  502 -0.49345370467E+03  0.14012833937E+04 -0.10151360012E+04  0.17993316598E+04  0.12699999809E+01 0. -1.
</event>
<event>
 5   0  0.6645526E-09  0.3997683E+04  0.7818609E-02  0.8005014E-01
        2   -1    0    0  501    0  0.00000000000E+00  0.00000000000E+00  0.22061276043E+04  0.22061276043E+04  0.25500000920E-02 0.  1.
       -2   -1    0    0    0  501  0.00000000000E+00  0.00000000000E+00 -0.18110313985E+04  0.18110313985E+04  0.25500000920E-02 0. -1.
    10030    2    1    2    0    0  0.00000000000E+00  0.00000000000E+00  0.39509620580E+03  0.40171590028E+04  0.39976825089E+04 0.  0.
        3    1    3    3  502    0  0.19675487142E+03  0.19737067932E+04  0.44600838695E+03  0.20330161034E+04  0.10100000352E+00 0.  1.
       -3    1    3    3    0  502 -0.19675487142E+03 -0.19737067932E+04 -0.50912181149E+02  0.19841428995E+04  0.10100000352E+00 0. -1.
</event>
<event>
 5   0  0.6645526E-09  0.4000719E+04  0.7818609E-02  0.8004402E-01
        2   -1    0    0  501    0  0.00000000000E+00  0.00000000000E+00  0.23232849528E+04  0.23232849528E+04  0.25500000920E-02 0.  1.
       -2   -1    0    0    0  501  0.00000000000E+00  0.00000000000E+00 -0.17223188676E+04  0.17223188676E+04  0.25500000920E-02 0. -1.
    10030    2    1    2    0    0  0.00000000000E+00  0.00000000000E+00  0.60096608528E+03  0.40456038204E+04  0.40007186900E+04 0.  0.
        3    1    3    3  502    0 -0.11787097322E+04 -0.10041739708E+04  0.15810697790E+04  0.22130304229E+04  0.10100000352E+00 0. -1.
       -3    1    3    3    0  502  0.11787097322E+04  0.10041739708E+04 -0.98010369371E+03  0.18325733975E+04  0.10100000352E+00 0.  1.
</event>
<event>
 5   0  0.6538370E-09  0.3996417E+04  0.7818609E-02  0.8005270E-01
       -2   -1    0    0    0  501  0.00000000000E+00  0.00000000000E+00  0.18540722755E+04  0.18540722755E+04  0.25500000920E-02 0. -1.
        2   -1    0    0  501    0  0.00000000000E+00  0.00000000000E+00 -0.21535497123E+04  0.21535497123E+04  0.25500000920E-02 0.  1.
    10030    2    1    2    0    0  0.00000000000E+00  0.00000000000E+00 -0.29947743679E+03  0.40076219878E+04  0.39964168029E+04 0.  0.
        4    1    3    3  502    0  0.52921180847E+03  0.19050016731E+04 -0.43992645545E+03  0.20254958434E+04  0.12699999809E+01 0. -1.
       -4    1    3    3    0  502 -0.52921180847E+03 -0.19050016731E+04  0.14044901866E+03  0.19821261444E+04  0.12699999809E+01 0.  1.
</event>
<event>
 5   0  0.6645526E-09  0.4002562E+04  0.7818609E-02  0.8004030E-01
       -2   -1    0    0    0  501  0.00000000000E+00  0.00000000000E+00  0.15782786944E+04  0.15782786944E+04  0.25500000920E-02 0.  1.
        2   -1    0    0  501    0  0.00000000000E+00  0.00000000000E+00 -0.25376546357E+04  0.25376546357E+04  0.25500000920E-02 0. -1.
    10030    2    1    2    0    0  0.00000000000E+00  0.00000000000E+00 -0.95937594134E+03  0.41159333301E+04  0.40025623019E+04 0.  0.
        3    1    3    3  502    0  0.16218641718E+04 -0.15341861654E+03  0.71562409077E+03  0.17793533975E+04  0.10100000352E+00 0.  1.
       -3    1    3    3    0  502 -0.16218641718E+04  0.15341861654E+03 -0.16750000321E+04  0.23365799326E+04  0.10100000352E+00 0. -1.
</event>
<event>
 5   0  0.2078125E-09  0.3999989E+04  0.7818609E-02  0.8004549E-01
       -1   -1    0    0    0  501  0.00000000000E+00  0.00000000000E+00  0.15813945980E+04  0.15813945980E+04  0.50400001928E-02 0. -1.
        1   -1    0    0  501    0  0.00000000000E+00  0.00000000000E+00 -0.25293992182E+04  0.25293992182E+04  0.50400001928E-02 0.  1.
    10030    2    1    2    0    0  0.00000000000E+00  0.00000000000E+00 -0.94800462020E+03  0.41107938162E+04  0.39999891299E+04 0.  0.
        5    1    3    3  502    0  0.80406507500E+02  0.18863803542E+04  0.20386005486E+03  0.18990726840E+04  0.46999998093E+01 0.  1.
       -5    1    3    3    0  502 -0.80406507500E+02 -0.18863803542E+04 -0.11518646751E+04  0.22117211322E+04  0.46999998093E+01 0. -1.
</event>
<event>
 5   0  0.6736335E-09  0.4000237E+04  0.7818609E-02  0.8004499E-01
       -2   -1    0    0    0  501  0.00000000000E+00  0.00000000000E+00  0.23848478200E+04  0.23848478200E+04  0.25500000920E-02 0.  1.
        2   -1    0    0  501    0  0.00000000000E+00  0.00000000000E+00 -0.16774549619E+04  0.16774549619E+04  0.25500000920E-02 0. -1.
    10030    2    1    2    0    0  0.00000000000E+00  0.00000000000E+00  0.70739285813E+03  0.40623027819E+04  0.40002373975E+04 0.  0.
        1    1    3    3  502    0 -0.13187297507E+04  0.83967038313E+03 -0.91320955442E+03  0.18105375439E+04  0.50400001928E-02 0.  1.
       -1    1    3    3    0  502  0.13187297507E+04 -0.83967038313E+03  0.16206024125E+04  0.22517652380E+04  0.50400001928E-02 0. -1.
</event>
<event>
 5   0  0.2078125E-09  0.4001122E+04  0.7818609E-02  0.8004320E-01
        1   -1    0    0  501    0  0.00000000000E+00  0.00000000000E+00  0.21054252144E+04  0.21054252144E+04  0.50400001928E-02 0.  1.
       -1   -1    0    0    0  501  0.00000000000E+00  0.00000000000E+00 -0.19009200431E+04  0.19009200431E+04  0.50400001928E-02 0. -1.
    10030    2    1    2    0    0  0.00000000000E+00  0.00000000000E+00  0.20450517129E+03  0.40063452576E+04  0.40011223372E+04 0.  0.
        3    1    3    3  502    0 -0.14259780024E+04 -0.98750779286E+03 -0.89587363071E+03  0.19522229578E+04  0.10100000352E+00 0.  1.
       -3    1    3    3    0  502  0.14259780024E+04  0.98750779286E+03  0.11003788020E+04  0.20541222998E+04  0.10100000352E+00 0. -1.
</event>
<event>
 5   0  0.6538370E-09  0.4001374E+04  0.7818609E-02  0.8004269E-01
       -2   -1    0    0    0  501  0.00000000000E+00  0.00000000000E+00  0.22111824313E+04  0.22111824313E+04  0.25500000920E-02 0.  1.
        2   -1    0    0  501    0  0.00000000000E+00  0.00000000000E+00 -0.18102297095E+04  0.18102297095E+04  0.25500000920E-02 0. -1.
    10030    2    1    2    0    0  0.00000000000E+00  0.00000000000E+00  0.40095272177E+03  0.40214121407E+04  0.40013738291E+04 0.  0.
        4    1    3    3  502    0  0.19223243215E+04  0.47057443598E+03 -0.94207676322E+02  0.19813247579E+04  0.12699999809E+01 0.  1.
       -4    1    3    3    0  502 -0.19223243215E+04 -0.47057443598E+03  0.49516039809E+03  0.20400873829E+04  0.12699999809E+01 0. -1.
</event>
<event>
 5   0  0.6538370E-09  0.4001569E+04  0.7818609E-02  0.8004230E-01
        2   -1    0    0  501    0  0.00000000000E+00  0.00000000000E+00  0.22681688258E+04  0.22681688258E+04  0.25500000920E-02 0.  1.
       -2   -1    0    0    0  501  0.00000000000E+00  0.00000000000E+00 -0.17649211439E+04  0.17649211439E+04  0.25500000920E-02 0. -1.
    10030    2    1    2    0    0  0.00000000000E+00  0.00000000000E+00  0.50324768190E+03  0.40330899697E+04  0.40015692514E+04 0.  0.
        4    1    3    3  502    0  0.16242642957E+04  0.24425630024E+03  0.14030950151E+04  0.21602251912E+04  0.12699999809E+01 0.  1.
       -4    1    3    3    0  502 -0.16242642957E+04 -0.24425630024E+03 -0.89984733321E+03  0.18728647785E+04  0.12699999809E+01 0. -1.
</event>
<event>
 5   0  0.6538370E-09  0.4000027E+04  0.7818609E-02  0.8004541E-01
       -2   -1    0    0    0  501  0.00000000000E+00  0.00000000000E+00  0.31577136179E+04  0.31577136179E+04  0.25500000920E-02 0. -1.
        2   -1    0    0  501    0  0.00000000000E+00  0.00000000000E+00 -0.12667566761E+04  0.12667566761E+04  0.25500000920E-02 0.  1.
    10030    2    1    2    0    0  0.00000000000E+00  0.00000000000E+00  0.18909569418E+04  0.44244702941E+04  0.40000274033E+04 0.  0.
        4    1    3    3  502    0  0.26534754913E+03  0.25664130846E+03  0.31197033557E+04  0.31414685616E+04  0.12699999809E+01 0. -1.
       -4    1    3    3    0  502 -0.26534754913E+03 -0.25664130846E+03 -0.12287464139E+04  0.12830017325E+04  0.12699999809E+01 0.  1.
</event>
<event>
 5   0  0.6736335E-09  0.3991230E+04  0.7818609E-02  0.8006318E-01
        2   -1    0    0  501    0  0.00000000000E+00  0.00000000000E+00  0.28469303599E+04  0.28469303599E+04  0.25500000920E-02 0.  1.
       -2   -1    0    0    0  501  0.00000000000E+00  0.00000000000E+00 -0.13988675552E+04  0.13988675552E+04  0.25500000920E-02 0. -1.
    10030    2    1    2    0    0  0.00000000000E+00  0.00000000000E+00  0.14480628047E+04  0.42457979151E+04  0.39912296413E+04 0.  0.
        1    1    3    3  502    0  0.67918594894E+03  0.11989447538E+04 -0.81154670550E+03  0.15991779548E+04  0.50400001928E-02 0. -1.
       -1    1    3    3    0  502 -0.67918594894E+03 -0.11989447538E+04  0.22596095102E+04  0.26466199603E+04  0.50400001928E-02 0.  1.
</event>
<event>
 5   0  0.2078125E-09  0.3999200E+04  0.7818609E-02  0.8004708E-01
        1   -1    0    0  501    0  0.00000000000E+00  0.00000000000E+00  0.16020008698E+04  0.16020008698E+04  0.50400001928E-02 0.  1.
       -1   -1    0    0    0  501  0.00000000000E+00  0.00000000000E+00 -0.24958791771E+04  0.24958791771E+04  0.50400001928E-02 0. -1.
    10030    2    1    2    0    0  0.00000000000E+00  0.00000000000E+00 -0.89387830732E+03  0.40978800469E+04  0.39992002263E+04 0.  0.
        4    1    3    3  502    0 -0.98500453920E+03 -0.14789116840E+04 -0.13866198224E+04  0.22539143409E+04  0.12699999809E+01 0. -1.
       -4    1    3    3    0  502  0.98500453920E+03  0.14789116840E+04  0.49274151512E+03  0.18439657060E+04  0.12699999809E+01 0.  1.
</event>
<event>
 5   0  0.2078125E-09  0.4019613E+04  0.7818609E-02  0.8000602E-01
       -1   -1    0    0    0  501  0.00000000000E+00  0.00000000000E+00  0.12744613720E+04  0.12744613720E+04  0.50400001928E-02 0. -1.
        1   -1    0    0  501    0  0.00000000000E+00  0.00000000000E+00 -0.31694355140E+04  0.31694355140E+04  0.50400001928E-02 0.  1.
    10030    2    1    2    0    0  0.00000000000E+00  0.00000000000E+00 -0.18949741420E+04  0.44438968861E+04  0.40196134808E+04 0.  0.
        5    1    3    3  502    0 -0.18133429835E+04 -0.63076010962E+03 -0.29042191046E+03  0.19417615888E+04  0.46999998093E+01 0. -1.
       -5    1    3    3    0  502  0.18133429835E+04  0.63076010962E+03 -0.16045522315E+04  0.25021352972E+04  0.46999998093E+01 0.  1.
</event>
<event>
 5   0  0.6538370E-09  0.3998939E+04  0.7818609E-02  0.8004761E-01
        2   -1    0    0  501    0  0.00000000000E+00  0.00000000000E+00  0.22047197482E+04  0.22047197482E+04  0.25500000920E-02 0.  1.
       -2   -1    0    0    0  501  0.00000000000E+00  0.00000000000E+00 -0.18133268729E+04  0.18133268729E+04  0.25500000920E-02 0. -1.
    10030    2    1    2    0    0  0.00000000000E+00  0.00000000000E+00  0.39139287524E+03  0.40180466211E+04  0.39989386425E+04 0.  0.
        4    1    3    3  502    0  0.31436756036E+03  0.65393262600E+03  0.20677741851E+04  0.21913800528E+04  0.12699999809E+01 0.  1.
       -4    1    3    3    0  502 -0.31436756036E+03 -0.65393262600E+03 -0.16763813099E+04  0.18266665682E+04  0.12699999809E+01 0. -1.
</event>
<event>
 5   0  0.6736335E-09  0.4009090E+04  0.7818609E-02  0.8002715E-01
       -2   -1    0    0    0  501  0.00000000000E+00  0.00000000000E+00  0.19312483000E+04  0.19312483000E+04  0.25500000920E-02 0. -1.
        2   -1    0    0  501    0  0.00000000000E+00  0.00000000000E+00 -0.20806235112E+04  0.20806235112E+04  0.25500000920E-02 0.  1.
    10030    2    1    2    0    0  0.00000000000E+00  0.00000000000E+00 -0.14937521125E+03  0.40118718112E+04  0.40090899810E+04 0.  0.
        1    1    3    3  502    0  0.17801695622E+04 -0.83078622910E+02  0.84371546545E+03  0.19717407321E+04  0.50400001928E-02 0.  1.
       -1    1    3    3    0  502 -0.17801695622E+04  0.83078622910E+02 -0.99309067671E+03  0.20401310791E+04  0.50400001928E-02 0. -1.
</event>
<event>
 5   0  0.6599276E-09  0.3999011E+04  0.7818609E-02  0.8004746E-01
        2   -1    0    0  501    0  0.00000000000E+00  0.00000000000E+00  0.15697340099E+04  0.15697340099E+04  0.25500000920E-02 0. -1.
       -2   -1    0    0    0  501  0.00000000000E+00  0.00000000000E+00 -0.25469420081E+04  0.25469420081E+04  0.25500000920E-02 0.  1.
    10030    2    1    2    0    0  0.00000000000E+00  0.00000000000E+00 -0.97720799817E+03  0.41166760180E+04  0.39990106233E+04 0.  0.
        2    1    3    3  502    0 -0.18495208410E+04 -0.52080257479E+03  0.80899749566E+02  0.19231503927E+04  0.25500000920E-02 0.  1.
       -2    1    3    3    0  502  0.18495208410E+04  0.52080257479E+03 -0.10581077477E+04  0.21935256254E+04  0.25500000920E-02 0. -1.
</event>
<event>
 5   0  0.6547327E-09  0.3988677E+04  0.7818609E-02  0.8006835E-01
        2   -1    0    0  501    0  0.00000000000E+00  0.00000000000E+00  0.16191306035E+04  0.16191306035E+04  0.25500000920E-02 0. -1.
       -2   -1    0    0    0  501  0.00000000000E+00  0.00000000000E+00 -0.24564954924E+04  0.24564954924E+04  0.25500000920E-02 0.  1.
    10030    2    1    2    0    0  0.00000000000E+00  0.00000000000E+00 -0.83736488890E+03  0.40756260959E+04  0.39886774896E+04 0.  0.
        5    1    3    3  502    0  0.12514160589E+04  0.13718958856E+04 -0.11620187907E+04  0.21905365173E+04  0.46999998093E+01 0.  1.
       -5    1    3    3    0  502 -0.12514160589E+04 -0.13718958856E+04  0.32465390181E+03  0.18850895786E+04  0.46999998093E+01 0. -1.
</event>
<event>
 5   0  0.6599276E-09  0.3999655E+04  0.7818609E-02  0.8004616E-01
       -2   -1    0    0    0  501  0.00000000000E+00  0.00000000000E+00  0.31990155719E+04  0.31990155719E+04  0.25500000920E-02 0.  1.
        2   -1    0    0  501    0  0.00000000000E+00  0.00000000000E+00 -0.12501691527E+04  0.12501691527E+04  0.25500000920E-02 0. -1.
    10030    2    1    2    0    0  0.00000000000E+00  0.00000000000E+00  0.19488464192E+04  0.44491847246E+04  0.39996552787E+04 0.  0.
        2    1    3    3  502    0  0.15487336666E+04 -0.73776208635E+03  0.21177770304E+04  0.27254079358E+04  0.25500000920E-02 0.  1.
       -2    1    3    3    0  502 -0.15487336666E+04  0.73776208635E+03 -0.16893061127E+03  0.17237767888E+04  0.25500000920E-02 0. -1.
</event>
<event>
 5   0  0.2078125E-09  0.3994153E+04  0.7818609E-02  0.8005727E-01
       -1   -1    0    0    0  501  0.00000000000E+00  0.00000000000E+00  0.17773615377E+04  0.17773615377E+04  0.50400001928E-02 0. -1.
        1   -1    0    0  501    0  0.00000000000E+00  0.00000000000E+00 -0.22439521388E+04  0.22439521388E+04  0.50400001928E-02 0.  1.
    10030    2    1    2    0    0  0.00000000000E+00  0.00000000000E+00 -0.46659060104E+03  0.40213136765E+04  0.39941528383E+04 0.  0.
        3    1    3    3  502    0 -0.14355800716E+04  0.10057470504E+04  0.73023766134E+03  0.18988586897E+04  0.10100000352E+00 0. -1.
       -3    1    3    3    0  502  0.14355800716E+04 -0.10057470504E+04 -0.11968282624E+04  0.21224549868E+04  0.10100000352E+00 0.  1.
</event>
<event>
 5   0  0.6736335E-09  0.3999016E+04  0.7818609E-02  0.8004745E-01
        2   -1    0    0  501    0  0.00000000000E+00  0.00000000000E+00  0.26901109477E+04  0.26901109477E+04  0.25500000920E-02 0. -1.
       -2   -1    0    0    0  501  0.00000000000E+00  0.00000000000E+00 -0.14861959693E+04  0.14861959693E+04  0.25500000920E-02 0.  1.
    10030    2    1    2    0    0  0.00000000000E+00  0.00000000000E+00  0.12039149784E+04  0.41763069171E+04  0.39990159027E+04 0.  0.
        1    1    3    3  502    0  0.57398789912E+03 -0.13334070119E+04  0.20379051381E+04  0.25020978637E+04  0.50400001928E-02 0. -1.
       -1    1    3    3    0  502 -0.57398789912E+03  0.13334070119E+04 -0.83399015972E+03  0.16742090533E+04  0.50400001928E-02 0.  1.
</event>
<event>
 5   0  0.2078125E-09  0.4001428E+04  0.7818609E-02  0.8004259E-01
       -1   -1    0    0    0  501  0.00000000000E+00  0.00000000000E+00  0.14390533303E+04  0.14390533303E+04  0.50400001928E-02 0.  1.
        1   -1    0    0  501    0  0.00000000000E+00  0.00000000000E+00 -0.27815897401E+04  0.27815897401E+04  0.50400001928E-02 0. -1.
    10030    2    1    2    0    0  0.00000000000E+00  0.00000000000E+00 -0.13425364098E+04  0.42206430704E+04  0.40014277347E+04 0.  0.
        4    1    3    3  502    0  0.12316349639E+03 -0.16265276266E+04 -0.18932224767E+04  0.24990106695E+04  0.12699999809E+01 0. -1.
       -4    1    3    3    0  502 -0.12316349639E+03  0.16265276266E+04  0.55068606688E+03  0.17216324010E+04  0.12699999809E+01 0.  1.
</event>
<event>
 5   0  0.2078125E-09  0.3999512E+04  0.7818609E-02  0.8004645E-01
        1   -1    0    0  501    0  0.00000000000E+00  0.00000000000E+00  0.21825711848E+04  0.21825711848E+04  0.50400001928E-02 0. -1.
       -1   -1    0    0    0  501  0.00000000000E+00  0.00000000000E+00 -0.18322535713E+04  0.18322535713E+04  0.50400001928E-02 0.  1.
    10030    2    1    2    0    0  0.00000000000E+00  0.00000000000E+00  0.35031761352E+03  0.40148247562E+04  0.39995118943E+04 0.  0.
        4    1    3    3  502    0  0.16729344935E+04  0.10345178168E+04  0.53721311205E+03  0.20390037944E+04  0.12699999809E+01 0. -1.
       -4    1    3    3    0  502 -0.16729344935E+04 -0.10345178168E+04 -0.18689549853E+03  0.19758209618E+04  0.12699999809E+01 0.  1.
</event>
<event>
 5   0  0.6645526E-09  0.3999184E+04  0.7818609E-02  0.8004711E-01
       -2   -1    0    0    0  501  0.00000000000E+00  0.00000000000E+00  0.15567974861E+04  0.15567974861E+04  0.25500000920E-02 0.  1.
        2   -1    0    0  501    0  0.00000000000E+00  0.00000000000E+00 -0.25683290053E+04  0.25683290053E+04  0.25500000920E-02 0. -1.
    10030    2    1    2    0    0  0.00000000000E+00  0.00000000000E+00 -0.10115315193E+04  0.41251264914E+04  0.39991839862E+04 0.  0.
        3    1    3    3  502    0  0.13713632998E+04 -0.14116032101E+03  0.98822668546E+03  0.16962180073E+04  0.10100000352E+00 0.  1.
       -3    1    3    3    0  502 -0.13713632998E+04  0.14116032101E+03 -0.19997582047E+04  0.24289084841E+04  0.10100000352E+00 0. -1.
</event>
<event>
 5   0  0.6547327E-09  0.4000039E+04  0.7818609E-02  0.8004539E-01
        2   -1    0    0  501    0  0.00000000000E+00  0.00000000000E+00  0.20946641338E+04  0.20946641338E+04  0.25500000920E-02 0.  1.
       -2   -1    0    0    0  501  0.00000000000E+00  0.00000000000E+00 -0.19096513176E+04  0.19096513176E+04  0.25500000920E-02 0. -1.
    10030    2    1    2    0    0  0.00000000000E+00  0.00000000000E+00  0.18501281627E+03  0.40043154514E+04  0.40000390613E+04 0.  0.
        5    1    3    3  502    0 -0.57690478478E+03 -0.16573453039E+04  0.10529295266E+04  0.20465324979E+04  0.46999998093E+01 0.  1.
       -5    1    3    3    0  502  0.57690478478E+03  0.16573453039E+04 -0.86791671035E+03  0.19577829535E+04  0.46999998093E+01 0. -1.
</event>
<event>
 5   0  0.6547327E-09  0.4000750E+04  0.7818609E-02  0.8004395E-01
        2   -1    0    0  501    0  0.00000000000E+00  0.00000000000E+00  0.13431676828E+04  0.13431676828E+04  0.25500000920E-02 0.  1.
       -2   -1    0    0    0  501  0.00000000000E+00  0.00000000000E+00 -0.29791511533E+04  0.29791511533E+04  0.25500000920E-02 0. -1.
    10030    2    1    2    0    0  0.00000000000E+00  0.00000000000E+00 -0.16359834704E+04  0.43223188361E+04  0.40007497054E+04 0.  0.
        5    1    3    3  502    0 -0.38927462810E+03 -0.16825832720E+04 -0.19085073192E+04  0.25739159817E+04  0.46999998093E+01 0. -1.
       -5    1    3    3    0  502  0.38927462810E+03  0.16825832720E+04  0.27252384878E+03  0.17484028544E+04  0.46999998093E+01 0.  1.
</event>
<event>
 5   0  0.6736335E-09  0.4001579E+04  0.7818609E-02  0.8004228E-01
        2   -1    0    0  501    0  0.00000000000E+00  0.00000000000E+00  0.27042876978E+04  0.27042876978E+04  0.25500000920E-02 0. -1.
       -2   -1    0    0    0  501  0.00000000000E+00  0.00000000000E+00 -0.14803004974E+04  0.14803004974E+04  0.25500000920E-02 0.  1.
    10030    2    1    2    0    0  0.00000000000E+00  0.00000000000E+00  0.12239872004E+04  0.41845881952E+04  0.40015789004E+04 0.  0.
        1    1    3    3  502    0 -0.14425130907E+04 -0.12286467936E+04 -0.59837944052E+02  0.18957841490E+04  0.50400001928E-02 0.  1.
       -1    1    3    3    0  502  0.14425130907E+04  0.12286467936E+04  0.12838251444E+04  0.22888040461E+04  0.50400001928E-02 0. -1.
</event>
<event>
 5   0  0.2078125E-09  0.3998527E+04  0.7818609E-02  0.8004844E-01
       -1   -1    0    0    0  501  0.00000000000E+00  0.00000000000E+00  0.33430142998E+04  0.33430142998E+04  0.50400001928E-02 0. -1.
        1   -1    0    0  501    0  0.00000000000E+00  0.00000000000E+00 -0.11956436935E+04  0.11956436936E+04  0.50400001928E-02 0.  1.
    10030    2    1    2    0    0  0.00000000000E+00  0.00000000000E+00  0.21473706063E+04  0.45386579934E+04  0.39985267112E+04 0.  0.
        1    1    3    3  502    0 -0.70512996361E+03 -0.14799551879E+04 -0.22526698238E+03  0.16547570327E+04  0.50400001928E-02 0.  1.
       -1    1    3    3    0  502  0.70512996361E+03  0.14799551879E+04  0.23726375887E+04  0.28839009607E+04  0.50400001928E-02 0. -1.
</event>
<event>
 5   0  0.6547327E-09  0.4007445E+04  0.7818609E-02  0.8003046E-01
       -2   -1    0    0    0  501  0.00000000000E+00  0.00000000000E+00  0.20530114803E+04  0.20530114803E+04  0.25500000920E-02 0.  1.
        2   -1    0    0  501    0  0.00000000000E+00  0.00000000000E+00 -0.19556164517E+04  0.19556164517E+04  0.25500000920E-02 0. -1.
    10030    2    1    2    0    0  0.00000000000E+00  0.00000000000E+00  0.97395028573E+02  0.40086279320E+04  0.40074445855E+04 0.  0.
        5    1    3    3  502    0 -0.12391054822E+04 -0.15626127121E+04  0.24302287051E+03  0.20090353629E+04  0.46999998093E+01 0.  1.
       -5    1    3    3    0  502  0.12391054822E+04  0.15626127121E+04 -0.14562784194E+03  0.19995925691E+04  0.46999998093E+01 0. -1.
</event>
<event>
 5   0  0.6599276E-09  0.3998970E+04  0.7818609E-02  0.8004754E-01
        2   -1    0    0  501    0  0.00000000000E+00  0.00000000000E+00  0.26471450305E+04  0.26471450305E+04  0.25500000920E-02 0. -1.
       -2   -1    0    0    0  501  0.00000000000E+00  0.00000000000E+00 -0.15102834709E+04  0.15102834709E+04  0.25500000920E-02 0.  1.
    10030    2    1    2    0    0  0.00000000000E+00  0.00000000000E+00  0.11368615597E+04  0.41574285014E+04  0.39989695596E+04 0.  0.
        2    1    3    3  502    0  0.13682135917E+04 -0.13151511513E+04  0.12229061844E+04  0.22576825550E+04  0.25500000920E-02 0. -1.
       -2    1    3    3    0  502 -0.13682135917E+04  0.13151511513E+04 -0.86044624747E+02  0.18997459464E+04  0.25500000920E-02 0.  1.
</event>
<event>
 5   0  0.6645526E-09  0.4000950E+04  0.7818609E-02  0.8004355E-01
        2   -1    0    0  501    0  0.00000000000E+00  0.00000000000E+00  0.17382291091E+04  0.17382291091E+04  0.25500000920E-02 0.  1.
       -2   -1    0    0    0  501  0.00000000000E+00  0.00000000000E+00 -0.23022856636E+04  0.23022856636E+04  0.25500000920E-02 0. -1.
    10030    2    1    2    0    0  0.00000000000E+00  0.00000000000E+00 -0.56405655454E+03  0.40405147728E+04  0.40009498662E+04 0.  0.
        3    1    3    3  502    0  0.57264118776E+03  0.11503112141E+04 -0.18304109465E+04  0.22364118723E+04  0.10100000352E+00 0. -1.
       -3    1    3    3    0  502 -0.57264118776E+03 -0.11503112141E+04  0.12663543920E+04  0.18041029005E+04  0.10100000352E+00 0.  1.
</event>
<event>
 5   0  0.2078125E-09  0.4000992E+04  0.7818609E-02  0.8004347E-01
       -1   -1    0    0    0  501  0.00000000000E+00  0.00000000000E+00  0.12483408463E+04  0.12483408463E+04  0.50400001928E-02 0.  1.
        1   -1    0    0  501    0  0.00000000000E+00  0.00000000000E+00 -0.32058421722E+04  0.32058421722E+04  0.50400001928E-02 0. -1.
    10030    2    1    2    0    0  0.00000000000E+00  0.00000000000E+00 -0.19575013259E+04  0.44541830185E+04  0.40009917422E+04 0.  0.
        1    1    3    3  502    0 -0.52485305480E+02  0.11506261243E+04  0.84214775178E+03  0.14268524875E+04  0.50400001928E-02 0.  1.
       -1    1    3    3    0  502  0.52485305480E+02 -0.11506261243E+04 -0.27996490777E+04  0.30273305309E+04  0.50400001928E-02 0. -1.
</event>
<event>
 5   0  0.6645526E-09  0.4000153E+04  0.7818609E-02  0.8004516E-01
       -2   -1    0    0    0  501  0.00000000000E+00  0.00000000000E+00  0.23185460192E+04  0.23185460192E+04  0.25500000920E-02 0. -1.
        2   -1    0    0  501    0  0.00000000000E+00  0.00000000000E+00 -0.17253509361E+04  0.17253509361E+04  0.25500000920E-02 0.  1.
    10030    2    1    2    0    0  0.00000000000E+00  0.00000000000E+00  0.59319508305E+03  0.40438969553E+04  0.40001527694E+04 0.  0.
        3    1    3    3  502    0  0.18719425901E+04  0.58043764667E+03  0.69999583620E+03  0.20811225584E+04  0.10100000352E+00 0. -1.
       -3    1    3    3    0  502 -0.18719425901E+04 -0.58043764667E+03 -0.10680075314E+03  0.19627743969E+04  0.10100000352E+00 0.  1.
</event>
<event>
 5   0  0.6547327E-09  0.4000229E+04  0.7818609E-02  0.8004500E-01
        2   -1    0    0  501    0  0.00000000000E+00  0.00000000000E+00  0.30035586250E+04  0.30035586250E+04  0.25500000920E-02 0.  1.
       -2   -1    0    0    0  501  0.00000000000E+00  0.00000000000E+00 -0.13319063126E+04  0.13319063126E+04  0.25500000920E-02 0. -1.
    10030    2    1    2    0    0  0.00000000000E+00  0.00000000000E+00  0.16716523124E+04  0.43354649377E+04  0.40002293399E+04 0.  0.
        5    1    3    3  502    0  0.42024753710E+03  0.17584119691E+04  0.17629798331E+04  0.25252209067E+04  0.46999998093E+01 0. -1.
       -5    1    3    3    0  502 -0.42024753710E+03 -0.17584119691E+04 -0.91327520662E+02  0.18102440310E+04  0.46999998093E+01 0.  1.
</event>
<event>
 5   0  0.2078125E-09  0.3986392E+04  0.7818609E-02  0.8007297E-01
       -1   -1    0    0    0  501  0.00000000000E+00  0.00000000000E+00  0.13999808936E+04  0.13999808936E+04  0.50400001928E-02 0.  1.
        1   -1    0    0  501    0  0.00000000000E+00  0.00000000000E+00 -0.28377744947E+04  0.28377744947E+04  0.50400001928E-02 0. -1.
    10030    2    1    2    0    0  0.00000000000E+00  0.00000000000E+00 -0.14377936011E+04  0.42377553883E+04  0.39863918888E+04 0.  0.
        1    1    3    3  502    0 -0.11498049383E+04 -0.72651792224E+03  0.83001189008E+03  0.15933610467E+04  0.50400001928E-02 0.  1.
       -1    1    3    3    0  502  0.11498049383E+04  0.72651792224E+03 -0.22678054912E+04  0.26443943415E+04  0.50400001928E-02 0. -1.
</event>
<event>
 5   0  0.2078125E-09  0.3998849E+04  0.7818609E-02  0.8004779E-01
        1   -1    0    0  501    0  0.00000000000E+00  0.00000000000E+00  0.14174414170E+04  0.14174414170E+04  0.50400001928E-02 0. -1.
       -1   -1    0    0    0  501  0.00000000000E+00  0.00000000000E+00 -0.28203616989E+04  0.28203616989E+04  0.50400001928E-02 0.  1.
    10030    2    1    2    0    0  0.00000000000E+00  0.00000000000E+00 -0.14029202819E+04  0.42378031159E+04  0.39988485757E+04 0.  0.
        2    1    3    3  502    0 -0.96406085016E+03  0.81233625623E+03 -0.23460953449E+04  0.26633563192E+04  0.25500000920E-02 0.  1.
       -2    1    3    3    0  502  0.96406085016E+03 -0.81233625623E+03  0.94317506295E+03  0.15744467966E+04  0.25500000920E-02 0. -1.
</event>
<event>
 5   0  0.6538370E-09  0.3994119E+04  0.7818609E-02  0.8005734E-01
       -2   -1    0    0    0  501  0.00000000000E+00  0.00000000000E+00  0.20873904136E+04  0.20873904136E+04  0.25500000920E-02 0.  1.
        2   -1    0    0  501    0  0.00000000000E+00  0.00000000000E+00 -0.19106373774E+04  0.19106373774E+04  0.25500000920E-02 0. -1.
    10030    2    1    2    0    0  0.00000000000E+00  0.00000000000E+00  0.17675303617E+03  0.39980277911E+04  0.39941187492E+04 0.  0.
        4    1    3    3  502    0  0.16239790504E+04 -0.12746555729E+03  0.12447946543E+04  0.20501392071E+04  0.12699999809E+01 0.  1.
       -4    1    3    3    0  502 -0.16239790504E+04  0.12746555729E+03 -0.10680416182E+04  0.19478885839E+04  0.12699999809E+01 0. -1.
</event>
<event>
 5   0  0.6538370E-09  0.3999014E+04  0.7818609E-02  0.8004746E-01
        2   -1    0    0  501    0  0.00000000000E+00  0.00000000000E+00  0.25227204009E+04  0.25227204009E+04  0.25500000920E-02 0. -1.
       -2   -1    0    0    0  501  0.00000000000E+00  0.00000000000E+00 -0.15848080329E+04  0.15848080329E+04  0.25500000920E-02 0.  1.
    10030    2    1    2    0    0  0.00000000000E+00  0.00000000000E+00  0.93791236806E+03  0.41075284338E+04  0.39990136565E+04 0.  0.
        4    1    3    3  502    0 -0.12296720677E+04  0.45849658330E+03 -0.10805256097E+04  0.16999557986E+04  0.12699999809E+01 0.  1.
       -4    1    3    3    0  502  0.12296720677E+04 -0.45849658330E+03  0.20184379778E+04  0.24075726352E+04  0.12699999809E+01 0. -1.
</event>
<event>
 5   0  0.6599276E-09  0.4001476E+04  0.7818609E-02  0.8004249E-01
        2   -1    0    0  501    0  0.00000000000E+00  0.00000000000E+00  0.20955075558E+04  0.20955075558E+04  0.25500000920E-02 0. -1.
       -2   -1    0    0    0  501  0.00000000000E+00  0.00000000000E+00 -0.19102540078E+04  0.19102540078E+04  0.25500000920E-02 0.  1.
    10030    2    1    2    0    0  0.00000000000E+00  0.00000000000E+00  0.18525354797E+03  0.40057615637E+04  0.40014755813E+04 0.  0.
        2    1    3    3  502    0 -0.67737796736E+03  0.10007487236E+04  0.16888919440E+04  0.20767028957E+04  0.25500000920E-02 0. -1.
       -2    1    3    3    0  502  0.67737796736E+03 -0.10007487236E+04 -0.15036383961E+04  0.19290586680E+04  0.25500000920E-02 0.  1.
</event>
<event>
 5   0  0.6736335E-09  0.3998872E+04  0.7818609E-02  0.8004774E-01
        2   -1    0    0  501    0  0.00000000000E+00  0.00000000000E+00  0.16159557536E+04  0.16159557536E+04  0.25500000920E-02 0. -1.
       -2   -1    0    0    0  501  0.00000000000E+00  0.00000000000E+00 -0.24739191195E+04  0.24739191195E+04  0.25500000920E-02 0.  1.
    10030    2    1    2    0    0  0.00000000000E+00  0.00000000000E+00 -0.85796336585E+03  0.40898748731E+04  0.39988717584E+04 0.  0.
        1    1    3    3  502    0 -0.30399311893E+03  0.17467778276E+04 -0.13741882103E+04  0.22432204156E+04  0.50400001928E-02 0. -1.
       -1    1    3    3    0  502  0.30399311893E+03 -0.17467778276E+04  0.51622484449E+03  0.18466544575E+04  0.50400001928E-02 0.  1.
</event>
<event>
 5   0  0.6538370E-09  0.3997624E+04  0.7818609E-02  0.8005026E-01
        2   -1    0    0  501    0  0.00000000000E+00  0.00000000000E+00  0.24878192684E+04  0.24878192684E+04  0.25500000920E-02 0.  1.
       -2   -1    0    0    0  501  0.00000000000E+00  0.00000000000E+00 -0.16059242957E+04  0.16059242957E+04  0.25500000920E-02 0. -1.
    10030    2    1    2    0    0  0.00000000000E+00  0.00000000000E+00  0.88189497279E+03  0.40937435641E+04  0.39976239975E+04 0.  0.
        4    1    3    3  502    0 -0.43552830161E+03  0.12684598933E+04  0.19586667673E+04  0.23738265566E+04  0.12699999809E+01 0.  1.
       -4    1    3    3    0  502  0.43552830161E+03 -0.12684598933E+04 -0.10767717946E+04  0.17199170075E+04  0.12699999809E+01 0. -1.
</event>
<event>
 5   0  0.6645526E-09  0.4000737E+04  0.7818609E-02  0.8004398E-01
        2   -1    0    0  501    0  0.00000000000E+00  0.00000000000E+00  0.19310510473E+04  0.19310510473E+04  0.25500000920E-02 0.  1.
       -2   -1    0    0    0  501  0.00000000000E+00  0.00000000000E+00 -0.20721742162E+04  0.20721742162E+04  0.25500000920E-02 0. -1.
    10030    2    1    2    0    0  0.00000000000E+00  0.00000000000E+00 -0.14112316889E+03  0.40032252636E+04  0.40007370274E+04 0.  0.
        3    1    3    3  502    0 -0.73122329334E+03 -0.90124435256E+03 -0.17008524416E+04  0.20590842445E+04  0.10100000352E+00 0. -1.
       -3    1    3    3    0  502  0.73122329334E+03  0.90124435256E+03  0.15597292727E+04  0.19441410191E+04  0.10100000352E+00 0.  1.
</event>
<event>
 5   0  0.2078125E-09  0.4001770E+04  0.7818609E-02  0.8004190E-01
        1   -1    0    0  501    0  0.00000000000E+00  0.00000000000E+00  0.19339143126E+04  0.19339143126E+04  0.50400001928E-02 0.  1.
       -1   -1    0    0    0  501  0.00000000000E+00  0.00000000000E+00 -0.20701750938E+04  0.20701750938E+04  0.50400001928E-02 0. -1.
    10030    2    1    2    0    0  0.00000000000E+00  0.00000000000E+00 -0.13626078117E+03  0.40040894064E+04  0.40017702300E+04 0.  0.
        3    1    3    3  502    0  0.44119613847E+03  0.57303131514E+03  0.17985666038E+04  0.19385202499E+04  0.10100000352E+00 0.  1.
       -3    1    3    3    0  502 -0.44119613847E+03 -0.57303131514E+03 -0.19348273849E+04  0.20655691565E+04  0.10100000352E+00 0. -1.
</event>
<event>
 5   0  0.2078125E-09  0.4008695E+04  0.7818609E-02  0.8002795E-01
        1   -1    0    0  501    0  0.00000000000E+00  0.00000000000E+00  0.19254465913E+04  0.19254465914E+04  0.50400001928E-02 0. -1.
       -1   -1    0    0    0  501  0.00000000000E+00  0.00000000000E+00 -0.20864819741E+04  0.20864819741E+04  0.50400001928E-02 0.  1.
    10030    2    1    2    0    0  0.00000000000E+00  0.00000000000E+00 -0.16103538273E+03  0.40119285654E+04  0.40086953513E+04 0.  0.
        3    1    3    3  502    0 -0.14558981404E+04  0.68700431716E+03 -0.12755474593E+04  0.20539317559E+04  0.10100000352E+00 0.  1.
       -3    1    3    3    0  502  0.14558981404E+04 -0.68700431716E+03  0.11145120766E+04  0.19579968095E+04  0.10100000352E+00 0. -1.
</event>
<event>
 5   0  0.2078125E-09  0.3999467E+04  0.7818609E-02  0.8004654E-01
        1   -1    0    0  501    0  0.00000000000E+00  0.00000000000E+00  0.27065442430E+04  0.27065442430E+04  0.50400001928E-02 0.  1.
       -1   -1    0    0    0  501  0.00000000000E+00  0.00000000000E+00 -0.14775057771E+04  0.14775057771E+04  0.50400001928E-02 0. -1.
    10030    2    1    2    0    0  0.00000000000E+00  0.00000000000E+00  0.12290384660E+04  0.41840500201E+04  0.39994673420E+04 0.  0.
        4    1    3    3  502    0 -0.34208396668E+02 -0.13480779143E+04  0.21593028896E+04  0.25457955258E+04  0.12699999809E+01 0.  1.
       -4    1    3    3    0  502  0.34208396668E+02  0.13480779143E+04 -0.93026442362E+03  0.16382544943E+04  0.12699999809E+01 0. -1.
</event>
<event>
 5   0  0.2078125E-09  0.4003265E+04  0.7818609E-02  0.8003888E-01
       -1   -1    0    0    0  501  0.00000000000E+00  0.00000000000E+00  0.12767532524E+04  0.12767532524E+04  0.50400001928E-02 0.  1.
        1   -1    0    0  501    0  0.00000000000E+00  0.00000000000E+00 -0.31380640446E+04  0.31380640446E+04  0.50400001928E-02 0. -1.
    10030    2    1    2    0    0  0.00000000000E+00  0.00000000000E+00 -0.18613107921E+04  0.44148172970E+04  0.40032654048E+04 0.  0.
        3    1    3    3  502    0 -0.22131301386E+03 -0.19247271916E+04 -0.37597757006E+03  0.19735534844E+04  0.10100000352E+00 0.  1.
       -3    1    3    3    0  502  0.22131301386E+03  0.19247271916E+04 -0.14853332221E+04  0.24412638126E+04  0.10100000352E+00 0. -1.
</event>
<event>
 5   0  0.6736335E-09  0.3999556E+04  0.7818609E-02  0.8004636E-01
        2   -1    0    0  501    0  0.00000000000E+00  0.00000000000E+00  0.14763864998E+04  0.14763864998E+04  0.25500000920E-02 0.  1.
       -2   -1    0    0    0  501  0.00000000000E+00  0.00000000000E+00 -0.27087168337E+04  0.27087168337E+04  0.25500000920E-02 0. -1.
    10030    2    1    2    0    0  0.00000000000E+00  0.00000000000E+00 -0.12323303339E+04  0.41851033335E+04  0.39995564580E+04 0.  0.
        1    1    3    3  502    0  0.10869165376E+03 -0.19028868111E+04 -0.12494880598E+04  0.22790376266E+04  0.50400001928E-02 0. -1.
       -1    1    3    3    0  502 -0.10869165376E+03  0.19028868111E+04  0.17157725989E+02  0.19060657069E+04  0.50400001928E-02 0.  1.
</event>
<event>
 5   0  0.6538370E-09  0.4000340E+04  0.7818609E-02  0.8004478E-01
       -2   -1    0    0    0  501  0.00000000000E+00  0.00000000000E+00  0.20681290048E+04  0.20681290048E+04  0.25500000920E-02 0.  1.
        2   -1    0    0  501    0  0.00000000000E+00  0.00000000000E+00 -0.19344437245E+04  0.19344437245E+04  0.25500000920E-02 0. -1.
    10030    2    1    2    0    0  0.00000000000E+00  0.00000000000E+00  0.13368528034E+03  0.40025727293E+04  0.40003395730E+04 0.  0.
        4    1    3    3  502    0  0.28456052069E+03  0.38845134852E+03 -0.18755830105E+04  0.19364096628E+04  0.12699999809E+01 0. -1.
       -4    1    3    3    0  502 -0.28456052069E+03 -0.38845134852E+03  0.20092682908E+04  0.20661630665E+04  0.12699999809E+01 0.  1.
</event>
<event>
 5   0  0.6599276E-09  0.4000418E+04  0.7818609E-02  0.8004462E-01
       -2   -1    0    0    0  501  0.00000000000E+00  0.00000000000E+00  0.17583599720E+04  0.17583599720E+04  0.25500000920E-02 0. -1.
        2   -1    0    0  501    0  0.00000000000E+00  0.00000000000E+00 -0.22753221032E+04  0.22753221032E+04  0.25500000920E-02 0.  1.
    10030    2    1    2    0    0  0.00000000000E+00  0.00000000000E+00 -0.51696213112E+03  0.40336820752E+04  0.40004176330E+04 0.  0.
        2    1    3    3  502    0  0.14665098925E+04 -0.13058283680E+04  0.12546906511E+03  0.19676334714E+04  0.25500000920E-02 0.  1.
       -2    1    3    3    0  502 -0.14665098925E+04  0.13058283680E+04 -0.64243119623E+03  0.20660486038E+04  0.25500000920E-02 0. -1.
</event>
<event>
 5   0  0.2078125E-09  0.3999780E+04  0.7818609E-02  0.8004591E-01
        1   -1    0    0  501    0  0.00000000000E+00  0.00000000000E+00  0.21797393774E+04  0.21797393774E+04  0.50400001928E-02 0. -1.
       -1   -1    0    0    0  501  0.00000000000E+00  0.00000000000E+00 -0.18348799712E+04  0.18348799712E+04  0.50400001928E-02 0.  1.
    10030    2    1    2    0    0  0.00000000000E+00  0.00000000000E+00  0.34485940621E+03  0.40146193486E+04  0.39997800570E+04 0.  0.
        3    1    3    3  502    0  0.35727565730E+03  0.17100599691E+04 -0.80463399828E+03  0.19233790252E+04  0.10100000352E+00 0. -1.
       -3    1    3    3    0  502 -0.35727565730E+03 -0.17100599691E+04  0.11494934045E+04  0.20912403234E+04  0.10100000352E+00 0.  1.
</event>
<event>
 5   0  0.6736335E-09  0.4000102E+04  0.7818609E-02  0.8004526E-01
       -2   -1    0    0    0  501  0.00000000000E+00  0.00000000000E+00  0.28340338662E+04  0.28340338662E+04  0.25500000920E-02 0.  1.
        2   -1    0    0  501    0  0.00000000000E+00  0.00000000000E+00 -0.14114874142E+04  0.14114874142E+04  0.25500000920E-02 0. -1.
    10030    2    1    2    0    0  0.00000000000E+00  0.00000000000E+00  0.14225464521E+04  0.42455212804E+04  0.40001015655E+04 0.  0.
        1    1    3    3  502    0 -0.15708577656E+04  0.11716627029E+04  0.11355697616E+04  0.22649296441E+04  0.50400001928E-02 0.  1.
       -1    1    3    3    0  502  0.15708577656E+04 -0.11716627029E+04  0.28697669043E+03  0.19805916363E+04  0.50400001928E-02 0. -1.
</event>
<event>
 5   0  0.2078125E-09  0.4000145E+04  0.7818609E-02  0.8004517E-01
       -1   -1    0    0    0  501  0.00000000000E+00  0.00000000000E+00  0.13814426642E+04  0.13814426642E+04  0.50400001928E-02 0.  1.
        1   -1    0    0  501    0  0.00000000000E+00  0.00000000000E+00 -0.28957343575E+04  0.28957343575E+04  0.50400001928E-02 0. -1.
    10030    2    1    2    0    0  0.00000000000E+00  0.00000000000E+00 -0.15142916933E+04  0.42771770217E+04  0.40001454902E+04 0.  0.
        4    1    3    3  502    0  0.19584453509E+04 -0.20762934282E+03 -0.11301171327E+04  0.22706352598E+04  0.12699999809E+01 0. -1.
       -4    1    3    3    0  502 -0.19584453509E+04  0.20762934282E+03 -0.38417456055E+03  0.20065417619E+04  0.12699999809E+01 0.  1.
</event>
<event>
 5   0  0.2078125E-09  0.3998916E+04  0.7818609E-02  0.8004765E-01
       -1   -1    0    0    0  501  0.00000000000E+00  0.00000000000E+00  0.30906205612E+04  0.30906205612E+04  0.50400001928E-02 0.  1.
        1   -1    0    0  501    0  0.00000000000E+00  0.00000000000E+00 -0.12935372679E+04  0.12935372679E+04  0.50400001928E-02 0. -1.
    10030    2    1    2    0    0  0.00000000000E+00  0.00000000000E+00  0.17970832932E+04  0.43841578291E+04  0.39989162917E+04 0.  0.
        3    1    3    3  502    0  0.45690652315E+02 -0.49083008845E+03  0.30229552203E+04  0.30628842756E+04  0.10100000352E+00 0.  1.
       -3    1    3    3    0  502 -0.45690652315E+02  0.49083008845E+03 -0.12258719271E+04  0.13212735535E+04  0.10100000352E+00 0. -1.
</event>
<event>
 5   0  0.2078125E-09  0.4002960E+04  0.7818609E-02  0.8003950E-01
        1   -1    0    0  501    0  0.00000000000E+00  0.00000000000E+00  0.15812151307E+04  0.15812151307E+04  0.50400001928E-02 0. -1.
       -1   -1    0    0    0  501  0.00000000000E+00  0.00000000000E+00 -0.25334454879E+04  0.25334454879E+04  0.50400001928E-02 0.  1.
    10030    2    1    2    0    0  0.00000000000E+00  0.00000000000E+00 -0.95223035717E+03  0.41146606185E+04  0.40029600738E+04 0.  0.
        1    1    3    3  502    0 -0.97744644030E+03 -0.17295563014E+04 -0.22610861629E+03  0.19994728430E+04  0.50400001928E-02 0. -1.
       -1    1    3    3    0  502  0.97744644030E+03  0.17295563014E+04 -0.72612174088E+03  0.21151877756E+04  0.50400001928E-02 0.  1.
</event>
<event>
 5   0  0.2078125E-09  0.4002366E+04  0.7818609E-02  0.8004069E-01
       -1   -1    0    0    0  501  0.00000000000E+00  0.00000000000E+00  0.15606560999E+04  0.15606561000E+04  0.50400001928E-02 0. -1.
        1   -1    0    0  501    0  0.00000000000E+00  0.00000000000E+00 -0.25660577189E+04  0.25660577189E+04  0.50400001928E-02 0.  1.
    10030    2    1    2    0    0  0.00000000000E+00  0.00000000000E+00 -0.10054016189E+04  0.41267138188E+04  0.40023661161E+04 0.  0.
        3    1    3    3  502    0  0.79530900444E+02 -0.16029366675E+04 -0.17352493535E+04  0.23636457969E+04  0.10100000352E+00 0.  1.
       -3    1    3    3    0  502 -0.79530900444E+02  0.16029366675E+04  0.72984773456E+03  0.17630680219E+04  0.10100000352E+00 0. -1.
</event>
<event>
 5   0  0.6538370E-09  0.3999706E+04  0.7818609E-02  0.8004606E-01
        2   -1    0    0  501    0  0.00000000000E+00  0.00000000000E+00  0.20374303177E+04  0.20374303177E+04  0.25500000920E-02 0.  1.
       -2   -1    0    0    0  501  0.00000000000E+00  0.00000000000E+00 -0.19629691178E+04  0.19629691178E+04  0.25500000920E-02 0. -1.
    10030    2    1    2    0    0  0.00000000000E+00  0.00000000000E+00  0.74461199998E+02  0.40003994355E+04  0.39997063859E+04 0.  0.
        4    1    3    3  502    0 -0.17374912828E+04 -0.79416474824E+03  0.62880377572E+03  0.20112109303E+04  0.12699999809E+01 0.  1.
       -4    1    3    3    0  502  0.17374912828E+04  0.79416474824E+03 -0.55434257572E+03  0.19891885052E+04  0.12699999809E+01 0. -1.
</event>
<event>
 5   0  0.6736335E-09  0.3992578E+04  0.7818609E-02  0.8006046E-01
       -2   -1    0    0    0  501  0.00000000000E+00  0.00000000000E+00  0.17045653787E+04  0.17045653787E+04  0.25500000920E-02 0.  1.
        2   -1    0    0  501    0  0.00000000000E+00  0.00000000000E+00 -0.23379386356E+04  0.23379386356E+04  0.25500000920E-02 0. -1.
    10030    2    1    2    0    0  0.00000000000E+00  0.00000000000E+00 -0.63337325690E+03  0.40425040143E+04  0.39925777417E+04 0.  0.
        1    1    3    3  502    0  0.19741850076E+03 -0.12573473765E+04 -0.18738626023E+04  0.22652279227E+04  0.50400001928E-02 0. -1.
       -1    1    3    3    0  502 -0.19741850076E+03  0.12573473765E+04  0.12404893454E+04  0.17772760916E+04  0.50400001928E-02 0.  1.
</event>
<event>
 5   0  0.2078125E-09  0.3999950E+04  0.7818609E-02  0.8004557E-01
       -1   -1    0    0    0  501  0.00000000000E+00  0.00000000000E+00  0.21561401180E+04  0.21561401180E+04  0.50400001928E-02 0. -1.
        1   -1    0    0  501    0  0.00000000000E+00  0.00000000000E+00 -0.18551203627E+04  0.18551203628E+04  0.50400001928E-02 0.  1.
    10030    2    1    2    0    0  0.00000000000E+00  0.00000000000E+00  0.30101975527E+03  0.40112604808E+04  0.39999497186E+04 0.  0.
        4    1    3    3  502    0  0.14119614237E+03 -0.18908472491E+04  0.78843613951E+03  0.20535025758E+04  0.12699999809E+01 0.  1.
       -4    1    3    3    0  502 -0.14119614237E+03  0.18908472491E+04 -0.48741638424E+03  0.19577579050E+04  0.12699999809E+01 0. -1.
</event>
<event>
 5   0  0.6547327E-09  0.3989801E+04  0.7818609E-02  0.8006607E-01
       -2   -1    0    0    0  501  0.00000000000E+00  0.00000000000E+00  0.18695165756E+04  0.18695165756E+04  0.25500000920E-02 0.  1.
        2   -1    0    0  501    0  0.00000000000E+00  0.00000000000E+00 -0.21286940078E+04  0.21286940078E+04  0.25500000920E-02 0. -1.
    10030    2    1    2    0    0  0.00000000000E+00  0.00000000000E+00 -0.25917743220E+03  0.39982105835E+04  0.39898013645E+04 0.  0.
        5    1    3    3  502    0  0.15223109830E+04 -0.12063004767E+03  0.11567148830E+04  0.19157227743E+04  0.46999998093E+01 0.  1.
       -5    1    3    3    0  502 -0.15223109830E+04  0.12063004767E+03 -0.14158923152E+04  0.20824878092E+04  0.46999998093E+01 0. -1.
</event>
<event>
 5   0  0.2078125E-09  0.4000987E+04  0.7818609E-02  0.8004348E-01
        1   -1    0    0  501    0  0.00000000000E+00  0.00000000000E+00  0.25328873973E+04  0.25328873973E+04  0.50400001928E-02 0. -1.
       -1   -1    0    0    0  501  0.00000000000E+00  0.00000000000E+00 -0.15800045878E+04  0.15800045878E+04  0.50400001928E-02 0.  1.
    10030    2    1    2    0    0  0.00000000000E+00  0.00000000000E+00  0.95288280946E+03  0.41128919851E+04  0.40009867323E+04 0.  0.
        4    1    3    3  502    0 -0.94397625112E+03  0.11748726943E+04  0.18287409644E+04  0.23697493830E+04  0.12699999809E+01 0. -1.
       -4    1    3    3    0  502  0.94397625112E+03 -0.11748726943E+04 -0.87585815497E+03  0.17431426020E+04  0.12699999809E+01 0.  1.
</event>
<event>
 5   0  0.2078125E-09  0.3999921E+04  0.7818609E-02  0.8004562E-01
        1   -1    0    0  501    0  0.00000000000E+00  0.00000000000E+00  0.14634416269E+04  0.14634416269E+04  0.50400001928E-02 0. -1.
       -1   -1    0    0    0  501  0.00000000000E+00  0.00000000000E+00 -0.27331755591E+04  0.27331755591E+04  0.50400001928E-02 0.  1.
    10030    2    1    2    0    0  0.00000000000E+00  0.00000000000E+00 -0.12697339323E+04  0.41966171860E+04  0.39999214426E+04 0.  0.
        1    1    3    3  502    0 -0.10482073002E+04  0.14216926586E+04 -0.16190211694E+04  0.23960755637E+04  0.50400001928E-02 0.  1.
       -1    1    3    3    0  502  0.10482073002E+04 -0.14216926586E+04  0.34928723719E+03  0.18005416224E+04  0.50400001928E-02 0. -1.
</event>
<event>
 5   0  0.2078125E-09  0.3999051E+04  0.7818609E-02  0.8004738E-01
       -1   -1    0    0    0  501  0.00000000000E+00  0.00000000000E+00  0.29675213109E+04  0.29675213109E+04  0.50400001928E-02 0. -1.
        1   -1    0    0  501    0  0.00000000000E+00  0.00000000000E+00 -0.13472864610E+04  0.13472864610E+04  0.50400001928E-02 0.  1.
    10030    2    1    2    0    0  0.00000000000E+00  0.00000000000E+00  0.16202348498E+04  0.43148077719E+04  0.39990505298E+04 0.  0.
        3    1    3    3  502    0  0.14988850868E+04  0.25480422453E+03  0.22113178302E+04  0.26835626045E+04  0.10100000352E+00 0. -1.
       -3    1    3    3    0  502 -0.14988850868E+04 -0.25480422453E+03 -0.59108298034E+03  0.16312451674E+04  0.10100000352E+00 0.  1.
</event>
<event>
 5   0  0.2078125E-09  0.4000246E+04  0.7818609E-02  0.8004497E-01
       -1   -1    0    0    0  501  0.00000000000E+00  0.00000000000E+00  0.17417884093E+04  0.17417884093E+04  0.50400001928E-02 0. -1.
        1   -1    0    0  501    0  0.00000000000E+00  0.00000000000E+00 -0.22967722142E+04  0.22967722142E+04  0.50400001928E-02 0.  1.
    10030    2    1    2    0    0  0.00000000000E+00  0.00000000000E+00 -0.55498380492E+03  0.40385606235E+04  0.40002456032E+04 0.  0.
        3    1    3    3  502    0  0.10813309747E+04  0.41263710254E+03 -0.19243565686E+04  0.22455944132E+04  0.10100000352E+00 0.  1.
       -3    1    3    3    0  502 -0.10813309747E+04 -0.41263710254E+03  0.13693727637E+04  0.17929662103E+04  0.10100000352E+00 0. -1.
</event>
<event>
 5   0  0.6547327E-09  0.4000905E+04  0.7818609E-02  0.8004364E-01
       -2   -1    0    0    0  501  0.00000000000E+00  0.00000000000E+00  0.16813632354E+04  0.16813632354E+04  0.25500000920E-02 0.  1.
        2   -1    0    0  501    0  0.00000000000E+00  0.00000000000E+00 -0.23800986677E+04  0.23800986677E+04  0.25500000920E-02 0. -1.
    10030    2    1    2    0    0  0.00000000000E+00  0.00000000000E+00 -0.69873543232E+03  0.40614619031E+04  0.40009050959E+04 0.  0.
        5    1    3    3  502    0  0.37157955169E+03  0.80443976042E+03 -0.21699999683E+04  0.23439532085E+04  0.46999998093E+01 0. -1.
       -5    1    3    3    0  502 -0.37157955169E+03 -0.80443976042E+03  0.14712645360E+04  0.17175086946E+04  0.46999998093E+01 0.  1.
</event>
<event>
 5   0  0.6736335E-09  0.3999036E+04  0.7818609E-02  0.8004741E-01
        2   -1    0    0  501    0  0.00000000000E+00  0.00000000000E+00  0.24465968493E+04  0.24465968493E+04  0.25500000920E-02 0. -1.
       -2   -1    0    0    0  501  0.00000000000E+00  0.00000000000E+00 -0.16341363147E+04  0.16341363147E+04  0.25500000920E-02 0.  1.
    10030    2    1    2    0    0  0.00000000000E+00  0.00000000000E+00  0.81246053458E+03  0.40807331641E+04  0.39990362634E+04 0.  0.
        1    1    3    3  502    0 -0.62125436500E+03  0.18949279536E+04  0.55537995393E+03  0.20700617935E+04  0.50400001928E-02 0. -1.
       -1    1    3    3    0  502  0.62125436500E+03 -0.18949279536E+04  0.25708058066E+03  0.20106713706E+04  0.50400001928E-02 0.  1.
</event>
<event>
 5   0  0.2078125E-09  0.3998420E+04  0.7818609E-02  0.8004865E-01
        1   -1    0    0  501    0  0.00000000000E+00  0.00000000000E+00  0.19978577344E+04  0.19978577344E+04  0.50400001928E-02 0. -1.
       -1   -1    0    0    0  501  0.00000000000E+00  0.00000000000E+00 -0.20005627106E+04  0.20005627106E+04  0.50400001928E-02 0.  1.
    10030    2    1    2    0    0  0.00000000000E+00  0.00000000000E+00 -0.27049761624E+01  0.39984204450E+04  0.39984195300E+04 0.  0.
        4    1    3    3  502    0 -0.47485067177E+03  0.95941434753E+03 -0.16898074995E+04  0.20003524812E+04  0.12699999809E+01 0.  1.
       -4    1    3    3    0  502  0.47485067177E+03 -0.95941434753E+03  0.16871025233E+04  0.19980679638E+04  0.12699999809E+01 0. -1.
</event>
<event>
 5   0  0.2078125E-09  0.3998883E+04  0.7818609E-02  0.8004772E-01
        1   -1    0    0  501    0  0.00000000000E+00  0.00000000000E+00  0.14469307670E+04  0.14469307670E+04  0.50400001928E-02 0. -1.
       -1   -1    0    0    0  501  0.00000000000E+00  0.00000000000E+00 -0.27629282459E+04  0.27629282459E+04  0.50400001928E-02 0.  1.
    10030    2    1    2    0    0  0.00000000000E+00  0.00000000000E+00 -0.13159974789E+04  0.42098590130E+04  0.39988827871E+04 0.  0.
        3    1    3    3  502    0 -0.11834452802E+04  0.25315121252E+02 -0.23544052183E+04  0.26352243792E+04  0.10100000352E+00 0.  1.
       -3    1    3    3    0  502  0.11834452802E+04 -0.25315121252E+02  0.10384077394E+04  0.15746346338E+04  0.10100000352E+00 0. -1.
</event>
<event>
 5   0  0.6547327E-09  0.3998950E+04  0.7818609E-02  0.8004758E-01
        2   -1    0    0  501    0  0.00000000000E+00  0.00000000000E+00  0.16429412683E+04  0.16429412683E+04  0.25500000920E-02 0. -1.
       -2   -1    0    0    0  501  0.00000000000E+00  0.00000000000E+00 -0.24333803563E+04  0.24333803563E+04  0.25500000920E-02 0.  1.
    10030    2    1    2    0    0  0.00000000000E+00  0.00000000000E+00 -0.79043908798E+03  0.40763216246E+04  0.39989503668E+04 0.  0.
        5    1    3    3  502    0  0.30217123273E+03 -0.16767440925E+04 -0.14619371419E+04  0.22450079071E+04  0.46999998093E+01 0.  1.
       -5    1    3    3    0  502 -0.30217123273E+03  0.16767440925E+04  0.67149805397E+03  0.18313137176E+04  0.46999998093E+01 0. -1.
</event>
<event>
 5   0  0.2078125E-09  0.3999944E+04  0.7818609E-02  0.8004558E-01
        1   -1    0    0  501    0  0.00000000000E+00  0.00000000000E+00  0.22142079956E+04  0.22142079956E+04  0.50400001928E-02 0.  1.
       -1   -1    0    0    0  501  0.00000000000E+00  0.00000000000E+00 -0.18064647619E+04  0.18064647619E+04  0.50400001928E-02 0. -1.
    10030    2    1    2    0    0  0.00000000000E+00  0.00000000000E+00  0.40774323376E+03  0.40206727575E+04  0.39999443594E+04 0.  0.
        5    1    3    3  502    0 -0.37599234445E+03  0.14727140652E+04 -0.11027142920E+04  0.18778332889E+04  0.46999998093E+01 0. -1.
       -5    1    3    3    0  502  0.37599234445E+03 -0.14727140652E+04  0.15104575258E+04  0.21428394686E+04  0.46999998093E+01 0.  1.
</event>
<event>
 5   0  0.2078125E-09  0.4000216E+04  0.7818609E-02  0.8004503E-01
        1   -1    0    0  501    0  0.00000000000E+00  0.00000000000E+00  0.32033471517E+04  0.32033471517E+04  0.50400001928E-02 0.  1.
       -1   -1    0    0    0  501  0.00000000000E+00  0.00000000000E+00 -0.12488290412E+04  0.12488290412E+04  0.50400001928E-02 0. -1.
    10030    2    1    2    0    0  0.00000000000E+00  0.00000000000E+00  0.19545181105E+04  0.44521761929E+04  0.40002164702E+04 0.  0.
        3    1    3    3  502    0  0.17927494407E+04 -0.68801116419E+03  0.35446228781E+03  0.19526785303E+04  0.10100000352E+00 0. -1.
       -3    1    3    3    0  502 -0.17927494407E+04  0.68801116419E+03  0.16000558227E+04  0.24994976625E+04  0.10100000352E+00 0.  1.
</event>
<event>
 5   0  0.6538370E-09  0.3999054E+04  0.7818609E-02  0.8004737E-01
        2   -1    0    0  501    0  0.00000000000E+00  0.00000000000E+00  0.20203345219E+04  0.20203345219E+04  0.25500000920E-02 0. -1.
       -2   -1    0    0    0  501  0.00000000000E+00  0.00000000000E+00 -0.19789334064E+04  0.19789334064E+04  0.25500000920E-02 0.  1.
    10030    2    1    2    0    0  0.00000000000E+00  0.00000000000E+00  0.41401115480E+02  0.39992679283E+04  0.39990536268E+04 0.  0.
        4    1    3    3  502    0  0.10041896840E+04 -0.13573700906E+04  0.10918580354E+04  0.20107227722E+04  0.12699999809E+01 0. -1.
       -4    1    3    3    0  502 -0.10041896840E+04  0.13573700906E+04 -0.10504569199E+04  0.19885451561E+04  0.12699999809E+01 0.  1.
</event>
<event>
 5   0  0.6599276E-09  0.3999991E+04  0.7818609E-02  0.8004548E-01
       -2   -1    0    0    0  501  0.00000000000E+00  0.00000000000E+00  0.15904800801E+04  0.15904800801E+04  0.25500000920E-02 0.  1.
        2   -1    0    0  501    0  0.00000000000E+00  0.00000000000E+00 -0.25149525709E+04  0.25149525709E+04  0.25500000920E-02 0. -1.
    10030    2    1    2    0    0  0.00000000000E+00  0.00000000000E+00 -0.92447249076E+03  0.41054326510E+04  0.39999909832E+04 0.  0.
        2    1    3    3  502    0  0.19663256758E+04  0.34914336681E+03 -0.35148337738E+03  0.20277766934E+04  0.25500000920E-02 0. -1.
       -2    1    3    3    0  502 -0.19663256758E+04 -0.34914336681E+03 -0.57298911338E+03  0.20776559576E+04  0.25500000920E-02 0.  1.
</event>
<event>
 5   0  0.2078125E-09  0.4001751E+04  0.7818609E-02  0.8004193E-01
        1   -1    0    0  501    0  0.00000000000E+00  0.00000000000E+00  0.14366231369E+04  0.14366231370E+04  0.50400001928E-02 0. -1.
       -1   -1    0    0    0  501  0.00000000000E+00  0.00000000000E+00 -0.27867449531E+04  0.27867449531E+04  0.50400001928E-02 0.  1.
    10030    2    1    2    0    0  0.00000000000E+00  0.00000000000E+00 -0.13501218161E+04  0.42233680900E+04  0.40017507550E+04 0.  0.
        2    1    3    3  502    0 -0.17646511431E+04  0.84144928079E+03 -0.22547428042E+03  0.19679606704E+04  0.25500000920E-02 0.  1.
       -2    1    3    3    0  502  0.17646511431E+04 -0.84144928079E+03 -0.11246475357E+04  0.22554074196E+04  0.25500000920E-02 0. -1.
</event>
<event>
 5   0  0.6599276E-09  0.3999938E+04  0.7818609E-02  0.8004559E-01
        2   -1    0    0  501    0  0.00000000000E+00  0.00000000000E+00  0.22639387430E+04  0.22639387430E+04  0.25500000920E-02 0.  1.
       -2   -1    0    0    0  501  0.00000000000E+00  0.00000000000E+00 -0.17667773763E+04  0.17667773763E+04  0.25500000920E-02 0. -1.
    10030    2    1    2    0    0  0.00000000000E+00  0.00000000000E+00  0.49716136675E+03  0.40307161193E+04  0.39999378757E+04 0.  0.
        2    1    3    3  502    0 -0.19151760313E+03 -0.56148368697E+03  0.21732334237E+04  0.22527508600E+04  0.25500000920E-02 0.  1.
       -2    1    3    3    0  502  0.19151760313E+03  0.56148368697E+03 -0.16760720570E+04  0.17779652593E+04  0.25500000920E-02 0. -1.
</event>
<event>
 5   0  0.2078125E-09  0.3999996E+04  0.7818609E-02  0.8004547E-01
       -1   -1    0    0    0  501  0.00000000000E+00  0.00000000000E+00  0.17900560387E+04  0.17900560387E+04  0.50400001928E-02 0.  1.
        1   -1    0    0  501    0  0.00000000000E+00  0.00000000000E+00 -0.22345629240E+04  0.22345629240E+04  0.50400001928E-02 0. -1.
    10030    2    1    2    0    0  0.00000000000E+00  0.00000000000E+00 -0.44450688531E+03  0.40246189627E+04  0.39999964280E+04 0.  0.
        2    1    3    3  502    0 -0.94638514206E+03 -0.11758653365E+04  0.10979549335E+04  0.18664964942E+04  0.25500000920E-02 0.  1.
       -2    1    3    3    0  502  0.94638514206E+03  0.11758653365E+04 -0.15424618188E+04  0.21581224685E+04  0.25500000920E-02 0. -1.
</event>
<event>
 5   0  0.2078125E-09  0.3999881E+04  0.7818609E-02  0.8004570E-01
        1   -1    0    0  501    0  0.00000000000E+00  0.00000000000E+00  0.14622808660E+04  0.14622808660E+04  0.50400001928E-02 0.  1.
       -1   -1    0    0    0  501  0.00000000000E+00  0.00000000000E+00 -0.27352904519E+04  0.27352904519E+04  0.50400001928E-02 0. -1.
    10030    2    1    2    0    0  0.00000000000E+00  0.00000000000E+00 -0.12730095859E+04  0.41975713179E+04  0.39998814437E+04 0.  0.
        3    1    3    3  502    0 -0.73712660430E+03 -0.18587116199E+04 -0.59454930308E+03  0.20860616963E+04  0.10100000352E+00 0. -1.
       -3    1    3    3    0  502  0.73712660430E+03  0.18587116199E+04 -0.67846028281E+03  0.21115096216E+04  0.10100000352E+00 0.  1.
</event>
<event>
 5   0  0.6599276E-09  0.4000935E+04  0.7818609E-02  0.8004358E-01
        2   -1    0    0  501    0  0.00000000000E+00  0.00000000000E+00  0.14854836140E+04  0.14854836140E+04  0.25500000920E-02 0. -1.
       -2   -1    0    0    0  501  0.00000000000E+00  0.00000000000E+00 -0.26939846069E+04  0.26939846069E+04  0.25500000920E-02 0.  1.
    10030    2    1    2    0    0  0.00000000000E+00  0.00000000000E+00 -0.12085009928E+04  0.41794682209E+04  0.40009348857E+04 0.  0.
        2    1    3    3  502    0  0.13187326315E+04 -0.12271883896E+04 -0.15130261303E+04  0.23525082716E+04  0.25500000920E-02 0.  1.
       -2    1    3    3    0  502 -0.13187326315E+04  0.12271883896E+04  0.30452513745E+03  0.18269599493E+04  0.25500000920E-02 0. -1.
</event>
<event>
 5   0  0.6538370E-09  0.4000455E+04  0.7818609E-02  0.8004455E-01
        2   -1    0    0  501    0  0.00000000000E+00  0.00000000000E+00  0.18874343121E+04  0.18874343121E+04  0.25500000920E-02 0.  1.
       -2   -1    0    0    0  501  0.00000000000E+00  0.00000000000E+00 -0.21197615013E+04  0.21197615013E+04  0.25500000920E-02 0. -1.
    10030    2    1    2    0    0  0.00000000000E+00  0.00000000000E+00 -0.23232718918E+03  0.40071958135E+04  0.40004552697E+04 0.  0.
        4    1    3    3  502    0 -0.16986644096E+04  0.10538988530E+04 -0.18516659920E+03  0.20075985283E+04  0.12699999809E+01 0.  1.
       -4    1    3    3    0  502  0.16986644096E+04 -0.10538988530E+04 -0.47160589983E+02  0.19995972851E+04  0.12699999809E+01 0. -1.
</event>
<event>
 5   0  0.6736335E-09  0.4001246E+04  0.7818609E-02  0.8004295E-01
        2   -1    0    0  501    0  0.00000000000E+00  0.00000000000E+00  0.15485555439E+04  0.15485555439E+04  0.25500000920E-02 0.  1.
       -2   -1    0    0    0  501  0.00000000000E+00  0.00000000000E+00 -0.25846619009E+04  0.25846619009E+04  0.25500000920E-02 0. -1.
    10030    2    1    2    0    0  0.00000000000E+00  0.00000000000E+00 -0.10361063570E+04  0.41332174448E+04  0.40012460638E+04 0.  0.
        1    1    3    3  502    0 -0.16993236248E+04  0.91754977546E+03  0.21569385913E+02  0.19313372597E+04  0.50400001928E-02 0. -1.
       -1    1    3    3    0  502  0.16993236248E+04 -0.91754977546E+03 -0.10576757429E+04  0.22018801851E+04  0.50400001928E-02 0.  1.
</event>
<event>
 5   0  0.6736335E-09  0.3998701E+04  0.7818609E-02  0.8004809E-01
        2   -1    0    0  501    0  0.00000000000E+00  0.00000000000E+00  0.24049072701E+04  0.24049072701E+04  0.25500000920E-02 0. -1.
       -2   -1    0    0    0  501  0.00000000000E+00  0.00000000000E+00 -0.16621852801E+04  0.16621852801E+04  0.25500000920E-02 0.  1.
    10030    2    1    2    0    0  0.00000000000E+00  0.00000000000E+00  0.74272198999E+03  0.40670925502E+04  0.39987005211E+04 0.  0.
        1    1    3    3  502    0 -0.88994141526E+03  0.14030677301E+04  0.15025002861E+04  0.22401120257E+04  0.50400001928E-02 0. -1.
       -1    1    3    3    0  502  0.88994141526E+03 -0.14030677301E+04 -0.75977829611E+03  0.18269805246E+04  0.50400001928E-02 0.  1.
</event>
<event>
 5   0  0.2078125E-09  0.4001429E+04  0.7818609E-02  0.8004258E-01
       -1   -1    0    0    0  501  0.00000000000E+00  0.00000000000E+00  0.21309791044E+04  0.21309791045E+04  0.50400001928E-02 0.  1.
        1   -1    0    0  501    0  0.00000000000E+00  0.00000000000E+00 -0.18784125543E+04  0.18784125544E+04  0.50400001928E-02 0. -1.
    10030    2    1    2    0    0  0.00000000000E+00  0.00000000000E+00  0.25256655010E+03  0.40093916588E+04  0.40014286963E+04 0.  0.
        2    1    3    3  502    0 -0.42225514330E+03  0.19447098925E+04 -0.80675408599E+02  0.19916587292E+04  0.25500000920E-02 0. -1.
       -2    1    3    3    0  502  0.42225514330E+03 -0.19447098925E+04  0.33324195870E+03  0.20177329296E+04  0.25500000920E-02 0.  1.
</event>
<event>
 5   0  0.2078125E-09  0.3996803E+04  0.7818609E-02  0.8005192E-01
        4   -1    0    0  501    0  0.00000000000E+00  0.00000000000E+00  0.15440266665E+04  0.15440271888E+04  0.12699999809E+01 0. -1.
       -4   -1    0    0    0  501  0.00000000000E+00  0.00000000000E+00 -0.25864877262E+04  0.25864880380E+04  0.12699999809E+01 0.  1.
    10030    2    1    2    0    0  0.00000000000E+00  0.00000000000E+00 -0.10424610598E+04  0.41305152268E+04  0.39968025943E+04 0.  0.
        1    1    3    3  502    0  0.10183893170E+03 -0.15201292863E+04 -0.18577252893E+04  0.24025626872E+04  0.50400001928E-02 0.  1.
       -1    1    3    3    0  502 -0.10183893170E+03  0.15201292863E+04  0.81526422956E+03  0.17279525396E+04  0.50400001928E-02 0. -1.
</event>
<event>
 5   0  0.6736335E-09  0.3999720E+04  0.7818609E-02  0.8004603E-01
       -2   -1    0    0    0  501  0.00000000000E+00  0.00000000000E+00  0.15786156958E+04  0.15786156958E+04  0.25500000920E-02 0. -1.
        2   -1    0    0  501    0  0.00000000000E+00  0.00000000000E+00 -0.25335110577E+04  0.25335110577E+04  0.25500000920E-02 0.  1.
    10030    2    1    2    0    0  0.00000000000E+00  0.00000000000E+00 -0.95489536187E+03  0.41121267535E+04  0.39997201509E+04 0.  0.
        1    1    3    3  502    0  0.19011541782E+04 -0.28154020860E+03 -0.10459696672E+04  0.21880824123E+04  0.50400001928E-02 0.  1.
       -1    1    3    3    0  502 -0.19011541782E+04  0.28154020860E+03  0.91074305287E+02  0.19240443413E+04  0.50400001928E-02 0. -1.
</event>
<event>
 5   0  0.6547327E-09  0.4001882E+04  0.7818609E-02  0.8004167E-01
        2   -1    0    0  501    0  0.00000000000E+00  0.00000000000E+00  0.18698268539E+04  0.18698268539E+04  0.25500000920E-02 0.  1.
       -2   -1    0    0    0  501  0.00000000000E+00  0.00000000000E+00 -0.21412493336E+04  0.21412493336E+04  0.25500000920E-02 0. -1.
    10030    2    1    2    0    0  0.00000000000E+00  0.00000000000E+00 -0.27142247973E+03  0.40110761876E+04  0.40018823096E+04 0.  0.
        5    1    3    3  502    0 -0.19542698370E+04 -0.40712465159E+03  0.17984718463E+01  0.19962330531E+04  0.46999998093E+01 0. -1.
       -5    1    3    3    0  502  0.19542698370E+04  0.40712465159E+03 -0.27322095157E+03  0.20148431344E+04  0.46999998093E+01 0.  1.
</event>
<event>
 5   0  0.6538370E-09  0.3999328E+04  0.7818609E-02  0.8004682E-01
       -2   -1    0    0    0  501  0.00000000000E+00  0.00000000000E+00  0.21334077384E+04  0.21334077384E+04  0.25500000920E-02 0.  1.
        2   -1    0    0  501    0  0.00000000000E+00  0.00000000000E+00 -0.18743047724E+04  0.18743047724E+04  0.25500000920E-02 0. -1.
    10030    2    1    2    0    0  0.00000000000E+00  0.00000000000E+00  0.25910296604E+03  0.40077125109E+04  0.39993280964E+04 0.  0.
        4    1    3    3  502    0 -0.17227770449E+04 -0.12854056010E+03  0.11387234498E+04  0.20691003190E+04  0.12699999809E+01 0.  1.
       -4    1    3    3    0  502  0.17227770449E+04  0.12854056010E+03 -0.87962048373E+03  0.19386121919E+04  0.12699999809E+01 0. -1.
</event>
<event>
 5   0  0.2078125E-09  0.3999011E+04  0.7818609E-02  0.8004746E-01
        1   -1    0    0  501    0  0.00000000000E+00  0.00000000000E+00  0.20454040260E+04  0.20454040261E+04  0.50400001928E-02 0.  1.
       -1   -1    0    0    0  501  0.00000000000E+00  0.00000000000E+00 -0.19546371445E+04  0.19546371445E+04  0.50400001928E-02 0. -1.
    10030    2    1    2    0    0  0.00000000000E+00  0.00000000000E+00  0.90766881530E+02  0.40000411706E+04  0.39990112202E+04 0.  0.
        1    1    3    3  502    0 -0.66590407291E+02 -0.11297633577E+03 -0.19503308541E+04  0.19547348607E+04  0.50400001928E-02 0. -1.
       -1    1    3    3    0  502  0.66590407291E+02  0.11297633577E+03  0.20410977357E+04  0.20453063099E+04  0.50400001928E-02 0.  1.
</event>
<event>
 5   0  0.6645526E-09  0.4000787E+04  0.7818609E-02  0.8004388E-01
        2   -1    0    0  501    0  0.00000000000E+00  0.00000000000E+00  0.22983844117E+04  0.22983844117E+04  0.25500000920E-02 0.  1.
       -2   -1    0    0    0  501  0.00000000000E+00  0.00000000000E+00 -0.17410380203E+04  0.17410380203E+04  0.25500000920E-02 0. -1.
    10030    2    1    2    0    0  0.00000000000E+00  0.00000000000E+00  0.55734639143E+03  0.40394224319E+04  0.40007872455E+04 0.  0.
        3    1    3    3  502    0  0.93844978908E+03 -0.14085289952E+04 -0.79789412960E+03  0.18711699520E+04  0.10100000352E+00 0.  1.
       -3    1    3    3    0  502 -0.93844978908E+03  0.14085289952E+04  0.13552405210E+04  0.21682524800E+04  0.10100000352E+00 0. -1.
</event>
<event>
 5   0  0.6736335E-09  0.3999934E+04  0.7818609E-02  0.8004560E-01
        2   -1    0    0  501    0  0.00000000000E+00  0.00000000000E+00  0.19637372164E+04  0.19637372164E+04  0.25500000920E-02 0.  1.
       -2   -1    0    0    0  501  0.00000000000E+00  0.00000000000E+00 -0.20368651943E+04  0.20368651943E+04  0.25500000920E-02 0. -1.
    10030    2    1    2    0    0  0.00000000000E+00  0.00000000000E+00 -0.73127977899E+02  0.40006024106E+04  0.39999339928E+04 0.  0.
        1    1    3    3  502    0 -0.10268025322E+04 -0.16486864003E+04  0.44035707289E+03  0.19915834500E+04  0.50400001928E-02 0. -1.
       -1    1    3    3    0  502  0.10268025322E+04  0.16486864003E+04 -0.51348505079E+03  0.20090189606E+04  0.50400001928E-02 0.  1.
</event>
<event>
 5   0  0.2078125E-09  0.4000553E+04  0.7818609E-02  0.8004435E-01
       -1   -1    0    0    0  501  0.00000000000E+00  0.00000000000E+00  0.27964082681E+04  0.27964082681E+04  0.50400001928E-02 0.  1.
        1   -1    0    0  501    0  0.00000000000E+00  0.00000000000E+00 -0.14308018503E+04  0.14308018503E+04  0.50400001928E-02 0. -1.
    10030    2    1    2    0    0  0.00000000000E+00  0.00000000000E+00  0.13656064178E+04  0.42272101184E+04  0.40005530239E+04 0.  0.
        4    1    3    3  502    0  0.10815462205E+04  0.10999548473E+04  0.20283138629E+04  0.25482742460E+04  0.12699999809E+01 0.  1.
       -4    1    3    3    0  502 -0.10815462205E+04 -0.10999548473E+04 -0.66270744516E+03  0.16789358725E+04  0.12699999809E+01 0. -1.
</event>
<event>
 5   0  0.6645526E-09  0.3999115E+04  0.7818609E-02  0.8004725E-01
        2   -1    0    0  501    0  0.00000000000E+00  0.00000000000E+00  0.13327875523E+04  0.13327875523E+04  0.25500000920E-02 0.  1.
       -2   -1    0    0    0  501  0.00000000000E+00  0.00000000000E+00 -0.29999011864E+04  0.29999011864E+04  0.25500000920E-02 0. -1.
    10030    2    1    2    0    0  0.00000000000E+00  0.00000000000E+00 -0.16671136342E+04  0.43326887387E+04  0.39991153819E+04 0.  0.
        3    1    3    3  502    0  0.15267404325E+04 -0.75527028834E+03  0.30111281322E+03  0.17297509917E+04  0.10100000352E+00 0.  1.
       -3    1    3    3    0  502 -0.15267404325E+04  0.75527028834E+03 -0.19682264474E+04  0.26029377471E+04  0.10100000352E+00 0. -1.
</event>
<event>
 5   0  0.6736335E-09  0.3988863E+04  0.7818609E-02  0.8006797E-01
       -2   -1    0    0    0  501  0.00000000000E+00  0.00000000000E+00  0.33409289884E+04  0.33409289884E+04  0.25500000920E-02 0. -1.
        2   -1    0    0  501    0  0.00000000000E+00  0.00000000000E+00 -0.11906140346E+04  0.11906140347E+04  0.25500000920E-02 0.  1.
    10030    2    1    2    0    0  0.00000000000E+00  0.00000000000E+00  0.21503149538E+04  0.45315430231E+04  0.39888629670E+04 0.  0.
        1    1    3    3  502    0 -0.11975179479E+04 -0.52285498051E+03 -0.63659719036E+03  0.14535069828E+04  0.50400001928E-02 0.  1.
       -1    1    3    3    0  502  0.11975179479E+04  0.52285498051E+03  0.27869121441E+04  0.30780360403E+04  0.50400001928E-02 0. -1.
</event>
<event>
 5   0  0.2078125E-09  0.4000479E+04  0.7818609E-02  0.8004450E-01
       -1   -1    0    0    0  501  0.00000000000E+00  0.00000000000E+00  0.17454575867E+04  0.17454575867E+04  0.50400001928E-02 0.  1.
        1   -1    0    0  501    0  0.00000000000E+00  0.00000000000E+00 -0.22922115664E+04  0.22922115664E+04  0.50400001928E-02 0. -1.
    10030    2    1    2    0    0  0.00000000000E+00  0.00000000000E+00 -0.54675397970E+03  0.40376691531E+04  0.40004790058E+04 0.  0.
        2    1    3    3  502    0  0.15046616063E+04  0.90075219353E+03  0.69764643024E+03  0.18873451209E+04  0.25500000920E-02 0. -1.
       -2    1    3    3    0  502 -0.15046616063E+04 -0.90075219353E+03 -0.12444004099E+04  0.21503240323E+04  0.25500000920E-02 0.  1.
</event>
<event>
 5   0  0.6547327E-09  0.4000208E+04  0.7818609E-02  0.8004505E-01
       -2   -1    0    0    0  501  0.00000000000E+00  0.00000000000E+00  0.13581629606E+04  0.13581629606E+04  0.25500000920E-02 0.  1.
        2   -1    0    0  501    0  0.00000000000E+00  0.00000000000E+00 -0.29454607340E+04  0.29454607340E+04  0.25500000920E-02 0. -1.
    10030    2    1    2    0    0  0.00000000000E+00  0.00000000000E+00 -0.15872977734E+04  0.43036236946E+04  0.40002078301E+04 0.  0.
        5    1    3    3  502    0 -0.14609500914E+04 -0.13648369589E+04 -0.85487304323E+03  0.21743930427E+04  0.46999998093E+01 0. -1.
       -5    1    3    3    0  502  0.14609500914E+04  0.13648369589E+04 -0.73242473013E+03  0.21292306520E+04  0.46999998093E+01 0.  1.
</event>
<event>
 5   0  0.2078125E-09  0.4002425E+04  0.7818609E-02  0.8004058E-01
        1   -1    0    0  501    0  0.00000000000E+00  0.00000000000E+00  0.22461720914E+04  0.22461720914E+04  0.50400001928E-02 0.  1.
       -1   -1    0    0    0  501  0.00000000000E+00  0.00000000000E+00 -0.17829670652E+04  0.17829670652E+04  0.50400001928E-02 0. -1.
    10030    2    1    2    0    0  0.00000000000E+00  0.00000000000E+00  0.46320502614E+03  0.40291391566E+04  0.40024246960E+04 0.  0.
        1    1    3    3  502    0 -0.38936093335E+03 -0.18827807811E+04 -0.32742867967E+03  0.19503012450E+04  0.50400001928E-02 0. -1.
       -1    1    3    3    0  502  0.38936093335E+03  0.18827807811E+04  0.79063370581E+03  0.20788379116E+04  0.50400001928E-02 0.  1.
</event>
<event>
 5   0  0.6736335E-09  0.3987609E+04  0.7818609E-02  0.8007051E-01
       -2   -1    0    0    0  501  0.00000000000E+00  0.00000000000E+00  0.15617486675E+04  0.15617486675E+04  0.25500000920E-02 0.  1.
        2   -1    0    0  501    0  0.00000000000E+00  0.00000000000E+00 -0.25453885837E+04  0.25453885837E+04  0.25500000920E-02 0. -1.
    10030    2    1    2    0    0  0.00000000000E+00  0.00000000000E+00 -0.98363991625E+03  0.41071372512E+04  0.39876094236E+04 0.  0.
        1    1    3    3  502    0 -0.10089658549E+04  0.11400391617E+03  0.12754944358E+04  0.16303052000E+04  0.50400001928E-02 0.  1.
       -1    1    3    3    0  502  0.10089658549E+04 -0.11400391617E+03 -0.22591343521E+04  0.24768320512E+04  0.50400001928E-02 0. -1.
</event>
<event>
 5   0  0.6599276E-09  0.3995143E+04  0.7818609E-02  0.8005527E-01
       -2   -1    0    0    0  501  0.00000000000E+00  0.00000000000E+00  0.17483884936E+04  0.17483884936E+04  0.25500000920E-02 0.  1.
        2   -1    0    0  501    0  0.00000000000E+00  0.00000000000E+00 -0.22822683077E+04  0.22822683077E+04  0.25500000920E-02 0. -1.
    10030    2    1    2    0    0  0.00000000000E+00  0.00000000000E+00 -0.53387981413E+03  0.40306568013E+04  0.39951428753E+04 0.  0.
        2    1    3    3  502    0 -0.10683827905E+04  0.10683622616E+04 -0.15852505239E+04  0.21899449611E+04  0.25500000920E-02 0. -1.
       -2    1    3    3    0  502  0.10683827905E+04 -0.10683622616E+04  0.10513707098E+04  0.18407118402E+04  0.25500000920E-02 0.  1.
</event>
<event>
 5   0  0.2078125E-09  0.3998476E+04  0.7818609E-02  0.8004854E-01
        1   -1    0    0  501    0  0.00000000000E+00  0.00000000000E+00  0.18050132455E+04  0.18050132455E+04  0.50400001928E-02 0. -1.
       -1   -1    0    0    0  501  0.00000000000E+00  0.00000000000E+00 -0.22143620368E+04  0.22143620368E+04  0.50400001928E-02 0.  1.
    10030    2    1    2    0    0  0.00000000000E+00  0.00000000000E+00 -0.40934879128E+03  0.40193752823E+04  0.39984761131E+04 0.  0.
        5    1    3    3  502    0 -0.77349470655E+03 -0.17080257256E+03  0.16405296845E+04  0.18217648903E+04  0.46999998093E+01 0. -1.
       -5    1    3    3    0  502  0.77349470655E+03  0.17080257256E+03 -0.20498784758E+04  0.21976103920E+04  0.46999998093E+01 0.  1.
</event>
<event>
 5   0  0.6645526E-09  0.3992647E+04  0.7818609E-02  0.8006032E-01
        2   -1    0    0  501    0  0.00000000000E+00  0.00000000000E+00  0.17311036386E+04  0.17311036386E+04  0.25500000920E-02 0. -1.
       -2   -1    0    0    0  501  0.00000000000E+00  0.00000000000E+00 -0.23021770467E+04  0.23021770467E+04  0.25500000920E-02 0.  1.
    10030    2    1    2    0    0  0.00000000000E+00  0.00000000000E+00 -0.57107340810E+03  0.40332806854E+04  0.39926467724E+04 0.  0.
        3    1    3    3  502    0  0.81986868601E+02  0.14372815358E+04  0.11115814372E+04  0.18188219708E+04  0.10100000352E+00 0. -1.
       -3    1    3    3    0  502 -0.81986868601E+02 -0.14372815358E+04 -0.16826548453E+04  0.22144587145E+04  0.10100000352E+00 0.  1.
</event>
<event>
 5   0  0.6547327E-09  0.3998930E+04  0.7818609E-02  0.8004763E-01
       -2   -1    0    0    0  501  0.00000000000E+00  0.00000000000E+00  0.23693841935E+04  0.23693841935E+04  0.25500000920E-02 0.  1.
        2   -1    0    0  501    0  0.00000000000E+00  0.00000000000E+00 -0.16872988876E+04  0.16872988876E+04  0.25500000920E-02 0. -1.
    10030    2    1    2    0    0  0.00000000000E+00  0.00000000000E+00  0.68208530589E+03  0.40566830810E+04  0.39989295137E+04 0.  0.
        5    1    3    3  502    0 -0.15594528274E+04  0.38300897535E+03 -0.86748477662E+03  0.18251413435E+04  0.46999998093E+01 0. -1.
       -5    1    3    3    0  502  0.15594528274E+04 -0.38300897535E+03  0.15495700825E+04  0.22315417376E+04  0.46999998093E+01 0.  1.
</event>
<event>
 5   0  0.6736335E-09  0.3998670E+04  0.7818609E-02  0.8004815E-01
       -2   -1    0    0    0  501  0.00000000000E+00  0.00000000000E+00  0.26022397406E+04  0.26022397406E+04  0.25500000920E-02 0. -1.
        2   -1    0    0  501    0  0.00000000000E+00  0.00000000000E+00 -0.15361156604E+04  0.15361156604E+04  0.25500000920E-02 0.  1.
    10030    2    1    2    0    0  0.00000000000E+00  0.00000000000E+00  0.10661240802E+04  0.41383554010E+04  0.39986703879E+04 0.  0.
        1    1    3    3  502    0 -0.30044222137E+03  0.61250499007E+03  0.24780512538E+04  0.25702462738E+04  0.50400001928E-02 0. -1.
       -1    1    3    3    0  502  0.30044222137E+03 -0.61250499007E+03 -0.14119271737E+04  0.15681091273E+04  0.50400001928E-02 0.  1.
</event>
<event>
 5   0  0.2078125E-09  0.3999991E+04  0.7818609E-02  0.8004548E-01
       -1   -1    0    0    0  501  0.00000000000E+00  0.00000000000E+00  0.15660319631E+04  0.15660319631E+04  0.50400001928E-02 0. -1.
        1   -1    0    0  501    0  0.00000000000E+00  0.00000000000E+00 -0.25542151936E+04  0.25542151936E+04  0.50400001928E-02 0.  1.
    10030    2    1    2    0    0  0.00000000000E+00  0.00000000000E+00 -0.98818323047E+03  0.41202471567E+04  0.39999913169E+04 0.  0.
        1    1    3    3  502    0  0.12821614955E+04 -0.14397018524E+04  0.54172586840E+02  0.19286301340E+04  0.50400001928E-02 0. -1.
       -1    1    3    3    0  502 -0.12821614955E+04  0.14397018524E+04 -0.10423558173E+04  0.21916170227E+04  0.50400001928E-02 0.  1.
</event>
<event>
 5   0  0.6645526E-09  0.4000750E+04  0.7818609E-02  0.8004395E-01
       -2   -1    0    0    0  501  0.00000000000E+00  0.00000000000E+00  0.24616941932E+04  0.24616941932E+04  0.25500000920E-02 0.  1.
        2   -1    0    0  501    0  0.00000000000E+00  0.00000000000E+00 -0.16255065071E+04  0.16255065071E+04  0.25500000920E-02 0. -1.
    10030    2    1    2    0    0  0.00000000000E+00  0.00000000000E+00  0.83618768606E+03  0.40872007003E+04  0.40007498945E+04 0.  0.
        3    1    3    3  502    0 -0.15157031185E+04  0.12544667940E+04  0.49100679448E+02  0.19681091859E+04  0.10100000352E+00 0.  1.
       -3    1    3    3    0  502  0.15157031185E+04 -0.12544667940E+04  0.78708700661E+03  0.21190915145E+04  0.10100000352E+00 0. -1.
</event>
<event>
 5   0  0.6538370E-09  0.4000566E+04  0.7818609E-02  0.8004432E-01
        2   -1    0    0  501    0  0.00000000000E+00  0.00000000000E+00  0.15436330033E+04  0.15436330033E+04  0.25500000920E-02 0. -1.
       -2   -1    0    0    0  501  0.00000000000E+00  0.00000000000E+00 -0.25920228859E+04  0.25920228859E+04  0.25500000920E-02 0.  1.
    10030    2    1    2    0    0  0.00000000000E+00  0.00000000000E+00 -0.10483898827E+04  0.41356558892E+04  0.40005659959E+04 0.  0.
        4    1    3    3  502    0 -0.15390153155E+04  0.17706518376E+03  0.78392370342E+03  0.17362195156E+04  0.12699999809E+01 0. -1.
       -4    1    3    3    0  502  0.15390153155E+04 -0.17706518376E+03 -0.18323135861E+04  0.23994363736E+04  0.12699999809E+01 0.  1.
</event>
<event>
 5   0  0.6599276E-09  0.4000404E+04  0.7818609E-02  0.8004465E-01
        2   -1    0    0  501    0  0.00000000000E+00  0.00000000000E+00  0.25478358768E+04  0.25478358768E+04  0.25500000920E-02 0.  1.
       -2   -1    0    0    0  501  0.00000000000E+00  0.00000000000E+00 -0.15702772894E+04  0.15702772894E+04  0.25500000920E-02 0. -1.
    10030    2    1    2    0    0  0.00000000000E+00  0.00000000000E+00  0.97755858742E+03  0.41181131662E+04  0.40004043868E+04 0.  0.
        2    1    3    3  502    0  0.14365776988E+04  0.62322718484E+03 -0.79228163977E+03  0.17549580637E+04  0.25500000920E-02 0. -1.
       -2    1    3    3    0  502 -0.14365776988E+04 -0.62322718484E+03  0.17698402272E+04  0.23631551025E+04  0.25500000920E-02 0.  1.
</event>
<event>
 5   0  0.6599276E-09  0.3999913E+04  0.7818609E-02  0.8004564E-01
       -2   -1    0    0    0  501  0.00000000000E+00  0.00000000000E+00  0.17905788257E+04  0.17905788257E+04  0.25500000920E-02 0.  1.
        2   -1    0    0  501    0  0.00000000000E+00  0.00000000000E+00 -0.22338176950E+04  0.22338176950E+04  0.25500000920E-02 0. -1.
    10030    2    1    2    0    0  0.00000000000E+00  0.00000000000E+00 -0.44323886930E+03  0.40243965208E+04  0.39999133317E+04 0.  0.
        2    1    3    3  502    0  0.35370925316E+03 -0.80230001145E+02  0.17572134134E+04  0.17942536246E+04  0.25500000920E-02 0.  1.
       -2    1    3    3    0  502 -0.35370925316E+03  0.80230001145E+02 -0.22004522827E+04  0.22301428962E+04  0.25500000920E-02 0. -1.
</event>
<event>
 5   0  0.6736335E-09  0.3998793E+04  0.7818609E-02  0.8004790E-01
        2   -1    0    0  501    0  0.00000000000E+00  0.00000000000E+00  0.18699892614E+04  0.18699892614E+04  0.25500000920E-02 0. -1.
       -2   -1    0    0    0  501  0.00000000000E+00  0.00000000000E+00 -0.21377592469E+04  0.21377592469E+04  0.25500000920E-02 0.  1.
    10030    2    1    2    0    0  0.00000000000E+00  0.00000000000E+00 -0.26776998549E+03  0.40077485083E+04  0.39987932356E+04 0.  0.
        1    1    3    3  502    0  0.32168185635E+03  0.17543086930E+04  0.77174730312E+03  0.19433661793E+04  0.50400001928E-02 0. -1.
       -1    1    3    3    0  502 -0.32168185635E+03 -0.17543086930E+04 -0.10395172886E+04  0.20643823290E+04  0.50400001928E-02 0.  1.
</event>
<event>
 5   0  0.2078125E-09  0.4000042E+04  0.7818609E-02  0.8004538E-01
        1   -1    0    0  501    0  0.00000000000E+00  0.00000000000E+00  0.26445855775E+04  0.26445855776E+04  0.50400001928E-02 0. -1.
       -1   -1    0    0    0  501  0.00000000000E+00  0.00000000000E+00 -0.15125560539E+04  0.15125560539E+04  0.50400001928E-02 0.  1.
    10030    2    1    2    0    0  0.00000000000E+00  0.00000000000E+00  0.11320295236E+04  0.41571416315E+04  0.40000419625E+04 0.  0.
        1    1    3    3  502    0 -0.80011491076E+03 -0.22668494490E+03  0.24563845219E+04  0.25933366257E+04  0.50400001928E-02 0. -1.
       -1    1    3    3    0  502  0.80011491076E+03  0.22668494490E+03 -0.13243549983E+04  0.15638050058E+04  0.50400001928E-02 0.  1.
</event>
<event>
 5   0  0.6736335E-09  0.4001480E+04  0.7818609E-02  0.8004248E-01
        2   -1    0    0  501    0  0.00000000000E+00  0.00000000000E+00  0.12477698566E+04  0.12477698566E+04  0.25500000920E-02 0.  1.
       -2   -1    0    0    0  501  0.00000000000E+00  0.00000000000E+00 -0.32080915842E+04  0.32080915842E+04  0.25500000920E-02 0. -1.
    10030    2    1    2    0    0  0.00000000000E+00  0.00000000000E+00 -0.19603217276E+04  0.44558614408E+04  0.40014797142E+04 0.  0.
        1    1    3    3  502    0  0.27523059908E+03  0.75929666335E+03  0.10581823834E+04  0.13311773969E+04  0.50400001928E-02 0.  1.
       -1    1    3    3    0  502 -0.27523059908E+03 -0.75929666335E+03 -0.30185041110E+04  0.31246840438E+04  0.50400001928E-02 0. -1.
</event>
<event>
 5   0  0.2078125E-09  0.3999759E+04  0.7818609E-02  0.8004595E-01
       -1   -1    0    0    0  501  0.00000000000E+00  0.00000000000E+00  0.21988388189E+04  0.21988388189E+04  0.50400001928E-02 0. -1.
        1   -1    0    0  501    0  0.00000000000E+00  0.00000000000E+00 -0.18189223390E+04  0.18189223390E+04  0.50400001928E-02 0.  1.
    10030    2    1    2    0    0  0.00000000000E+00  0.00000000000E+00  0.37991647985E+03  0.40177611579E+04  0.39997585165E+04 0.  0.
        2    1    3    3  502    0 -0.78371465094E+03 -0.59971524146E+03 -0.15573104309E+04  0.18436601647E+04  0.25500000920E-02 0.  1.
       -2    1    3    3    0  502  0.78371465094E+03  0.59971524146E+03  0.19372269107E+04  0.21741009932E+04  0.25500000920E-02 0. -1.
</event>
<event>
 5   0  0.2078125E-09  0.3999079E+04  0.7818609E-02  0.8004732E-01
       -1   -1    0    0    0  501  0.00000000000E+00  0.00000000000E+00  0.27088733104E+04  0.27088733104E+04  0.50400001928E-02 0.  1.
        1   -1    0    0  501    0  0.00000000000E+00  0.00000000000E+00 -0.14759489592E+04  0.14759489592E+04  0.50400001928E-02 0. -1.
    10030    2    1    2    0    0  0.00000000000E+00  0.00000000000E+00  0.12329243512E+04  0.41848222695E+04  0.39990792655E+04 0.  0.
        5    1    3    3  502    0 -0.75555494566E+03  0.11363645552E+04  0.21458317381E+04  0.25429910768E+04  0.46999998093E+01 0.  1.
       -5    1    3    3    0  502  0.75555494566E+03 -0.11363645552E+04 -0.91290738695E+03  0.16418311927E+04  0.46999998093E+01 0. -1.
</event>
<event>
 5   0  0.2078125E-09  0.3999930E+04  0.7818609E-02  0.8004561E-01
       -1   -1    0    0    0  501  0.00000000000E+00  0.00000000000E+00  0.22055111291E+04  0.22055111291E+04  0.50400001928E-02 0. -1.
        1   -1    0    0  501    0  0.00000000000E+00  0.00000000000E+00 -0.18135751143E+04  0.18135751143E+04  0.50400001928E-02 0.  1.
    10030    2    1    2    0    0  0.00000000000E+00  0.00000000000E+00  0.39193601485E+03  0.40190862434E+04  0.39999300484E+04 0.  0.
        4    1    3    3  502    0 -0.39563821496E+03 -0.16432635649E+04  0.12702063649E+04  0.21143014362E+04  0.12699999809E+01 0. -1.
       -4    1    3    3    0  502  0.39563821496E+03  0.16432635649E+04 -0.87827035004E+03  0.19047848072E+04  0.12699999809E+01 0.  1.
</event>
<event>
 5   0  0.6736335E-09  0.3997104E+04  0.7818609E-02  0.8005131E-01
        2   -1    0    0  501    0  0.00000000000E+00  0.00000000000E+00  0.24876821590E+04  0.24876821590E+04  0.25500000920E-02 0.  1.
       -2   -1    0    0    0  501  0.00000000000E+00  0.00000000000E+00 -0.16055946314E+04  0.16055946314E+04  0.25500000920E-02 0. -1.
    10030    2    1    2    0    0  0.00000000000E+00  0.00000000000E+00  0.88208752765E+03  0.40932767904E+04  0.39971035109E+04 0.  0.
        1    1    3    3  502    0  0.10479348205E+04  0.14810421863E+04 -0.41730961561E+03  0.18616660982E+04  0.50400001928E-02 0. -1.
       -1    1    3    3    0  502 -0.10479348205E+04 -0.14810421863E+04  0.12993971433E+04  0.22316106922E+04  0.50400001928E-02 0.  1.
</event>
<event>
 5   0  0.2078125E-09  0.4002846E+04  0.7818609E-02  0.8003973E-01
        1   -1    0    0  501    0  0.00000000000E+00  0.00000000000E+00  0.21134119088E+04  0.21134119088E+04  0.50400001928E-02 0. -1.
       -1   -1    0    0    0  501  0.00000000000E+00  0.00000000000E+00 -0.18953681413E+04  0.18953681413E+04  0.50400001928E-02 0.  1.
    10030    2    1    2    0    0  0.00000000000E+00  0.00000000000E+00  0.21804376755E+03  0.40087800501E+04  0.40028457884E+04 0.  0.
        2    1    3    3  502    0  0.31733181223E+02  0.12869912760E+04 -0.14256794233E+04  0.19209152395E+04  0.25500000920E-02 0.  1.
       -2    1    3    3    0  502 -0.31733181223E+02 -0.12869912760E+04  0.16437231908E+04  0.20878648106E+04  0.25500000920E-02 0. -1.
</event>
<event>
 5   0  0.2078125E-09  0.4000076E+04  0.7818609E-02  0.8004531E-01
       -1   -1    0    0    0  501  0.00000000000E+00  0.00000000000E+00  0.13003711140E+04  0.13003711140E+04  0.50400001928E-02 0. -1.
        1   -1    0    0  501    0  0.00000000000E+00  0.00000000000E+00 -0.30761619476E+04  0.30761619476E+04  0.50400001928E-02 0.  1.
    10030    2    1    2    0    0  0.00000000000E+00  0.00000000000E+00 -0.17757908336E+04  0.43765330616E+04  0.40000760686E+04 0.  0.
        5    1    3    3  502    0  0.13724574542E+04  0.14514497575E+04 -0.99611960329E+03  0.22321788047E+04  0.46999998093E+01 0. -1.
       -5    1    3    3    0  502 -0.13724574542E+04 -0.14514497575E+04 -0.77967123030E+03  0.21443542570E+04  0.46999998093E+01 0.  1.
</event>
<event>
 5   0  0.2078125E-09  0.3996381E+04  0.7818609E-02  0.8005277E-01
        1   -1    0    0  501    0  0.00000000000E+00  0.00000000000E+00  0.20263536629E+04  0.20263536629E+04  0.50400001928E-02 0.  1.
       -1   -1    0    0    0  501  0.00000000000E+00  0.00000000000E+00 -0.19704183390E+04  0.19704183390E+04  0.50400001928E-02 0. -1.
    10030    2    1    2    0    0  0.00000000000E+00  0.00000000000E+00  0.55935323891E+02  0.39967720018E+04  0.39963805717E+04 0.  0.
        5    1    3    3  502    0  0.16267262395E+03  0.17868832224E+04  0.90744466101E+03  0.20106943915E+04  0.46999998093E+01 0.  1.
       -5    1    3    3    0  502 -0.16267262395E+03 -0.17868832224E+04 -0.85150933712E+03  0.19860776103E+04  0.46999998093E+01 0. -1.
</event>
<event>
 5   0  0.6736335E-09  0.4012352E+04  0.7818609E-02  0.8002059E-01
        2   -1    0    0  501    0  0.00000000000E+00  0.00000000000E+00  0.24005404767E+04  0.24005404767E+04  0.25500000920E-02 0.  1.
       -2   -1    0    0    0  501  0.00000000000E+00  0.00000000000E+00 -0.16765984870E+04  0.16765984870E+04  0.25500000920E-02 0. -1.
    10030    2    1    2    0    0  0.00000000000E+00  0.00000000000E+00  0.72394198971E+03  0.40771389637E+04  0.40123521935E+04 0.  0.
        1    1    3    3  502    0 -0.48301082375E+01 -0.18537556942E+04  0.11413688802E+04  0.21769603635E+04  0.50400001928E-02 0.  1.
       -1    1    3    3    0  502  0.48301082375E+01  0.18537556942E+04 -0.41742689048E+03  0.19001786002E+04  0.50400001928E-02 0. -1.
</event>
<event>
 5   0  0.2078125E-09  0.3999094E+04  0.7818609E-02  0.8004729E-01
       -1   -1    0    0    0  501  0.00000000000E+00  0.00000000000E+00  0.19207986000E+04  0.19207986000E+04  0.50400001928E-02 0.  1.
        1   -1    0    0  501    0  0.00000000000E+00  0.00000000000E+00 -0.20815241516E+04  0.20815241516E+04  0.50400001928E-02 0. -1.
    10030    2    1    2    0    0  0.00000000000E+00  0.00000000000E+00 -0.16072555159E+03  0.40023227515E+04  0.39990942355E+04 0.  0.
        5    1    3    3  502    0  0.11529189906E+03 -0.16346944978E+04 -0.12269963492E+04  0.20472079655E+04  0.46999998093E+01 0. -1.
       -5    1    3    3    0  502 -0.11529189906E+03  0.16346944978E+04  0.10662707976E+04  0.19551147861E+04  0.46999998093E+01 0.  1.
</event>
<event>
 5   0  0.6599276E-09  0.4000786E+04  0.7818609E-02  0.8004388E-01
       -2   -1    0    0    0  501  0.00000000000E+00  0.00000000000E+00  0.17182847855E+04  0.17182847855E+04  0.25500000920E-02 0.  1.
        2   -1    0    0  501    0  0.00000000000E+00  0.00000000000E+00 -0.23288174002E+04  0.23288174002E+04  0.25500000920E-02 0. -1.
    10030    2    1    2    0    0  0.00000000000E+00  0.00000000000E+00 -0.61053261465E+03  0.40471021857E+04  0.40007856763E+04 0.  0.
        2    1    3    3  502    0 -0.92098968711E+03 -0.45126050970E+03  0.14320896111E+04  0.17614592546E+04  0.25500000920E-02 0.  1.
       -2    1    3    3    0  502  0.92098968711E+03  0.45126050970E+03 -0.20426222258E+04  0.22856429311E+04  0.25500000920E-02 0. -1.
</event>
<event>
 5   0  0.2078125E-09  0.3999793E+04  0.7818609E-02  0.8004588E-01
        1   -1    0    0  501    0  0.00000000000E+00  0.00000000000E+00  0.29300913537E+04  0.29300913537E+04  0.50400001928E-02 0. -1.
       -1   -1    0    0    0  501  0.00000000000E+00  0.00000000000E+00 -0.13650040280E+04  0.13650040280E+04  0.50400001928E-02 0.  1.
    10030    2    1    2    0    0  0.00000000000E+00  0.00000000000E+00  0.15650873257E+04  0.42950953817E+04  0.39997932447E+04 0.  0.
        2    1    3    3  502    0 -0.15653927413E+03  0.31946381964E+03 -0.13307527234E+04  0.13774848411E+04  0.25500000920E-02 0.  1.
       -2    1    3    3    0  502  0.15653927413E+03 -0.31946381964E+03  0.28958400492E+04  0.29176105406E+04  0.25500000920E-02 0. -1.
</event>
<event>
 5   0  0.6547327E-09  0.3998522E+04  0.7818609E-02  0.8004845E-01
        2   -1    0    0  501    0  0.00000000000E+00  0.00000000000E+00  0.29329729182E+04  0.29329729182E+04  0.25500000920E-02 0.  1.
       -2   -1    0    0    0  501  0.00000000000E+00  0.00000000000E+00 -0.13627965412E+04  0.13627965412E+04  0.25500000920E-02 0. -1.
    10030    2    1    2    0    0  0.00000000000E+00  0.00000000000E+00  0.15701763771E+04  0.42957694594E+04  0.39985224012E+04 0.  0.
        5    1    3    3  502    0  0.41222057493E+03  0.13557471536E+04 -0.73009089870E+03  0.15940611523E+04  0.46999998093E+01 0. -1.
       -5    1    3    3    0  502 -0.41222057493E+03 -0.13557471536E+04  0.23002672758E+04  0.27017083071E+04  0.46999998093E+01 0.  1.
</event>
<event>
 5   0  0.6538370E-09  0.3999803E+04  0.7818609E-02  0.8004586E-01
       -2   -1    0    0    0  501  0.00000000000E+00  0.00000000000E+00  0.16878120971E+04  0.16878120971E+04  0.25500000920E-02 0. -1.
        2   -1    0    0  501    0  0.00000000000E+00  0.00000000000E+00 -0.23696984103E+04  0.23696984103E+04  0.25500000920E-02 0.  1.
    10030    2    1    2    0    0  0.00000000000E+00  0.00000000000E+00 -0.68188631317E+03  0.40575105074E+04  0.39998028169E+04 0.  0.
        4    1    3    3  502    0 -0.13246486775E+04 -0.14941048303E+04 -0.22725180277E+03  0.20096488144E+04  0.12699999809E+01 0. -1.
       -4    1    3    3    0  502  0.13246486775E+04  0.14941048303E+04 -0.45463451040E+03  0.20478616930E+04  0.12699999809E+01 0.  1.
</event>
<event>
 5   0  0.6538370E-09  0.4000456E+04  0.7818609E-02  0.8004455E-01
       -2   -1    0    0    0  501  0.00000000000E+00  0.00000000000E+00  0.19506721204E+04  0.19506721204E+04  0.25500000920E-02 0. -1.
        2   -1    0    0  501    0  0.00000000000E+00  0.00000000000E+00 -0.20510426667E+04  0.20510426667E+04  0.25500000920E-02 0.  1.
    10030    2    1    2    0    0  0.00000000000E+00  0.00000000000E+00 -0.10037054631E+03  0.40017147871E+04  0.40004558479E+04 0.  0.
        4    1    3    3  502    0  0.28494945452E+03  0.38683668524E+02  0.19298864485E+04  0.19511934642E+04  0.12699999809E+01 0. -1.
       -4    1    3    3    0  502 -0.28494945452E+03 -0.38683668524E+02 -0.20302569948E+04  0.20505213229E+04  0.12699999809E+01 0.  1.
</event>
<event>
 5   0  0.2078125E-09  0.3999649E+04  0.7818609E-02  0.8004617E-01
       -3   -1    0    0    0  501  0.00000000000E+00  0.00000000000E+00  0.15966517474E+04  0.15966517506E+04  0.10100000352E+00 0. -1.
        3   -1    0    0  501    0  0.00000000000E+00  0.00000000000E+00 -0.25048030673E+04  0.25048030694E+04  0.10100000352E+00 0.  1.
    10030    2    1    2    0    0  0.00000000000E+00  0.00000000000E+00 -0.90815131996E+03  0.41014548199E+04  0.39996490871E+04 0.  0.
        3    1    3    3  502    0  0.96160913765E+03 -0.50689141466E+03 -0.21753927747E+04  0.24318644646E+04  0.10100000352E+00 0.  1.
       -3    1    3    3    0  502 -0.96160913765E+03  0.50689141466E+03  0.12672414547E+04  0.16695903553E+04  0.10100000352E+00 0. -1.
</event>
<event>
 5   0  0.6538370E-09  0.3999180E+04  0.7818609E-02  0.8004712E-01
        2   -1    0    0  501    0  0.00000000000E+00  0.00000000000E+00  0.23661717148E+04  0.23661717148E+04  0.25500000920E-02 0. -1.
       -2   -1    0    0    0  501  0.00000000000E+00  0.00000000000E+00 -0.16898012388E+04  0.16898012388E+04  0.25500000920E-02 0.  1.
    10030    2    1    2    0    0  0.00000000000E+00  0.00000000000E+00  0.67637047601E+03  0.40559729536E+04  0.39991798633E+04 0.  0.
        4    1    3    3  502    0  0.17505399583E+04  0.43337949095E+03  0.12142521700E+04  0.21740786265E+04  0.12699999809E+01 0. -1.
       -4    1    3    3    0  502 -0.17505399583E+04 -0.43337949095E+03 -0.53788169399E+03  0.18818943271E+04  0.12699999809E+01 0.  1.
</event>
<event>
 5   0  0.6547327E-09  0.3997823E+04  0.7818609E-02  0.8004986E-01
       -2   -1    0    0    0  501  0.00000000000E+00  0.00000000000E+00  0.21652541583E+04  0.21652541583E+04  0.25500000920E-02 0.  1.
        2   -1    0    0  501    0  0.00000000000E+00  0.00000000000E+00 -0.18453475806E+04  0.18453475806E+04  0.25500000920E-02 0. -1.
    10030    2    1    2    0    0  0.00000000000E+00  0.00000000000E+00  0.31990657771E+03  0.40106017389E+04  0.39978226686E+04 0.  0.
        5    1    3    3  502    0 -0.16395979879E+04 -0.16339259590E+03 -0.97532024770E+03  0.19147455125E+04  0.46999998093E+01 0. -1.
       -5    1    3    3    0  502  0.16395979879E+04  0.16339259590E+03  0.12952268254E+04  0.20958562263E+04  0.46999998093E+01 0.  1.
</event>
<event>
 5   0  0.2078125E-09  0.4001602E+04  0.7818609E-02  0.8004223E-01
       -1   -1    0    0    0  501  0.00000000000E+00  0.00000000000E+00  0.27122400846E+04  0.27122400846E+04  0.50400001928E-02 0.  1.
        1   -1    0    0  501    0  0.00000000000E+00  0.00000000000E+00 -0.14759775609E+04  0.14759775609E+04  0.50400001928E-02 0. -1.
    10030    2    1    2    0    0  0.00000000000E+00  0.00000000000E+00  0.12362625236E+04  0.41882176455E+04  0.40016024314E+04 0.  0.
        5    1    3    3  502    0  0.94800334254E+02 -0.29734838875E+03  0.26866011655E+04  0.27046720837E+04  0.46999998093E+01 0.  1.
       -5    1    3    3    0  502 -0.94800334254E+02  0.29734838875E+03 -0.14503386419E+04  0.14835455618E+04  0.46999998093E+01 0. -1.
</event>
<event>
 5   0  0.6538370E-09  0.4004975E+04  0.7818609E-02  0.8003544E-01
       -2   -1    0    0    0  501  0.00000000000E+00  0.00000000000E+00  0.16295052423E+04  0.16295052423E+04  0.25500000920E-02 0. -1.
        2   -1    0    0  501    0  0.00000000000E+00  0.00000000000E+00 -0.24608422003E+04  0.24608422003E+04  0.25500000920E-02 0.  1.
    10030    2    1    2    0    0  0.00000000000E+00  0.00000000000E+00 -0.83133695793E+03  0.40903474426E+04  0.40049745397E+04 0.  0.
        4    1    3    3  502    0 -0.41282460004E+02  0.46641152458E+03 -0.24041460799E+04  0.24493190764E+04  0.12699999809E+01 0.  1.
       -4    1    3    3    0  502  0.41282460004E+02 -0.46641152458E+03  0.15728091219E+04  0.16410283662E+04  0.12699999809E+01 0. -1.
</event>
<event>
 5   0  0.6736335E-09  0.3998918E+04  0.7818609E-02  0.8004765E-01
       -2   -1    0    0    0  501  0.00000000000E+00  0.00000000000E+00  0.14223564232E+04  0.14223564232E+04  0.25500000920E-02 0. -1.
        2   -1    0    0  501    0  0.00000000000E+00  0.00000000000E+00 -0.28107136181E+04  0.28107136181E+04  0.25500000920E-02 0.  1.
    10030    2    1    2    0    0  0.00000000000E+00  0.00000000000E+00 -0.13883571949E+04  0.42330700413E+04  0.39989181379E+04 0.  0.
        1    1    3    3  502    0  0.13358919274E+04 -0.46341725391E+02  0.87985987378E+03  0.16002837857E+04  0.50400001928E-02 0. -1.
       -1    1    3    3    0  502 -0.13358919274E+04  0.46341725391E+02 -0.22682170686E+04  0.26327862556E+04  0.50400001928E-02 0.  1.
</event>
<event>
 5   0  0.2078125E-09  0.4000591E+04  0.7818609E-02  0.8004427E-01
       -1   -1    0    0    0  501  0.00000000000E+00  0.00000000000E+00  0.15542153044E+04  0.15542153044E+04  0.50400001928E-02 0.  1.
        1   -1    0    0  501    0  0.00000000000E+00  0.00000000000E+00 -0.25744060530E+04  0.25744060530E+04  0.50400001928E-02 0. -1.
    10030    2    1    2    0    0  0.00000000000E+00  0.00000000000E+00 -0.10201907487E+04  0.41286213574E+04  0.40005906000E+04 0.  0.
        3    1    3    3  502    0  0.15451844242E+04 -0.49203598437E+03 -0.17186792239E+04  0.23629542102E+04  0.10100000352E+00 0. -1.
       -3    1    3    3    0  502 -0.15451844242E+04  0.49203598437E+03  0.69848847524E+03  0.17656671472E+04  0.10100000352E+00 0.  1.
</event>
<event>
 5   0  0.6645526E-09  0.4000460E+04  0.7818609E-02  0.8004454E-01
        2   -1    0    0  501    0  0.00000000000E+00  0.00000000000E+00  0.13962295039E+04  0.13962295039E+04  0.25500000920E-02 0.  1.
       -2   -1    0    0    0  501  0.00000000000E+00  0.00000000000E+00 -0.28655168422E+04  0.28655168422E+04  0.25500000920E-02 0. -1.
    10030    2    1    2    0    0  0.00000000000E+00  0.00000000000E+00 -0.14692873383E+04  0.42617463462E+04  0.40004595532E+04 0.  0.
        3    1    3    3  502    0 -0.19068271587E+03  0.71784783859E+03 -0.27131629418E+04  0.28129910374E+04  0.10100000352E+00 0. -1.
       -3    1    3    3    0  502  0.19068271587E+03 -0.71784783859E+03  0.12438756035E+04  0.14487553088E+04  0.10100000352E+00 0.  1.
</event>
<event>
 5   0  0.2078125E-09  0.4000529E+04  0.7818609E-02  0.8004440E-01
        1   -1    0    0  501    0  0.00000000000E+00  0.00000000000E+00  0.23927088239E+04  0.23927088239E+04  0.50400001928E-02 0. -1.
       -1   -1    0    0    0  501  0.00000000000E+00  0.00000000000E+00 -0.16721878471E+04  0.16721878471E+04  0.50400001928E-02 0.  1.
    10030    2    1    2    0    0  0.00000000000E+00  0.00000000000E+00  0.72052097676E+03  0.40648966710E+04  0.40005292735E+04 0.  0.
        3    1    3    3  502    0 -0.18274887700E+03 -0.15282974177E+04 -0.93777909997E+03  0.18023650572E+04  0.10100000352E+00 0.  1.
       -3    1    3    3    0  502  0.18274887700E+03  0.15282974177E+04  0.16583000767E+04  0.22625316138E+04  0.10100000352E+00 0. -1.
</event>
<event>
 5   0  0.2078125E-09  0.4000279E+04  0.7818609E-02  0.8004490E-01
       -1   -1    0    0    0  501  0.00000000000E+00  0.00000000000E+00  0.23741738696E+04  0.23741738696E+04  0.50400001928E-02 0.  1.
        1   -1    0    0  501    0  0.00000000000E+00  0.00000000000E+00 -0.16850317942E+04  0.16850317942E+04  0.50400001928E-02 0. -1.
    10030    2    1    2    0    0  0.00000000000E+00  0.00000000000E+00  0.68914207542E+03  0.40592056639E+04  0.40002792179E+04 0.  0.
        5    1    3    3  502    0  0.18306838526E+04  0.16824121031E+03 -0.45496190066E+03  0.18938640115E+04  0.46999998093E+01 0. -1.
       -5    1    3    3    0  502 -0.18306838526E+04 -0.16824121031E+03  0.11441039761E+04  0.21653416523E+04  0.46999998093E+01 0.  1.
</event>
<event>
 5   0  0.2078125E-09  0.4002847E+04  0.7818609E-02  0.8003973E-01
        1   -1    0    0  501    0  0.00000000000E+00  0.00000000000E+00  0.16359239067E+04  0.16359239067E+04  0.50400001928E-02 0. -1.
       -1   -1    0    0    0  501  0.00000000000E+00  0.00000000000E+00 -0.24485828228E+04  0.24485828228E+04  0.50400001928E-02 0.  1.
    10030    2    1    2    0    0  0.00000000000E+00  0.00000000000E+00 -0.81265891617E+03  0.40845067295E+04  0.40028465758E+04 0.  0.
        1    1    3    3  502    0  0.10538975544E+04  0.96944409558E+03  0.10204711863E+04  0.17583752022E+04  0.50400001928E-02 0. -1.
       -1    1    3    3    0  502 -0.10538975544E+04 -0.96944409558E+03 -0.18331301025E+04  0.23261315273E+04  0.50400001928E-02 0.  1.
</event>
<event>
 5   0  0.2078125E-09  0.4000903E+04  0.7818609E-02  0.8004364E-01
       -1   -1    0    0    0  501  0.00000000000E+00  0.00000000000E+00  0.28273466828E+04  0.28273466828E+04  0.50400001928E-02 0.  1.
        1   -1    0    0  501    0  0.00000000000E+00  0.00000000000E+00 -0.14153926722E+04  0.14153926722E+04  0.50400001928E-02 0. -1.
    10030    2    1    2    0    0  0.00000000000E+00  0.00000000000E+00  0.14119540106E+04  0.42427393550E+04  0.40009027864E+04 0.  0.
        1    1    3    3  502    0  0.72780937190E+03 -0.13403263357E+01 -0.12700110245E+04  0.14637746687E+04  0.50400001928E-02 0. -1.
       -1    1    3    3    0  502 -0.72780937190E+03  0.13403263357E+01  0.26819650351E+04  0.27789646863E+04  0.50400001928E-02 0.  1.
</event>
<event>
 5   0  0.6645526E-09  0.4000052E+04  0.7818609E-02  0.8004536E-01
       -2   -1    0    0    0  501  0.00000000000E+00  0.00000000000E+00  0.17870926061E+04  0.17870926061E+04  0.25500000920E-02 0.  1.
        2   -1    0    0  501    0  0.00000000000E+00  0.00000000000E+00 -0.22383303025E+04  0.22383303025E+04  0.25500000920E-02 0. -1.
    10030    2    1    2    0    0  0.00000000000E+00  0.00000000000E+00 -0.45123769640E+03  0.40254229086E+04  0.40000517664E+04 0.  0.
        3    1    3    3  502    0  0.82247200888E+03 -0.59340257652E+03 -0.19603612332E+04  0.22071708131E+04  0.10100000352E+00 0. -1.
       -3    1    3    3    0  502 -0.82247200888E+03  0.59340257652E+03  0.15091235368E+04  0.18182520955E+04  0.10100000352E+00 0.  1.
</event>
<event>
 5   0  0.2078125E-09  0.3999661E+04  0.7818609E-02  0.8004615E-01
       -1   -1    0    0    0  501  0.00000000000E+00  0.00000000000E+00  0.35057398011E+04  0.35057398011E+04  0.50400001928E-02 0.  1.
        1   -1    0    0  501    0  0.00000000000E+00  0.00000000000E+00 -0.11407923798E+04  0.11407923798E+04  0.50400001928E-02 0. -1.
    10030    2    1    2    0    0  0.00000000000E+00  0.00000000000E+00  0.23649474213E+04  0.46465321809E+04  0.39996606110E+04 0.  0.
        1    1    3    3  502    0  0.18803755727E+04  0.15605446602E+03  0.41260760648E+03  0.19314270185E+04  0.50400001928E-02 0. -1.
       -1    1    3    3    0  502 -0.18803755727E+04 -0.15605446602E+03  0.19523398149E+04  0.27151051625E+04  0.50400001928E-02 0.  1.
</event>
<event>
 5   0  0.2078125E-09  0.3997541E+04  0.7818609E-02  0.8005043E-01
       -1   -1    0    0    0  501  0.00000000000E+00  0.00000000000E+00  0.14870866723E+04  0.14870866723E+04  0.50400001928E-02 0. -1.
        1   -1    0    0  501    0  0.00000000000E+00  0.00000000000E+00 -0.26865169320E+04  0.26865169320E+04  0.50400001928E-02 0.  1.
    10030    2    1    2    0    0  0.00000000000E+00  0.00000000000E+00 -0.11994302597E+04  0.41736036043E+04  0.39975410065E+04 0.  0.
        2    1    3    3  502    0  0.47365247925E+03 -0.11411006369E+04  0.10406704295E+04  0.16153799174E+04  0.25500000920E-02 0. -1.
       -2    1    3    3    0  502 -0.47365247925E+03  0.11411006369E+04 -0.22401006892E+04  0.25582236870E+04  0.25500000920E-02 0.  1.
</event>
<event>
 5   0  0.2078125E-09  0.4000139E+04  0.7818609E-02  0.8004519E-01
       -1   -1    0    0    0  501  0.00000000000E+00  0.00000000000E+00  0.26741941038E+04  0.26741941038E+04  0.50400001928E-02 0. -1.
        1   -1    0    0  501    0  0.00000000000E+00  0.00000000000E+00 -0.14958816184E+04  0.14958816184E+04  0.50400001928E-02 0.  1.
    10030    2    1    2    0    0  0.00000000000E+00  0.00000000000E+00  0.11783124854E+04  0.41700757222E+04  0.40001388996E+04 0.  0.
        5    1    3    3  502    0  0.19353337036E+04  0.48320215396E+03  0.74114024308E+03  0.21279830394E+04  0.46999998093E+01 0. -1.
       -5    1    3    3    0  502 -0.19353337036E+04 -0.48320215396E+03  0.43717224230E+03  0.20420926829E+04  0.46999998093E+01 0.  1.
</event>
<event>
 5   0  0.6538370E-09  0.4001049E+04  0.7818609E-02  0.8004335E-01
        2   -1    0    0  501    0  0.00000000000E+00  0.00000000000E+00  0.25975889828E+04  0.25975889828E+04  0.25500000920E-02 0. -1.
       -2   -1    0    0    0  501  0.00000000000E+00  0.00000000000E+00 -0.15406972822E+04  0.15406972822E+04  0.25500000920E-02 0.  1.
    10030    2    1    2    0    0  0.00000000000E+00  0.00000000000E+00  0.10568917006E+04  0.41382862651E+04  0.40010490056E+04 0.  0.
        4    1    3    3  502    0  0.16435697708E+04  0.14010215775E+03  0.16991470153E+04  0.23681326818E+04  0.12699999809E+01 0. -1.
       -4    1    3    3    0  502 -0.16435697708E+04 -0.14010215775E+03 -0.64225531473E+03  0.17701535833E+04  0.12699999809E+01 0.  1.
</event>
<event>
 5   0  0.6645526E-09  0.4003044E+04  0.7818609E-02  0.8003933E-01
        2   -1    0    0  501    0  0.00000000000E+00  0.00000000000E+00  0.20364877457E+04  0.20364877457E+04  0.25500000920E-02 0. -1.
       -2   -1    0    0    0  501  0.00000000000E+00  0.00000000000E+00 -0.19671561586E+04  0.19671561586E+04  0.25500000920E-02 0.  1.
    10030    2    1    2    0    0  0.00000000000E+00  0.00000000000E+00  0.69331587061E+02  0.40036439043E+04  0.40030435475E+04 0.  0.
        3    1    3    3  502    0  0.27088164692E+03  0.15566063279E+03 -0.19426188949E+04  0.19675810734E+04  0.10100000352E+00 0.  1.
       -3    1    3    3    0  502 -0.27088164692E+03 -0.15566063279E+03  0.20119504820E+04  0.20360628309E+04  0.10100000352E+00 0. -1.
</event>
<event>
 5   0  0.2078125E-09  0.3999762E+04  0.7818609E-02  0.8004595E-01
        1   -1    0    0  501    0  0.00000000000E+00  0.00000000000E+00  0.20090821384E+04  0.20090821384E+04  0.50400001928E-02 0. -1.
       -1   -1    0    0    0  501  0.00000000000E+00  0.00000000000E+00 -0.19907215358E+04  0.19907215358E+04  0.50400001928E-02 0.  1.
    10030    2    1    2    0    0  0.00000000000E+00  0.00000000000E+00  0.18360602574E+02  0.39998036743E+04  0.39997615330E+04 0.  0.
        1    1    3    3  502    0  0.32312947794E+03  0.10295328214E+04 -0.16746345143E+04  0.19921724941E+04  0.50400001928E-02 0.  1.
       -1    1    3    3    0  502 -0.32312947794E+03 -0.10295328214E+04  0.16929951169E+04  0.20076311802E+04  0.50400001928E-02 0. -1.
</event>
<event>
 5   0  0.2078125E-09  0.3998711E+04  0.7818609E-02  0.8004807E-01
        1   -1    0    0  501    0  0.00000000000E+00  0.00000000000E+00  0.16264490825E+04  0.16264490825E+04  0.50400001928E-02 0. -1.
       -1   -1    0    0    0  501  0.00000000000E+00  0.00000000000E+00 -0.24577607278E+04  0.24577607278E+04  0.50400001928E-02 0.  1.
    10030    2    1    2    0    0  0.00000000000E+00  0.00000000000E+00 -0.83131164526E+03  0.40842098103E+04  0.39987111328E+04 0.  0.
        2    1    3    3  502    0 -0.28237523134E+03 -0.10662951762E+04  0.12875424127E+04  0.16954311070E+04  0.25500000920E-02 0. -1.
       -2    1    3    3    0  502  0.28237523134E+03  0.10662951762E+04 -0.21188540580E+04  0.23887787033E+04  0.25500000920E-02 0.  1.
</event>
<event>
 5   0  0.2078125E-09  0.3999924E+04  0.7818609E-02  0.8004562E-01
       -1   -1    0    0    0  501  0.00000000000E+00  0.00000000000E+00  0.20996390210E+04  0.20996390210E+04  0.50400001928E-02 0.  1.
        1   -1    0    0  501    0  0.00000000000E+00  0.00000000000E+00 -0.19050168435E+04  0.19050168435E+04  0.50400001928E-02 0. -1.
    10030    2    1    2    0    0  0.00000000000E+00  0.00000000000E+00  0.19462217752E+03  0.40046558645E+04  0.39999238495E+04 0.  0.
        4    1    3    3  502    0 -0.75291267352E+03  0.14178375448E+04 -0.10968720952E+04  0.19442918514E+04  0.12699999809E+01 0.  1.
       -4    1    3    3    0  502  0.75291267352E+03 -0.14178375448E+04  0.12914942727E+04  0.20603640131E+04  0.12699999809E+01 0. -1.
</event>
<event>
 5   0  0.2078125E-09  0.3999444E+04  0.7818609E-02  0.8004659E-01
       -1   -1    0    0    0  501  0.00000000000E+00  0.00000000000E+00  0.14066128395E+04  0.14066128395E+04  0.50400001928E-02 0. -1.
        1   -1    0    0  501    0  0.00000000000E+00  0.00000000000E+00 -0.28429199741E+04  0.28429199741E+04  0.50400001928E-02 0.  1.
    10030    2    1    2    0    0  0.00000000000E+00  0.00000000000E+00 -0.14363071346E+04  0.42495328136E+04  0.39994438299E+04 0.  0.
        3    1    3    3  502    0 -0.78314674016E+03 -0.11580896457E+04  0.80107889939E+03  0.16112783302E+04  0.10100000352E+00 0. -1.
       -3    1    3    3    0  502  0.78314674016E+03  0.11580896457E+04 -0.22373860340E+04  0.26382544834E+04  0.10100000352E+00 0.  1.
</event>
<event>
 5   0  0.2078125E-09  0.3992144E+04  0.7818609E-02  0.8006133E-01
       -1   -1    0    0    0  501  0.00000000000E+00  0.00000000000E+00  0.21907021912E+04  0.21907021912E+04  0.50400001928E-02 0.  1.
        1   -1    0    0  501    0  0.00000000000E+00  0.00000000000E+00 -0.18187334443E+04  0.18187334443E+04  0.50400001928E-02 0. -1.
    10030    2    1    2    0    0  0.00000000000E+00  0.00000000000E+00  0.37196874685E+03  0.40094356355E+04  0.39921439561E+04 0.  0.
        1    1    3    3  502    0  0.64959649533E+03 -0.24690157120E+03  0.20652834108E+04  0.21790666716E+04  0.50400001928E-02 0.  1.
       -1    1    3    3    0  502 -0.64959649533E+03  0.24690157120E+03 -0.16933146639E+04  0.18303689638E+04  0.50400001928E-02 0. -1.
</event>
<event>
 5   0  0.6538370E-09  0.3999821E+04  0.7818609E-02  0.8004583E-01
       -2   -1    0    0    0  501  0.00000000000E+00  0.00000000000E+00  0.21179473430E+04  0.21179473430E+04  0.25500000920E-02 0. -1.
        2   -1    0    0  501    0  0.00000000000E+00  0.00000000000E+00 -0.18884525156E+04  0.18884525157E+04  0.25500000920E-02 0.  1.
    10030    2    1    2    0    0  0.00000000000E+00  0.00000000000E+00  0.22949482739E+03  0.40063998587E+04  0.39998214900E+04 0.  0.
        4    1    3    3  502    0 -0.53565289719E+02  0.19522875027E+04 -0.31647852032E+03  0.19784984206E+04  0.12699999809E+01 0.  1.
       -4    1    3    3    0  502  0.53565289719E+02 -0.19522875027E+04  0.54597334771E+03  0.20279014381E+04  0.12699999809E+01 0. -1.
</event>
<event>
 5   0  0.6538370E-09  0.3999680E+04  0.7818609E-02  0.8004611E-01
       -2   -1    0    0    0  501  0.00000000000E+00  0.00000000000E+00  0.11970124419E+04  0.11970124420E+04  0.25500000920E-02 0. -1.
        2   -1    0    0  501    0  0.00000000000E+00  0.00000000000E+00 -0.33411189994E+04  0.33411189994E+04  0.25500000920E-02 0.  1.
    10030    2    1    2    0    0  0.00000000000E+00  0.00000000000E+00 -0.21441065574E+04  0.45381314413E+04  0.39996804934E+04 0.  0.
        4    1    3    3  502    0  0.14871829733E+04  0.28481292010E+03  0.41015233852E+03  0.15687760035E+04  0.12699999809E+01 0. -1.
       -4    1    3    3    0  502 -0.14871829733E+04 -0.28481292010E+03 -0.25542588959E+04  0.29693554378E+04  0.12699999809E+01 0.  1.
</event>
<event>
 5   0  0.2078125E-09  0.4001470E+04  0.7818609E-02  0.8004250E-01
        1   -1    0    0  501    0  0.00000000000E+00  0.00000000000E+00  0.21961650009E+04  0.21961650009E+04  0.50400001928E-02 0.  1.
       -1   -1    0    0    0  501  0.00000000000E+00  0.00000000000E+00 -0.18226953024E+04  0.18226953024E+04  0.50400001928E-02 0. -1.
    10030    2    1    2    0    0  0.00000000000E+00  0.00000000000E+00  0.37346969851E+03  0.40188603033E+04  0.40014695453E+04 0.  0.
        3    1    3    3  502    0  0.79203948462E+03  0.14951385644E+04 -0.88569504880E+03  0.19097700390E+04  0.10100000352E+00 0. -1.
       -3    1    3    3    0  502 -0.79203948462E+03 -0.14951385644E+04  0.12591647473E+04  0.21090902643E+04  0.10100000352E+00 0.  1.
</event>
<event>
 5   0  0.2078125E-09  0.4000545E+04  0.7818609E-02  0.8004437E-01
       -1   -1    0    0    0  501  0.00000000000E+00  0.00000000000E+00  0.19577528799E+04  0.19577528799E+04  0.50400001928E-02 0. -1.
        1   -1    0    0  501    0  0.00000000000E+00  0.00000000000E+00 -0.20437158852E+04  0.20437158852E+04  0.50400001928E-02 0.  1.
    10030    2    1    2    0    0  0.00000000000E+00  0.00000000000E+00 -0.85963005342E+02  0.40014687651E+04  0.40005452928E+04 0.  0.
        4    1    3    3  502    0 -0.33749281721E+03 -0.18046814611E+04  0.75112396964E+03  0.19836747235E+04  0.12699999809E+01 0.  1.
       -4    1    3    3    0  502  0.33749281721E+03  0.18046814611E+04 -0.83708697498E+03  0.20177940416E+04  0.12699999809E+01 0. -1.
</event>
<event>
 5   0  0.6538370E-09  0.4000559E+04  0.7818609E-02  0.8004434E-01
       -2   -1    0    0    0  501  0.00000000000E+00  0.00000000000E+00  0.15603316504E+04  0.15603316504E+04  0.25500000920E-02 0.  1.
        2   -1    0    0  501    0  0.00000000000E+00  0.00000000000E+00 -0.25642746535E+04  0.25642746535E+04  0.25500000920E-02 0. -1.
    10030    2    1    2    0    0  0.00000000000E+00  0.00000000000E+00 -0.10039430031E+04  0.41246063039E+04  0.40005594119E+04 0.  0.
        4    1    3    3  502    0 -0.61681770337E+03 -0.95697916954E+03  0.11936655365E+04  0.16495794119E+04  0.12699999809E+01 0.  1.
       -4    1    3    3    0  502  0.61681770337E+03  0.95697916954E+03 -0.21976085395E+04  0.24750268920E+04  0.12699999809E+01 0. -1.
</event>
<event>
 5   0  0.6538370E-09  0.4000868E+04  0.7818609E-02  0.8004371E-01
       -2   -1    0    0    0  501  0.00000000000E+00  0.00000000000E+00  0.14193516081E+04  0.14193516081E+04  0.25500000920E-02 0.  1.
        2   -1    0    0  501    0  0.00000000000E+00  0.00000000000E+00 -0.28194121571E+04  0.28194121572E+04  0.25500000920E-02 0. -1.
    10030    2    1    2    0    0  0.00000000000E+00  0.00000000000E+00 -0.14000605491E+04  0.42387637652E+04  0.40008684953E+04 0.  0.
        4    1    3    3  502    0  0.13630203626E+04 -0.12864230745E+04  0.40855465278E+02  0.18746678685E+04  0.12699999809E+01 0. -1.
       -4    1    3    3    0  502 -0.13630203626E+04  0.12864230745E+04 -0.14409160144E+04  0.23640958967E+04  0.12699999809E+01 0.  1.
</event>
<event>
 5   0  0.6547327E-09  0.4000688E+04  0.7818609E-02  0.8004408E-01
       -2   -1    0    0    0  501  0.00000000000E+00  0.00000000000E+00  0.23107236506E+04  0.23107236506E+04  0.25500000920E-02 0.  1.
        2   -1    0    0  501    0  0.00000000000E+00  0.00000000000E+00 -0.17316548628E+04  0.17316548628E+04  0.25500000920E-02 0. -1.
    10030    2    1    2    0    0  0.00000000000E+00  0.00000000000E+00  0.57906878786E+03  0.40423785134E+04  0.40006878639E+04 0.  0.
        5    1    3    3  502    0 -0.18306257985E+04  0.51123612616E+03  0.91957095444E+03  0.21114416925E+04  0.46999998093E+01 0.  1.
       -5    1    3    3    0  502  0.18306257985E+04 -0.51123612616E+03 -0.34050216658E+03  0.19309368209E+04  0.46999998093E+01 0. -1.
</event>
<event>
 5   0  0.6736335E-09  0.3995017E+04  0.7818609E-02  0.8005553E-01
        2   -1    0    0  501    0  0.00000000000E+00  0.00000000000E+00  0.15299560325E+04  0.15299560325E+04  0.25500000920E-02 0.  1.
       -2   -1    0    0    0  501  0.00000000000E+00  0.00000000000E+00 -0.26079438510E+04  0.26079438510E+04  0.25500000920E-02 0. -1.
    10030    2    1    2    0    0  0.00000000000E+00  0.00000000000E+00 -0.10779878185E+04  0.41378998836E+04  0.39950166094E+04 0.  0.
        1    1    3    3  502    0 -0.49915217125E+03 -0.80467937463E+03 -0.23606981132E+04  0.25435324585E+04  0.50400001928E-02 0. -1.
       -1    1    3    3    0  502  0.49915217125E+03  0.80467937463E+03  0.12827102946E+04  0.15943674250E+04  0.50400001928E-02 0.  1.
</event>
<event>
 5   0  0.6547327E-09  0.3998790E+04  0.7818609E-02  0.8004791E-01
       -2   -1    0    0    0  501  0.00000000000E+00  0.00000000000E+00  0.29223769714E+04  0.29223769714E+04  0.25500000920E-02 0. -1.
        2   -1    0    0  501    0  0.00000000000E+00  0.00000000000E+00 -0.13679205658E+04  0.13679205658E+04  0.25500000920E-02 0.  1.
    10030    2    1    2    0    0  0.00000000000E+00  0.00000000000E+00  0.15544564055E+04  0.42902975372E+04  0.39987895970E+04 0.  0.
        5    1    3    3  502    0  0.52416437022E+02  0.17171397025E+04  0.18746530112E+04  0.25427666513E+04  0.46999998093E+01 0. -1.
       -5    1    3    3    0  502 -0.52416437022E+02 -0.17171397025E+04 -0.32019660565E+03  0.17475308859E+04  0.46999998093E+01 0.  1.
</event>
<event>
 5   0  0.2078125E-09  0.4001024E+04  0.7818609E-02  0.8004340E-01
        1   -1    0    0  501    0  0.00000000000E+00  0.00000000000E+00  0.22334535744E+04  0.22334535744E+04  0.50400001928E-02 0.  1.
       -1   -1    0    0    0  501  0.00000000000E+00  0.00000000000E+00 -0.17918657773E+04  0.17918657773E+04  0.50400001928E-02 0. -1.
    10030    2    1    2    0    0  0.00000000000E+00  0.00000000000E+00  0.44158779715E+03  0.40253193517E+04  0.40010243814E+04 0.  0.
        2    1    3    3  502    0 -0.65839045747E+03 -0.16136157158E+03  0.21143846536E+04  0.22203914102E+04  0.25500000920E-02 0.  1.
       -2    1    3    3    0  502  0.65839045747E+03  0.16136157158E+03 -0.16727968564E+04  0.18049279415E+04  0.25500000920E-02 0. -1.
</event>
<event>
 5   0  0.6547327E-09  0.4000885E+04  0.7818609E-02  0.8004368E-01
       -2   -1    0    0    0  501  0.00000000000E+00  0.00000000000E+00  0.16076111836E+04  0.16076111836E+04  0.25500000920E-02 0. -1.
        2   -1    0    0  501    0  0.00000000000E+00  0.00000000000E+00 -0.24892644438E+04  0.24892644438E+04  0.25500000920E-02 0.  1.
    10030    2    1    2    0    0  0.00000000000E+00  0.00000000000E+00 -0.88165326024E+03  0.40968756274E+04  0.40008845815E+04 0.  0.
        5    1    3    3  502    0 -0.47823680845E+03  0.88659979512E+01 -0.24298402402E+04  0.24764762736E+04  0.46999998093E+01 0.  1.
       -5    1    3    3    0  502  0.47823680845E+03 -0.88659979512E+01  0.15481869799E+04  0.16203993538E+04  0.46999998093E+01 0. -1.
</event>
<event>
 5   0  0.2078125E-09  0.3999667E+04  0.7818609E-02  0.8004614E-01
        1   -1    0    0  501    0  0.00000000000E+00  0.00000000000E+00  0.17784753089E+04  0.17784753089E+04  0.50400001928E-02 0. -1.
       -1   -1    0    0    0  501  0.00000000000E+00  0.00000000000E+00 -0.22487425197E+04  0.22487425197E+04  0.50400001928E-02 0.  1.
    10030    2    1    2    0    0  0.00000000000E+00  0.00000000000E+00 -0.47026721081E+03  0.40272178286E+04  0.39996665098E+04 0.  0.
        3    1    3    3  502    0  0.88642038829E+03 -0.29607982904E+03 -0.20153421078E+04  0.22214878329E+04  0.10100000352E+00 0.  1.
       -3    1    3    3    0  502 -0.88642038829E+03  0.29607982904E+03  0.15450748970E+04  0.18057299957E+04  0.10100000352E+00 0. -1.
</event>
<event>
 5   0  0.2078125E-09  0.4001459E+04  0.7818609E-02  0.8004252E-01
       -1   -1    0    0    0  501  0.00000000000E+00  0.00000000000E+00  0.22944783085E+04  0.22944783085E+04  0.50400001928E-02 0.  1.
        1   -1    0    0  501    0  0.00000000000E+00  0.00000000000E+00 -0.17445873453E+04  0.17445873453E+04  0.50400001928E-02 0. -1.
    10030    2    1    2    0    0  0.00000000000E+00  0.00000000000E+00  0.54989096317E+03  0.40390656538E+04  0.40014586446E+04 0.  0.
        4    1    3    3  502    0 -0.60038777680E+03  0.95871163765E+03  0.19407043516E+04  0.22463144214E+04  0.12699999809E+01 0.  1.
       -4    1    3    3    0  502  0.60038777680E+03 -0.95871163765E+03 -0.13908133885E+04  0.17927512324E+04  0.12699999809E+01 0. -1.
</event>
<event>
 5   0  0.2078125E-09  0.4000039E+04  0.7818609E-02  0.8004539E-01
        1   -1    0    0  501    0  0.00000000000E+00  0.00000000000E+00  0.28588764377E+04  0.28588764377E+04  0.50400001928E-02 0. -1.
       -1   -1    0    0    0  501  0.00000000000E+00  0.00000000000E+00 -0.13991782624E+04  0.13991782624E+04  0.50400001928E-02 0.  1.
    10030    2    1    2    0    0  0.00000000000E+00  0.00000000000E+00  0.14596981753E+04  0.42580547001E+04  0.40000388831E+04 0.  0.
        5    1    3    3  502    0 -0.10738505093E+04 -0.12507429393E+04  0.19353928127E+04  0.25422982213E+04  0.46999998093E+01 0. -1.
       -5    1    3    3    0  502  0.10738505093E+04  0.12507429393E+04 -0.47569463742E+03  0.17157564788E+04  0.46999998093E+01 0.  1.
</event>
<event>
 5   0  0.2078125E-09  0.4001486E+04  0.7818609E-02  0.8004247E-01
       -1   -1    0    0    0  501  0.00000000000E+00  0.00000000000E+00  0.15041300941E+04  0.15041300941E+04  0.50400001928E-02 0.  1.
        1   -1    0    0  501    0  0.00000000000E+00  0.00000000000E+00 -0.26613211218E+04  0.26613211218E+04  0.50400001928E-02 0. -1.
    10030    2    1    2    0    0  0.00000000000E+00  0.00000000000E+00 -0.11571910276E+04  0.41654512159E+04  0.40014863186E+04 0.  0.
        3    1    3    3  502    0 -0.18245685731E+04  0.81377680743E+03 -0.46604482960E+03  0.20514582530E+04  0.10100000352E+00 0.  1.
       -3    1    3    3    0  502  0.18245685731E+04 -0.81377680743E+03 -0.69114619804E+03  0.21139929630E+04  0.10100000352E+00 0. -1.
</event>
<event>
 5   0  0.6599276E-09  0.4000137E+04  0.7818609E-02  0.8004519E-01
        2   -1    0    0  501    0  0.00000000000E+00  0.00000000000E+00  0.22393988289E+04  0.22393988289E+04  0.25500000920E-02 0. -1.
       -2   -1    0    0    0  501  0.00000000000E+00  0.00000000000E+00 -0.17863157126E+04  0.17863157126E+04  0.25500000920E-02 0.  1.
    10030    2    1    2    0    0  0.00000000000E+00  0.00000000000E+00  0.45308311635E+03  0.40257145415E+04  0.40001366551E+04 0.  0.
        2    1    3    3  502    0 -0.63119805803E+03  0.18667452406E+04  0.57096450984E+03  0.20516211281E+04  0.25500000920E-02 0. -1.
       -2    1    3    3    0  502  0.63119805803E+03 -0.18667452406E+04 -0.11788139349E+03  0.19740934134E+04  0.25500000920E-02 0.  1.
</event>
<event>
 5   0  0.2078125E-09  0.4000002E+04  0.7818609E-02  0.8004546E-01
        1   -1    0    0  501    0  0.00000000000E+00  0.00000000000E+00  0.13404523166E+04  0.13404523166E+04  0.50400001928E-02 0. -1.
       -1   -1    0    0    0  501  0.00000000000E+00  0.00000000000E+00 -0.29840709443E+04  0.29840709443E+04  0.50400001928E-02 0.  1.
    10030    2    1    2    0    0  0.00000000000E+00  0.00000000000E+00 -0.16436186278E+04  0.43245232609E+04  0.40000024051E+04 0.  0.
        5    1    3    3  502    0 -0.13259733507E+03  0.21274868214E+02 -0.29791849992E+04  0.29822139465E+04  0.46999998093E+01 0.  1.
       -5    1    3    3    0  502  0.13259733507E+03 -0.21274868214E+02  0.13355663714E+04  0.13423093145E+04  0.46999998093E+01 0. -1.
</event>
<event>
 5   0  0.2078125E-09  0.4002640E+04  0.7818609E-02  0.8004014E-01
       -1   -1    0    0    0  501  0.00000000000E+00  0.00000000000E+00  0.20792320624E+04  0.20792320624E+04  0.50400001928E-02 0. -1.
        1   -1    0    0  501    0  0.00000000000E+00  0.00000000000E+00 -0.19263274082E+04  0.19263274082E+04  0.50400001928E-02 0.  1.
    10030    2    1    2    0    0  0.00000000000E+00  0.00000000000E+00  0.15290465423E+03  0.40055594706E+04  0.40026399837E+04 0.  0.
        2    1    3    3  502    0  0.36665496011E+03  0.17421955533E+04  0.99123093779E+03  0.20376996780E+04  0.25500000920E-02 0. -1.
       -2    1    3    3    0  502 -0.36665496011E+03 -0.17421955533E+04 -0.83832628356E+03  0.19678597926E+04  0.25500000920E-02 0.  1.
</event>
<event>
 5   0  0.2078125E-09  0.4004218E+04  0.7818609E-02  0.8003696E-01
        1   -1    0    0  501    0  0.00000000000E+00  0.00000000000E+00  0.19054340152E+04  0.19054340153E+04  0.50400001928E-02 0. -1.
       -1   -1    0    0    0  501  0.00000000000E+00  0.00000000000E+00 -0.21036887498E+04  0.21036887498E+04  0.50400001928E-02 0.  1.
    10030    2    1    2    0    0  0.00000000000E+00  0.00000000000E+00 -0.19825473454E+03  0.40091227650E+04  0.40042178269E+04 0.  0.
        3    1    3    3  502    0  0.13087578710E+04  0.83790494228E+03  0.11647612900E+04  0.19420609492E+04  0.10100000352E+00 0. -1.
       -3    1    3    3    0  502 -0.13087578710E+04 -0.83790494228E+03 -0.13630160245E+04  0.20670618159E+04  0.10100000352E+00 0.  1.
</event>
<event>
 5   0  0.6736335E-09  0.4000663E+04  0.7818609E-02  0.8004413E-01
       -2   -1    0    0    0  501  0.00000000000E+00  0.00000000000E+00  0.16083824027E+04  0.16083824027E+04  0.25500000920E-02 0. -1.
        2   -1    0    0  501    0  0.00000000000E+00  0.00000000000E+00 -0.24877952021E+04  0.24877952021E+04  0.25500000920E-02 0.  1.
    10030    2    1    2    0    0  0.00000000000E+00  0.00000000000E+00 -0.87941279944E+03  0.40961776048E+04  0.40006629574E+04 0.  0.
        1    1    3    3  502    0  0.65936486020E+03 -0.11336660949E+04 -0.19861860840E+04  0.23801041981E+04  0.50400001928E-02 0.  1.
       -1    1    3    3    0  502 -0.65936486020E+03  0.11336660949E+04  0.11067732846E+04  0.17160734067E+04  0.50400001928E-02 0. -1.
</event>
<event>
 5   0  0.6599276E-09  0.3999825E+04  0.7818609E-02  0.8004582E-01
        2   -1    0    0  501    0  0.00000000000E+00  0.00000000000E+00  0.25641941089E+04  0.25641941089E+04  0.25500000920E-02 0. -1.
       -2   -1    0    0    0  501  0.00000000000E+00  0.00000000000E+00 -0.15598081484E+04  0.15598081484E+04  0.25500000920E-02 0.  1.
    10030    2    1    2    0    0  0.00000000000E+00  0.00000000000E+00  0.10043859605E+04  0.41240022573E+04  0.39998254288E+04 0.  0.
        2    1    3    3  502    0  0.78108843020E+03 -0.34085891502E+03  0.23676068541E+04  0.25163159880E+04  0.25500000920E-02 0. -1.
       -2    1    3    3    0  502 -0.78108843020E+03  0.34085891502E+03 -0.13632208936E+04  0.16076862693E+04  0.25500000920E-02 0.  1.
</event>
<event>
 5   0  0.2078125E-09  0.4001698E+04  0.7818609E-02  0.8004204E-01
        1   -1    0    0  501    0  0.00000000000E+00  0.00000000000E+00  0.18306046440E+04  0.18306046440E+04  0.50400001928E-02 0.  1.
       -1   -1    0    0    0  501  0.00000000000E+00  0.00000000000E+00 -0.21869260320E+04  0.21869260320E+04  0.50400001928E-02 0. -1.
    10030    2    1    2    0    0  0.00000000000E+00  0.00000000000E+00 -0.35632138793E+03  0.40175306760E+04  0.40016981147E+04 0.  0.
        5    1    3    3  502    0  0.19734264945E+04 -0.31027962756E+03 -0.29125309823E+03  0.20187956889E+04  0.46999998093E+01 0. -1.
       -5    1    3    3    0  502 -0.19734264945E+04  0.31027962756E+03 -0.65068289703E+02  0.19987349871E+04  0.46999998093E+01 0.  1.
</event>
<event>
 5   0  0.6736335E-09  0.4001717E+04  0.7818609E-02  0.8004200E-01
        2   -1    0    0  501    0  0.00000000000E+00  0.00000000000E+00  0.23246670205E+04  0.23246670206E+04  0.25500000920E-02 0. -1.
       -2   -1    0    0    0  501  0.00000000000E+00  0.00000000000E+00 -0.17221543448E+04  0.17221543448E+04  0.25500000920E-02 0.  1.
    10030    2    1    2    0    0  0.00000000000E+00  0.00000000000E+00  0.60251267573E+03  0.40468213654E+04  0.40017173362E+04 0.  0.
        1    1    3    3  502    0  0.13141073353E+04  0.14135226329E+04 -0.23243342182E+03  0.19439520617E+04  0.50400001928E-02 0. -1.
       -1    1    3    3    0  502 -0.13141073353E+04 -0.14135226329E+04  0.83494609755E+03  0.21028693037E+04  0.50400001928E-02 0.  1.
</event>
<event>
 5   0  0.2078125E-09  0.4027973E+04  0.7818609E-02  0.7998927E-01
       -1   -1    0    0    0  501  0.00000000000E+00  0.00000000000E+00  0.19964451323E+04  0.19964451324E+04  0.50400001928E-02 0. -1.
        1   -1    0    0  501    0  0.00000000000E+00  0.00000000000E+00 -0.20316818327E+04  0.20316818327E+04  0.50400001928E-02 0.  1.
    10030    2    1    2    0    0  0.00000000000E+00  0.00000000000E+00 -0.35236700340E+02  0.40281269650E+04  0.40279728427E+04 0.  0.
        1    1    3    3  502    0  0.40024286260E+03 -0.83198564679E+03 -0.18075881864E+04  0.20297215368E+04  0.50400001928E-02 0.  1.
       -1    1    3    3    0  502 -0.40024286260E+03  0.83198564679E+03  0.17723514860E+04  0.19984054282E+04  0.50400001928E-02 0. -1.
</event>
<event>
 5   0  0.2078125E-09  0.3998536E+04  0.7818609E-02  0.8004842E-01
       -1   -1    0    0    0  501  0.00000000000E+00  0.00000000000E+00  0.16114105581E+04  0.16114105581E+04  0.50400001928E-02 0. -1.
        1   -1    0    0  501    0  0.00000000000E+00  0.00000000000E+00 -0.24804801394E+04  0.24804801394E+04  0.50400001928E-02 0.  1.
    10030    2    1    2    0    0  0.00000000000E+00  0.00000000000E+00 -0.86906958135E+03  0.40918906975E+04  0.39985356748E+04 0.  0.
        3    1    3    3  502    0  0.72935482770E+01 -0.18497370231E+04  0.34178838815E+03  0.18810634128E+04  0.10100000352E+00 0.  1.
       -3    1    3    3    0  502 -0.72935482770E+01  0.18497370231E+04 -0.12108579695E+04  0.22108272847E+04  0.10100000352E+00 0. -1.
</event>
<event>
 5   0  0.6538370E-09  0.4005073E+04  0.7818609E-02  0.8003524E-01
       -2   -1    0    0    0  501  0.00000000000E+00  0.00000000000E+00  0.14442919958E+04  0.14442919958E+04  0.25500000920E-02 0. -1.
        2   -1    0    0  501    0  0.00000000000E+00  0.00000000000E+00 -0.27765523870E+04  0.27765523870E+04  0.25500000920E-02 0.  1.
    10030    2    1    2    0    0  0.00000000000E+00  0.00000000000E+00 -0.13322603913E+04  0.42208443828E+04  0.40050729773E+04 0.  0.
        4    1    3    3  502    0  0.13433334221E+04 -0.85007148702E+03  0.61725557948E+03  0.17053364124E+04  0.12699999809E+01 0. -1.
       -4    1    3    3    0  502 -0.13433334221E+04  0.85007148702E+03 -0.19495159708E+04  0.25155079704E+04  0.12699999809E+01 0.  1.
</event>
<event>
 5   0  0.6547327E-09  0.4000605E+04  0.7818609E-02  0.8004424E-01
       -2   -1    0    0    0  501  0.00000000000E+00  0.00000000000E+00  0.21450748558E+04  0.21450748558E+04  0.25500000920E-02 0. -1.
        2   -1    0    0  501    0  0.00000000000E+00  0.00000000000E+00 -0.18653011032E+04  0.18653011032E+04  0.25500000920E-02 0.  1.
    10030    2    1    2    0    0  0.00000000000E+00  0.00000000000E+00  0.27977375267E+03  0.40103759590E+04  0.40006052017E+04 0.  0.
        5    1    3    3  502    0 -0.20606555030E+03 -0.58080518855E+03  0.20475297981E+04  0.21382698712E+04  0.46999998093E+01 0. -1.
       -5    1    3    3    0  502  0.20606555030E+03  0.58080518855E+03 -0.17677560454E+04  0.18721060878E+04  0.46999998093E+01 0.  1.
</event>
<event>
 5   0  0.6736335E-09  0.3995198E+04  0.7818609E-02  0.8005516E-01
        2   -1    0    0  501    0  0.00000000000E+00  0.00000000000E+00  0.20051094323E+04  0.20051094323E+04  0.25500000920E-02 0. -1.
       -2   -1    0    0    0  501  0.00000000000E+00  0.00000000000E+00 -0.19901167269E+04  0.19901167269E+04  0.25500000920E-02 0.  1.
    10030    2    1    2    0    0  0.00000000000E+00  0.00000000000E+00  0.14992705428E+02  0.39952261592E+04  0.39951980278E+04 0.  0.
        1    1    3    3  502    0 -0.52708161867E+03 -0.18384219344E+04  0.58438131977E+03  0.19997779298E+04  0.50400001928E-02 0. -1.
       -1    1    3    3    0  502  0.52708161867E+03  0.18384219344E+04 -0.56938861435E+03  0.19954482293E+04  0.50400001928E-02 0.  1.
</event>
<event>
 5   0  0.6547327E-09  0.3998853E+04  0.7818609E-02  0.8004778E-01
       -2   -1    0    0    0  501  0.00000000000E+00  0.00000000000E+00  0.21443809903E+04  0.21443809903E+04  0.25500000920E-02 0.  1.
        2   -1    0    0  501    0  0.00000000000E+00  0.00000000000E+00 -0.18642707223E+04  0.18642707223E+04  0.25500000920E-02 0. -1.
    10030    2    1    2    0    0  0.00000000000E+00  0.00000000000E+00  0.28011026806E+03  0.40086517126E+04  0.39988531844E+04 0.  0.
        5    1    3    3  502    0 -0.97179027197E+03 -0.14034976665E+04  0.11835200200E+04  0.20772394566E+04  0.46999998093E+01 0.  1.
       -5    1    3    3    0  502  0.97179027197E+03  0.14034976665E+04 -0.90340975191E+03  0.19314122559E+04  0.46999998093E+01 0. -1.
</event>
<event>
 5   0  0.6538370E-09  0.3999838E+04  0.7818609E-02  0.8004579E-01
       -2   -1    0    0    0  501  0.00000000000E+00  0.00000000000E+00  0.28843721521E+04  0.28843721521E+04  0.25500000920E-02 0. -1.
        2   -1    0    0  501    0  0.00000000000E+00  0.00000000000E+00 -0.13866709815E+04  0.13866709815E+04  0.25500000920E-02 0.  1.
    10030    2    1    2    0    0  0.00000000000E+00  0.00000000000E+00  0.14977011706E+04  0.42710431335E+04  0.39998375782E+04 0.  0.
        4    1    3    3  502    0 -0.35970598468E+03 -0.16475120505E+04 -0.39921973333E+03  0.17329346093E+04  0.12699999809E+01 0.  1.
       -4    1    3    3    0  502  0.35970598468E+03  0.16475120505E+04  0.18969209039E+04  0.25381085242E+04  0.12699999809E+01 0. -1.
</event>
<event>
 5   0  0.2078125E-09  0.4000049E+04  0.7818609E-02  0.8004537E-01
       -1   -1    0    0    0  501  0.00000000000E+00  0.00000000000E+00  0.24846945990E+04  0.24846945990E+04  0.50400001928E-02 0.  1.
        1   -1    0    0  501    0  0.00000000000E+00  0.00000000000E+00 -0.16098950617E+04  0.16098950617E+04  0.50400001928E-02 0. -1.
    10030    2    1    2    0    0  0.00000000000E+00  0.00000000000E+00  0.87479953733E+03  0.40945896607E+04  0.40000487821E+04 0.  0.
        3    1    3    3  502    0 -0.83520440716E+02 -0.18721063588E+04 -0.27792967484E+03  0.18944663620E+04  0.10100000352E+00 0. -1.
       -3    1    3    3    0  502  0.83520440716E+02  0.18721063588E+04  0.11527292122E+04  0.22001232987E+04  0.10100000352E+00 0.  1.
</event>
<event>
 5   0  0.2078125E-09  0.4002146E+04  0.7818609E-02  0.8004114E-01
       -1   -1    0    0    0  501  0.00000000000E+00  0.00000000000E+00  0.32021526878E+04  0.32021526878E+04  0.50400001928E-02 0.  1.
        1   -1    0    0  501    0  0.00000000000E+00  0.00000000000E+00 -0.12505002954E+04  0.12505002954E+04  0.50400001928E-02 0. -1.
    10030    2    1    2    0    0  0.00000000000E+00  0.00000000000E+00  0.19516523924E+04  0.44526529832E+04  0.40021458654E+04 0.  0.
        3    1    3    3  502    0 -0.14791953486E+04  0.76075480505E+03  0.22134912355E+04  0.27688102522E+04  0.10100000352E+00 0.  1.
       -3    1    3    3    0  502  0.14791953486E+04 -0.76075480505E+03 -0.26183884313E+03  0.16838427310E+04  0.10100000352E+00 0. -1.
</event>
<event>
 5   0  0.6645526E-09  0.4008352E+04  0.7818609E-02  0.8002864E-01
       -2   -1    0    0    0  501  0.00000000000E+00  0.00000000000E+00  0.14987892420E+04  0.14987892420E+04  0.25500000920E-02 0. -1.
        2   -1    0    0  501    0  0.00000000000E+00  0.00000000000E+00 -0.26799778741E+04  0.26799778741E+04  0.25500000920E-02 0.  1.
    10030    2    1    2    0    0  0.00000000000E+00  0.00000000000E+00 -0.11811886320E+04  0.41787671161E+04  0.40083522832E+04 0.  0.
        3    1    3    3  502    0 -0.14461878634E+04  0.17619152222E+03  0.84422562226E+03  0.16838110643E+04  0.10100000352E+00 0. -1.
       -3    1    3    3    0  502  0.14461878634E+04 -0.17619152222E+03 -0.20254142543E+04  0.24949560518E+04  0.10100000352E+00 0.  1.
</event>
<event>
 5   0  0.6538370E-09  0.3998070E+04  0.7818609E-02  0.8004936E-01
       -2   -1    0    0    0  501  0.00000000000E+00  0.00000000000E+00  0.19816606135E+04  0.19816606135E+04  0.25500000920E-02 0. -1.
        2   -1    0    0  501    0  0.00000000000E+00  0.00000000000E+00 -0.20165614109E+04  0.20165614109E+04  0.25500000920E-02 0.  1.
    10030    2    1    2    0    0  0.00000000000E+00  0.00000000000E+00 -0.34900797336E+02  0.39982220244E+04  0.39980696956E+04 0.  0.
        4    1    3    3  502    0  0.17093084029E+04 -0.91208570829E+03  0.47501445667E+03  0.19948122474E+04  0.12699999809E+01 0. -1.
       -4    1    3    3    0  502 -0.17093084029E+04  0.91208570829E+03 -0.50991525400E+03  0.20034097770E+04  0.12699999809E+01 0.  1.
</event>
<event>
 5   0  0.2078125E-09  0.3998428E+04  0.7818609E-02  0.8004864E-01
        1   -1    0    0  501    0  0.00000000000E+00  0.00000000000E+00  0.30084402497E+04  0.30084402497E+04  0.50400001928E-02 0. -1.
       -1   -1    0    0    0  501  0.00000000000E+00  0.00000000000E+00 -0.13285476146E+04  0.13285476146E+04  0.50400001928E-02 0.  1.
    10030    2    1    2    0    0  0.00000000000E+00  0.00000000000E+00  0.16798926351E+04  0.43369878643E+04  0.39984277497E+04 0.  0.
        2    1    3    3  502    0  0.38722106155E+03 -0.21210010626E+03 -0.12750079671E+04  0.13492857080E+04  0.25500000920E-02 0.  1.
       -2    1    3    3    0  502 -0.38722106155E+03  0.21210010626E+03  0.29549006022E+04  0.29877021563E+04  0.25500000920E-02 0. -1.
</event>
<event>
 5   0  0.2078125E-09  0.4004621E+04  0.7818609E-02  0.8003615E-01
        1   -1    0    0  501    0  0.00000000000E+00  0.00000000000E+00  0.32742362049E+04  0.32742362049E+04  0.50400001928E-02 0.  1.
       -1   -1    0    0    0  501  0.00000000000E+00  0.00000000000E+00 -0.12244833135E+04  0.12244833135E+04  0.50400001928E-02 0. -1.
    10030    2    1    2    0    0  0.00000000000E+00  0.00000000000E+00  0.20497528914E+04  0.44987195184E+04  0.40046211293E+04 0.  0.
        1    1    3    3  502    0 -0.13550989142E+04  0.12252639950E+04  0.10419465237E+03  0.18298692441E+04  0.50400001928E-02 0. -1.
       -1    1    3    3    0  502  0.13550989142E+04 -0.12252639950E+04  0.19455582391E+04  0.26688502743E+04  0.50400001928E-02 0.  1.
</event>
<event>
 5   0  0.2078125E-09  0.4000954E+04  0.7818609E-02  0.8004354E-01
        1   -1    0    0  501    0  0.00000000000E+00  0.00000000000E+00  0.24645045376E+04  0.24645045376E+04  0.50400001928E-02 0. -1.
       -1   -1    0    0    0  501  0.00000000000E+00  0.00000000000E+00 -0.16238186246E+04  0.16238186246E+04  0.50400001928E-02 0.  1.
    10030    2    1    2    0    0  0.00000000000E+00  0.00000000000E+00  0.84068591307E+03  0.40883231622E+04  0.40009540705E+04 0.  0.
        2    1    3    3  502    0 -0.88942626274E+03 -0.14072604366E+04  0.15538211519E+04  0.22772398173E+04  0.25500000920E-02 0. -1.
       -2    1    3    3    0  502  0.88942626274E+03  0.14072604366E+04 -0.71313523883E+03  0.18110833449E+04  0.25500000920E-02 0.  1.
</event>
<event>
 5   0  0.6538370E-09  0.4002130E+04  0.7818609E-02  0.8004117E-01
       -2   -1    0    0    0  501  0.00000000000E+00  0.00000000000E+00  0.16964623258E+04  0.16964623258E+04  0.25500000920E-02 0.  1.
        2   -1    0    0  501    0  0.00000000000E+00  0.00000000000E+00 -0.23603591451E+04  0.23603591451E+04  0.25500000920E-02 0. -1.
    10030    2    1    2    0    0  0.00000000000E+00  0.00000000000E+00 -0.66389681929E+03  0.40568214708E+04  0.40021296155E+04 0.  0.
        4    1    3    3  502    0  0.14154241755E+04  0.30123631448E+03  0.10689983894E+04  0.17991464874E+04  0.12699999809E+01 0.  1.
       -4    1    3    3    0  502 -0.14154241755E+04 -0.30123631448E+03 -0.17328952087E+04  0.22576749834E+04  0.12699999809E+01 0. -1.
</event>
<event>
 5   0  0.6538370E-09  0.3998389E+04  0.7818609E-02  0.8004872E-01
       -2   -1    0    0    0  501  0.00000000000E+00  0.00000000000E+00  0.17673367489E+04  0.17673367489E+04  0.25500000920E-02 0.  1.
        2   -1    0    0  501    0  0.00000000000E+00  0.00000000000E+00 -0.22614703395E+04  0.22614703395E+04  0.25500000920E-02 0. -1.
    10030    2    1    2    0    0  0.00000000000E+00  0.00000000000E+00 -0.49413359068E+03  0.40288070884E+04  0.39983894946E+04 0.  0.
        4    1    3    3  502    0  0.34844943499E+01  0.19325642257E+04 -0.76278210413E+03  0.20776560782E+04  0.12699999809E+01 0. -1.
       -4    1    3    3    0  502 -0.34844943499E+01 -0.19325642257E+04  0.26864851345E+03  0.19511510102E+04  0.12699999809E+01 0.  1.
</event>
<event>
 5   0  0.6547327E-09  0.4002536E+04  0.7818609E-02  0.8004035E-01
        2   -1    0    0  501    0  0.00000000000E+00  0.00000000000E+00  0.13804124333E+04  0.13804124333E+04  0.25500000920E-02 0. -1.
       -2   -1    0    0    0  501  0.00000000000E+00  0.00000000000E+00 -0.29013607444E+04  0.29013607444E+04  0.25500000920E-02 0.  1.
    10030    2    1    2    0    0  0.00000000000E+00  0.00000000000E+00 -0.15209483111E+04  0.42817731777E+04  0.40025364183E+04 0.  0.
        5    1    3    3  502    0 -0.17047643222E+04 -0.40841387575E+03  0.27229460662E+03  0.17740320546E+04  0.46999998093E+01 0. -1.
       -5    1    3    3    0  502  0.17047643222E+04  0.40841387575E+03 -0.17932429178E+04  0.25077411230E+04  0.46999998093E+01 0.  1.
</event>
<event>
 5   0  0.2078125E-09  0.4008300E+04  0.7818609E-02  0.8002874E-01
       -1   -1    0    0    0  501  0.00000000000E+00  0.00000000000E+00  0.13264180483E+04  0.13264180483E+04  0.50400001928E-02 0.  1.
        1   -1    0    0  501    0  0.00000000000E+00  0.00000000000E+00 -0.30281682746E+04  0.30281682746E+04  0.50400001928E-02 0. -1.
    10030    2    1    2    0    0  0.00000000000E+00  0.00000000000E+00 -0.17017502263E+04  0.43545863229E+04  0.40082999153E+04 0.  0.
        5    1    3    3  502    0 -0.19771013532E+04  0.52694117609E+02 -0.12027195578E+04  0.23147921841E+04  0.46999998093E+01 0.  1.
       -5    1    3    3    0  502  0.19771013532E+04 -0.52694117609E+02 -0.49903066844E+03  0.20397941388E+04  0.46999998093E+01 0. -1.
</event>
<event>
 5   0  0.2078125E-09  0.3997611E+04  0.7818609E-02  0.8005029E-01
       -1   -1    0    0    0  501  0.00000000000E+00  0.00000000000E+00  0.32519208412E+04  0.32519208412E+04  0.50400001928E-02 0.  1.
        1   -1    0    0  501    0  0.00000000000E+00  0.00000000000E+00 -0.12285736285E+04  0.12285736285E+04  0.50400001928E-02 0. -1.
    10030    2    1    2    0    0  0.00000000000E+00  0.00000000000E+00  0.20233472127E+04  0.44804944698E+04  0.39976113806E+04 0.  0.
        2    1    3    3  502    0 -0.66518728069E+03 -0.38264014951E+03 -0.10568912991E+04  0.13061036791E+04  0.25500000920E-02 0. -1.
       -2    1    3    3    0  502  0.66518728069E+03  0.38264014951E+03  0.30802385118E+04  0.31743907907E+04  0.25500000920E-02 0.  1.
</event>
<event>
 5   0  0.6736335E-09  0.4000423E+04  0.7818609E-02  0.8004461E-01
        2   -1    0    0  501    0  0.00000000000E+00  0.00000000000E+00  0.22041426265E+04  0.22041426265E+04  0.25500000920E-02 0.  1.
       -2   -1    0    0    0  501  0.00000000000E+00  0.00000000000E+00 -0.18151483988E+04  0.18151483988E+04  0.25500000920E-02 0. -1.
    10030    2    1    2    0    0  0.00000000000E+00  0.00000000000E+00  0.38899422769E+03  0.40192910253E+04  0.40004229572E+04 0.  0.
        1    1    3    3  502    0  0.19753080852E+04 -0.28962170392E+03  0.70940688431E+02  0.19976874992E+04  0.50400001928E-02 0.  1.
       -1    1    3    3    0  502 -0.19753080852E+04  0.28962170392E+03  0.31805353926E+03  0.20216035261E+04  0.50400001928E-02 0. -1.
</event>
<event>
 5   0  0.2078125E-09  0.4000421E+04  0.7818609E-02  0.8004462E-01
        1   -1    0    0  501    0  0.00000000000E+00  0.00000000000E+00  0.13344629475E+04  0.13344629475E+04  0.50400001928E-02 0. -1.
       -1   -1    0    0    0  501  0.00000000000E+00  0.00000000000E+00 -0.29980917085E+04  0.29980917085E+04  0.50400001928E-02 0.  1.
    10030    2    1    2    0    0  0.00000000000E+00  0.00000000000E+00 -0.16636287610E+04  0.43325546560E+04  0.40004211270E+04 0.  0.
        4    1    3    3  502    0  0.10872362140E+04 -0.11381256738E+04  0.50493290834E+03  0.16529886537E+04  0.12699999809E+01 0. -1.
       -4    1    3    3    0  502 -0.10872362140E+04  0.11381256738E+04 -0.21685616693E+04  0.26795660024E+04  0.12699999809E+01 0.  1.
</event>
<event>
 5   0  0.6538370E-09  0.3999630E+04  0.7818609E-02  0.8004621E-01
        2   -1    0    0  501    0  0.00000000000E+00  0.00000000000E+00  0.20717812352E+04  0.20717812352E+04  0.25500000920E-02 0.  1.
       -2   -1    0    0    0  501  0.00000000000E+00  0.00000000000E+00 -0.19303481927E+04  0.19303481927E+04  0.25500000920E-02 0. -1.
    10030    2    1    2    0    0  0.00000000000E+00  0.00000000000E+00  0.14143304254E+03  0.40021294279E+04  0.39996295643E+04 0.  0.
        4    1    3    3  502    0  0.93212182782E+03 -0.16754775523E+04  0.63956231609E+03  0.20211674100E+04  0.12699999809E+01 0.  1.
       -4    1    3    3    0  502 -0.93212182782E+03  0.16754775523E+04 -0.49812927355E+03  0.19809620179E+04  0.12699999809E+01 0. -1.
</event>
<event>
 5   0  0.6599276E-09  0.4001103E+04  0.7818609E-02  0.8004324E-01
       -2   -1    0    0    0  501  0.00000000000E+00  0.00000000000E+00  0.27211082099E+04  0.27211082099E+04  0.25500000920E-02 0.  1.
        2   -1    0    0  501    0  0.00000000000E+00  0.00000000000E+00 -0.14707998864E+04  0.14707998864E+04  0.25500000920E-02 0. -1.
    10030    2    1    2    0    0  0.00000000000E+00  0.00000000000E+00  0.12503083235E+04  0.41919080964E+04  0.40011026711E+04 0.  0.
        2    1    3    3  502    0 -0.10726357313E+04  0.61427812061E+03  0.22731649272E+04  0.25875014605E+04  0.25500000920E-02 0.  1.
       -2    1    3    3    0  502  0.10726357313E+04 -0.61427812061E+03 -0.10228566037E+04  0.16044066359E+04  0.25500000920E-02 0. -1.
</event>
<event>
 5   0  0.2078125E-09  0.4010033E+04  0.7818609E-02  0.8002526E-01
       -1   -1    0    0    0  501  0.00000000000E+00  0.00000000000E+00  0.20779494783E+04  0.20779494783E+04  0.50400001928E-02 0. -1.
        1   -1    0    0  501    0  0.00000000000E+00  0.00000000000E+00 -0.19346436372E+04  0.19346436373E+04  0.50400001928E-02 0.  1.
    10030    2    1    2    0    0  0.00000000000E+00  0.00000000000E+00  0.14330584101E+03  0.40125931155E+04  0.40100332850E+04 0.  0.
        1    1    3    3  502    0 -0.13381685694E+04  0.12457080938E+04  0.89534785700E+03  0.20357140173E+04  0.50400001928E-02 0.  1.
       -1    1    3    3    0  502  0.13381685694E+04 -0.12457080938E+04 -0.75204201599E+03  0.19768790982E+04  0.50400001928E-02 0. -1.
</event>
<event>
 5   0  0.6538370E-09  0.3998810E+04  0.7818609E-02  0.8004787E-01
        2   -1    0    0  501    0  0.00000000000E+00  0.00000000000E+00  0.19302026076E+04  0.19302026076E+04  0.25500000920E-02 0. -1.
       -2   -1    0    0    0  501  0.00000000000E+00  0.00000000000E+00 -0.20710887195E+04  0.20710887195E+04  0.25500000920E-02 0.  1.
    10030    2    1    2    0    0  0.00000000000E+00  0.00000000000E+00 -0.14088611191E+03  0.40012913271E+04  0.39988102465E+04 0.  0.
        4    1    3    3  502    0  0.44493871060E+03 -0.78549845104E+03 -0.18555457296E+04  0.20634994161E+04  0.12699999809E+01 0.  1.
       -4    1    3    3    0  502 -0.44493871060E+03  0.78549845104E+03  0.17146596177E+04  0.19377919110E+04  0.12699999809E+01 0. -1.
</event>
<event>
 5   0  0.2078125E-09  0.4012519E+04  0.7818609E-02  0.8002026E-01
        1   -1    0    0  501    0  0.00000000000E+00  0.00000000000E+00  0.22173554612E+04  0.22173554613E+04  0.50400001928E-02 0.  1.
       -1   -1    0    0    0  501  0.00000000000E+00  0.00000000000E+00 -0.18152600037E+04  0.18152600038E+04  0.50400001928E-02 0. -1.
    10030    2    1    2    0    0  0.00000000000E+00  0.00000000000E+00  0.40209545750E+03  0.40326154650E+04  0.40125187516E+04 0.  0.
        5    1    3    3  502    0 -0.12266039829E+03  0.14657898906E+04 -0.11701422868E+04  0.18795852303E+04  0.46999998093E+01 0. -1.
       -5    1    3    3    0  502  0.12266039829E+03 -0.14657898906E+04  0.15722377443E+04  0.21530302347E+04  0.46999998093E+01 0.  1.
</event>
<event>
 5   0  0.6547327E-09  0.3996802E+04  0.7818609E-02  0.8005192E-01
        2   -1    0    0  501    0  0.00000000000E+00  0.00000000000E+00  0.18488588829E+04  0.18488588829E+04  0.25500000920E-02 0. -1.
       -2   -1    0    0    0  501  0.00000000000E+00  0.00000000000E+00 -0.21600385724E+04  0.21600385724E+04  0.25500000920E-02 0.  1.
    10030    2    1    2    0    0  0.00000000000E+00  0.00000000000E+00 -0.31117968950E+03  0.40088974554E+04  0.39968019727E+04 0.  0.
        5    1    3    3  502    0 -0.41100723545E+03  0.29481074648E+03  0.17835855772E+04  0.18539255446E+04  0.46999998093E+01 0. -1.
       -5    1    3    3    0  502  0.41100723545E+03 -0.29481074648E+03 -0.20947652667E+04  0.21549719108E+04  0.46999998093E+01 0.  1.
</event>
<event>
 5   0  0.6547327E-09  0.4001023E+04  0.7818609E-02  0.8004340E-01
        2   -1    0    0  501    0  0.00000000000E+00  0.00000000000E+00  0.29665495055E+04  0.29665495055E+04  0.25500000920E-02 0. -1.
       -2   -1    0    0    0  501  0.00000000000E+00  0.00000000000E+00 -0.13490574119E+04  0.13490574119E+04  0.25500000920E-02 0.  1.
    10030    2    1    2    0    0  0.00000000000E+00  0.00000000000E+00  0.16174920936E+04  0.43156069174E+04  0.40010226683E+04 0.  0.
        5    1    3    3  502    0 -0.19340485191E+04  0.21908852185E+03  0.13071133256E+04  0.23445918175E+04  0.46999998093E+01 0. -1.
       -5    1    3    3    0  502  0.19340485191E+04 -0.21908852185E+03  0.31037876795E+03  0.19710150999E+04  0.46999998093E+01 0.  1.
</event>
<event>
 5   0  0.6736335E-09  0.4001880E+04  0.7818609E-02  0.8004168E-01
        2   -1    0    0  501    0  0.00000000000E+00  0.00000000000E+00  0.17296116734E+04  0.17296116734E+04  0.25500000920E-02 0. -1.
       -2   -1    0    0    0  501  0.00000000000E+00  0.00000000000E+00 -0.23148316728E+04  0.23148316728E+04  0.25500000920E-02 0.  1.
    10030    2    1    2    0    0  0.00000000000E+00  0.00000000000E+00 -0.58521999942E+03  0.40444433462E+04  0.40018795000E+04 0.  0.
        1    1    3    3  502    0 -0.17824773630E+04 -0.23246012354E+03  0.59565601051E+03  0.18936919869E+04  0.50400001928E-02 0. -1.
       -1    1    3    3    0  502  0.17824773630E+04  0.23246012354E+03 -0.11808760099E+04  0.21507513593E+04  0.50400001928E-02 0.  1.
</event>
<event>
 5   0  0.2078125E-09  0.4000716E+04  0.7818609E-02  0.8004402E-01
       -1   -1    0    0    0  501  0.00000000000E+00  0.00000000000E+00  0.24253311753E+04  0.24253311753E+04  0.50400001928E-02 0.  1.
        1   -1    0    0  501    0  0.00000000000E+00  0.00000000000E+00 -0.16498501010E+04  0.16498501010E+04  0.50400001928E-02 0. -1.
    10030    2    1    2    0    0  0.00000000000E+00  0.00000000000E+00  0.77548107430E+03  0.40751812763E+04  0.40007163781E+04 0.  0.
        4    1    3    3  502    0 -0.14331234078E+04 -0.11280009821E+04 -0.44926078102E+03  0.18783146115E+04  0.12699999809E+01 0. -1.
       -4    1    3    3    0  502  0.14331234078E+04  0.11280009821E+04  0.12247418553E+04  0.21968666648E+04  0.12699999809E+01 0.  1.
</event>
<event>
 5   0  0.2078125E-09  0.3999386E+04  0.7818609E-02  0.8004670E-01
       -1   -1    0    0    0  501  0.00000000000E+00  0.00000000000E+00  0.20924413892E+04  0.20924413893E+04  0.50400001928E-02 0. -1.
        1   -1    0    0  501    0  0.00000000000E+00  0.00000000000E+00 -0.19110554205E+04  0.19110554205E+04  0.50400001928E-02 0.  1.
    10030    2    1    2    0    0  0.00000000000E+00  0.00000000000E+00  0.18138596875E+03  0.40034968098E+04  0.39993856823E+04 0.  0.
        3    1    3    3  502    0  0.16170813134E+04 -0.52762510858E+03 -0.96178267844E+03  0.19540640113E+04  0.10100000352E+00 0.  1.
       -3    1    3    3    0  502 -0.16170813134E+04  0.52762510858E+03  0.11431686472E+04  0.20494327985E+04  0.10100000352E+00 0. -1.
</event>
<event>
 5   0  0.2078125E-09  0.4001987E+04  0.7818609E-02  0.8004146E-01
       -1   -1    0    0    0  501  0.00000000000E+00  0.00000000000E+00  0.25121788148E+04  0.25121788148E+04  0.50400001928E-02 0.  1.
        1   -1    0    0  501    0  0.00000000000E+00  0.00000000000E+00 -0.15938258427E+04  0.15938258427E+04  0.50400001928E-02 0. -1.
    10030    2    1    2    0    0  0.00000000000E+00  0.00000000000E+00  0.91835297202E+03  0.41060046575E+04  0.40019872646E+04 0.  0.
        3    1    3    3  502    0  0.57904572852E+03 -0.17272441683E+04 -0.39017410903E+03  0.18630357534E+04  0.10100000352E+00 0. -1.
       -3    1    3    3    0  502 -0.57904572852E+03  0.17272441683E+04  0.13085270811E+04  0.22429689041E+04  0.10100000352E+00 0.  1.
</event>
<event>
 5   0  0.6538370E-09  0.4000174E+04  0.7818609E-02  0.8004511E-01
       -2   -1    0    0    0  501  0.00000000000E+00  0.00000000000E+00  0.25267717210E+04  0.25267717210E+04  0.25500000920E-02 0. -1.
        2   -1    0    0  501    0  0.00000000000E+00  0.00000000000E+00 -0.15831854123E+04  0.15831854123E+04  0.25500000920E-02 0.  1.
    10030    2    1    2    0    0  0.00000000000E+00  0.00000000000E+00  0.94358630874E+03  0.41099571333E+04  0.40001740606E+04 0.  0.
        4    1    3    3  502    0 -0.13891474006E+04  0.12728771168E+04 -0.21774376900E+03  0.18966709301E+04  0.12699999809E+01 0.  1.
       -4    1    3    3    0  502  0.13891474006E+04 -0.12728771168E+04  0.11613300777E+04  0.22132862032E+04  0.12699999809E+01 0. -1.
</event>
<event>
 5   0  0.2078125E-09  0.3999297E+04  0.7818609E-02  0.8004688E-01
       -3   -1    0    0    0  501  0.00000000000E+00  0.00000000000E+00  0.12506862105E+04  0.12506862145E+04  0.10100000352E+00 0.  1.
        3   -1    0    0  501    0  0.00000000000E+00  0.00000000000E+00 -0.31971197909E+04  0.31971197925E+04  0.10100000352E+00 0. -1.
    10030    2    1    2    0    0  0.00000000000E+00  0.00000000000E+00 -0.19464335804E+04  0.44478060070E+04  0.39992967623E+04 0.  0.
        3    1    3    3  502    0 -0.33522202357E+03 -0.56629879107E+03 -0.30732394438E+04  0.31429077007E+04  0.10100000352E+00 0. -1.
       -3    1    3    3    0  502  0.33522202357E+03  0.56629879107E+03  0.11268058634E+04  0.13048983063E+04  0.10100000352E+00 0.  1.
</event>
<event>
 5   0  0.2078125E-09  0.3999481E+04  0.7818609E-02  0.8004651E-01
       -1   -1    0    0    0  501  0.00000000000E+00  0.00000000000E+00  0.20384421132E+04  0.20384421132E+04  0.50400001928E-02 0.  1.
        1   -1    0    0  501    0  0.00000000000E+00  0.00000000000E+00 -0.19617731910E+04  0.19617731910E+04  0.50400001928E-02 0. -1.
    10030    2    1    2    0    0  0.00000000000E+00  0.00000000000E+00  0.76668922180E+02  0.40002153042E+04  0.39994805108E+04 0.  0.
        1    1    3    3  502    0  0.52486080763E+03  0.46260420862E+03  0.19120391403E+04  0.20360194487E+04  0.50400001928E-02 0.  1.
       -1    1    3    3    0  502 -0.52486080763E+03 -0.46260420862E+03 -0.18353702182E+04  0.19641958555E+04  0.50400001928E-02 0. -1.
</event>
<event>
 5   0  0.2078125E-09  0.4000449E+04  0.7818609E-02  0.8004456E-01
       -1   -1    0    0    0  501  0.00000000000E+00  0.00000000000E+00  0.20120224344E+04  0.20120224344E+04  0.50400001928E-02 0.  1.
        1   -1    0    0  501    0  0.00000000000E+00  0.00000000000E+00 -0.19884962245E+04  0.19884962245E+04  0.50400001928E-02 0. -1.
    10030    2    1    2    0    0  0.00000000000E+00  0.00000000000E+00  0.23526209892E+02  0.40005186589E+04  0.40004494819E+04 0.  0.
        2    1    3    3  502    0 -0.49222485224E+03  0.27859101142E+03  0.19303897139E+04  0.20115423695E+04  0.25500000920E-02 0.  1.
       -2    1    3    3    0  502  0.49222485224E+03 -0.27859101142E+03 -0.19068635040E+04  0.19889762894E+04  0.25500000920E-02 0. -1.
</event>
<event>
 5   0  0.6645526E-09  0.4008566E+04  0.7818609E-02  0.8002821E-01
        2   -1    0    0  501    0  0.00000000000E+00  0.00000000000E+00  0.25729140729E+04  0.25729140729E+04  0.25500000920E-02 0.  1.
       -2   -1    0    0    0  501  0.00000000000E+00  0.00000000000E+00 -0.15613228192E+04  0.15613228192E+04  0.25500000920E-02 0. -1.
    10030    2    1    2    0    0  0.00000000000E+00  0.00000000000E+00  0.10115912537E+04  0.41342368921E+04  0.40085655558E+04 0.  0.
        3    1    3    3  502    0  0.88793621988E+03  0.17851811057E+04  0.71677462355E+03  0.21187421225E+04  0.10100000352E+00 0.  1.
       -3    1    3    3    0  502 -0.88793621988E+03 -0.17851811057E+04  0.29481663015E+03  0.20154947696E+04  0.10100000352E+00 0. -1.
</event>
<event>
 5   0  0.6538370E-09  0.4000446E+04  0.7818609E-02  0.8004457E-01
       -2   -1    0    0    0  501  0.00000000000E+00  0.00000000000E+00  0.23291394539E+04  0.23291394539E+04  0.25500000920E-02 0.  1.
        2   -1    0    0  501    0  0.00000000000E+00  0.00000000000E+00 -0.17177555653E+04  0.17177555653E+04  0.25500000920E-02 0. -1.
    10030    2    1    2    0    0  0.00000000000E+00  0.00000000000E+00  0.61138388863E+03  0.40468950192E+04  0.40004461047E+04 0.  0.
        4    1    3    3  502    0 -0.15710403965E+04 -0.29643671893E+03  0.15216667978E+04  0.22071506773E+04  0.12699999809E+01 0.  1.
       -4    1    3    3    0  502  0.15710403965E+04  0.29643671893E+03 -0.91028290919E+03  0.18397443419E+04  0.12699999809E+01 0. -1.
</event>
<event>
 5   0  0.6736335E-09  0.3999539E+04  0.7818609E-02  0.8004640E-01
        2   -1    0    0  501    0  0.00000000000E+00  0.00000000000E+00  0.17353124400E+04  0.17353124400E+04  0.25500000920E-02 0. -1.
       -2   -1    0    0    0  501  0.00000000000E+00  0.00000000000E+00 -0.23045286475E+04  0.23045286475E+04  0.25500000920E-02 0.  1.
    10030    2    1    2    0    0  0.00000000000E+00  0.00000000000E+00 -0.56921620750E+03  0.40398410876E+04  0.39995385886E+04 0.  0.
        1    1    3    3  502    0 -0.12137121443E+04 -0.95455522941E+03  0.99894650167E+03  0.18390668744E+04  0.50400001928E-02 0. -1.
       -1    1    3    3    0  502  0.12137121443E+04  0.95455522941E+03 -0.15681627092E+04  0.22007742132E+04  0.50400001928E-02 0.  1.
</event>
<event>
 5   0  0.6645526E-09  0.3998243E+04  0.7818609E-02  0.8004901E-01
        2   -1    0    0  501    0  0.00000000000E+00  0.00000000000E+00  0.23146799074E+04  0.23146799074E+04  0.25500000920E-02 0.  1.
       -2   -1    0    0    0  501  0.00000000000E+00  0.00000000000E+00 -0.17265832816E+04  0.17265832816E+04  0.25500000920E-02 0. -1.
    10030    2    1    2    0    0  0.00000000000E+00  0.00000000000E+00  0.58809662576E+03  0.40412631889E+04  0.39982434294E+04 0.  0.
        3    1    3    3  502    0 -0.67153782247E+03  0.13068776118E+04 -0.10761166564E+04  0.18212411174E+04  0.10100000352E+00 0. -1.
       -3    1    3    3    0  502  0.67153782247E+03 -0.13068776118E+04  0.16642132822E+04  0.22200220715E+04  0.10100000352E+00 0.  1.
</event>
<event>
 5   0  0.2078125E-09  0.4001444E+04  0.7818609E-02  0.8004255E-01
       -3   -1    0    0    0  501  0.00000000000E+00  0.00000000000E+00  0.23782520533E+04  0.23782520555E+04  0.10100000352E+00 0.  1.
        3   -1    0    0  501    0  0.00000000000E+00  0.00000000000E+00 -0.16831217805E+04  0.16831217836E+04  0.10100000352E+00 0. -1.
    10030    2    1    2    0    0  0.00000000000E+00  0.00000000000E+00  0.69513027282E+03  0.40613738390E+04  0.40014436600E+04 0.  0.
        2    1    3    3  502    0 -0.18589550273E+04 -0.73937294184E+03  0.37029927540E+03  0.20345780137E+04  0.25500000920E-02 0. -1.
       -2    1    3    3    0  502  0.18589550273E+04  0.73937294184E+03  0.32483099742E+03  0.20267958253E+04  0.25500000920E-02 0.  1.
</event>
<event>
 5   0  0.2078125E-09  0.3999979E+04  0.7818609E-02  0.8004551E-01
        1   -1    0    0  501    0  0.00000000000E+00  0.00000000000E+00  0.21126099693E+04  0.21126099693E+04  0.50400001928E-02 0.  1.
       -1   -1    0    0    0  501  0.00000000000E+00  0.00000000000E+00 -0.18933730775E+04  0.18933730775E+04  0.50400001928E-02 0. -1.
    10030    2    1    2    0    0  0.00000000000E+00  0.00000000000E+00  0.21923689181E+03  0.40059830467E+04  0.39999794194E+04 0.  0.
        4    1    3    3  502    0  0.15988204893E+04 -0.39980737997E+03 -0.10251684158E+04  0.19408876299E+04  0.12699999809E+01 0. -1.
       -4    1    3    3    0  502 -0.15988204893E+04  0.39980737997E+03  0.12444053076E+04  0.20650954168E+04  0.12699999809E+01 0.  1.
</event>
<event>
 5   0  0.2078125E-09  0.4000836E+04  0.7818609E-02  0.8004378E-01
        1   -1    0    0  501    0  0.00000000000E+00  0.00000000000E+00  0.12664803232E+04  0.12664803232E+04  0.50400001928E-02 0. -1.
       -1   -1    0    0    0  501  0.00000000000E+00  0.00000000000E+00 -0.31596800024E+04  0.31596800024E+04  0.50400001928E-02 0.  1.
    10030    2    1    2    0    0  0.00000000000E+00  0.00000000000E+00 -0.18931996792E+04  0.44261603256E+04  0.40008361879E+04 0.  0.
        5    1    3    3  502    0 -0.12191213237E+04 -0.87228092929E+03  0.51879780164E+03  0.15862862511E+04  0.46999998093E+01 0.  1.
       -5    1    3    3    0  502  0.12191213237E+04  0.87228092929E+03 -0.24119974809E+04  0.28398740745E+04  0.46999998093E+01 0. -1.
</event>
<event>
 5   0  0.2078125E-09  0.3999627E+04  0.7818609E-02  0.8004622E-01
       -1   -1    0    0    0  501  0.00000000000E+00  0.00000000000E+00  0.12139170746E+04  0.12139170746E+04  0.50400001928E-02 0.  1.
        1   -1    0    0  501    0  0.00000000000E+00  0.00000000000E+00 -0.32945031478E+04  0.32945031478E+04  0.50400001928E-02 0. -1.
    10030    2    1    2    0    0  0.00000000000E+00  0.00000000000E+00 -0.20805860732E+04  0.45084202225E+04  0.39996267944E+04 0.  0.
        3    1    3    3  502    0  0.25658192457E+03 -0.63117398043E+03 -0.31596397392E+04  0.32322651762E+04  0.10100000352E+00 0. -1.
       -3    1    3    3    0  502 -0.25658192457E+03  0.63117398043E+03  0.10790536660E+04  0.12761550462E+04  0.10100000352E+00 0.  1.
</event>
<event>
 5   0  0.6538370E-09  0.3997321E+04  0.7818609E-02  0.8005087E-01
       -2   -1    0    0    0  501  0.00000000000E+00  0.00000000000E+00  0.18068896619E+04  0.18068896619E+04  0.25500000920E-02 0. -1.
        2   -1    0    0  501    0  0.00000000000E+00  0.00000000000E+00 -0.22107847997E+04  0.22107847997E+04  0.25500000920E-02 0.  1.
    10030    2    1    2    0    0  0.00000000000E+00  0.00000000000E+00 -0.40389513783E+03  0.40176744616E+04  0.39973212026E+04 0.  0.
        4    1    3    3  502    0 -0.12377639071E+03 -0.19112661819E+04  0.37226123085E+03  0.19511122597E+04  0.12699999809E+01 0. -1.
       -4    1    3    3    0  502  0.12377639071E+03  0.19112661819E+04 -0.77615636868E+03  0.20665622019E+04  0.12699999809E+01 0.  1.
</event>
<event>
 5   0  0.6736335E-09  0.3997154E+04  0.7818609E-02  0.8005121E-01
        2   -1    0    0  501    0  0.00000000000E+00  0.00000000000E+00  0.25690111631E+04  0.25690111631E+04  0.25500000920E-02 0.  1.
       -2   -1    0    0    0  501  0.00000000000E+00  0.00000000000E+00 -0.15548048323E+04  0.15548048323E+04  0.25500000920E-02 0. -1.
    10030    2    1    2    0    0  0.00000000000E+00  0.00000000000E+00  0.10142063308E+04  0.41238159953E+04  0.39971544731E+04 0.  0.
        1    1    3    3  502    0 -0.25975092578E+03  0.12940594299E+03  0.25471586297E+04  0.25636367774E+04  0.50400001928E-02 0.  1.
       -1    1    3    3    0  502  0.25975092578E+03 -0.12940594299E+03 -0.15329522989E+04  0.15601792180E+04  0.50400001928E-02 0. -1.
</event>
<event>
 5   0  0.6599276E-09  0.3999754E+04  0.7818609E-02  0.8004596E-01
       -2   -1    0    0    0  501  0.00000000000E+00  0.00000000000E+00  0.14398224550E+04  0.14398224550E+04  0.25500000920E-02 0. -1.
        2   -1    0    0  501    0  0.00000000000E+00  0.00000000000E+00 -0.27777792492E+04  0.27777792492E+04  0.25500000920E-02 0.  1.
    10030    2    1    2    0    0  0.00000000000E+00  0.00000000000E+00 -0.13379567942E+04  0.42176017042E+04  0.39997544614E+04 0.  0.
        2    1    3    3  502    0 -0.19130572267E+04 -0.55501840798E+03 -0.48130862433E+03  0.20492660583E+04  0.25500000920E-02 0. -1.
       -2    1    3    3    0  502  0.19130572267E+04  0.55501840798E+03 -0.85664816991E+03  0.21683356458E+04  0.25500000920E-02 0.  1.
</event>
<event>
 5   0  0.2078125E-09  0.3996803E+04  0.7818609E-02  0.8005192E-01
       -1   -1    0    0    0  501  0.00000000000E+00  0.00000000000E+00  0.29687633035E+04  0.29687633035E+04  0.50400001928E-02 0. -1.
        1   -1    0    0  501    0  0.00000000000E+00  0.00000000000E+00 -0.13452098161E+04  0.13452098161E+04  0.50400001928E-02 0.  1.
    10030    2    1    2    0    0  0.00000000000E+00  0.00000000000E+00  0.16235534875E+04  0.43139731196E+04  0.39968034915E+04 0.  0.
        3    1    3    3  502    0  0.47765111697E+03  0.39059608498E+03  0.28633745530E+04  0.29291004988E+04  0.10100000352E+00 0. -1.
       -3    1    3    3    0  502 -0.47765111697E+03 -0.39059608498E+03 -0.12398210655E+04  0.13848726208E+04  0.10100000352E+00 0.  1.
</event>
<event>
 5   0  0.6645526E-09  0.3998965E+04  0.7818609E-02  0.8004755E-01
       -2   -1    0    0    0  501  0.00000000000E+00  0.00000000000E+00  0.15904102391E+04  0.15904102391E+04  0.25500000920E-02 0. -1.
        2   -1    0    0  501    0  0.00000000000E+00  0.00000000000E+00 -0.25137731990E+04  0.25137731990E+04  0.25500000920E-02 0.  1.
    10030    2    1    2    0    0  0.00000000000E+00  0.00000000000E+00 -0.92336295990E+03  0.41041834381E+04  0.39989651834E+04 0.  0.
        3    1    3    3  502    0  0.11836538585E+04  0.16071552366E+04 -0.34048017624E+03  0.20248237384E+04  0.10100000352E+00 0.  1.
       -3    1    3    3    0  502 -0.11836538585E+04 -0.16071552366E+04 -0.58288278366E+03  0.20793596997E+04  0.10100000352E+00 0. -1.
</event>
<event>
 5   0  0.6547327E-09  0.4000551E+04  0.7818609E-02  0.8004435E-01
        2   -1    0    0  501    0  0.00000000000E+00  0.00000000000E+00  0.23245243443E+04  0.23245243443E+04  0.25500000920E-02 0. -1.
       -2   -1    0    0    0  501  0.00000000000E+00  0.00000000000E+00 -0.17212560832E+04  0.17212560832E+04  0.25500000920E-02 0.  1.
    10030    2    1    2    0    0  0.00000000000E+00  0.00000000000E+00  0.60326826103E+03  0.40457804275E+04  0.40005507962E+04 0.  0.
        5    1    3    3  502    0  0.95431948275E+03  0.14140525440E+04 -0.75459207185E+03  0.18653958179E+04  0.46999998093E+01 0.  1.
       -5    1    3    3    0  502 -0.95431948275E+03 -0.14140525440E+04  0.13578603329E+04  0.21803846097E+04  0.46999998093E+01 0. -1.
</event>
<event>
 5   0  0.6736335E-09  0.3996043E+04  0.7818609E-02  0.8005345E-01
        2   -1    0    0  501    0  0.00000000000E+00  0.00000000000E+00  0.24889889932E+04  0.24889889932E+04  0.25500000920E-02 0. -1.
       -2   -1    0    0    0  501  0.00000000000E+00  0.00000000000E+00 -0.16039005841E+04  0.16039005841E+04  0.25500000920E-02 0.  1.
    10030    2    1    2    0    0  0.00000000000E+00  0.00000000000E+00  0.88508840904E+03  0.40928895773E+04  0.39960434933E+04 0.  0.
        1    1    3    3  502    0 -0.18031522717E+04  0.66019221764E+02 -0.43637533063E+03  0.18563782163E+04  0.50400001928E-02 0.  1.
       -1    1    3    3    0  502  0.18031522717E+04 -0.66019221764E+02  0.13214637397E+04  0.22365113610E+04  0.50400001928E-02 0. -1.
</event>
<event>
 5   0  0.2078125E-09  0.4000144E+04  0.7818609E-02  0.8004518E-01
       -1   -1    0    0    0  501  0.00000000000E+00  0.00000000000E+00  0.18477643498E+04  0.18477643498E+04  0.50400001928E-02 0.  1.
        1   -1    0    0  501    0  0.00000000000E+00  0.00000000000E+00 -0.21649340232E+04  0.21649340232E+04  0.50400001928E-02 0. -1.
    10030    2    1    2    0    0  0.00000000000E+00  0.00000000000E+00 -0.31716967342E+03  0.40126983731E+04  0.40001439514E+04 0.  0.
        3    1    3    3  502    0  0.16216758088E+03 -0.46312397244E+03  0.17864450223E+04  0.18526111211E+04  0.10100000352E+00 0.  1.
       -3    1    3    3    0  502 -0.16216758088E+03  0.46312397244E+03 -0.21036146957E+04  0.21600872520E+04  0.10100000352E+00 0. -1.
</event>
<event>
 5   0  0.2078125E-09  0.4000563E+04  0.7818609E-02  0.8004433E-01
       -1   -1    0    0    0  501  0.00000000000E+00  0.00000000000E+00  0.16054352714E+04  0.16054352714E+04  0.50400001928E-02 0.  1.
        1   -1    0    0  501    0  0.00000000000E+00  0.00000000000E+00 -0.24922369729E+04  0.24922369729E+04  0.50400001928E-02 0. -1.
    10030    2    1    2    0    0  0.00000000000E+00  0.00000000000E+00 -0.88680170155E+03  0.40976722443E+04  0.40005625309E+04 0.  0.
        4    1    3    3  502    0  0.66069599751E+03  0.18052270533E+03  0.14815847211E+04  0.16322385080E+04  0.12699999809E+01 0.  1.
       -4    1    3    3    0  502 -0.66069599751E+03 -0.18052270533E+03 -0.23683864226E+04  0.24654337363E+04  0.12699999809E+01 0. -1.
</event>
<event>
 5   0  0.2078125E-09  0.3998384E+04  0.7818609E-02  0.8004873E-01
       -1   -1    0    0    0  501  0.00000000000E+00  0.00000000000E+00  0.23454351610E+04  0.23454351610E+04  0.50400001928E-02 0.  1.
        1   -1    0    0  501    0  0.00000000000E+00  0.00000000000E+00 -0.17040624403E+04  0.17040624403E+04  0.50400001928E-02 0. -1.
    10030    2    1    2    0    0  0.00000000000E+00  0.00000000000E+00  0.64137272075E+03  0.40494976013E+04  0.39983836555E+04 0.  0.
        5    1    3    3  502    0 -0.19930985323E+04 -0.13205339196E+03  0.40460705909E+03  0.20380404364E+04  0.46999998093E+01 0. -1.
       -5    1    3    3    0  502  0.19930985323E+04  0.13205339196E+03  0.23676566165E+03  0.20114571650E+04  0.46999998093E+01 0.  1.
</event>
<event>
 5   0  0.6538370E-09  0.3998599E+04  0.7818609E-02  0.8004829E-01
       -2   -1    0    0    0  501  0.00000000000E+00  0.00000000000E+00  0.20936485323E+04  0.20936485323E+04  0.25500000920E-02 0. -1.
        2   -1    0    0  501    0  0.00000000000E+00  0.00000000000E+00 -0.19092017924E+04  0.19092017924E+04  0.25500000920E-02 0.  1.
    10030    2    1    2    0    0  0.00000000000E+00  0.00000000000E+00  0.18444673991E+03  0.40028503248E+04  0.39985985198E+04 0.  0.
        4    1    3    3  502    0  0.64455531541E+03  0.48702272498E+03  0.19229799611E+04  0.20857843208E+04  0.12699999809E+01 0. -1.
       -4    1    3    3    0  502 -0.64455531541E+03 -0.48702272498E+03 -0.17385332212E+04  0.19170660039E+04  0.12699999809E+01 0.  1.
</event>
<event>
 5   0  0.6547327E-09  0.3999546E+04  0.7818609E-02  0.8004638E-01
       -2   -1    0    0    0  501  0.00000000000E+00  0.00000000000E+00  0.15453344763E+04  0.15453344763E+04  0.25500000920E-02 0.  1.
        2   -1    0    0  501    0  0.00000000000E+00  0.00000000000E+00 -0.25878492665E+04  0.25878492665E+04  0.25500000920E-02 0. -1.
    10030    2    1    2    0    0  0.00000000000E+00  0.00000000000E+00 -0.10425147902E+04  0.41331837428E+04  0.39995463198E+04 0.  0.
        5    1    3    3  502    0  0.37763997865E+03  0.12492839523E+04 -0.20870567615E+04  0.24615341482E+04  0.46999998093E+01 0. -1.
       -5    1    3    3    0  502 -0.37763997865E+03 -0.12492839523E+04  0.10445419714E+04  0.16716495946E+04  0.46999998093E+01 0.  1.
</event>
<event>
 5   0  0.6599276E-09  0.4000537E+04  0.7818609E-02  0.8004438E-01
       -2   -1    0    0    0  501  0.00000000000E+00  0.00000000000E+00  0.13019100606E+04  0.13019100606E+04  0.25500000920E-02 0. -1.
        2   -1    0    0  501    0  0.00000000000E+00  0.00000000000E+00 -0.30732332377E+04  0.30732332377E+04  0.25500000920E-02 0.  1.
    10030    2    1    2    0    0  0.00000000000E+00  0.00000000000E+00 -0.17713231771E+04  0.43751432982E+04  0.40005365993E+04 0.  0.
        2    1    3    3  502    0  0.18087452456E+04 -0.72191088134E+02  0.45090420470E+02  0.18107468246E+04  0.25500000920E-02 0. -1.
       -2    1    3    3    0  502 -0.18087452456E+04  0.72191088134E+02 -0.18164135976E+04  0.25643964737E+04  0.25500000920E-02 0.  1.
</event>
<event>
 5   0  0.6645526E-09  0.3999683E+04  0.7818609E-02  0.8004610E-01
        2   -1    0    0  501    0  0.00000000000E+00  0.00000000000E+00  0.21545509122E+04  0.21545509122E+04  0.25500000920E-02 0. -1.
       -2   -1    0    0    0  501  0.00000000000E+00  0.00000000000E+00 -0.18562411971E+04  0.18562411971E+04  0.25500000920E-02 0.  1.
    10030    2    1    2    0    0  0.00000000000E+00  0.00000000000E+00  0.29830971510E+03  0.40107921092E+04  0.39996830696E+04 0.  0.
        3    1    3    3  502    0 -0.63927584679E+02 -0.15459485789E+04 -0.11213774306E+04  0.19108979818E+04  0.10100000352E+00 0.  1.
       -3    1    3    3    0  502  0.63927584679E+02  0.15459485789E+04  0.14196871457E+04  0.20998941275E+04  0.10100000352E+00 0. -1.
</event>
<event>
 5   0  0.6599276E-09  0.3998004E+04  0.7818609E-02  0.8004949E-01
       -2   -1    0    0    0  501  0.00000000000E+00  0.00000000000E+00  0.16311511481E+04  0.16311511481E+04  0.25500000920E-02 0. -1.
        2   -1    0    0  501    0  0.00000000000E+00  0.00000000000E+00 -0.24498096930E+04  0.24498096930E+04  0.25500000920E-02 0.  1.
    10030    2    1    2    0    0  0.00000000000E+00  0.00000000000E+00 -0.81865854489E+03  0.40809608412E+04  0.39980044490E+04 0.  0.
        2    1    3    3  502    0  0.13335980741E+04  0.12625581757E+04 -0.12153161167E+04  0.22021648971E+04  0.25500000920E-02 0.  1.
       -2    1    3    3    0  502 -0.13335980741E+04 -0.12625581757E+04  0.39665757177E+03  0.18787959441E+04  0.25500000920E-02 0. -1.
</event>
<event>
 5   0  0.6645526E-09  0.4001501E+04  0.7818609E-02  0.8004244E-01
        2   -1    0    0  501    0  0.00000000000E+00  0.00000000000E+00  0.17162547432E+04  0.17162547432E+04  0.25500000920E-02 0. -1.
       -2   -1    0    0    0  501  0.00000000000E+00  0.00000000000E+00 -0.23324061778E+04  0.23324061778E+04  0.25500000920E-02 0.  1.
    10030    2    1    2    0    0  0.00000000000E+00  0.00000000000E+00 -0.61615143459E+03  0.40486609210E+04  0.40015013011E+04 0.  0.
        3    1    3    3  502    0  0.76435305472E+02 -0.19448078474E+04 -0.77709393442E+03  0.20957086897E+04  0.10100000352E+00 0.  1.
       -3    1    3    3    0  502 -0.76435305472E+02  0.19448078474E+04  0.16094249983E+03  0.19529522312E+04  0.10100000352E+00 0. -1.
</event>
<event>
 5   0  0.6645526E-09  0.4000995E+04  0.7818609E-02  0.8004346E-01
        2   -1    0    0  501    0  0.00000000000E+00  0.00000000000E+00  0.15758947705E+04  0.15758947705E+04  0.25500000920E-02 0.  1.
       -2   -1    0    0    0  501  0.00000000000E+00  0.00000000000E+00 -0.25395029716E+04  0.25395029716E+04  0.25500000920E-02 0. -1.
    10030    2    1    2    0    0  0.00000000000E+00  0.00000000000E+00 -0.96360820114E+03  0.41153977421E+04  0.40009946027E+04 0.  0.
        3    1    3    3  502    0 -0.11276894785E+04  0.16439645621E+04 -0.31065402197E+03  0.20176245867E+04  0.10100000352E+00 0. -1.
       -3    1    3    3    0  502  0.11276894785E+04 -0.16439645621E+04 -0.65295417917E+03  0.20977731554E+04  0.10100000352E+00 0.  1.
</event>
<event>
 5   0  0.6538370E-09  0.4000248E+04  0.7818609E-02  0.8004497E-01
       -2   -1    0    0    0  501  0.00000000000E+00  0.00000000000E+00  0.19054804670E+04  0.19054804670E+04  0.25500000920E-02 0. -1.
        2   -1    0    0  501    0  0.00000000000E+00  0.00000000000E+00 -0.20994679598E+04  0.20994679598E+04  0.25500000920E-02 0.  1.
    10030    2    1    2    0    0  0.00000000000E+00  0.00000000000E+00 -0.19398749282E+03  0.40049484268E+04  0.40002475866E+04 0.  0.
        4    1    3    3  502    0 -0.58703474373E+03 -0.78040521710E+03 -0.18445682449E+04  0.20871213947E+04  0.12699999809E+01 0.  1.
       -4    1    3    3    0  502  0.58703474373E+03  0.78040521710E+03  0.16505807521E+04  0.19178270321E+04  0.12699999809E+01 0. -1.
</event>
<event>
 5   0  0.2078125E-09  0.3995991E+04  0.7818609E-02  0.8005356E-01
       -1   -1    0    0    0  501  0.00000000000E+00  0.00000000000E+00  0.30763293760E+04  0.30763293760E+04  0.50400001928E-02 0.  1.
        1   -1    0    0  501    0  0.00000000000E+00  0.00000000000E+00 -0.12976461426E+04  0.12976461426E+04  0.50400001928E-02 0. -1.
    10030    2    1    2    0    0  0.00000000000E+00  0.00000000000E+00  0.17786832334E+04  0.43739755186E+04  0.39959914656E+04 0.  0.
        5    1    3    3  502    0 -0.23418865794E+03  0.79991463914E+03  0.28769380193E+04  0.29952466032E+04  0.46999998093E+01 0.  1.
       -5    1    3    3    0  502  0.23418865794E+03 -0.79991463914E+03 -0.10982547859E+04  0.13787289154E+04  0.46999998093E+01 0. -1.
</event>
<event>
 5   0  0.2078125E-09  0.4000138E+04  0.7818609E-02  0.8004519E-01
        1   -1    0    0  501    0  0.00000000000E+00  0.00000000000E+00  0.17005731820E+04  0.17005731820E+04  0.50400001928E-02 0.  1.
       -1   -1    0    0    0  501  0.00000000000E+00  0.00000000000E+00 -0.23523108700E+04  0.23523108700E+04  0.50400001928E-02 0. -1.
    10030    2    1    2    0    0  0.00000000000E+00  0.00000000000E+00 -0.65173768793E+03  0.40528840520E+04  0.40001383883E+04 0.  0.
        2    1    3    3  502    0  0.98272912166E+03 -0.17093648100E+04  0.14103286877E+02  0.19717716610E+04  0.25500000920E-02 0. -1.
       -2    1    3    3    0  502 -0.98272912166E+03  0.17093648100E+04 -0.66584097480E+03  0.20811123910E+04  0.25500000920E-02 0.  1.
</event>
<event>
 5   0  0.2078125E-09  0.3998994E+04  0.7818609E-02  0.8004750E-01
        1   -1    0    0  501    0  0.00000000000E+00  0.00000000000E+00  0.20178562938E+04  0.20178562938E+04  0.50400001928E-02 0. -1.
       -1   -1    0    0    0  501  0.00000000000E+00  0.00000000000E+00 -0.19813043070E+04  0.19813043070E+04  0.50400001928E-02 0.  1.
    10030    2    1    2    0    0  0.00000000000E+00  0.00000000000E+00  0.36551986815E+02  0.39991606008E+04  0.39989935563E+04 0.  0.
        2    1    3    3  502    0 -0.13167149696E+04  0.89043953666E+03  0.12313256261E+04  0.20106674706E+04  0.25500000920E-02 0. -1.
       -2    1    3    3    0  502  0.13167149696E+04 -0.89043953666E+03 -0.11947736393E+04  0.19884931302E+04  0.25500000920E-02 0.  1.
</event>
<event>
 5   0  0.2078125E-09  0.4000712E+04  0.7818609E-02  0.8004403E-01
       -1   -1    0    0    0  501  0.00000000000E+00  0.00000000000E+00  0.25248154661E+04  0.25248154661E+04  0.50400001928E-02 0.  1.
        1   -1    0    0  501    0  0.00000000000E+00  0.00000000000E+00 -0.15848379123E+04  0.15848379123E+04  0.50400001928E-02 0. -1.
    10030    2    1    2    0    0  0.00000000000E+00  0.00000000000E+00  0.93997755388E+03  0.41096533784E+04  0.40007115728E+04 0.  0.
        3    1    3    3  502    0 -0.11861127267E+04  0.69757891873E+03 -0.10214225447E+04  0.17137046926E+04  0.10100000352E+00 0. -1.
       -3    1    3    3    0  502  0.11861127267E+04 -0.69757891873E+03  0.19614000986E+04  0.23959486859E+04  0.10100000352E+00 0.  1.
</event>
<event>
 5   0  0.6736335E-09  0.3999320E+04  0.7818609E-02  0.8004684E-01
       -2   -1    0    0    0  501  0.00000000000E+00  0.00000000000E+00  0.14615596850E+04  0.14615596850E+04  0.25500000920E-02 0.  1.
        2   -1    0    0  501    0  0.00000000000E+00  0.00000000000E+00 -0.27358714863E+04  0.27358714863E+04  0.25500000920E-02 0. -1.
    10030    2    1    2    0    0  0.00000000000E+00  0.00000000000E+00 -0.12743118012E+04  0.41974311713E+04  0.39993196760E+04 0.  0.
        1    1    3    3  502    0  0.10894652134E+04  0.29925537669E+03  0.10944680678E+04  0.15730062248E+04  0.50400001928E-02 0.  1.
       -1    1    3    3    0  502 -0.10894652134E+04 -0.29925537669E+03 -0.23687798691E+04  0.26244249465E+04  0.50400001928E-02 0. -1.
</event>
<event>
 5   0  0.2078125E-09  0.4000656E+04  0.7818609E-02  0.8004414E-01
       -1   -1    0    0    0  501  0.00000000000E+00  0.00000000000E+00  0.16841948930E+04  0.16841948931E+04  0.50400001928E-02 0. -1.
        1   -1    0    0  501    0  0.00000000000E+00  0.00000000000E+00 -0.23758013531E+04  0.23758013531E+04  0.50400001928E-02 0.  1.
    10030    2    1    2    0    0  0.00000000000E+00  0.00000000000E+00 -0.69160646010E+03  0.40599962462E+04  0.40006561991E+04 0.  0.
        3    1    3    3  502    0  0.98477367720E+03 -0.13750265817E+04  0.73813830216E+03  0.18453523942E+04  0.10100000352E+00 0. -1.
       -3    1    3    3    0  502 -0.98477367720E+03  0.13750265817E+04 -0.14297447623E+04  0.22146438520E+04  0.10100000352E+00 0.  1.
</event>
<event>
 5   0  0.6645526E-09  0.3997361E+04  0.7818609E-02  0.8005079E-01
        2   -1    0    0  501    0  0.00000000000E+00  0.00000000000E+00  0.34483716980E+04  0.34483716980E+04  0.25500000920E-02 0.  1.
       -2   -1    0    0    0  501  0.00000000000E+00  0.00000000000E+00 -0.11584378232E+04  0.11584378232E+04  0.25500000920E-02 0. -1.
    10030    2    1    2    0    0  0.00000000000E+00  0.00000000000E+00  0.22899338748E+04  0.46068095212E+04  0.39973612313E+04 0.  0.
        3    1    3    3  502    0 -0.55436007423E+03 -0.18008088101E+04  0.37661331131E+03  0.19214747094E+04  0.10100000352E+00 0. -1.
       -3    1    3    3    0  502  0.55436007423E+03  0.18008088101E+04  0.19133205635E+04  0.26853348118E+04  0.10100000352E+00 0.  1.
</event>
<event>
 5   0  0.2078125E-09  0.3996446E+04  0.7818609E-02  0.8005264E-01
        1   -1    0    0  501    0  0.00000000000E+00  0.00000000000E+00  0.19869109109E+04  0.19869109109E+04  0.50400001928E-02 0. -1.
       -1   -1    0    0    0  501  0.00000000000E+00  0.00000000000E+00 -0.20095990533E+04  0.20095990533E+04  0.50400001928E-02 0.  1.
    10030    2    1    2    0    0  0.00000000000E+00  0.00000000000E+00 -0.22688142408E+02  0.39965099643E+04  0.39964455636E+04 0.  0.
        1    1    3    3  502    0 -0.14704390343E+04 -0.10376512781E+04 -0.87968009924E+03  0.20031845161E+04  0.50400001928E-02 0.  1.
       -1    1    3    3    0  502  0.14704390343E+04  0.10376512781E+04  0.85699195683E+03  0.19933254482E+04  0.50400001928E-02 0. -1.
</event>
<event>
 5   0  0.6538370E-09  0.4000511E+04  0.7818609E-02  0.8004443E-01
       -2   -1    0    0    0  501  0.00000000000E+00  0.00000000000E+00  0.30469191956E+04  0.30469191956E+04  0.25500000920E-02 0. -1.
        2   -1    0    0  501    0  0.00000000000E+00  0.00000000000E+00 -0.13131369675E+04  0.13131369675E+04  0.25500000920E-02 0.  1.
    10030    2    1    2    0    0  0.00000000000E+00  0.00000000000E+00  0.17337822281E+04  0.43600561631E+04  0.40005110837E+04 0.  0.
        4    1    3    3  502    0 -0.15780221536E+04  0.69352497244E+03 -0.23915182409E+03  0.17402086118E+04  0.12699999809E+01 0. -1.
       -4    1    3    3    0  502  0.15780221536E+04 -0.69352497244E+03  0.19729340522E+04  0.26198475513E+04  0.12699999809E+01 0.  1.
</event>
<event>
 5   0  0.6538370E-09  0.3999378E+04  0.7818609E-02  0.8004672E-01
       -2   -1    0    0    0  501  0.00000000000E+00  0.00000000000E+00  0.18733076460E+04  0.18733076460E+04  0.25500000920E-02 0.  1.
        2   -1    0    0  501    0  0.00000000000E+00  0.00000000000E+00 -0.21345965620E+04  0.21345965620E+04  0.25500000920E-02 0. -1.
    10030    2    1    2    0    0  0.00000000000E+00  0.00000000000E+00 -0.26128891606E+03  0.40079042080E+04  0.39993779820E+04 0.  0.
        4    1    3    3  502    0  0.10730329247E+04 -0.86718951979E+03 -0.15812583621E+04  0.20985225615E+04  0.12699999809E+01 0. -1.
       -4    1    3    3    0  502 -0.10730329247E+04  0.86718951979E+03  0.13199694460E+04  0.19093816465E+04  0.12699999809E+01 0.  1.
</event>
<event>
 5   0  0.2078125E-09  0.4000468E+04  0.7818609E-02  0.8004452E-01
       -1   -1    0    0    0  501  0.00000000000E+00  0.00000000000E+00  0.13730520294E+04  0.13730520295E+04  0.50400001928E-02 0.  1.
        1   -1    0    0  501    0  0.00000000000E+00  0.00000000000E+00 -0.29138991517E+04  0.29138991517E+04  0.50400001928E-02 0. -1.
    10030    2    1    2    0    0  0.00000000000E+00  0.00000000000E+00 -0.15408471223E+04  0.42869511812E+04  0.40004675446E+04 0.  0.
        5    1    3    3  502    0 -0.43091433455E+03  0.50663412344E+03  0.12510784871E+04  0.14168926457E+04  0.46999998093E+01 0.  1.
       -5    1    3    3    0  502  0.43091433455E+03 -0.50663412344E+03 -0.27919256093E+04  0.28700585354E+04  0.46999998093E+01 0. -1.
</event>
<event>
 5   0  0.2078125E-09  0.3999434E+04  0.7818609E-02  0.8004661E-01
       -1   -1    0    0    0  501  0.00000000000E+00  0.00000000000E+00  0.19855464076E+04  0.19855464076E+04  0.50400001928E-02 0. -1.
        1   -1    0    0  501    0  0.00000000000E+00  0.00000000000E+00 -0.20139891856E+04  0.20139891856E+04  0.50400001928E-02 0.  1.
    10030    2    1    2    0    0  0.00000000000E+00  0.00000000000E+00 -0.28442777981E+02  0.39995355932E+04  0.39994344562E+04 0.  0.
        3    1    3    3  502    0 -0.96784866591E+03 -0.12079594319E+04 -0.12803386922E+04  0.20087718153E+04  0.10100000352E+00 0.  1.
       -3    1    3    3    0  502  0.96784866591E+03  0.12079594319E+04  0.12518959142E+04  0.19907637779E+04  0.10100000352E+00 0. -1.
</event>
<event>
 5   0  0.2078125E-09  0.3999930E+04  0.7818609E-02  0.8004561E-01
        1   -1    0    0  501    0  0.00000000000E+00  0.00000000000E+00  0.26997711756E+04  0.26997711756E+04  0.50400001928E-02 0.  1.
       -1   -1    0    0    0  501  0.00000000000E+00  0.00000000000E+00 -0.14815552848E+04  0.14815552848E+04  0.50400001928E-02 0. -1.
    10030    2    1    2    0    0  0.00000000000E+00  0.00000000000E+00  0.12182158908E+04  0.41813264604E+04  0.39999301259E+04 0.  0.
        2    1    3    3  502    0  0.82244233488E+03  0.17882116185E+04  0.23841670000E+03  0.19826635392E+04  0.25500000920E-02 0.  1.
       -2    1    3    3    0  502 -0.82244233488E+03 -0.17882116185E+04  0.97979919077E+03  0.21986629212E+04  0.25500000920E-02 0. -1.
</event>
<event>
 5   0  0.6538370E-09  0.3998886E+04  0.7818609E-02  0.8004771E-01
       -2   -1    0    0    0  501  0.00000000000E+00  0.00000000000E+00  0.17839665850E+04  0.17839665850E+04  0.25500000920E-02 0. -1.
        2   -1    0    0  501    0  0.00000000000E+00  0.00000000000E+00 -0.22409454418E+04  0.22409454418E+04  0.25500000920E-02 0.  1.
    10030    2    1    2    0    0  0.00000000000E+00  0.00000000000E+00 -0.45697885684E+03  0.40249120268E+04  0.39988857383E+04 0.  0.
        4    1    3    3  502    0  0.73041894236E+03  0.17065512240E+04  0.51927332455E+03  0.19275568241E+04  0.12699999809E+01 0. -1.
       -4    1    3    3    0  502 -0.73041894236E+03 -0.17065512240E+04 -0.97625218139E+03  0.20973552027E+04  0.12699999809E+01 0.  1.
</event>
<event>
 5   0  0.2078125E-09  0.3998084E+04  0.7818609E-02  0.8004933E-01
        1   -1    0    0  501    0  0.00000000000E+00  0.00000000000E+00  0.21722608932E+04  0.21722608932E+04  0.50400001928E-02 0. -1.
       -1   -1    0    0    0  501  0.00000000000E+00  0.00000000000E+00 -0.18396359387E+04  0.18396359387E+04  0.50400001928E-02 0.  1.
    10030    2    1    2    0    0  0.00000000000E+00  0.00000000000E+00  0.33262495444E+03  0.40118968319E+04  0.39980841449E+04 0.  0.
        3    1    3    3  502    0  0.79919292395E+02 -0.16945259197E+03  0.21634316040E+04  0.21715288599E+04  0.10100000352E+00 0. -1.
       -3    1    3    3    0  502 -0.79919292395E+02  0.16945259197E+03 -0.18308066495E+04  0.18403679720E+04  0.10100000352E+00 0.  1.
</event>
<event>
 5   0  0.6599276E-09  0.3999728E+04  0.7818609E-02  0.8004602E-01
       -2   -1    0    0    0  501  0.00000000000E+00  0.00000000000E+00  0.14657721579E+04  0.14657721579E+04  0.25500000920E-02 0. -1.
        2   -1    0    0  501    0  0.00000000000E+00  0.00000000000E+00 -0.27285653194E+04  0.27285653194E+04  0.25500000920E-02 0.  1.
    10030    2    1    2    0    0  0.00000000000E+00  0.00000000000E+00 -0.12627931615E+04  0.41943374773E+04  0.39997275288E+04 0.  0.
        2    1    3    3  502    0  0.88493707874E+03  0.11439998785E+04  0.81696591952E+03  0.16611088673E+04  0.25500000920E-02 0. -1.
       -2    1    3    3    0  502 -0.88493707874E+03 -0.11439998785E+04 -0.20797590810E+04  0.25332286100E+04  0.25500000920E-02 0.  1.
</event>
<event>
 5   0  0.6538370E-09  0.3999796E+04  0.7818609E-02  0.8004588E-01
        2   -1    0    0  501    0  0.00000000000E+00  0.00000000000E+00  0.17367651678E+04  0.17367651678E+04  0.25500000920E-02 0.  1.
       -2   -1    0    0    0  501  0.00000000000E+00  0.00000000000E+00 -0.23028976175E+04  0.23028976175E+04  0.25500000920E-02 0. -1.
    10030    2    1    2    0    0  0.00000000000E+00  0.00000000000E+00 -0.56613244969E+03  0.40396627853E+04  0.39997961783E+04 0.  0.
        4    1    3    3  502    0  0.19377199718E+04  0.21635068645E+03 -0.73250098155E+03  0.20828167489E+04  0.12699999809E+01 0. -1.
       -4    1    3    3    0  502 -0.19377199718E+04 -0.21635068645E+03  0.16636853185E+03  0.19568460364E+04  0.12699999809E+01 0.  1.
</event>
<event>
 5   0  0.2078125E-09  0.3998026E+04  0.7818609E-02  0.8004945E-01
       -1   -1    0    0    0  501  0.00000000000E+00  0.00000000000E+00  0.19390178660E+04  0.19390178660E+04  0.50400001928E-02 0. -1.
        1   -1    0    0  501    0  0.00000000000E+00  0.00000000000E+00 -0.20608645251E+04  0.20608645251E+04  0.50400001928E-02 0.  1.
    10030    2    1    2    0    0  0.00000000000E+00  0.00000000000E+00 -0.12184665908E+03  0.39998823910E+04  0.39980260797E+04 0.  0.
        5    1    3    3  502    0 -0.13647664911E+04  0.72715991342E+03  0.12064252430E+04  0.19613345130E+04  0.46999998093E+01 0. -1.
       -5    1    3    3    0  502  0.13647664911E+04 -0.72715991342E+03 -0.13282719021E+04  0.20385478780E+04  0.46999998093E+01 0.  1.
</event>
<event>
 5   0  0.2078125E-09  0.4002515E+04  0.7818609E-02  0.8004039E-01
       -1   -1    0    0    0  501  0.00000000000E+00  0.00000000000E+00  0.29432532383E+04  0.29432532383E+04  0.50400001928E-02 0. -1.
        1   -1    0    0  501    0  0.00000000000E+00  0.00000000000E+00 -0.13607499364E+04  0.13607499364E+04  0.50400001928E-02 0.  1.
    10030    2    1    2    0    0  0.00000000000E+00  0.00000000000E+00  0.15825033020E+04  0.43040031747E+04  0.40025150377E+04 0.  0.
        2    1    3    3  502    0  0.33900250163E+02  0.75039654979E+03 -0.12034067633E+04  0.14186021453E+04  0.25500000920E-02 0.  1.
       -2    1    3    3    0  502 -0.33900250163E+02 -0.75039654979E+03  0.27859100652E+04  0.28854010294E+04  0.25500000920E-02 0. -1.
</event>
<event>
 5   0  0.6599276E-09  0.3996918E+04  0.7818609E-02  0.8005169E-01
       -2   -1    0    0    0  501  0.00000000000E+00  0.00000000000E+00  0.16589715373E+04  0.16589715373E+04  0.25500000920E-02 0. -1.
        2   -1    0    0  501    0  0.00000000000E+00  0.00000000000E+00 -0.24074181559E+04  0.24074181559E+04  0.25500000920E-02 0.  1.
    10030    2    1    2    0    0  0.00000000000E+00  0.00000000000E+00 -0.74844661860E+03  0.40663896932E+04  0.39969179121E+04 0.  0.
        2    1    3    3  502    0 -0.18064419415E+04 -0.36748904572E+03  0.41091400961E+03  0.18886849949E+04  0.25500000920E-02 0.  1.
       -2    1    3    3    0  502  0.18064419415E+04  0.36748904572E+03 -0.11593606282E+04  0.21777046983E+04  0.25500000920E-02 0. -1.
</event>
<event>
 5   0  0.6645526E-09  0.3999611E+04  0.7818609E-02  0.8004625E-01
       -2   -1    0    0    0  501  0.00000000000E+00  0.00000000000E+00  0.21393647231E+04  0.21393647231E+04  0.25500000920E-02 0. -1.
        2   -1    0    0  501    0  0.00000000000E+00  0.00000000000E+00 -0.18693503431E+04  0.18693503431E+04  0.25500000920E-02 0.  1.
    10030    2    1    2    0    0  0.00000000000E+00  0.00000000000E+00  0.27001437999E+03  0.40087150662E+04  0.39996110707E+04 0.  0.
        3    1    3    3  502    0  0.15185505937E+04 -0.13311815374E+03 -0.11623524911E+04  0.19169714844E+04  0.10100000352E+00 0.  1.
       -3    1    3    3    0  502 -0.15185505937E+04  0.13311815374E+03  0.14323668711E+04  0.20917435818E+04  0.10100000352E+00 0. -1.
</event>
<event>
 5   0  0.6547327E-09  0.3999781E+04  0.7818609E-02  0.8004591E-01
        2   -1    0    0  501    0  0.00000000000E+00  0.00000000000E+00  0.18123271491E+04  0.18123271491E+04  0.25500000920E-02 0. -1.
       -2   -1    0    0    0  501  0.00000000000E+00  0.00000000000E+00 -0.22068655098E+04  0.22068655098E+04  0.25500000920E-02 0.  1.
    10030    2    1    2    0    0  0.00000000000E+00  0.00000000000E+00 -0.39453836070E+03  0.40191926588E+04  0.39997811329E+04 0.  0.
        5    1    3    3  502    0 -0.80967367245E+03  0.12228680954E+04 -0.15634860673E+04  0.21437090771E+04  0.46999998093E+01 0.  1.
       -5    1    3    3    0  502  0.80967367245E+03 -0.12228680954E+04  0.11689477067E+04  0.18754835817E+04  0.46999998093E+01 0. -1.
</event>
<event>
 5   0  0.2078125E-09  0.3999594E+04  0.7818609E-02  0.8004629E-01
        1   -1    0    0  501    0  0.00000000000E+00  0.00000000000E+00  0.19933750524E+04  0.19933750524E+04  0.50400001928E-02 0. -1.
       -1   -1    0    0    0  501  0.00000000000E+00  0.00000000000E+00 -0.20062393616E+04  0.20062393616E+04  0.50400001928E-02 0.  1.
    10030    2    1    2    0    0  0.00000000000E+00  0.00000000000E+00 -0.12864309234E+02  0.39996144140E+04  0.39995937257E+04 0.  0.
        2    1    3    3  502    0 -0.13563671198E+04 -0.10223520621E+04 -0.10620189664E+04  0.20032023831E+04  0.25500000920E-02 0.  1.
       -2    1    3    3    0  502  0.13563671198E+04  0.10223520621E+04  0.10491546572E+04  0.19964120309E+04  0.25500000920E-02 0. -1.
</event>
<event>
 5   0  0.6599276E-09  0.4000593E+04  0.7818609E-02  0.8004427E-01
        2   -1    0    0  501    0  0.00000000000E+00  0.00000000000E+00  0.12091921663E+04  0.12091921663E+04  0.25500000920E-02 0.  1.
       -2   -1    0    0    0  501  0.00000000000E+00  0.00000000000E+00 -0.33089740911E+04  0.33089740911E+04  0.25500000920E-02 0. -1.
    10030    2    1    2    0    0  0.00000000000E+00  0.00000000000E+00 -0.20997819248E+04  0.45181662574E+04  0.40005927308E+04 0.  0.
        2    1    3    3  502    0 -0.54301276476E+03  0.16327008927E+04 -0.22019691771E+04  0.27945023393E+04  0.25500000920E-02 0. -1.
       -2    1    3    3    0  502  0.54301276476E+03 -0.16327008927E+04  0.10218725225E+03  0.17236639180E+04  0.25500000920E-02 0.  1.
</event>
<event>
 5   0  0.2078125E-09  0.3988572E+04  0.7818609E-02  0.8006856E-01
       -1   -1    0    0    0  501  0.00000000000E+00  0.00000000000E+00  0.15436925261E+04  0.15436925261E+04  0.50400001928E-02 0.  1.
        1   -1    0    0  501    0  0.00000000000E+00  0.00000000000E+00 -0.25764046220E+04  0.25764046220E+04  0.50400001928E-02 0. -1.
    10030    2    1    2    0    0  0.00000000000E+00  0.00000000000E+00 -0.10327120959E+04  0.41200971481E+04  0.39885719546E+04 0.  0.
        2    1    3    3  502    0  0.12909844621E+04  0.15145433660E+04 -0.38288989380E+03  0.20265949668E+04  0.25500000920E-02 0.  1.
       -2    1    3    3    0  502 -0.12909844621E+04 -0.15145433660E+04 -0.64982220208E+03  0.20935021813E+04  0.25500000920E-02 0. -1.
</event>
<event>
 5   0  0.6547327E-09  0.4002548E+04  0.7818609E-02  0.8004033E-01
       -2   -1    0    0    0  501  0.00000000000E+00  0.00000000000E+00  0.17112626530E+04  0.17112626530E+04  0.25500000920E-02 0. -1.
        2   -1    0    0  501    0  0.00000000000E+00  0.00000000000E+00 -0.23404336740E+04  0.23404336740E+04  0.25500000920E-02 0.  1.
    10030    2    1    2    0    0  0.00000000000E+00  0.00000000000E+00 -0.62917102095E+03  0.40516963270E+04  0.40025475578E+04 0.  0.
        5    1    3    3  502    0  0.19755923617E+04  0.30742634754E+03 -0.22634569466E+03  0.20121457706E+04  0.46999998093E+01 0.  1.
       -5    1    3    3    0  502 -0.19755923617E+04 -0.30742634754E+03 -0.40282532629E+03  0.20395505564E+04  0.46999998093E+01 0. -1.
</event>
<event>
 5   0  0.2078125E-09  0.4001204E+04  0.7818609E-02  0.8004304E-01
       -1   -1    0    0    0  501  0.00000000000E+00  0.00000000000E+00  0.26831318319E+04  0.26831318319E+04  0.50400001928E-02 0.  1.
        1   -1    0    0  501    0  0.00000000000E+00  0.00000000000E+00 -0.14916927468E+04  0.14916927468E+04  0.50400001928E-02 0. -1.
    10030    2    1    2    0    0  0.00000000000E+00  0.00000000000E+00  0.11914390851E+04  0.41748245786E+04  0.40012039649E+04 0.  0.
        1    1    3    3  502    0  0.18130971654E+04  0.52054779768E+03 -0.99618861031E+02  0.18889720110E+04  0.50400001928E-02 0. -1.
       -1    1    3    3    0  502 -0.18130971654E+04 -0.52054779768E+03  0.12910579461E+04  0.22858525677E+04  0.50400001928E-02 0.  1.
</event>
<event>
 5   0  0.2078125E-09  0.4003039E+04  0.7818609E-02  0.8003934E-01
       -1   -1    0    0    0  501  0.00000000000E+00  0.00000000000E+00  0.25338387026E+04  0.25338387026E+04  0.50400001928E-02 0.  1.
        1   -1    0    0  501    0  0.00000000000E+00  0.00000000000E+00 -0.15810324422E+04  0.15810324422E+04  0.50400001928E-02 0. -1.
    10030    2    1    2    0    0  0.00000000000E+00  0.00000000000E+00  0.95280626042E+03  0.41148711448E+04  0.40030394413E+04 0.  0.
        4    1    3    3  502    0 -0.18495082742E+03  0.58914584252E+03 -0.14806706303E+04  0.16042714111E+04  0.12699999809E+01 0. -1.
       -4    1    3    3    0  502  0.18495082742E+03 -0.58914584252E+03  0.24334768907E+04  0.25105997337E+04  0.12699999809E+01 0.  1.
</event>
<event>
 5   0  0.2078125E-09  0.3998397E+04  0.7818609E-02  0.8004870E-01
        1   -1    0    0  501    0  0.00000000000E+00  0.00000000000E+00  0.17505259176E+04  0.17505259176E+04  0.50400001928E-02 0. -1.
       -1   -1    0    0    0  501  0.00000000000E+00  0.00000000000E+00 -0.22831963736E+04  0.22831963736E+04  0.50400001928E-02 0.  1.
    10030    2    1    2    0    0  0.00000000000E+00  0.00000000000E+00 -0.53267045605E+03  0.40337222912E+04  0.39983968922E+04 0.  0.
        1    1    3    3  502    0  0.77468803007E+03 -0.17703785164E+04 -0.78312343514E+03  0.20851052611E+04  0.50400001928E-02 0. -1.
       -1    1    3    3    0  502 -0.77468803007E+03  0.17703785164E+04  0.25045297909E+03  0.19486170301E+04  0.50400001928E-02 0.  1.
</event>
<event>
 5   0  0.6547327E-09  0.4004171E+04  0.7818609E-02  0.8003706E-01
        2   -1    0    0  501    0  0.00000000000E+00  0.00000000000E+00  0.23288288238E+04  0.23288288238E+04  0.25500000920E-02 0.  1.
       -2   -1    0    0    0  501  0.00000000000E+00  0.00000000000E+00 -0.17211857921E+04  0.17211857921E+04  0.25500000920E-02 0. -1.
    10030    2    1    2    0    0  0.00000000000E+00  0.00000000000E+00  0.60764303169E+03  0.40500146159E+04  0.40041713668E+04 0.  0.
        5    1    3    3  502    0 -0.96567834044E+03  0.12511528382E+02  0.20776484586E+04  0.22911430342E+04  0.46999998093E+01 0.  1.
       -5    1    3    3    0  502  0.96567834044E+03 -0.12511528382E+02 -0.14700054270E+04  0.17588715817E+04  0.46999998093E+01 0. -1.
</event>
<event>
 5   0  0.2078125E-09  0.3997568E+04  0.7818609E-02  0.8005037E-01
       -1   -1    0    0    0  501  0.00000000000E+00  0.00000000000E+00  0.15472240011E+04  0.15472240011E+04  0.50400001928E-02 0.  1.
        1   -1    0    0  501    0  0.00000000000E+00  0.00000000000E+00 -0.25821324888E+04  0.25821324888E+04  0.50400001928E-02 0. -1.
    10030    2    1    2    0    0  0.00000000000E+00  0.00000000000E+00 -0.10349084876E+04  0.41293564899E+04  0.39975679410E+04 0.  0.
        5    1    3    3  502    0 -0.42950809981E+03  0.48078323451E+03  0.14368709481E+04  0.15748809282E+04  0.46999998093E+01 0.  1.
       -5    1    3    3    0  502  0.42950809981E+03 -0.48078323451E+03 -0.24717794357E+04  0.25544755617E+04  0.46999998093E+01 0. -1.
</event>
<event>
 5   0  0.2078125E-09  0.4001485E+04  0.7818609E-02  0.8004247E-01
       -1   -1    0    0    0  501  0.00000000000E+00  0.00000000000E+00  0.16380042377E+04  0.16380042377E+04  0.50400001928E-02 0.  1.
        1   -1    0    0  501    0  0.00000000000E+00  0.00000000000E+00 -0.24438100842E+04  0.24438100842E+04  0.50400001928E-02 0. -1.
    10030    2    1    2    0    0  0.00000000000E+00  0.00000000000E+00 -0.80580584650E+03  0.40818143218E+04  0.40014853612E+04 0.  0.
        3    1    3    3  502    0  0.26584702162E+03 -0.19556150761E+04 -0.67879708468E+02  0.19747690067E+04  0.10100000352E+00 0. -1.
       -3    1    3    3    0  502 -0.26584702162E+03  0.19556150761E+04 -0.73792613803E+03  0.21070453151E+04  0.10100000352E+00 0.  1.
</event>
<event>
 5   0  0.6736335E-09  0.4001789E+04  0.7818609E-02  0.8004186E-01
       -2   -1    0    0    0  501  0.00000000000E+00  0.00000000000E+00  0.19028648450E+04  0.19028648450E+04  0.25500000920E-02 0. -1.
        2   -1    0    0  501    0  0.00000000000E+00  0.00000000000E+00 -0.21039745665E+04  0.21039745665E+04  0.25500000920E-02 0.  1.
    10030    2    1    2    0    0  0.00000000000E+00  0.00000000000E+00 -0.20110972157E+03  0.40068394115E+04  0.40017892185E+04 0.  0.
        1    1    3    3  502    0 -0.57890396078E+03  0.14877164086E+04 -0.13083728919E+04  0.20640420375E+04  0.50400001928E-02 0.  1.
       -1    1    3    3    0  502  0.57890396078E+03 -0.14877164086E+04  0.11072631704E+04  0.19427973740E+04  0.50400001928E-02 0. -1.
</event>
<event>
 5   0  0.2078125E-09  0.4001867E+04  0.7818609E-02  0.8004170E-01
        1   -1    0    0  501    0  0.00000000000E+00  0.00000000000E+00  0.24005397983E+04  0.24005397983E+04  0.50400001928E-02 0. -1.
       -1   -1    0    0    0  501  0.00000000000E+00  0.00000000000E+00 -0.16678474651E+04  0.16678474651E+04  0.50400001928E-02 0.  1.
    10030    2    1    2    0    0  0.00000000000E+00  0.00000000000E+00  0.73269233323E+03  0.40683872634E+04  0.40018666732E+04 0.  0.
        3    1    3    3  502    0 -0.13236928004E+02  0.18730362815E+04 -0.34912352098E+03  0.19053417991E+04  0.10100000352E+00 0.  1.
       -3    1    3    3    0  502  0.13236928004E+02 -0.18730362815E+04  0.10818158542E+04  0.21630454643E+04  0.10100000352E+00 0. -1.
</event>
<event>
 5   0  0.6645526E-09  0.4001153E+04  0.7818609E-02  0.8004314E-01
       -2   -1    0    0    0  501  0.00000000000E+00  0.00000000000E+00  0.15647658782E+04  0.15647658782E+04  0.25500000920E-02 0. -1.
        2   -1    0    0  501    0  0.00000000000E+00  0.00000000000E+00 -0.25577668879E+04  0.25577668879E+04  0.25500000920E-02 0.  1.
    10030    2    1    2    0    0  0.00000000000E+00  0.00000000000E+00 -0.99300100969E+03  0.41225327661E+04  0.40011530091E+04 0.  0.
        3    1    3    3  502    0  0.81356777095E+02 -0.10768561201E+03  0.15600699552E+04  0.15658969926E+04  0.10100000352E+00 0. -1.
       -3    1    3    3    0  502 -0.81356777095E+02  0.10768561201E+03 -0.25530709649E+04  0.25566357735E+04  0.10100000352E+00 0.  1.
</event>
<event>
 5   0  0.2078125E-09  0.3998737E+04  0.7818609E-02  0.8004801E-01
        1   -1    0    0  501    0  0.00000000000E+00  0.00000000000E+00  0.13534083975E+04  0.13534083975E+04  0.50400001928E-02 0.  1.
       -1   -1    0    0    0  501  0.00000000000E+00  0.00000000000E+00 -0.29536349457E+04  0.29536349457E+04  0.50400001928E-02 0. -1.
    10030    2    1    2    0    0  0.00000000000E+00  0.00000000000E+00 -0.16002265483E+04  0.43070433432E+04  0.39987369699E+04 0.  0.
        3    1    3    3  502    0  0.35565904350E+03 -0.15227045650E+04  0.54188351411E+03  0.16549200284E+04  0.10100000352E+00 0.  1.
       -3    1    3    3    0  502 -0.35565904350E+03  0.15227045650E+04 -0.21421100624E+04  0.26521233148E+04  0.10100000352E+00 0. -1.
</event>
<event>
 5   0  0.2078125E-09  0.3996036E+04  0.7818609E-02  0.8005347E-01
        1   -1    0    0  501    0  0.00000000000E+00  0.00000000000E+00  0.19620561654E+04  0.19620561655E+04  0.50400001928E-02 0. -1.
       -1   -1    0    0    0  501  0.00000000000E+00  0.00000000000E+00 -0.20346390223E+04  0.20346390223E+04  0.50400001928E-02 0.  1.
    10030    2    1    2    0    0  0.00000000000E+00  0.00000000000E+00 -0.72582856847E+02  0.39966951878E+04  0.39960360550E+04 0.  0.
        1    1    3    3  502    0  0.16754158603E+04 -0.51683062688E+03 -0.99454331849E+03  0.20157501369E+04  0.50400001928E-02 0.  1.
       -1    1    3    3    0  502 -0.16754158603E+04  0.51683062688E+03  0.92196046164E+03  0.19809450509E+04  0.50400001928E-02 0. -1.
</event>
<event>
 5   0  0.6736335E-09  0.4000333E+04  0.7818609E-02  0.8004479E-01
       -2   -1    0    0    0  501  0.00000000000E+00  0.00000000000E+00  0.12358143524E+04  0.12358143524E+04  0.25500000920E-02 0. -1.
        2   -1    0    0  501    0  0.00000000000E+00  0.00000000000E+00 -0.32372703795E+04  0.32372703795E+04  0.25500000920E-02 0.  1.
    10030    2    1    2    0    0  0.00000000000E+00  0.00000000000E+00 -0.20014560271E+04  0.44730847318E+04  0.40003325849E+04 0.  0.
        1    1    3    3  502    0 -0.68515986699E+03  0.93265556075E+03 -0.28248926911E+04  0.30527543555E+04  0.50400001928E-02 0.  1.
       -1    1    3    3    0  502  0.68515986699E+03 -0.93265556075E+03  0.82343666402E+03  0.14203303764E+04  0.50400001928E-02 0. -1.
</event>
<event>
 5   0  0.2078125E-09  0.3998788E+04  0.7818609E-02  0.8004791E-01
       -1   -1    0    0    0  501  0.00000000000E+00  0.00000000000E+00  0.18942827129E+04  0.18942827129E+04  0.50400001928E-02 0. -1.
        1   -1    0    0  501    0  0.00000000000E+00  0.00000000000E+00 -0.21103373210E+04  0.21103373210E+04  0.50400001928E-02 0.  1.
    10030    2    1    2    0    0  0.00000000000E+00  0.00000000000E+00 -0.21605460806E+03  0.40046200339E+04  0.39987875690E+04 0.  0.
        3    1    3    3  502    0  0.13703643167E+04  0.12847912925E+04 -0.79385349292E+03  0.20393112573E+04  0.10100000352E+00 0.  1.
       -3    1    3    3    0  502 -0.13703643167E+04 -0.12847912925E+04  0.57779888487E+03  0.19653087766E+04  0.10100000352E+00 0. -1.
</event>
<event>
 5   0  0.2078125E-09  0.4000426E+04  0.7818609E-02  0.8004461E-01
        1   -1    0    0  501    0  0.00000000000E+00  0.00000000000E+00  0.18841339311E+04  0.18841339311E+04  0.50400001928E-02 0. -1.
       -1   -1    0    0    0  501  0.00000000000E+00  0.00000000000E+00 -0.21234430309E+04  0.21234430309E+04  0.50400001928E-02 0.  1.
    10030    2    1    2    0    0  0.00000000000E+00  0.00000000000E+00 -0.23930909981E+03  0.40075769620E+04  0.40004255100E+04 0.  0.
        3    1    3    3  502    0  0.19939960886E+04  0.15738118388E+03 -0.11177812992E+03  0.20033181472E+04  0.10100000352E+00 0. -1.
       -3    1    3    3    0  502 -0.19939960886E+04 -0.15738118388E+03 -0.12753096989E+03  0.20042588148E+04  0.10100000352E+00 0.  1.
</event>
<event>
 5   0  0.6645526E-09  0.3999946E+04  0.7818609E-02  0.8004557E-01
       -2   -1    0    0    0  501  0.00000000000E+00  0.00000000000E+00  0.23676166199E+04  0.23676166199E+04  0.25500000920E-02 0.  1.
        2   -1    0    0  501    0  0.00000000000E+00  0.00000000000E+00 -0.16894173705E+04  0.16894173705E+04  0.25500000920E-02 0. -1.
    10030    2    1    2    0    0  0.00000000000E+00  0.00000000000E+00  0.67819924935E+03  0.40570339904E+04  0.39999463218E+04 0.  0.
        3    1    3    3  502    0  0.15880051401E+04 -0.11794973379E+04  0.63812647927E+03  0.20785041999E+04  0.10100000352E+00 0. -1.
       -3    1    3    3    0  502 -0.15880051401E+04  0.11794973379E+04  0.40072770083E+02  0.19785297906E+04  0.10100000352E+00 0.  1.
</event>
<event>
 5   0  0.6547327E-09  0.4000493E+04  0.7818609E-02  0.8004447E-01
        2   -1    0    0  501    0  0.00000000000E+00  0.00000000000E+00  0.21067436797E+04  0.21067436797E+04  0.25500000920E-02 0.  1.
       -2   -1    0    0    0  501  0.00000000000E+00  0.00000000000E+00 -0.18991329460E+04  0.18991329460E+04  0.25500000920E-02 0. -1.
    10030    2    1    2    0    0  0.00000000000E+00  0.00000000000E+00  0.20761073364E+03  0.40058766257E+04  0.40004931350E+04 0.  0.
        5    1    3    3  502    0 -0.13837600569E+04  0.68794852493E+03 -0.11679033547E+04  0.19370300472E+04  0.46999998093E+01 0.  1.
       -5    1    3    3    0  502  0.13837600569E+04 -0.68794852493E+03  0.13755140883E+04  0.20688465785E+04  0.46999998093E+01 0. -1.
</event>
<event>
 5   0  0.6599276E-09  0.3999532E+04  0.7818609E-02  0.8004641E-01
        2   -1    0    0  501    0  0.00000000000E+00  0.00000000000E+00  0.17085280426E+04  0.17085280426E+04  0.25500000920E-02 0.  1.
       -2   -1    0    0    0  501  0.00000000000E+00  0.00000000000E+00 -0.23406490985E+04  0.23406490985E+04  0.25500000920E-02 0. -1.
    10030    2    1    2    0    0  0.00000000000E+00  0.00000000000E+00 -0.63212105591E+03  0.40491771412E+04  0.39995322841E+04 0.  0.
        2    1    3    3  502    0  0.17308514796E+04 -0.34769629407E+03 -0.12670416114E+04  0.21730471699E+04  0.25500000920E-02 0. -1.
       -2    1    3    3    0  502 -0.17308514796E+04  0.34769629407E+03  0.63492055551E+03  0.18761299713E+04  0.25500000920E-02 0.  1.
</event>
<event>
 5   0  0.6599276E-09  0.3998890E+04  0.7818609E-02  0.8004771E-01
        2   -1    0    0  501    0  0.00000000000E+00  0.00000000000E+00  0.18153888419E+04  0.18153888419E+04  0.25500000920E-02 0. -1.
       -2   -1    0    0    0  501  0.00000000000E+00  0.00000000000E+00 -0.22021619000E+04  0.22021619000E+04  0.25500000920E-02 0.  1.
    10030    2    1    2    0    0  0.00000000000E+00  0.00000000000E+00 -0.38677305814E+03  0.40175507419E+04  0.39988899167E+04 0.  0.
        2    1    3    3  502    0 -0.17315702018E+03  0.36493781578E+03  0.17739693550E+04  0.18193763315E+04  0.25500000920E-02 0. -1.
       -2    1    3    3    0  502  0.17315702018E+03 -0.36493781578E+03 -0.21607424131E+04  0.21981744105E+04  0.25500000920E-02 0.  1.
</event>
<event>
 5   0  0.6645526E-09  0.3979059E+04  0.7818609E-02  0.8008784E-01
        2   -1    0    0  501    0  0.00000000000E+00  0.00000000000E+00  0.24901215952E+04  0.24901215952E+04  0.25500000920E-02 0.  1.
       -2   -1    0    0    0  501  0.00000000000E+00  0.00000000000E+00 -0.15895722289E+04  0.15895722289E+04  0.25500000920E-02 0. -1.
    10030    2    1    2    0    0  0.00000000000E+00  0.00000000000E+00  0.90054936632E+03  0.40796938241E+04  0.39790592528E+04 0.  0.
        3    1    3    3  502    0 -0.12413406731E+04 -0.11704157752E+04  0.14995980191E+04  0.22714739669E+04  0.10100000352E+00 0. -1.
       -3    1    3    3    0  502  0.12413406731E+04  0.11704157752E+04 -0.59904865276E+03  0.18082198572E+04  0.10100000352E+00 0.  1.
</event>
<event>
 5   0  0.2078125E-09  0.4000684E+04  0.7818609E-02  0.8004409E-01
        1   -1    0    0  501    0  0.00000000000E+00  0.00000000000E+00  0.24798061959E+04  0.24798061959E+04  0.50400001928E-02 0.  1.
       -1   -1    0    0    0  501  0.00000000000E+00  0.00000000000E+00 -0.16135806869E+04  0.16135806869E+04  0.50400001928E-02 0. -1.
    10030    2    1    2    0    0  0.00000000000E+00  0.00000000000E+00  0.86622550902E+03  0.40933868828E+04  0.40006836341E+04 0.  0.
        2    1    3    3  502    0  0.76189426752E+02 -0.19481778959E+04 -0.24652825034E+02  0.19498229932E+04  0.25500000920E-02 0.  1.
       -2    1    3    3    0  502 -0.76189426752E+02  0.19481778959E+04  0.89087833406E+03  0.21435638897E+04  0.25500000920E-02 0. -1.
</event>
<event>
 5   0  0.6736335E-09  0.3999768E+04  0.7818609E-02  0.8004593E-01
       -2   -1    0    0    0  501  0.00000000000E+00  0.00000000000E+00  0.19675078341E+04  0.19675078341E+04  0.25500000920E-02 0. -1.
        2   -1    0    0  501    0  0.00000000000E+00  0.00000000000E+00 -0.20327927123E+04  0.20327927123E+04  0.25500000920E-02 0.  1.
    10030    2    1    2    0    0  0.00000000000E+00  0.00000000000E+00 -0.65284878210E+02  0.40003005464E+04  0.39997677866E+04 0.  0.
        1    1    3    3  502    0  0.10707292041E+04  0.16880964515E+04  0.25717098346E+02  0.19991978460E+04  0.50400001928E-02 0.  1.
       -1    1    3    3    0  502 -0.10707292041E+04 -0.16880964515E+04 -0.91001976556E+02  0.20011027005E+04  0.50400001928E-02 0. -1.
</event>
<event>
 5   0  0.2078125E-09  0.3999998E+04  0.7818609E-02  0.8004547E-01
        1   -1    0    0  501    0  0.00000000000E+00  0.00000000000E+00  0.15718053338E+04  0.15718053338E+04  0.50400001928E-02 0.  1.
       -1   -1    0    0    0  501  0.00000000000E+00  0.00000000000E+00 -0.25448423479E+04  0.25448423479E+04  0.50400001928E-02 0. -1.
    10030    2    1    2    0    0  0.00000000000E+00  0.00000000000E+00 -0.97303701407E+03  0.41166476817E+04  0.39999983881E+04 0.  0.
        3    1    3    3  502    0  0.12268351036E+03 -0.18970050158E+04 -0.11261886354E+04  0.22095203385E+04  0.10100000352E+00 0. -1.
       -3    1    3    3    0  502 -0.12268351036E+03  0.18970050158E+04  0.15315162130E+03  0.19071273432E+04  0.10100000352E+00 0.  1.
</event>
<event>
 5   0  0.2078125E-09  0.3997123E+04  0.7818609E-02  0.8005127E-01
        1   -1    0    0  501    0  0.00000000000E+00  0.00000000000E+00  0.20237992023E+04  0.20237992023E+04  0.50400001928E-02 0.  1.
       -1   -1    0    0    0  501  0.00000000000E+00  0.00000000000E+00 -0.19736382842E+04  0.19736382842E+04  0.50400001928E-02 0. -1.
    10030    2    1    2    0    0  0.00000000000E+00  0.00000000000E+00  0.50160918088E+02  0.39974374865E+04  0.39971227577E+04 0.  0.
        3    1    3    3  502    0  0.57046745311E+03  0.11689497068E+04  0.15425565311E+04  0.20177604401E+04  0.10100000352E+00 0.  1.
       -3    1    3    3    0  502 -0.57046745311E+03 -0.11689497068E+04 -0.14923956130E+04  0.19796770463E+04  0.10100000352E+00 0. -1.
</event>
<event>
 5   0  0.2078125E-09  0.4002967E+04  0.7818609E-02  0.8003948E-01
       -1   -1    0    0    0  501  0.00000000000E+00  0.00000000000E+00  0.28825310604E+04  0.28825310604E+04  0.50400001928E-02 0. -1.
        1   -1    0    0  501    0  0.00000000000E+00  0.00000000000E+00 -0.13897287531E+04  0.13897287531E+04  0.50400001928E-02 0.  1.
    10030    2    1    2    0    0  0.00000000000E+00  0.00000000000E+00  0.14928023074E+04  0.42722598135E+04  0.40029670477E+04 0.  0.
        4    1    3    3  502    0  0.17083497865E+03 -0.66950268054E+03  0.27512041475E+04  0.28366431399E+04  0.12699999809E+01 0. -1.
       -4    1    3    3    0  502 -0.17083497865E+03  0.66950268054E+03 -0.12584018402E+04  0.14356166736E+04  0.12699999809E+01 0.  1.
</event>
<event>
 5   0  0.6538370E-09  0.3999377E+04  0.7818609E-02  0.8004672E-01
       -2   -1    0    0    0  501  0.00000000000E+00  0.00000000000E+00  0.13164313902E+04  0.13164313902E+04  0.25500000920E-02 0.  1.
        2   -1    0    0  501    0  0.00000000000E+00  0.00000000000E+00 -0.30375707817E+04  0.30375707817E+04  0.25500000920E-02 0. -1.
    10030    2    1    2    0    0  0.00000000000E+00  0.00000000000E+00 -0.17211393915E+04  0.43540021719E+04  0.39993767149E+04 0.  0.
        4    1    3    3  502    0 -0.78062791658E+03 -0.35484801845E+03 -0.28272561754E+04  0.29544333051E+04  0.12699999809E+01 0. -1.
       -4    1    3    3    0  502  0.78062791658E+03  0.35484801845E+03  0.11061167839E+04  0.13995688668E+04  0.12699999809E+01 0.  1.
</event>
<event>
 5   0  0.2078125E-09  0.3999499E+04  0.7818609E-02  0.8004648E-01
        1   -1    0    0  501    0  0.00000000000E+00  0.00000000000E+00  0.20794553862E+04  0.20794553862E+04  0.50400001928E-02 0. -1.
       -1   -1    0    0    0  501  0.00000000000E+00  0.00000000000E+00 -0.19230985725E+04  0.19230985725E+04  0.50400001928E-02 0.  1.
    10030    2    1    2    0    0  0.00000000000E+00  0.00000000000E+00  0.15635681374E+03  0.40025539587E+04  0.39994988110E+04 0.  0.
        3    1    3    3  502    0  0.47291706736E+03 -0.17996854887E+04 -0.65482854488E+03  0.19726426042E+04  0.10100000352E+00 0. -1.
       -3    1    3    3    0  502 -0.47291706736E+03  0.17996854887E+04  0.81118535862E+03  0.20299113544E+04  0.10100000352E+00 0.  1.
</event>
<event>
 5   0  0.6547327E-09  0.4001217E+04  0.7818609E-02  0.8004301E-01
        2   -1    0    0  501    0  0.00000000000E+00  0.00000000000E+00  0.18096073049E+04  0.18096073049E+04  0.25500000920E-02 0.  1.
       -2   -1    0    0    0  501  0.00000000000E+00  0.00000000000E+00 -0.22117700343E+04  0.22117700343E+04  0.25500000920E-02 0. -1.
    10030    2    1    2    0    0  0.00000000000E+00  0.00000000000E+00 -0.40216272932E+03  0.40213773392E+04  0.40012174202E+04 0.  0.
        5    1    3    3  502    0 -0.12087909132E+04 -0.49043256944E+03  0.13233713217E+04  0.18582339255E+04  0.46999998093E+01 0.  1.
       -5    1    3    3    0  502  0.12087909132E+04  0.49043256944E+03 -0.17255340510E+04  0.21631434137E+04  0.46999998093E+01 0. -1.
</event>
<event>
 5   0  0.2078125E-09  0.3999738E+04  0.7818609E-02  0.8004599E-01
       -1   -1    0    0    0  501  0.00000000000E+00  0.00000000000E+00  0.18380303355E+04  0.18380303355E+04  0.50400001928E-02 0.  1.
        1   -1    0    0  501    0  0.00000000000E+00  0.00000000000E+00 -0.21759576368E+04  0.21759576368E+04  0.50400001928E-02 0. -1.
    10030    2    1    2    0    0  0.00000000000E+00  0.00000000000E+00 -0.33792730128E+03  0.40139879724E+04  0.39997380641E+04 0.  0.
        3    1    3    3  502    0  0.15388370231E+04  0.25017361217E+03 -0.14259714815E+04  0.21128182355E+04  0.10100000352E+00 0. -1.
       -3    1    3    3    0  502 -0.15388370231E+04 -0.25017361217E+03  0.10880441802E+04  0.19011697369E+04  0.10100000352E+00 0.  1.
</event>
<event>
 5   0  0.6736335E-09  0.4004106E+04  0.7818609E-02  0.8003719E-01
       -2   -1    0    0    0  501  0.00000000000E+00  0.00000000000E+00  0.18151655249E+04  0.18151655249E+04  0.25500000920E-02 0. -1.
        2   -1    0    0  501    0  0.00000000000E+00  0.00000000000E+00 -0.22081821406E+04  0.22081821406E+04  0.25500000920E-02 0.  1.
    10030    2    1    2    0    0  0.00000000000E+00  0.00000000000E+00 -0.39301661571E+03  0.40233476655E+04  0.40041059398E+04 0.  0.
        1    1    3    3  502    0  0.14068854371E+04  0.13892102201E+04  0.11962149210E+03  0.19807930155E+04  0.50400001928E-02 0.  1.
       -1    1    3    3    0  502 -0.14068854371E+04 -0.13892102201E+04 -0.51263810781E+03  0.20425546500E+04  0.50400001928E-02 0. -1.
</event>
<event>
 5   0  0.2078125E-09  0.4000089E+04  0.7818609E-02  0.8004529E-01
        1   -1    0    0  501    0  0.00000000000E+00  0.00000000000E+00  0.11500192524E+04  0.11500192524E+04  0.50400001928E-02 0.  1.
       -1   -1    0    0    0  501  0.00000000000E+00  0.00000000000E+00 -0.34783576849E+04  0.34783576850E+04  0.50400001928E-02 0. -1.
    10030    2    1    2    0    0  0.00000000000E+00  0.00000000000E+00 -0.23283384325E+04  0.46283769374E+04  0.40000891513E+04 0.  0.
        3    1    3    3  502    0  0.78606571286E+03 -0.16305003556E+04 -0.21485261672E+04  0.28093763393E+04  0.10100000352E+00 0. -1.
       -3    1    3    3    0  502 -0.78606571286E+03  0.16305003556E+04 -0.17981226533E+03  0.18190005980E+04  0.10100000352E+00 0.  1.
</event>
<event>
 5   0  0.6547327E-09  0.4000772E+04  0.7818609E-02  0.8004391E-01
        2   -1    0    0  501    0  0.00000000000E+00  0.00000000000E+00  0.17409558480E+04  0.17409558480E+04  0.25500000920E-02 0.  1.
       -2   -1    0    0    0  501  0.00000000000E+00  0.00000000000E+00 -0.22984751991E+04  0.22984751991E+04  0.25500000920E-02 0. -1.
    10030    2    1    2    0    0  0.00000000000E+00  0.00000000000E+00 -0.55751935111E+03  0.40394310471E+04  0.40007718452E+04 0.  0.
        5    1    3    3  502    0 -0.19123543900E+04  0.58647835100E+03 -0.25697387090E+03  0.20167086625E+04  0.46999998093E+01 0. -1.
       -5    1    3    3    0  502  0.19123543900E+04 -0.58647835100E+03 -0.30054548021E+03  0.20227223845E+04  0.46999998093E+01 0.  1.
</event>
<event>
 5   0  0.6645526E-09  0.4001032E+04  0.7818609E-02  0.8004338E-01
        2   -1    0    0  501    0  0.00000000000E+00  0.00000000000E+00  0.17338902860E+04  0.17338902860E+04  0.25500000920E-02 0.  1.
       -2   -1    0    0    0  501  0.00000000000E+00  0.00000000000E+00 -0.23081416139E+04  0.23081416139E+04  0.25500000920E-02 0. -1.
    10030    2    1    2    0    0  0.00000000000E+00  0.00000000000E+00 -0.57425132793E+03  0.40420318999E+04  0.40010320284E+04 0.  0.
        3    1    3    3  502    0 -0.18752388576E+04  0.54572991329E+03  0.15058362111E+03  0.19588306074E+04  0.10100000352E+00 0. -1.
       -3    1    3    3    0  502  0.18752388576E+04 -0.54572991329E+03 -0.72483494904E+03  0.20832012925E+04  0.10100000352E+00 0.  1.
</event>
<event>
 5   0  0.6645526E-09  0.4001485E+04  0.7818609E-02  0.8004247E-01
        2   -1    0    0  501    0  0.00000000000E+00  0.00000000000E+00  0.25916649078E+04  0.25916649078E+04  0.25500000920E-02 0.  1.
       -2   -1    0    0    0  501  0.00000000000E+00  0.00000000000E+00 -0.15445556078E+04  0.15445556078E+04  0.25500000920E-02 0. -1.
    10030    2    1    2    0    0  0.00000000000E+00  0.00000000000E+00  0.10471093000E+04  0.41362205156E+04  0.40014850078E+04 0.  0.
        3    1    3    3  502    0  0.16169761826E+04 -0.69798767225E+03 -0.45771029583E+03  0.18196970877E+04  0.10100000352E+00 0.  1.
       -3    1    3    3    0  502 -0.16169761826E+04  0.69798767225E+03  0.15048195959E+04  0.23165234279E+04  0.10100000352E+00 0. -1.
</event>
<event>
 5   0  0.2078125E-09  0.4000776E+04  0.7818609E-02  0.8004390E-01
        1   -1    0    0  501    0  0.00000000000E+00  0.00000000000E+00  0.13146601555E+04  0.13146601555E+04  0.50400001928E-02 0. -1.
       -1   -1    0    0    0  501  0.00000000000E+00  0.00000000000E+00 -0.30437925466E+04  0.30437925466E+04  0.50400001928E-02 0.  1.
    10030    2    1    2    0    0  0.00000000000E+00  0.00000000000E+00 -0.17291323911E+04  0.43584527021E+04  0.40007763160E+04 0.  0.
        1    1    3    3  502    0  0.16577458030E+04 -0.60800510005E+03 -0.18886973778E+04  0.25855307258E+04  0.50400001928E-02 0.  1.
       -1    1    3    3    0  502 -0.16577458030E+04  0.60800510005E+03  0.15956498671E+03  0.17729219763E+04  0.50400001928E-02 0. -1.
</event>
<event>
 5   0  0.2078125E-09  0.4008489E+04  0.7818609E-02  0.8002836E-01
       -1   -1    0    0    0  501  0.00000000000E+00  0.00000000000E+00  0.21355238110E+04  0.21355238110E+04  0.50400001928E-02 0.  1.
        1   -1    0    0  501    0  0.00000000000E+00  0.00000000000E+00 -0.18810355941E+04  0.18810355941E+04  0.50400001928E-02 0. -1.
    10030    2    1    2    0    0  0.00000000000E+00  0.00000000000E+00  0.25448821692E+03  0.40165594051E+04  0.40084891421E+04 0.  0.
        4    1    3    3  502    0  0.33784213459E+03 -0.14062491227E+04  0.15175969623E+04  0.20963721177E+04  0.12699999809E+01 0.  1.
       -4    1    3    3    0  502 -0.33784213459E+03  0.14062491227E+04 -0.12631087454E+04  0.19201872874E+04  0.12699999809E+01 0. -1.
</event>
<event>
 5   0  0.2078125E-09  0.3991694E+04  0.7818609E-02  0.8006224E-01
        1   -1    0    0  501    0  0.00000000000E+00  0.00000000000E+00  0.16633943151E+04  0.16633943151E+04  0.50400001928E-02 0. -1.
       -1   -1    0    0    0  501  0.00000000000E+00  0.00000000000E+00 -0.23947449223E+04  0.23947449223E+04  0.50400001928E-02 0.  1.
    10030    2    1    2    0    0  0.00000000000E+00  0.00000000000E+00 -0.73135060722E+03  0.40581392375E+04  0.39916939211E+04 0.  0.
        1    1    3    3  502    0 -0.38143808655E+03  0.35075109287E+03 -0.23251620260E+04  0.23822048170E+04  0.50400001928E-02 0.  1.
       -1    1    3    3    0  502  0.38143808655E+03 -0.35075109287E+03  0.15938114188E+04  0.16759344205E+04  0.50400001928E-02 0. -1.
</event>
<event>
 5   0  0.2078125E-09  0.4000795E+04  0.7818609E-02  0.8004386E-01
        1   -1    0    0  501    0  0.00000000000E+00  0.00000000000E+00  0.17603488798E+04  0.17603488799E+04  0.50400001928E-02 0.  1.
       -1   -1    0    0    0  501  0.00000000000E+00  0.00000000000E+00 -0.22731798338E+04  0.22731798338E+04  0.50400001928E-02 0. -1.
    10030    2    1    2    0    0  0.00000000000E+00  0.00000000000E+00 -0.51283095398E+03  0.40335287137E+04  0.40007947082E+04 0.  0.
        5    1    3    3  502    0 -0.86351631624E+02  0.12813120614E+02 -0.22712529451E+04  0.22729348453E+04  0.46999998093E+01 0. -1.
       -5    1    3    3    0  502  0.86351631624E+02 -0.12813120614E+02  0.17584219912E+04  0.17605938684E+04  0.46999998093E+01 0.  1.
</event>
<event>
 5   0  0.2078125E-09  0.3999183E+04  0.7818609E-02  0.8004711E-01
        1   -1    0    0  501    0  0.00000000000E+00  0.00000000000E+00  0.19566556514E+04  0.19566556514E+04  0.50400001928E-02 0.  1.
       -1   -1    0    0    0  501  0.00000000000E+00  0.00000000000E+00 -0.20434692794E+04  0.20434692794E+04  0.50400001928E-02 0. -1.
    10030    2    1    2    0    0  0.00000000000E+00  0.00000000000E+00 -0.86813627989E+02  0.40001249308E+04  0.39991827735E+04 0.  0.
        4    1    3    3  502    0 -0.89099540793E+03 -0.16347771410E+04  0.68614488086E+03  0.19842292025E+04  0.12699999809E+01 0.  1.
       -4    1    3    3    0  502  0.89099540793E+03  0.16347771410E+04 -0.77295850885E+03  0.20158957282E+04  0.12699999809E+01 0. -1.
</event>
<event>
 5   0  0.2078125E-09  0.4001971E+04  0.7818609E-02  0.8004149E-01
        1   -1    0    0  501    0  0.00000000000E+00  0.00000000000E+00  0.22429167131E+04  0.22429167131E+04  0.50400001928E-02 0.  1.
       -1   -1    0    0    0  501  0.00000000000E+00  0.00000000000E+00 -0.17851501384E+04  0.17851501384E+04  0.50400001928E-02 0. -1.
    10030    2    1    2    0    0  0.00000000000E+00  0.00000000000E+00  0.45776657470E+03  0.40280668514E+04  0.40019710547E+04 0.  0.
        2    1    3    3  502    0  0.19087448251E+04  0.31778999864E+03 -0.28399388478E+03  0.19557478920E+04  0.25500000920E-02 0. -1.
       -2    1    3    3    0  502 -0.19087448251E+04 -0.31778999864E+03  0.74176045948E+03  0.20723189595E+04  0.25500000920E-02 0.  1.
</event>
<event>
 5   0  0.6599276E-09  0.3999579E+04  0.7818609E-02  0.8004631E-01
        2   -1    0    0  501    0  0.00000000000E+00  0.00000000000E+00  0.31321144413E+04  0.31321144413E+04  0.25500000920E-02 0.  1.
       -2   -1    0    0    0  501  0.00000000000E+00  0.00000000000E+00 -0.12768240282E+04  0.12768240282E+04  0.25500000920E-02 0. -1.
    10030    2    1    2    0    0  0.00000000000E+00  0.00000000000E+00  0.18552904131E+04  0.44089384696E+04  0.39995794668E+04 0.  0.
        2    1    3    3  502    0  0.44617600884E+03 -0.41850622520E+03  0.30264402428E+04  0.30876465204E+04  0.25500000920E-02 0.  1.
       -2    1    3    3    0  502 -0.44617600884E+03  0.41850622520E+03 -0.11711498297E+04  0.13212919492E+04  0.25500000920E-02 0. -1.
</event>
<event>
 5   0  0.2078125E-09  0.3997744E+04  0.7818609E-02  0.8005002E-01
        1   -1    0    0  501    0  0.00000000000E+00  0.00000000000E+00  0.11004483726E+04  0.11004483726E+04  0.50400001928E-02 0. -1.
       -1   -1    0    0    0  501  0.00000000000E+00  0.00000000000E+00 -0.36307824519E+04  0.36307824519E+04  0.50400001928E-02 0.  1.
    10030    2    1    2    0    0  0.00000000000E+00  0.00000000000E+00 -0.25303340793E+04  0.47312308245E+04  0.39977436839E+04 0.  0.
        5    1    3    3  502    0  0.79541695144E+03 -0.17529853943E+04 -0.19022908562E+04  0.27063589028E+04  0.46999998093E+01 0.  1.
       -5    1    3    3    0  502 -0.79541695144E+03  0.17529853943E+04 -0.62804322309E+03  0.20248719217E+04  0.46999998093E+01 0. -1.
</event>
<event>
 5   0  0.2078125E-09  0.3998935E+04  0.7818609E-02  0.8004761E-01
        1   -1    0    0  501    0  0.00000000000E+00  0.00000000000E+00  0.24706957602E+04  0.24706957602E+04  0.50400001928E-02 0.  1.
       -1   -1    0    0    0  501  0.00000000000E+00  0.00000000000E+00 -0.16181153156E+04  0.16181153157E+04  0.50400001928E-02 0. -1.
    10030    2    1    2    0    0  0.00000000000E+00  0.00000000000E+00  0.85258044459E+03  0.40888110759E+04  0.39989351833E+04 0.  0.
        3    1    3    3  502    0 -0.80951731582E+03  0.12277835630E+04 -0.95881425332E+03  0.17555897997E+04  0.10100000352E+00 0. -1.
       -3    1    3    3    0  502  0.80951731582E+03 -0.12277835630E+04  0.18113946979E+04  0.23332212762E+04  0.10100000352E+00 0.  1.
</event>
<event>
 5   0  0.6599276E-09  0.4017364E+04  0.7818609E-02  0.8001053E-01
        2   -1    0    0  501    0  0.00000000000E+00  0.00000000000E+00  0.22375792478E+04  0.22375792478E+04  0.25500000920E-02 0. -1.
       -2   -1    0    0    0  501  0.00000000000E+00  0.00000000000E+00 -0.18032005521E+04  0.18032005521E+04  0.25500000920E-02 0.  1.
    10030    2    1    2    0    0  0.00000000000E+00  0.00000000000E+00  0.43437869573E+03  0.40407797999E+04  0.40173643773E+04 0.  0.
        2    1    3    3  502    0  0.68958975608E+03 -0.18807708587E+04  0.68098952430E+02  0.20043628718E+04  0.25500000920E-02 0.  1.
       -2    1    3    3    0  502 -0.68958975608E+03  0.18807708587E+04  0.36627974330E+03  0.20364169281E+04  0.25500000920E-02 0. -1.
</event>
<event>
 5   0  0.2078125E-09  0.4001301E+04  0.7818609E-02  0.8004284E-01
       -1   -1    0    0    0  501  0.00000000000E+00  0.00000000000E+00  0.24864380704E+04  0.24864380704E+04  0.50400001928E-02 0. -1.
        1   -1    0    0  501    0  0.00000000000E+00  0.00000000000E+00 -0.16097740207E+04  0.16097740207E+04  0.50400001928E-02 0.  1.
    10030    2    1    2    0    0  0.00000000000E+00  0.00000000000E+00  0.87666404973E+03  0.40962120911E+04  0.40013014931E+04 0.  0.
        2    1    3    3  502    0 -0.63939952053E+03  0.17423594809E+04  0.12030138809E+04  0.22117619007E+04  0.25500000920E-02 0. -1.
       -2    1    3    3    0  502  0.63939952053E+03 -0.17423594809E+04 -0.32634983119E+03  0.18844501904E+04  0.25500000920E-02 0.  1.
</event>
<event>
 5   0  0.2078125E-09  0.4000467E+04  0.7818609E-02  0.8004452E-01
        1   -1    0    0  501    0  0.00000000000E+00  0.00000000000E+00  0.21397527276E+04  0.21397527276E+04  0.50400001928E-02 0.  1.
       -1   -1    0    0    0  501  0.00000000000E+00  0.00000000000E+00 -0.18698115877E+04  0.18698115878E+04  0.50400001928E-02 0. -1.
    10030    2    1    2    0    0  0.00000000000E+00  0.00000000000E+00  0.26994113990E+03  0.40095643154E+04  0.40004671953E+04 0.  0.
        5    1    3    3  502    0 -0.38406555881E+02  0.14374407258E+04  0.15285284999E+04  0.20986024799E+04  0.46999998093E+01 0.  1.
       -5    1    3    3    0  502  0.38406555881E+02 -0.14374407258E+04 -0.12585873600E+04  0.19109618355E+04  0.46999998093E+01 0. -1.
</event>
<event>
 5   0  0.6736335E-09  0.3999324E+04  0.7818609E-02  0.8004683E-01
        2   -1    0    0  501    0  0.00000000000E+00  0.00000000000E+00  0.21839702876E+04  0.21839702876E+04  0.25500000920E-02 0. -1.
       -2   -1    0    0    0  501  0.00000000000E+00  0.00000000000E+00 -0.18309079028E+04  0.18309079028E+04  0.25500000920E-02 0.  1.
    10030    2    1    2    0    0  0.00000000000E+00  0.00000000000E+00  0.35306238478E+03  0.40148781904E+04  0.39993241724E+04 0.  0.
        1    1    3    3  502    0  0.10469517270E+04 -0.30316037616E+03 -0.15064836208E+04  0.18594372891E+04  0.50400001928E-02 0.  1.
       -1    1    3    3    0  502 -0.10469517270E+04  0.30316037616E+03  0.18595460055E+04  0.21554409013E+04  0.50400001928E-02 0. -1.
</event>
<event>
 5   0  0.6599276E-09  0.4010383E+04  0.7818609E-02  0.8002455E-01
       -2   -1    0    0    0  501  0.00000000000E+00  0.00000000000E+00  0.25931237598E+04  0.25931237598E+04  0.25500000920E-02 0. -1.
        2   -1    0    0  501    0  0.00000000000E+00  0.00000000000E+00 -0.15505598617E+04  0.15505598617E+04  0.25500000920E-02 0.  1.
    10030    2    1    2    0    0  0.00000000000E+00  0.00000000000E+00  0.10425638981E+04  0.41436836215E+04  0.40103833325E+04 0.  0.
        2    1    3    3  502    0  0.88220574611E+02  0.81503014125E+03 -0.13694989121E+04  0.15961153690E+04  0.25500000920E-02 0.  1.
       -2    1    3    3    0  502 -0.88220574611E+02 -0.81503014125E+03  0.24120628102E+04  0.25475682525E+04  0.25500000920E-02 0. -1.
</event>
<event>
 5   0  0.6538370E-09  0.4000515E+04  0.7818609E-02  0.8004443E-01
       -2   -1    0    0    0  501  0.00000000000E+00  0.00000000000E+00  0.15680188249E+04  0.15680188249E+04  0.25500000920E-02 0. -1.
        2   -1    0    0  501    0  0.00000000000E+00  0.00000000000E+00 -0.25516471355E+04  0.25516471355E+04  0.25500000920E-02 0.  1.
    10030    2    1    2    0    0  0.00000000000E+00  0.00000000000E+00 -0.98362831060E+03  0.41196659605E+04  0.40005153383E+04 0.  0.
        4    1    3    3  502    0 -0.13851372407E+04 -0.14225688162E+04 -0.24227070342E+03  0.20002509640E+04  0.12699999809E+01 0. -1.
       -4    1    3    3    0  502  0.13851372407E+04  0.14225688162E+04 -0.74135760718E+03  0.21194149964E+04  0.12699999809E+01 0.  1.
</event>
<event>
 5   0  0.6547327E-09  0.3999295E+04  0.7818609E-02  0.8004689E-01
        2   -1    0    0  501    0  0.00000000000E+00  0.00000000000E+00  0.19874425082E+04  0.19874425082E+04  0.25500000920E-02 0.  1.
       -2   -1    0    0    0  501  0.00000000000E+00  0.00000000000E+00 -0.20119275077E+04  0.20119275077E+04  0.25500000920E-02 0. -1.
    10030    2    1    2    0    0  0.00000000000E+00  0.00000000000E+00 -0.24484999539E+02  0.39993700159E+04  0.39992950640E+04 0.  0.
        5    1    3    3  502    0  0.16538721664E+04 -0.84636745747E+03  0.72732335058E+03  0.19951572274E+04  0.46999998093E+01 0. -1.
       -5    1    3    3    0  502 -0.16538721664E+04  0.84636745747E+03 -0.75180835012E+03  0.20042127884E+04  0.46999998093E+01 0.  1.
</event>
<event>
 5   0  0.6538370E-09  0.3991608E+04  0.7818609E-02  0.8006242E-01
       -2   -1    0    0    0  501  0.00000000000E+00  0.00000000000E+00  0.23664385675E+04  0.23664385675E+04  0.25500000920E-02 0.  1.
        2   -1    0    0  501    0  0.00000000000E+00  0.00000000000E+00 -0.16832188864E+04  0.16832188864E+04  0.25500000920E-02 0. -1.
    10030    2    1    2    0    0  0.00000000000E+00  0.00000000000E+00  0.68321968110E+03  0.40496574538E+04  0.39916082424E+04 0.  0.
        4    1    3    3  502    0  0.46132449013E+03 -0.13360338133E+04 -0.10879331280E+04  0.17836498366E+04  0.12699999809E+01 0. -1.
       -4    1    3    3    0  502 -0.46132449013E+03  0.13360338133E+04  0.17711528091E+04  0.22660076173E+04  0.12699999809E+01 0.  1.
</event>
<event>
 5   0  0.6736335E-09  0.3997892E+04  0.7818609E-02  0.8004972E-01
       -2   -1    0    0    0  501  0.00000000000E+00  0.00000000000E+00  0.19997997655E+04  0.19997997655E+04  0.25500000920E-02 0.  1.
        2   -1    0    0  501    0  0.00000000000E+00  0.00000000000E+00 -0.19980923563E+04  0.19980923563E+04  0.25500000920E-02 0. -1.
    10030    2    1    2    0    0  0.00000000000E+00  0.00000000000E+00  0.17074091588E+01  0.39978921218E+04  0.39978917572E+04 0.  0.
        1    1    3    3  502    0 -0.10025860179E+04  0.15493222597E+04 -0.76739530818E+03  0.19986179592E+04  0.50400001928E-02 0. -1.
       -1    1    3    3    0  502  0.10025860179E+04 -0.15493222597E+04  0.76910271734E+03  0.19992741627E+04  0.50400001928E-02 0.  1.
</event>
<event>
 5   0  0.2078125E-09  0.4000552E+04  0.7818609E-02  0.8004435E-01
        1   -1    0    0  501    0  0.00000000000E+00  0.00000000000E+00  0.24324791071E+04  0.24324791071E+04  0.50400001928E-02 0. -1.
       -1   -1    0    0    0  501  0.00000000000E+00  0.00000000000E+00 -0.16448669461E+04  0.16448669461E+04  0.50400001928E-02 0.  1.
    10030    2    1    2    0    0  0.00000000000E+00  0.00000000000E+00  0.78761216096E+03  0.40773460532E+04  0.40005522021E+04 0.  0.
        4    1    3    3  502    0 -0.13925516143E+03 -0.39059349905E+03  0.23881896313E+04  0.24239238044E+04  0.12699999809E+01 0. -1.
       -4    1    3    3    0  502  0.13925516143E+03  0.39059349905E+03 -0.16005774704E+04  0.16534222488E+04  0.12699999809E+01 0.  1.
</event>
<event>
 5   0  0.6599276E-09  0.4001876E+04  0.7818609E-02  0.8004168E-01
       -2   -1    0    0    0  501  0.00000000000E+00  0.00000000000E+00  0.17654266674E+04  0.17654266674E+04  0.25500000920E-02 0.  1.
        2   -1    0    0  501    0  0.00000000000E+00  0.00000000000E+00 -0.22678674933E+04  0.22678674933E+04  0.25500000920E-02 0. -1.
    10030    2    1    2    0    0  0.00000000000E+00  0.00000000000E+00 -0.50244082586E+03  0.40332941607E+04  0.40018764353E+04 0.  0.
        2    1    3    3  502    0  0.91872046758E+03 -0.15453267503E+04 -0.11365653458E+04  0.21269374340E+04  0.25500000920E-02 0. -1.
       -2    1    3    3    0  502 -0.91872046758E+03  0.15453267503E+04  0.63412451997E+03  0.19063567267E+04  0.25500000920E-02 0.  1.
</event>
<event>
 5   0  0.6645526E-09  0.3999434E+04  0.7818609E-02  0.8004661E-01
        2   -1    0    0  501    0  0.00000000000E+00  0.00000000000E+00  0.12356167010E+04  0.12356167010E+04  0.25500000920E-02 0. -1.
       -2   -1    0    0    0  501  0.00000000000E+00  0.00000000000E+00 -0.32363341160E+04  0.32363341160E+04  0.25500000920E-02 0.  1.
    10030    2    1    2    0    0  0.00000000000E+00  0.00000000000E+00 -0.20007174150E+04  0.44719508170E+04  0.39994342019E+04 0.  0.
        3    1    3    3  502    0  0.52482543858E+03 -0.19292094544E+04 -0.10447705516E+04  0.22558449360E+04  0.10100000352E+00 0.  1.
       -3    1    3    3    0  502 -0.52482543858E+03  0.19292094544E+04 -0.95594686343E+03  0.22161058810E+04  0.10100000352E+00 0. -1.
</event>
<event>
 5   0  0.6547327E-09  0.4000729E+04  0.7818609E-02  0.8004399E-01
        2   -1    0    0  501    0  0.00000000000E+00  0.00000000000E+00  0.15503060534E+04  0.15503060534E+04  0.25500000920E-02 0.  1.
       -2   -1    0    0    0  501  0.00000000000E+00  0.00000000000E+00 -0.25810763670E+04  0.25810763670E+04  0.25500000920E-02 0. -1.
    10030    2    1    2    0    0  0.00000000000E+00  0.00000000000E+00 -0.10307703136E+04  0.41313824204E+04  0.40007290916E+04 0.  0.
        5    1    3    3  502    0 -0.79892980913E+03 -0.16442008122E+04  0.32339144373E+03  0.18564183975E+04  0.46999998093E+01 0. -1.
       -5    1    3    3    0  502  0.79892980913E+03  0.16442008122E+04 -0.13541617573E+04  0.22749640229E+04  0.46999998093E+01 0.  1.
</event>
<event>
 5   0  0.6736335E-09  0.3996378E+04  0.7818609E-02  0.8005278E-01
       -2   -1    0    0    0  501  0.00000000000E+00  0.00000000000E+00  0.13785839940E+04  0.13785839940E+04  0.25500000920E-02 0. -1.
        2   -1    0    0  501    0  0.00000000000E+00  0.00000000000E+00 -0.28962753794E+04  0.28962753794E+04  0.25500000920E-02 0.  1.
    10030    2    1    2    0    0  0.00000000000E+00  0.00000000000E+00 -0.15176913854E+04  0.42748593734E+04  0.39963778000E+04 0.  0.
        1    1    3    3  502    0 -0.18142026962E+04 -0.14708239099E+03  0.12310444246E+03  0.18243133931E+04  0.50400001928E-02 0.  1.
       -1    1    3    3    0  502  0.18142026962E+04  0.14708239099E+03 -0.16407958279E+04  0.24505459803E+04  0.50400001928E-02 0. -1.
</event>
<event>
 5   0  0.2078125E-09  0.3999998E+04  0.7818609E-02  0.8004547E-01
       -1   -1    0    0    0  501  0.00000000000E+00  0.00000000000E+00  0.13850761196E+04  0.13850761196E+04  0.50400001928E-02 0.  1.
        1   -1    0    0  501    0  0.00000000000E+00  0.00000000000E+00 -0.28879247053E+04  0.28879247053E+04  0.50400001928E-02 0. -1.
    10030    2    1    2    0    0  0.00000000000E+00  0.00000000000E+00 -0.15028485857E+04  0.42730008250E+04  0.39999977723E+04 0.  0.
        1    1    3    3  502    0  0.30623475322E+03 -0.18789433114E+04 -0.96570124710E+02  0.19061829609E+04  0.50400001928E-02 0.  1.
       -1    1    3    3    0  502 -0.30623475322E+03  0.18789433114E+04 -0.14062784610E+04  0.23668178640E+04  0.50400001928E-02 0. -1.
</event>
<event>
 5   0  0.6599276E-09  0.4002149E+04  0.7818609E-02  0.8004113E-01
        2   -1    0    0  501    0  0.00000000000E+00  0.00000000000E+00  0.15337775735E+04  0.15337775735E+04  0.25500000920E-02 0.  1.
       -2   -1    0    0    0  501  0.00000000000E+00  0.00000000000E+00 -0.26107434355E+04  0.26107434355E+04  0.25500000920E-02 0. -1.
    10030    2    1    2    0    0  0.00000000000E+00  0.00000000000E+00 -0.10769658619E+04  0.41445210090E+04  0.40021492884E+04 0.  0.
        2    1    3    3  502    0 -0.19948958614E+04 -0.15164742143E+03 -0.58109642656E+03  0.20833337455E+04  0.25500000920E-02 0.  1.
       -2    1    3    3    0  502  0.19948958614E+04  0.15164742143E+03 -0.49586943537E+03  0.20611872635E+04  0.25500000920E-02 0. -1.
</event>
<event>
 5   0  0.2078125E-09  0.4001088E+04  0.7818609E-02  0.8004327E-01
       -1   -1    0    0    0  501  0.00000000000E+00  0.00000000000E+00  0.21743632951E+04  0.21743632952E+04  0.50400001928E-02 0.  1.
        1   -1    0    0  501    0  0.00000000000E+00  0.00000000000E+00 -0.18406199123E+04  0.18406199123E+04  0.50400001928E-02 0. -1.
    10030    2    1    2    0    0  0.00000000000E+00  0.00000000000E+00  0.33374338289E+03  0.40149832074E+04  0.40010880408E+04 0.  0.
        5    1    3    3  502    0  0.13010144182E+04  0.68159349275E+03  0.15298767406E+04  0.21207906868E+04  0.46999998093E+01 0.  1.
       -5    1    3    3    0  502 -0.13010144182E+04 -0.68159349275E+03 -0.11961333577E+04  0.18941925206E+04  0.46999998093E+01 0. -1.
</event>
<event>
 5   0  0.6547327E-09  0.3999471E+04  0.7818609E-02  0.8004653E-01
        2   -1    0    0  501    0  0.00000000000E+00  0.00000000000E+00  0.29726808929E+04  0.29726808929E+04  0.25500000920E-02 0. -1.
       -2   -1    0    0    0  501  0.00000000000E+00  0.00000000000E+00 -0.13452308071E+04  0.13452308071E+04  0.25500000920E-02 0.  1.
    10030    2    1    2    0    0  0.00000000000E+00  0.00000000000E+00  0.16274500858E+04  0.43179117001E+04  0.39994709235E+04 0.  0.
        5    1    3    3  502    0 -0.18733974391E+04 -0.69927548623E+03  0.83290636319E+03  0.21661854192E+04  0.46999998093E+01 0.  1.
       -5    1    3    3    0  502  0.18733974391E+04  0.69927548623E+03  0.79454372262E+03  0.21517262809E+04  0.46999998093E+01 0. -1.
</event>
<event>
 5   0  0.2078125E-09  0.4002113E+04  0.7818609E-02  0.8004120E-01
        1   -1    0    0  501    0  0.00000000000E+00  0.00000000000E+00  0.15712534492E+04  0.15712534492E+04  0.50400001928E-02 0. -1.
       -1   -1    0    0    0  501  0.00000000000E+00  0.00000000000E+00 -0.25484290072E+04  0.25484290072E+04  0.50400001928E-02 0.  1.
    10030    2    1    2    0    0  0.00000000000E+00  0.00000000000E+00 -0.97717555799E+03  0.41196824565E+04  0.40021133756E+04 0.  0.
        4    1    3    3  502    0  0.77621212343E+02  0.51106119570E+03  0.15013382344E+04  0.15878371155E+04  0.12699999809E+01 0. -1.
       -4    1    3    3    0  502 -0.77621212343E+02 -0.51106119570E+03 -0.24785137924E+04  0.25318453410E+04  0.12699999809E+01 0.  1.
</event>
<event>
 5   0  0.6538370E-09  0.3999171E+04  0.7818609E-02  0.8004714E-01
        2   -1    0    0  501    0  0.00000000000E+00  0.00000000000E+00  0.24717949875E+04  0.24717949875E+04  0.25500000920E-02 0. -1.
       -2   -1    0    0    0  501  0.00000000000E+00  0.00000000000E+00 -0.16175868619E+04  0.16175868619E+04  0.25500000920E-02 0.  1.
    10030    2    1    2    0    0  0.00000000000E+00  0.00000000000E+00  0.85420812558E+03  0.40893818494E+04  0.39991714628E+04 0.  0.
        4    1    3    3  502    0  0.16948562179E+04 -0.70517656643E+03 -0.38357808580E+03  0.18753520603E+04  0.12699999809E+01 0.  1.
       -4    1    3    3    0  502 -0.16948562179E+04  0.70517656643E+03  0.12377862114E+04  0.22140297891E+04  0.12699999809E+01 0. -1.
</event>
<event>
 5   0  0.2078125E-09  0.4000564E+04  0.7818609E-02  0.8004433E-01
        1   -1    0    0  501    0  0.00000000000E+00  0.00000000000E+00  0.12630292206E+04  0.12630292206E+04  0.50400001928E-02 0.  1.
       -1   -1    0    0    0  501  0.00000000000E+00  0.00000000000E+00 -0.31678827701E+04  0.31678827701E+04  0.50400001928E-02 0. -1.
    10030    2    1    2    0    0  0.00000000000E+00  0.00000000000E+00 -0.19048535494E+04  0.44309119907E+04  0.40005642133E+04 0.  0.
        1    1    3    3  502    0 -0.64333631590E+03 -0.18310179363E+04 -0.14889080714E+04  0.24460898478E+04  0.50400001928E-02 0.  1.
       -1    1    3    3    0  502  0.64333631590E+03  0.18310179363E+04 -0.41594547802E+03  0.19848221429E+04  0.50400001928E-02 0. -1.
</event>
<event>
 5   0  0.6736335E-09  0.4000117E+04  0.7818609E-02  0.8004523E-01
        2   -1    0    0  501    0  0.00000000000E+00  0.00000000000E+00  0.14765763314E+04  0.14765763314E+04  0.25500000920E-02 0.  1.
       -2   -1    0    0    0  501  0.00000000000E+00  0.00000000000E+00 -0.27091275578E+04  0.27091275578E+04  0.25500000920E-02 0. -1.
    10030    2    1    2    0    0  0.00000000000E+00  0.00000000000E+00 -0.12325512264E+04  0.41857038891E+04  0.40001168135E+04 0.  0.
        1    1    3    3  502    0 -0.10122473823E+04 -0.14257504225E+04  0.39976549722E+03  0.17936614739E+04  0.50400001928E-02 0.  1.
       -1    1    3    3    0  502  0.10122473823E+04  0.14257504225E+04 -0.16323167236E+04  0.23920424153E+04  0.50400001928E-02 0. -1.
</event>
<event>
 5   0  0.2078125E-09  0.3999917E+04  0.7818609E-02  0.8004563E-01
       -1   -1    0    0    0  501  0.00000000000E+00  0.00000000000E+00  0.20595447696E+04  0.20595447696E+04  0.50400001928E-02 0.  1.
        1   -1    0    0  501    0  0.00000000000E+00  0.00000000000E+00 -0.19420963631E+04  0.19420963631E+04  0.50400001928E-02 0. -1.
    10030    2    1    2    0    0  0.00000000000E+00  0.00000000000E+00  0.11744840650E+03  0.40016411326E+04  0.39999172024E+04 0.  0.
        4    1    3    3  502    0  0.88972424349E+03  0.11449149454E+04 -0.13193284826E+04  0.19603746376E+04  0.12699999809E+01 0. -1.
       -4    1    3    3    0  502 -0.88972424349E+03 -0.11449149454E+04  0.14367768891E+04  0.20412664950E+04  0.12699999809E+01 0.  1.
</event>
<event>
 5   0  0.6645526E-09  0.4000403E+04  0.7818609E-02  0.8004465E-01
        2   -1    0    0  501    0  0.00000000000E+00  0.00000000000E+00  0.23376244462E+04  0.23376244462E+04  0.25500000920E-02 0. -1.
       -2   -1    0    0    0  501  0.00000000000E+00  0.00000000000E+00 -0.17114832660E+04  0.17114832660E+04  0.25500000920E-02 0.  1.
    10030    2    1    2    0    0  0.00000000000E+00  0.00000000000E+00  0.62614118014E+03  0.40491077122E+04  0.40004025407E+04 0.  0.
        3    1    3    3  502    0 -0.29472833765E+03  0.13353474211E+04 -0.11644233697E+04  0.17960788741E+04  0.10100000352E+00 0.  1.
       -3    1    3    3    0  502  0.29472833765E+03 -0.13353474211E+04  0.17905645498E+04  0.22530288381E+04  0.10100000352E+00 0. -1.
</event>
<event>
 5   0  0.2078125E-09  0.4002310E+04  0.7818609E-02  0.8004081E-01
       -1   -1    0    0    0  501  0.00000000000E+00  0.00000000000E+00  0.31710825905E+04  0.31710825905E+04  0.50400001928E-02 0.  1.
        1   -1    0    0  501    0  0.00000000000E+00  0.00000000000E+00 -0.12628559675E+04  0.12628559675E+04  0.50400001928E-02 0. -1.
    10030    2    1    2    0    0  0.00000000000E+00  0.00000000000E+00  0.19082266229E+04  0.44339385580E+04  0.40023096197E+04 0.  0.
        3    1    3    3  502    0  0.12080251997E+03  0.19614708195E+04  0.13725496513E+04  0.23970510174E+04  0.10100000352E+00 0. -1.
       -3    1    3    3    0  502 -0.12080251997E+03 -0.19614708195E+04  0.53567697162E+03  0.20368875406E+04  0.10100000352E+00 0.  1.
</event>
<event>
 5   0  0.6736335E-09  0.3999233E+04  0.7818609E-02  0.8004701E-01
        2   -1    0    0  501    0  0.00000000000E+00  0.00000000000E+00  0.24411949337E+04  0.24411949337E+04  0.25500000920E-02 0. -1.
       -2   -1    0    0    0  501  0.00000000000E+00  0.00000000000E+00 -0.16379138070E+04  0.16379138070E+04  0.25500000920E-02 0.  1.
    10030    2    1    2    0    0  0.00000000000E+00  0.00000000000E+00  0.80328112678E+03  0.40791087407E+04  0.39992333703E+04 0.  0.
        1    1    3    3  502    0 -0.11878579779E+04 -0.56435684973E+03 -0.11347517078E+04  0.17369993287E+04  0.50400001928E-02 0.  1.
       -1    1    3    3    0  502  0.11878579779E+04  0.56435684973E+03  0.19380328346E+04  0.23421094120E+04  0.50400001928E-02 0. -1.
</event>
<event>
 5   0  0.2078125E-09  0.3999998E+04  0.7818609E-02  0.8004547E-01
       -1   -1    0    0    0  501  0.00000000000E+00  0.00000000000E+00  0.19000336038E+04  0.19000336038E+04  0.50400001928E-02 0.  1.
        1   -1    0    0  501    0  0.00000000000E+00  0.00000000000E+00 -0.21052242401E+04  0.21052242401E+04  0.50400001928E-02 0. -1.
    10030    2    1    2    0    0  0.00000000000E+00  0.00000000000E+00 -0.20519063635E+03  0.40052578440E+04  0.39999983999E+04 0.  0.
        4    1    3    3  502    0 -0.14716950733E+04  0.13542509347E+04 -0.11324903993E+03  0.20031747155E+04  0.12699999809E+01 0. -1.
       -4    1    3    3    0  502  0.14716950733E+04 -0.13542509347E+04 -0.91941596417E+02  0.20020831284E+04  0.12699999809E+01 0.  1.
</event>
<event>
 5   0  0.6645526E-09  0.3999731E+04  0.7818609E-02  0.8004601E-01
       -2   -1    0    0    0  501  0.00000000000E+00  0.00000000000E+00  0.23198743075E+04  0.23198743075E+04  0.25500000920E-02 0.  1.
        2   -1    0    0  501    0  0.00000000000E+00  0.00000000000E+00 -0.17239990344E+04  0.17239990344E+04  0.25500000920E-02 0. -1.
    10030    2    1    2    0    0  0.00000000000E+00  0.00000000000E+00  0.59587527303E+03  0.40438733419E+04  0.39997305240E+04 0.  0.
        3    1    3    3  502    0  0.68983532045E+03  0.53998939792E+03  0.21155550326E+04  0.22897673300E+04  0.10100000352E+00 0.  1.
       -3    1    3    3    0  502 -0.68983532045E+03 -0.53998939792E+03 -0.15196797596E+04  0.17541060119E+04  0.10100000352E+00 0. -1.
</event>
<event>
 5   0  0.2078125E-09  0.4001488E+04  0.7818609E-02  0.8004246E-01
        1   -1    0    0  501    0  0.00000000000E+00  0.00000000000E+00  0.17410468359E+04  0.17410468359E+04  0.50400001928E-02 0. -1.
       -1   -1    0    0    0  501  0.00000000000E+00  0.00000000000E+00 -0.22991784264E+04  0.22991784264E+04  0.50400001928E-02 0.  1.
    10030    2    1    2    0    0  0.00000000000E+00  0.00000000000E+00 -0.55813159047E+03  0.40402252623E+04  0.40014883853E+04 0.  0.
        4    1    3    3  502    0 -0.82139300794E+03  0.15992020198E+04 -0.11655413065E+04  0.21425736215E+04  0.12699999809E+01 0.  1.
       -4    1    3    3    0  502  0.82139300794E+03 -0.15992020198E+04  0.60740971601E+03  0.18976516408E+04  0.12699999809E+01 0. -1.
</event>
<event>
 5   0  0.2078125E-09  0.3997829E+04  0.7818609E-02  0.8004985E-01
       -1   -1    0    0    0  501  0.00000000000E+00  0.00000000000E+00  0.22419074983E+04  0.22419074983E+04  0.50400001928E-02 0. -1.
        1   -1    0    0  501    0  0.00000000000E+00  0.00000000000E+00 -0.17822588204E+04  0.17822588204E+04  0.50400001928E-02 0.  1.
    10030    2    1    2    0    0  0.00000000000E+00  0.00000000000E+00  0.45964867789E+03  0.40241663187E+04  0.39978291176E+04 0.  0.
        4    1    3    3  502    0  0.10596864861E+04  0.94561563514E+03 -0.11860456957E+04  0.18503595282E+04  0.12699999809E+01 0. -1.
       -4    1    3    3    0  502 -0.10596864861E+04 -0.94561563514E+03  0.16456943736E+04  0.21738067905E+04  0.12699999809E+01 0.  1.
</event>
<event>
 5   0  0.2078125E-09  0.3999656E+04  0.7818609E-02  0.8004616E-01
       -1   -1    0    0    0  501  0.00000000000E+00  0.00000000000E+00  0.19694481795E+04  0.19694481795E+04  0.50400001928E-02 0.  1.
        1   -1    0    0  501    0  0.00000000000E+00  0.00000000000E+00 -0.20306762738E+04  0.20306762738E+04  0.50400001928E-02 0. -1.
    10030    2    1    2    0    0  0.00000000000E+00  0.00000000000E+00 -0.61228094286E+02  0.40001244534E+04  0.39996558306E+04 0.  0.
        5    1    3    3  502    0  0.10892226090E+04 -0.39939577373E+03  0.15984926187E+04  0.19751262284E+04  0.46999998093E+01 0.  1.
       -5    1    3    3    0  502 -0.10892226090E+04  0.39939577373E+03 -0.16597207130E+04  0.20249982250E+04  0.46999998093E+01 0. -1.
</event>
<event>
 5   0  0.6599276E-09  0.3998436E+04  0.7818609E-02  0.8004862E-01
       -2   -1    0    0    0  501  0.00000000000E+00  0.00000000000E+00  0.15154480194E+04  0.15154480194E+04  0.25500000920E-02 0. -1.
        2   -1    0    0  501    0  0.00000000000E+00  0.00000000000E+00 -0.26374198649E+04  0.26374198649E+04  0.25500000920E-02 0.  1.
    10030    2    1    2    0    0  0.00000000000E+00  0.00000000000E+00 -0.11219718455E+04  0.41528678843E+04  0.39984360496E+04 0.  0.
        2    1    3    3  502    0 -0.10011559870E+04  0.30973921293E+03 -0.23292766900E+04  0.25541694519E+04  0.25500000920E-02 0.  1.
       -2    1    3    3    0  502  0.10011559870E+04 -0.30973921293E+03  0.12073048445E+04  0.15986984324E+04  0.25500000920E-02 0. -1.
</event>
<event>
 5   0  0.6538370E-09  0.4001847E+04  0.7818609E-02  0.8004174E-01
       -2   -1    0    0    0  501  0.00000000000E+00  0.00000000000E+00  0.19607923417E+04  0.19607923417E+04  0.25500000920E-02 0.  1.
        2   -1    0    0  501    0  0.00000000000E+00  0.00000000000E+00 -0.20418757626E+04  0.20418757626E+04  0.25500000920E-02 0. -1.
    10030    2    1    2    0    0  0.00000000000E+00  0.00000000000E+00 -0.81083420881E+02  0.40026681043E+04  0.40018467527E+04 0.  0.
        4    1    3    3  502    0  0.20553224499E+03 -0.14691767966E+04  0.13024806094E+04  0.19741279883E+04  0.12699999809E+01 0.  1.
       -4    1    3    3    0  502 -0.20553224499E+03  0.14691767966E+04 -0.13835640302E+04  0.20285401160E+04  0.12699999809E+01 0. -1.
</event>
<event>
 5   0  0.6547327E-09  0.4001068E+04  0.7818609E-02  0.8004331E-01
        2   -1    0    0  501    0  0.00000000000E+00  0.00000000000E+00  0.28112007093E+04  0.28112007093E+04  0.25500000920E-02 0. -1.
       -2   -1    0    0    0  501  0.00000000000E+00  0.00000000000E+00 -0.14236392763E+04  0.14236392763E+04  0.25500000920E-02 0.  1.
    10030    2    1    2    0    0  0.00000000000E+00  0.00000000000E+00  0.13875614330E+04  0.42348399856E+04  0.40010677292E+04 0.  0.
        5    1    3    3  502    0 -0.11670850480E+04  0.15430996793E+04  0.12323003783E+04  0.22938680088E+04  0.46999998093E+01 0. -1.
       -5    1    3    3    0  502  0.11670850480E+04 -0.15430996793E+04  0.15526105475E+03  0.19409719768E+04  0.46999998093E+01 0.  1.
</event>
<event>
 5   0  0.6547327E-09  0.3999592E+04  0.7818609E-02  0.8004629E-01
       -2   -1    0    0    0  501  0.00000000000E+00  0.00000000000E+00  0.13850498171E+04  0.13850498171E+04  0.25500000920E-02 0.  1.
        2   -1    0    0  501    0  0.00000000000E+00  0.00000000000E+00 -0.28873930833E+04  0.28873930833E+04  0.25500000920E-02 0. -1.
    10030    2    1    2    0    0  0.00000000000E+00  0.00000000000E+00 -0.15023432662E+04  0.42724429004E+04  0.39995916101E+04 0.  0.
        5    1    3    3  502    0 -0.16556550999E+04  0.93386976639E+03 -0.87623438636E+02  0.19028942449E+04  0.46999998093E+01 0.  1.
       -5    1    3    3    0  502  0.16556550999E+04 -0.93386976639E+03 -0.14147198276E+04  0.23695486555E+04  0.46999998093E+01 0. -1.
</event>
<event>
 5   0  0.2078125E-09  0.3998425E+04  0.7818609E-02  0.8004864E-01
       -1   -1    0    0    0  501  0.00000000000E+00  0.00000000000E+00  0.16843178126E+04  0.16843178126E+04  0.50400001928E-02 0. -1.
        1   -1    0    0  501    0  0.00000000000E+00  0.00000000000E+00 -0.23729787503E+04  0.23729787503E+04  0.50400001928E-02 0.  1.
    10030    2    1    2    0    0  0.00000000000E+00  0.00000000000E+00 -0.68866093766E+03  0.40572965630E+04  0.39984248790E+04 0.  0.
        4    1    3    3  502    0 -0.12518950925E+04 -0.73933925148E+03  0.10480926721E+04  0.17923068135E+04  0.12699999809E+01 0. -1.
       -4    1    3    3    0  502  0.12518950925E+04  0.73933925148E+03 -0.17367536097E+04  0.22649897495E+04  0.12699999809E+01 0.  1.
</event>
<event>
 5   0  0.2078125E-09  0.3999559E+04  0.7818609E-02  0.8004636E-01
       -1   -1    0    0    0  501  0.00000000000E+00  0.00000000000E+00  0.13896294183E+04  0.13896294183E+04  0.50400001928E-02 0.  1.
        1   -1    0    0  501    0  0.00000000000E+00  0.00000000000E+00 -0.28778302592E+04  0.28778302592E+04  0.50400001928E-02 0. -1.
    10030    2    1    2    0    0  0.00000000000E+00  0.00000000000E+00 -0.14882008409E+04  0.42674596774E+04  0.39995587701E+04 0.  0.
        1    1    3    3  502    0  0.11323854108E+04 -0.46029347298E+03  0.94461684120E+03  0.15448196582E+04  0.50400001928E-02 0.  1.
       -1    1    3    3    0  502 -0.11323854108E+04  0.46029347298E+03 -0.24328176821E+04  0.27226400192E+04  0.50400001928E-02 0. -1.
</event>
<event>
 5   0  0.6645526E-09  0.3999345E+04  0.7818609E-02  0.8004679E-01
        2   -1    0    0  501    0  0.00000000000E+00  0.00000000000E+00  0.18032780264E+04  0.18032780264E+04  0.25500000920E-02 0. -1.
       -2   -1    0    0    0  501  0.00000000000E+00  0.00000000000E+00 -0.22174564115E+04  0.22174564115E+04  0.25500000920E-02 0.  1.
    10030    2    1    2    0    0  0.00000000000E+00  0.00000000000E+00 -0.41417838510E+03  0.40207344379E+04  0.39993451571E+04 0.  0.
        3    1    3    3  502    0  0.50759545100E+03 -0.10036238504E+04 -0.18693455428E+04  0.21815972918E+04  0.10100000352E+00 0.  1.
       -3    1    3    3    0  502 -0.50759545100E+03  0.10036238504E+04  0.14551671577E+04  0.18391371461E+04  0.10100000352E+00 0. -1.
</event>
<event>
 5   0  0.6736335E-09  0.4001560E+04  0.7818609E-02  0.8004232E-01
        2   -1    0    0  501    0  0.00000000000E+00  0.00000000000E+00  0.21303102572E+04  0.21303102572E+04  0.25500000920E-02 0. -1.
       -2   -1    0    0    0  501  0.00000000000E+00  0.00000000000E+00 -0.18791255700E+04  0.18791255700E+04  0.25500000920E-02 0.  1.
    10030    2    1    2    0    0  0.00000000000E+00  0.00000000000E+00  0.25118468720E+03  0.40094358271E+04  0.40015599339E+04 0.  0.
        1    1    3    3  502    0  0.11309401226E+04 -0.42065387037E+03 -0.14735267000E+04  0.19045356849E+04  0.50400001928E-02 0.  1.
       -1    1    3    3    0  502 -0.11309401226E+04  0.42065387037E+03  0.17247113872E+04  0.21049001422E+04  0.50400001928E-02 0. -1.
</event>
<event>
 5   0  0.6547327E-09  0.4000568E+04  0.7818609E-02  0.8004432E-01
       -2   -1    0    0    0  501  0.00000000000E+00  0.00000000000E+00  0.18531014178E+04  0.18531014178E+04  0.25500000920E-02 0. -1.
        2   -1    0    0  501    0  0.00000000000E+00  0.00000000000E+00 -0.21591569795E+04  0.21591569795E+04  0.25500000920E-02 0.  1.
    10030    2    1    2    0    0  0.00000000000E+00  0.00000000000E+00 -0.30605556165E+03  0.40122583973E+04  0.40005683896E+04 0.  0.
        5    1    3    3  502    0 -0.60366543804E+03 -0.10664396357E+04  0.14325439253E+04  0.18851815949E+04  0.46999998093E+01 0. -1.
       -5    1    3    3    0  502  0.60366543804E+03  0.10664396357E+04 -0.17385994870E+04  0.21270768025E+04  0.46999998093E+01 0.  1.
</event>
<event>
 5   0  0.2078125E-09  0.4001762E+04  0.7818609E-02  0.8004191E-01
       -1   -1    0    0    0  501  0.00000000000E+00  0.00000000000E+00  0.17198312556E+04  0.17198312556E+04  0.50400001928E-02 0. -1.
        1   -1    0    0  501    0  0.00000000000E+00  0.00000000000E+00 -0.23278590569E+04  0.23278590569E+04  0.50400001928E-02 0.  1.
    10030    2    1    2    0    0  0.00000000000E+00  0.00000000000E+00 -0.60802780135E+03  0.40476903125E+04  0.40017619943E+04 0.  0.
        5    1    3    3  502    0  0.12397290388E+04  0.63345585967E+03 -0.17576257781E+04  0.22422009013E+04  0.46999998093E+01 0.  1.
       -5    1    3    3    0  502 -0.12397290388E+04 -0.63345585967E+03  0.11495979768E+04  0.18054894112E+04  0.46999998093E+01 0. -1.
</event>
<event>
 5   0  0.6599276E-09  0.4001598E+04  0.7818609E-02  0.8004224E-01
       -2   -1    0    0    0  501  0.00000000000E+00  0.00000000000E+00  0.23894485649E+04  0.23894485649E+04  0.25500000920E-02 0.  1.
        2   -1    0    0  501    0  0.00000000000E+00  0.00000000000E+00 -0.16753640055E+04  0.16753640055E+04  0.25500000920E-02 0. -1.
    10030    2    1    2    0    0  0.00000000000E+00  0.00000000000E+00  0.71408455942E+03  0.40648125704E+04  0.40015977402E+04 0.  0.
        2    1    3    3  502    0  0.18206757281E+03 -0.15995565929E+04 -0.84977728100E+03  0.18203986712E+04  0.25500000920E-02 0. -1.
       -2    1    3    3    0  502 -0.18206757281E+03  0.15995565929E+04  0.15638618404E+04  0.22444138992E+04  0.25500000920E-02 0.  1.
</event>
<event>
 5   0  0.2078125E-09  0.4000868E+04  0.7818609E-02  0.8004372E-01
        1   -1    0    0  501    0  0.00000000000E+00  0.00000000000E+00  0.16276284957E+04  0.16276284957E+04  0.50400001928E-02 0. -1.
       -1   -1    0    0    0  501  0.00000000000E+00  0.00000000000E+00 -0.24586297908E+04  0.24586297908E+04  0.50400001928E-02 0.  1.
    10030    2    1    2    0    0  0.00000000000E+00  0.00000000000E+00 -0.83100129511E+03  0.40862582864E+04  0.40008678597E+04 0.  0.
        1    1    3    3  502    0 -0.36247326956E+03  0.18765198712E+04 -0.10188906892E+04  0.21658374673E+04  0.50400001928E-02 0.  1.
       -1    1    3    3    0  502  0.36247326956E+03 -0.18765198712E+04  0.18788939414E+03  0.19204208191E+04  0.50400001928E-02 0. -1.
</event>
<event>
 5   0  0.6645526E-09  0.4000867E+04  0.7818609E-02  0.8004372E-01
        2   -1    0    0  501    0  0.00000000000E+00  0.00000000000E+00  0.19122577469E+04  0.19122577469E+04  0.25500000920E-02 0. -1.
       -2   -1    0    0    0  501  0.00000000000E+00  0.00000000000E+00 -0.20926748098E+04  0.20926748098E+04  0.25500000920E-02 0.  1.
    10030    2    1    2    0    0  0.00000000000E+00  0.00000000000E+00 -0.18041706291E+03  0.40049325568E+04  0.40008667145E+04 0.  0.
        3    1    3    3  502    0  0.23735738729E+03  0.66270232487E+03  0.17841848779E+04  0.19180272650E+04  0.10100000352E+00 0. -1.
       -3    1    3    3    0  502 -0.23735738729E+03 -0.66270232487E+03 -0.19646019408E+04  0.20869052917E+04  0.10100000352E+00 0.  1.
</event>
<event>
 5   0  0.6599276E-09  0.4000585E+04  0.7818609E-02  0.8004428E-01
        2   -1    0    0  501    0  0.00000000000E+00  0.00000000000E+00  0.25571473232E+04  0.25571473232E+04  0.25500000920E-02 0. -1.
       -2   -1    0    0    0  501  0.00000000000E+00  0.00000000000E+00 -0.15647008498E+04  0.15647008498E+04  0.25500000920E-02 0.  1.
    10030    2    1    2    0    0  0.00000000000E+00  0.00000000000E+00  0.99244647341E+03  0.41218481730E+04  0.40005852520E+04 0.  0.
        2    1    3    3  502    0  0.24362271390E+03 -0.37586777505E+03  0.25048129212E+04  0.25445463999E+04  0.25500000920E-02 0. -1.
       -2    1    3    3    0  502 -0.24362271390E+03  0.37586777505E+03 -0.15123664478E+04  0.15773017731E+04  0.25500000920E-02 0.  1.
</event>
<event>
 5   0  0.2078125E-09  0.3998362E+04  0.7818609E-02  0.8004877E-01
       -1   -1    0    0    0  501  0.00000000000E+00  0.00000000000E+00  0.25228849913E+04  0.25228849913E+04  0.50400001928E-02 0. -1.
        1   -1    0    0  501    0  0.00000000000E+00  0.00000000000E+00 -0.15841885756E+04  0.15841885756E+04  0.50400001928E-02 0.  1.
    10030    2    1    2    0    0  0.00000000000E+00  0.00000000000E+00  0.93869641567E+03  0.41070735669E+04  0.39983624552E+04 0.  0.
        3    1    3    3  502    0 -0.13899029654E+04 -0.81630517730E+02  0.19430087685E+04  0.23903507859E+04  0.10100000352E+00 0. -1.
       -3    1    3    3    0  502  0.13899029654E+04  0.81630517730E+02 -0.10043123528E+04  0.17167227811E+04  0.10100000352E+00 0.  1.
</event>
<event>
 5   0  0.6547327E-09  0.4000625E+04  0.7818609E-02  0.8004421E-01
        2   -1    0    0  501    0  0.00000000000E+00  0.00000000000E+00  0.13431787770E+04  0.13431787770E+04  0.25500000920E-02 0. -1.
       -2   -1    0    0    0  501  0.00000000000E+00  0.00000000000E+00 -0.29789404309E+04  0.29789404309E+04  0.25500000920E-02 0.  1.
    10030    2    1    2    0    0  0.00000000000E+00  0.00000000000E+00 -0.16357616539E+04  0.43221192078E+04  0.40006247335E+04 0.  0.
        5    1    3    3  502    0 -0.19580723788E+04  0.11329299632E+03 -0.12423193841E+04  0.23216938398E+04  0.46999998093E+01 0. -1.
       -5    1    3    3    0  502  0.19580723788E+04 -0.11329299632E+03 -0.39344226976E+03  0.20004253680E+04  0.46999998093E+01 0.  1.
</event>
<event>
 5   0  0.6599276E-09  0.3999654E+04  0.7818609E-02  0.8004616E-01
        2   -1    0    0  501    0  0.00000000000E+00  0.00000000000E+00  0.18621530843E+04  0.18621530843E+04  0.25500000920E-02 0.  1.
       -2   -1    0    0    0  501  0.00000000000E+00  0.00000000000E+00 -0.21476793768E+04  0.21476793768E+04  0.25500000920E-02 0. -1.
    10030    2    1    2    0    0  0.00000000000E+00  0.00000000000E+00 -0.28552629249E+03  0.40098324611E+04  0.39996538729E+04 0.  0.
        2    1    3    3  502    0  0.45354819425E+03 -0.78052504420E+03 -0.19317882302E+04  0.21323065154E+04  0.25500000920E-02 0. -1.
       -2    1    3    3    0  502 -0.45354819425E+03  0.78052504420E+03  0.16462619378E+04  0.18775259457E+04  0.25500000920E-02 0.  1.
</event>
<event>
 5   0  0.6547327E-09  0.3999976E+04  0.7818609E-02  0.8004551E-01
       -2   -1    0    0    0  501  0.00000000000E+00  0.00000000000E+00  0.19118176437E+04  0.19118176437E+04  0.25500000920E-02 0.  1.
        2   -1    0    0  501    0  0.00000000000E+00  0.00000000000E+00 -0.20922246726E+04  0.20922246726E+04  0.25500000920E-02 0. -1.
    10030    2    1    2    0    0  0.00000000000E+00  0.00000000000E+00 -0.18040702888E+03  0.40040423162E+04  0.39999760217E+04 0.  0.
        5    1    3    3  502    0  0.56762328747E+03  0.17268794023E+04  0.74468349284E+03  0.19644043018E+04  0.46999998093E+01 0.  1.
       -5    1    3    3    0  502 -0.56762328747E+03 -0.17268794023E+04 -0.92509052172E+03  0.20396380144E+04  0.46999998093E+01 0. -1.
</event>
<event>
 5   0  0.2078125E-09  0.3999904E+04  0.7818609E-02  0.8004566E-01
       -1   -1    0    0    0  501  0.00000000000E+00  0.00000000000E+00  0.16800034113E+04  0.16800034113E+04  0.50400001928E-02 0. -1.
        1   -1    0    0  501    0  0.00000000000E+00  0.00000000000E+00 -0.23808331865E+04  0.23808331865E+04  0.50400001928E-02 0.  1.
    10030    2    1    2    0    0  0.00000000000E+00  0.00000000000E+00 -0.70082977525E+03  0.40608365978E+04  0.39999039364E+04 0.  0.
        1    1    3    3  502    0 -0.15324588584E+04 -0.33310162327E+03 -0.16104587779E+04  0.22478799611E+04  0.50400001928E-02 0.  1.
       -1    1    3    3    0  502  0.15324588584E+04  0.33310162327E+03  0.90962900263E+03  0.18129566367E+04  0.50400001928E-02 0. -1.
</event>
<event>
 5   0  0.6538370E-09  0.4004220E+04  0.7818609E-02  0.8003696E-01
       -2   -1    0    0    0  501  0.00000000000E+00  0.00000000000E+00  0.20358341362E+04  0.20358341362E+04  0.25500000920E-02 0.  1.
        2   -1    0    0  501    0  0.00000000000E+00  0.00000000000E+00 -0.19689447056E+04  0.19689447056E+04  0.25500000920E-02 0. -1.
    10030    2    1    2    0    0  0.00000000000E+00  0.00000000000E+00  0.66889430629E+02  0.40047788417E+04  0.40042201957E+04 0.  0.
        4    1    3    3  502    0  0.17981243090E+04  0.17486792129E+03 -0.82958552368E+03  0.19879747419E+04  0.12699999809E+01 0. -1.
       -4    1    3    3    0  502 -0.17981243090E+04 -0.17486792129E+03  0.89647495430E+03  0.20168040998E+04  0.12699999809E+01 0.  1.
</event>
<event>
 5   0  0.6645526E-09  0.4007188E+04  0.7818609E-02  0.8003098E-01
        2   -1    0    0  501    0  0.00000000000E+00  0.00000000000E+00  0.17422522153E+04  0.17422522153E+04  0.25500000920E-02 0.  1.
       -2   -1    0    0    0  501  0.00000000000E+00  0.00000000000E+00 -0.23041371619E+04  0.23041371619E+04  0.25500000920E-02 0. -1.
    10030    2    1    2    0    0  0.00000000000E+00  0.00000000000E+00 -0.56188494666E+03  0.40463893772E+04  0.40071875796E+04 0.  0.
        3    1    3    3  502    0  0.28264222044E+03  0.16347481862E+04  0.85348007323E+03  0.18656678436E+04  0.10100000352E+00 0.  1.
       -3    1    3    3    0  502 -0.28264222044E+03 -0.16347481862E+04 -0.14153650199E+04  0.21807215335E+04  0.10100000352E+00 0. -1.
</event>
<event>
 5   0  0.6547327E-09  0.4000589E+04  0.7818609E-02  0.8004428E-01
       -2   -1    0    0    0  501  0.00000000000E+00  0.00000000000E+00  0.17460652245E+04  0.17460652245E+04  0.25500000920E-02 0.  1.
        2   -1    0    0  501    0  0.00000000000E+00  0.00000000000E+00 -0.22915399751E+04  0.22915399751E+04  0.25500000920E-02 0. -1.
    10030    2    1    2    0    0  0.00000000000E+00  0.00000000000E+00 -0.54547475057E+03  0.40376051996E+04  0.40005890872E+04 0.  0.
        5    1    3    3  502    0 -0.10377142842E+04  0.17038038110E+04 -0.42023270033E+03  0.20387290096E+04  0.46999998093E+01 0. -1.
       -5    1    3    3    0  502  0.10377142842E+04 -0.17038038110E+04 -0.12524205024E+03  0.19988761901E+04  0.46999998093E+01 0.  1.
</event>
<event>
 5   0  0.6645526E-09  0.4001136E+04  0.7818609E-02  0.8004318E-01
       -2   -1    0    0    0  501  0.00000000000E+00  0.00000000000E+00  0.15883158197E+04  0.15883158197E+04  0.25500000920E-02 0.  1.
        2   -1    0    0  501    0  0.00000000000E+00  0.00000000000E+00 -0.25198208833E+04  0.25198208833E+04  0.25500000920E-02 0. -1.
    10030    2    1    2    0    0  0.00000000000E+00  0.00000000000E+00 -0.93150506362E+03  0.41081367030E+04  0.40011355247E+04 0.  0.
        3    1    3    3  502    0 -0.64900613226E+03 -0.12883877764E+04  0.95735853820E+03  0.17313830896E+04  0.10100000352E+00 0.  1.
       -3    1    3    3    0  502  0.64900613226E+03  0.12883877764E+04 -0.18888636018E+04  0.23767536134E+04  0.10100000352E+00 0. -1.
</event>
<event>
 5   0  0.2078125E-09  0.4000441E+04  0.7818609E-02  0.8004458E-01
       -1   -1    0    0    0  501  0.00000000000E+00  0.00000000000E+00  0.21730982059E+04  0.21730982059E+04  0.50400001928E-02 0.  1.
        1   -1    0    0  501    0  0.00000000000E+00  0.00000000000E+00 -0.18410958595E+04  0.18410958595E+04  0.50400001928E-02 0. -1.
    10030    2    1    2    0    0  0.00000000000E+00  0.00000000000E+00  0.33200234643E+03  0.40141940653E+04  0.40004410302E+04 0.  0.
        3    1    3    3  502    0 -0.58462862162E+03 -0.48815622741E+03 -0.16898964439E+04  0.18536011245E+04  0.10100000352E+00 0. -1.
       -3    1    3    3    0  502  0.58462862162E+03  0.48815622741E+03  0.20218987903E+04  0.21605929408E+04  0.10100000352E+00 0.  1.
</event>
<event>
 5   0  0.2078125E-09  0.3999423E+04  0.7818609E-02  0.8004663E-01
        1   -1    0    0  501    0  0.00000000000E+00  0.00000000000E+00  0.18290856911E+04  0.18290856911E+04  0.50400001928E-02 0. -1.
       -1   -1    0    0    0  501  0.00000000000E+00  0.00000000000E+00 -0.21862542420E+04  0.21862542420E+04  0.50400001928E-02 0.  1.
    10030    2    1    2    0    0  0.00000000000E+00  0.00000000000E+00 -0.35716855093E+03  0.40153399331E+04  0.39994231339E+04 0.  0.
        5    1    3    3  502    0  0.36255711373E+03 -0.15688271307E+04  0.10119503471E+04  0.19017707069E+04  0.46999998093E+01 0. -1.
       -5    1    3    3    0  502 -0.36255711373E+03  0.15688271307E+04 -0.13691188981E+04  0.21135692261E+04  0.46999998093E+01 0.  1.
</event>
<event>
 5   0  0.6538370E-09  0.4000812E+04  0.7818609E-02  0.8004383E-01
       -2   -1    0    0    0  501  0.00000000000E+00  0.00000000000E+00  0.19060499331E+04  0.19060499331E+04  0.25500000920E-02 0.  1.
        2   -1    0    0  501    0  0.00000000000E+00  0.00000000000E+00 -0.20994329211E+04  0.20994329211E+04  0.25500000920E-02 0. -1.
    10030    2    1    2    0    0  0.00000000000E+00  0.00000000000E+00 -0.19338298804E+03  0.40054828542E+04  0.40008119070E+04 0.  0.
        4    1    3    3  502    0  0.33931843366E+03  0.87031548580E+03 -0.18676649228E+04  0.20882432619E+04  0.12699999809E+01 0. -1.
       -4    1    3    3    0  502 -0.33931843366E+03 -0.87031548580E+03  0.16742819347E+04  0.19172395923E+04  0.12699999809E+01 0.  1.
</event>
<event>
 5   0  0.2078125E-09  0.3999836E+04  0.7818609E-02  0.8004580E-01
       -1   -1    0    0    0  501  0.00000000000E+00  0.00000000000E+00  0.20369603841E+04  0.20369603841E+04  0.50400001928E-02 0. -1.
        1   -1    0    0  501    0  0.00000000000E+00  0.00000000000E+00 -0.19635488537E+04  0.19635488537E+04  0.50400001928E-02 0.  1.
    10030    2    1    2    0    0  0.00000000000E+00  0.00000000000E+00  0.73411530339E+02  0.40005092378E+04  0.39998356102E+04 0.  0.
        5    1    3    3  502    0 -0.19944706807E+03 -0.14094572040E+04  0.14416844527E+04  0.20260367455E+04  0.46999998093E+01 0. -1.
       -5    1    3    3    0  502  0.19944706807E+03  0.14094572040E+04 -0.13682729223E+04  0.19744724923E+04  0.46999998093E+01 0.  1.
</event>
<event>
 5   0  0.2078125E-09  0.3997045E+04  0.7818609E-02  0.8005143E-01
        1   -1    0    0  501    0  0.00000000000E+00  0.00000000000E+00  0.30568530733E+04  0.30568530733E+04  0.50400001928E-02 0. -1.
       -1   -1    0    0    0  501  0.00000000000E+00  0.00000000000E+00 -0.13066027840E+04  0.13066027840E+04  0.50400001928E-02 0.  1.
    10030    2    1    2    0    0  0.00000000000E+00  0.00000000000E+00  0.17502502894E+04  0.43634558573E+04  0.39970452766E+04 0.  0.
        5    1    3    3  502    0 -0.24880611228E+03 -0.38265242648E+03  0.29991867045E+04  0.30337221922E+04  0.46999998093E+01 0. -1.
       -5    1    3    3    0  502  0.24880611228E+03  0.38265242648E+03 -0.12489364152E+04  0.13297336651E+04  0.46999998093E+01 0.  1.
</event>
<event>
 5   0  0.2078125E-09  0.4000612E+04  0.7818609E-02  0.8004423E-01
        1   -1    0    0  501    0  0.00000000000E+00  0.00000000000E+00  0.24282129948E+04  0.24282129948E+04  0.50400001928E-02 0. -1.
       -1   -1    0    0    0  501  0.00000000000E+00  0.00000000000E+00 -0.16478059547E+04  0.16478059547E+04  0.50400001928E-02 0.  1.
    10030    2    1    2    0    0  0.00000000000E+00  0.00000000000E+00  0.78040704010E+03  0.40760189495E+04  0.40006118693E+04 0.  0.
        3    1    3    3  502    0 -0.17532801087E+04 -0.95026843400E+03  0.23163388510E+03  0.20076492480E+04  0.10100000352E+00 0.  1.
       -3    1    3    3    0  502  0.17532801087E+04  0.95026843400E+03  0.54877315500E+03  0.20683697015E+04  0.10100000352E+00 0. -1.
</event>
<event>
 5   0  0.6736335E-09  0.3997865E+04  0.7818609E-02  0.8004977E-01
       -2   -1    0    0    0  501  0.00000000000E+00  0.00000000000E+00  0.18077734319E+04  0.18077734319E+04  0.25500000920E-02 0. -1.
        2   -1    0    0  501    0  0.00000000000E+00  0.00000000000E+00 -0.22103050120E+04  0.22103050121E+04  0.25500000920E-02 0.  1.
    10030    2    1    2    0    0  0.00000000000E+00  0.00000000000E+00 -0.40253158014E+03  0.40180784440E+04  0.39978647687E+04 0.  0.
        1    1    3    3  502    0 -0.20092356526E+03 -0.19096215761E+04 -0.75968806064E+03  0.20649820320E+04  0.50400001928E-02 0.  1.
       -1    1    3    3    0  502  0.20092356526E+03  0.19096215761E+04  0.35715648049E+03  0.19530964120E+04  0.50400001928E-02 0. -1.
</event>
<event>
 5   0  0.2078125E-09  0.4000755E+04  0.7818609E-02  0.8004394E-01
       -1   -1    0    0    0  501  0.00000000000E+00  0.00000000000E+00  0.26355036044E+04  0.26355036044E+04  0.50400001928E-02 0. -1.
        1   -1    0    0  501    0  0.00000000000E+00  0.00000000000E+00 -0.15183091780E+04  0.15183091780E+04  0.50400001928E-02 0.  1.
    10030    2    1    2    0    0  0.00000000000E+00  0.00000000000E+00  0.11171944264E+04  0.41538127824E+04  0.40007545845E+04 0.  0.
        2    1    3    3  502    0  0.10445342520E+04  0.17044060211E+04  0.48189519784E+03  0.20562768952E+04  0.25500000920E-02 0.  1.
       -2    1    3    3    0  502 -0.10445342520E+04 -0.17044060211E+04  0.63529922852E+03  0.20975358872E+04  0.25500000920E-02 0. -1.
</event>
<event>
 5   0  0.2078125E-09  0.3998487E+04  0.7818609E-02  0.8004852E-01
        1   -1    0    0  501    0  0.00000000000E+00  0.00000000000E+00  0.21551730511E+04  0.21551730511E+04  0.50400001928E-02 0.  1.
       -1   -1    0    0    0  501  0.00000000000E+00  0.00000000000E+00 -0.18545953187E+04  0.18545953187E+04  0.50400001928E-02 0. -1.
    10030    2    1    2    0    0  0.00000000000E+00  0.00000000000E+00  0.30057773240E+03  0.40097683698E+04  0.39984866395E+04 0.  0.
        5    1    3    3  502    0 -0.11642731490E+04  0.15008587876E+04 -0.47504307041E+03  0.19580084459E+04  0.46999998093E+01 0.  1.
       -5    1    3    3    0  502  0.11642731490E+04 -0.15008587876E+04  0.77562080281E+03  0.20517599239E+04  0.46999998093E+01 0. -1.
</event>
<event>
 5   0  0.2078125E-09  0.3999493E+04  0.7818609E-02  0.8004649E-01
        1   -1    0    0  501    0  0.00000000000E+00  0.00000000000E+00  0.16354177466E+04  0.16354177466E+04  0.50400001928E-02 0.  1.
       -1   -1    0    0    0  501  0.00000000000E+00  0.00000000000E+00 -0.24452383402E+04  0.24452383402E+04  0.50400001928E-02 0. -1.
    10030    2    1    2    0    0  0.00000000000E+00  0.00000000000E+00 -0.80982059360E+03  0.40806560867E+04  0.39994930559E+04 0.  0.
        2    1    3    3  502    0 -0.19746878642E+03  0.30306799826E+02 -0.24350309218E+04  0.24432126420E+04  0.25500000920E-02 0. -1.
       -2    1    3    3    0  502  0.19746878642E+03 -0.30306799826E+02  0.16252103282E+04  0.16374434447E+04  0.25500000920E-02 0.  1.
</event>
<event>
 5   0  0.2078125E-09  0.4000163E+04  0.7818609E-02  0.8004514E-01
       -1   -1    0    0    0  501  0.00000000000E+00  0.00000000000E+00  0.25297432357E+04  0.25297432357E+04  0.50400001928E-02 0.  1.
        1   -1    0    0  501    0  0.00000000000E+00  0.00000000000E+00 -0.15813167718E+04  0.15813167718E+04  0.50400001928E-02 0. -1.
    10030    2    1    2    0    0  0.00000000000E+00  0.00000000000E+00  0.94842646388E+03  0.41110600075E+04  0.40001627002E+04 0.  0.
        3    1    3    3  502    0 -0.19578690162E+04 -0.31445487646E+03  0.74258960831E+03  0.21174447550E+04  0.10100000352E+00 0.  1.
       -3    1    3    3    0  502  0.19578690162E+04  0.31445487646E+03  0.20583685557E+03  0.19936152525E+04  0.10100000352E+00 0. -1.
</event>
<event>
 5   0  0.6547327E-09  0.4000057E+04  0.7818609E-02  0.8004535E-01
       -2   -1    0    0    0  501  0.00000000000E+00  0.00000000000E+00  0.30547386858E+04  0.30547386858E+04  0.25500000920E-02 0.  1.
        2   -1    0    0  501    0  0.00000000000E+00  0.00000000000E+00 -0.13094786203E+04  0.13094786203E+04  0.25500000920E-02 0. -1.
    10030    2    1    2    0    0  0.00000000000E+00  0.00000000000E+00  0.17452600655E+04  0.43642173061E+04  0.40000574994E+04 0.  0.
        5    1    3    3  502    0 -0.46312109218E+02  0.98582203773E+03 -0.10253078159E+04  0.14231191478E+04  0.46999998093E+01 0. -1.
       -5    1    3    3    0  502  0.46312109218E+02 -0.98582203773E+03  0.27705678814E+04  0.29410981583E+04  0.46999998093E+01 0.  1.
</event>
<event>
 5   0  0.6736335E-09  0.3997990E+04  0.7818609E-02  0.8004952E-01
        2   -1    0    0  501    0  0.00000000000E+00  0.00000000000E+00  0.22961187404E+04  0.22961187404E+04  0.25500000920E-02 0.  1.
       -2   -1    0    0    0  501  0.00000000000E+00  0.00000000000E+00 -0.17403196017E+04  0.17403196017E+04  0.25500000920E-02 0. -1.
    10030    2    1    2    0    0  0.00000000000E+00  0.00000000000E+00  0.55579913863E+03  0.40364383421E+04  0.39979897207E+04 0.  0.
        1    1    3    3  502    0 -0.16978168713E+04 -0.68248927426E+03  0.10903788992E+04  0.21300938669E+04  0.50400001928E-02 0.  1.
       -1    1    3    3    0  502  0.16978168713E+04  0.68248927426E+03 -0.53457976057E+03  0.19063444752E+04  0.50400001928E-02 0. -1.
</event>
<event>
 5   0  0.2078125E-09  0.4003004E+04  0.7818609E-02  0.8003941E-01
        1   -1    0    0  501    0  0.00000000000E+00  0.00000000000E+00  0.25282085774E+04  0.25282085774E+04  0.50400001928E-02 0. -1.
       -1   -1    0    0    0  501  0.00000000000E+00  0.00000000000E+00 -0.15845255259E+04  0.15845255259E+04  0.50400001928E-02 0.  1.
    10030    2    1    2    0    0  0.00000000000E+00  0.00000000000E+00  0.94368305147E+03  0.41127341032E+04  0.40030043845E+04 0.  0.
        1    1    3    3  502    0 -0.67075184597E+03  0.15774698882E+04 -0.58977460234E+03  0.18127750464E+04  0.50400001928E-02 0.  1.
       -1    1    3    3    0  502  0.67075184597E+03 -0.15774698882E+04  0.15334576538E+04  0.22999590569E+04  0.50400001928E-02 0. -1.
</event>
<event>
 5   0  0.6599276E-09  0.4000261E+04  0.7818609E-02  0.8004494E-01
        2   -1    0    0  501    0  0.00000000000E+00  0.00000000000E+00  0.30565971939E+04  0.30565971939E+04  0.25500000920E-02 0.  1.
       -2   -1    0    0    0  501  0.00000000000E+00  0.00000000000E+00 -0.13088155425E+04  0.13088155425E+04  0.25500000920E-02 0. -1.
    10030    2    1    2    0    0  0.00000000000E+00  0.00000000000E+00  0.17477816514E+04  0.43654127364E+04  0.40002609488E+04 0.  0.
        2    1    3    3  502    0 -0.32799618951E+03  0.15513471945E+04 -0.45651678000E+03  0.16500506624E+04  0.25500000920E-02 0. -1.
       -2    1    3    3    0  502  0.32799618951E+03 -0.15513471945E+04  0.22042984314E+04  0.27153620740E+04  0.25500000920E-02 0.  1.
</event>
<event>
 5   0  0.6547327E-09  0.4001674E+04  0.7818609E-02  0.8004209E-01
        2   -1    0    0  501    0  0.00000000000E+00  0.00000000000E+00  0.21933951403E+04  0.21933951403E+04  0.25500000920E-02 0. -1.
       -2   -1    0    0    0  501  0.00000000000E+00  0.00000000000E+00 -0.18251833535E+04  0.18251833535E+04  0.25500000920E-02 0.  1.
    10030    2    1    2    0    0  0.00000000000E+00  0.00000000000E+00  0.36821178680E+03  0.40185784939E+04  0.40016737988E+04 0.  0.
        5    1    3    3  502    0 -0.69133353544E+03  0.18527553144E+04  0.48982897292E+03  0.20373018493E+04  0.46999998093E+01 0. -1.
       -5    1    3    3    0  502  0.69133353544E+03 -0.18527553144E+04 -0.12161718613E+03  0.19812766446E+04  0.46999998093E+01 0.  1.
</event>
<event>
 5   0  0.2078125E-09  0.4001208E+04  0.7818609E-02  0.8004303E-01
       -1   -1    0    0    0  501  0.00000000000E+00  0.00000000000E+00  0.21664924674E+04  0.21664924674E+04  0.50400001928E-02 0.  1.
        1   -1    0    0  501    0  0.00000000000E+00  0.00000000000E+00 -0.18474179574E+04  0.18474179574E+04  0.50400001928E-02 0. -1.
    10030    2    1    2    0    0  0.00000000000E+00  0.00000000000E+00  0.31907450998E+03  0.40139104249E+04  0.40012083620E+04 0.  0.
        2    1    3    3  502    0  0.10488841402E+04  0.29764186117E+03  0.18422615722E+04  0.21407186451E+04  0.25500000920E-02 0.  1.
       -2    1    3    3    0  502 -0.10488841402E+04 -0.29764186117E+03 -0.15231870622E+04  0.18731917797E+04  0.25500000920E-02 0. -1.
</event>
<event>
 5   0  0.6599276E-09  0.3998319E+04  0.7818609E-02  0.8004886E-01
       -2   -1    0    0    0  501  0.00000000000E+00  0.00000000000E+00  0.20879151736E+04  0.20879151736E+04  0.25500000920E-02 0.  1.
        2   -1    0    0  501    0  0.00000000000E+00  0.00000000000E+00 -0.19141770926E+04  0.19141770926E+04  0.25500000920E-02 0. -1.
    10030    2    1    2    0    0  0.00000000000E+00  0.00000000000E+00  0.17373808098E+03  0.40020922662E+04  0.39983193452E+04 0.  0.
        2    1    3    3  502    0 -0.16237121189E+04  0.70647974283E+03 -0.84195310419E+03  0.19607242799E+04  0.25500000920E-02 0. -1.
       -2    1    3    3    0  502  0.16237121189E+04 -0.70647974283E+03  0.10156911852E+04  0.20413679863E+04  0.25500000920E-02 0.  1.
</event>
<event>
 5   0  0.6645526E-09  0.3998785E+04  0.7818609E-02  0.8004792E-01
        2   -1    0    0  501    0  0.00000000000E+00  0.00000000000E+00  0.17392210834E+04  0.17392210834E+04  0.25500000920E-02 0.  1.
       -2   -1    0    0    0  501  0.00000000000E+00  0.00000000000E+00 -0.22984828824E+04  0.22984828824E+04  0.25500000920E-02 0. -1.
    10030    2    1    2    0    0  0.00000000000E+00  0.00000000000E+00 -0.55926179900E+03  0.40377039659E+04  0.39987847599E+04 0.  0.
        3    1    3    3  502    0  0.16281123552E+04  0.26112572797E+03 -0.14214031062E+04  0.21769986880E+04  0.10100000352E+00 0. -1.
       -3    1    3    3    0  502 -0.16281123552E+04 -0.26112572797E+03  0.86214130723E+03  0.18607052778E+04  0.10100000352E+00 0.  1.
</event>
<event>
 5   0  0.2078125E-09  0.3999934E+04  0.7818609E-02  0.8004560E-01
       -1   -1    0    0    0  501  0.00000000000E+00  0.00000000000E+00  0.20847323858E+04  0.20847323858E+04  0.50400001928E-02 0.  1.
        1   -1    0    0  501    0  0.00000000000E+00  0.00000000000E+00 -0.19186481820E+04  0.19186481820E+04  0.50400001928E-02 0. -1.
    10030    2    1    2    0    0  0.00000000000E+00  0.00000000000E+00  0.16608420379E+03  0.40033805678E+04  0.39999340005E+04 0.  0.
        5    1    3    3  502    0 -0.17546926228E+04  0.86940245230E+03 -0.32355797673E+03  0.19848220774E+04  0.46999998093E+01 0. -1.
       -5    1    3    3    0  502  0.17546926228E+04 -0.86940245230E+03  0.48964218052E+03  0.20185584905E+04  0.46999998093E+01 0.  1.
</event>
<event>
 5   0  0.6736335E-09  0.3999497E+04  0.7818609E-02  0.8004648E-01
        2   -1    0    0  501    0  0.00000000000E+00  0.00000000000E+00  0.20070287559E+04  0.20070287559E+04  0.25500000920E-02 0.  1.
       -2   -1    0    0    0  501  0.00000000000E+00  0.00000000000E+00 -0.19924949773E+04  0.19924949773E+04  0.25500000920E-02 0. -1.
    10030    2    1    2    0    0  0.00000000000E+00  0.00000000000E+00  0.14533778630E+02  0.39995237332E+04  0.39994973262E+04 0.  0.
        1    1    3    3  502    0  0.56191040805E+03 -0.14354594828E+04 -0.12665968830E+04  0.19951328019E+04  0.50400001928E-02 0. -1.
       -1    1    3    3    0  502 -0.56191040805E+03  0.14354594828E+04  0.12811306616E+04  0.20043909313E+04  0.50400001928E-02 0.  1.
</event>
<event>
 5   0  0.2078125E-09  0.3999567E+04  0.7818609E-02  0.8004634E-01
        1   -1    0    0  501    0  0.00000000000E+00  0.00000000000E+00  0.22206615152E+04  0.22206615152E+04  0.50400001928E-02 0.  1.
       -1   -1    0    0    0  501  0.00000000000E+00  0.00000000000E+00 -0.18008749008E+04  0.18008749008E+04  0.50400001928E-02 0. -1.
    10030    2    1    2    0    0  0.00000000000E+00  0.00000000000E+00  0.41978661440E+03  0.40215364159E+04  0.39995667694E+04 0.  0.
        4    1    3    3  502    0 -0.53584339611E+03 -0.43320015904E+03 -0.16777417878E+04  0.18137281059E+04  0.12699999809E+01 0. -1.
       -4    1    3    3    0  502  0.53584339611E+03  0.43320015904E+03  0.20975284022E+04  0.22078083100E+04  0.12699999809E+01 0.  1.
</event>
<event>
 5   0  0.2078125E-09  0.3999835E+04  0.7818609E-02  0.8004580E-01
       -1   -1    0    0    0  501  0.00000000000E+00  0.00000000000E+00  0.17480312244E+04  0.17480312245E+04  0.50400001928E-02 0.  1.
        1   -1    0    0  501    0  0.00000000000E+00  0.00000000000E+00 -0.22880994098E+04  0.22880994098E+04  0.50400001928E-02 0. -1.
    10030    2    1    2    0    0  0.00000000000E+00  0.00000000000E+00 -0.54006818537E+03  0.40361306343E+04  0.39998346031E+04 0.  0.
        2    1    3    3  502    0  0.13504860856E+04 -0.58135075170E+03 -0.16380233417E+04  0.22011137708E+04  0.25500000920E-02 0. -1.
       -2    1    3    3    0  502 -0.13504860856E+04  0.58135075170E+03  0.10979551563E+04  0.18350168635E+04  0.25500000920E-02 0.  1.
</event>
<event>
 5   0  0.6538370E-09  0.4003162E+04  0.7818609E-02  0.8003909E-01
        2   -1    0    0  501    0  0.00000000000E+00  0.00000000000E+00  0.16209185116E+04  0.16209185116E+04  0.25500000920E-02 0.  1.
       -2   -1    0    0    0  501  0.00000000000E+00  0.00000000000E+00 -0.24716402100E+04  0.24716402100E+04  0.25500000920E-02 0. -1.
    10030    2    1    2    0    0  0.00000000000E+00  0.00000000000E+00 -0.85072169841E+03  0.40925587216E+04  0.40031624351E+04 0.  0.
        4    1    3    3  502    0  0.15034434887E+03  0.16512214612E+04 -0.15716446876E+04  0.22845578072E+04  0.12699999809E+01 0. -1.
       -4    1    3    3    0  502 -0.15034434887E+03 -0.16512214612E+04  0.72092298922E+03  0.18080009144E+04  0.12699999809E+01 0.  1.
</event>
<event>
 5   0  0.6599276E-09  0.3992005E+04  0.7818609E-02  0.8006161E-01
       -2   -1    0    0    0  501  0.00000000000E+00  0.00000000000E+00  0.21560843544E+04  0.21560843544E+04  0.25500000920E-02 0.  1.
        2   -1    0    0  501    0  0.00000000000E+00  0.00000000000E+00 -0.18478062174E+04  0.18478062174E+04  0.25500000920E-02 0. -1.
    10030    2    1    2    0    0  0.00000000000E+00  0.00000000000E+00  0.30827813700E+03  0.40038905717E+04  0.39920050477E+04 0.  0.
        2    1    3    3  502    0 -0.76253013067E+03 -0.16845692172E+04  0.90790868243E+03  0.20599815104E+04  0.25500000920E-02 0. -1.
       -2    1    3    3    0  502  0.76253013067E+03  0.16845692172E+04 -0.59963054544E+03  0.19439090613E+04  0.25500000920E-02 0.  1.
</event>
<event>
 5   0  0.6645526E-09  0.3994594E+04  0.7818609E-02  0.8005638E-01
       -2   -1    0    0    0  501  0.00000000000E+00  0.00000000000E+00  0.13416942198E+04  0.13416942198E+04  0.25500000920E-02 0. -1.
        2   -1    0    0  501    0  0.00000000000E+00  0.00000000000E+00 -0.29732523687E+04  0.29732523687E+04  0.25500000920E-02 0.  1.
    10030    2    1    2    0    0  0.00000000000E+00  0.00000000000E+00 -0.16315581489E+04  0.43149465884E+04  0.39945941055E+04 0.  0.
        3    1    3    3  502    0 -0.15780565267E+04  0.94996683008E+03 -0.16500489875E+04  0.24729256057E+04  0.10100000352E+00 0.  1.
       -3    1    3    3    0  502  0.15780565267E+04 -0.94996683008E+03  0.18490838621E+02  0.18420209828E+04  0.10100000352E+00 0. -1.
</event>
<event>
 5   0  0.2078125E-09  0.4000937E+04  0.7818609E-02  0.8004358E-01
        1   -1    0    0  501    0  0.00000000000E+00  0.00000000000E+00  0.16309236539E+04  0.16309236539E+04  0.50400001928E-02 0. -1.
       -1   -1    0    0    0  501  0.00000000000E+00  0.00000000000E+00 -0.24537465165E+04  0.24537465166E+04  0.50400001928E-02 0.  1.
    10030    2    1    2    0    0  0.00000000000E+00  0.00000000000E+00 -0.82282286269E+03  0.40846701704E+04  0.40009365076E+04 0.  0.
        2    1    3    3  502    0 -0.16256811903E+04  0.10674553544E+03 -0.15965855715E+04  0.22810785671E+04  0.25500000920E-02 0.  1.
       -2    1    3    3    0  502  0.16256811903E+04 -0.10674553544E+03  0.77376270885E+03  0.18035916033E+04  0.25500000920E-02 0. -1.
</event>
<event>
 5   0  0.6538370E-09  0.4003749E+04  0.7818609E-02  0.8003791E-01
        2   -1    0    0  501    0  0.00000000000E+00  0.00000000000E+00  0.23486539015E+04  0.23486539015E+04  0.25500000920E-02 0.  1.
       -2   -1    0    0    0  501  0.00000000000E+00  0.00000000000E+00 -0.17062970300E+04  0.17062970300E+04  0.25500000920E-02 0. -1.
    10030    2    1    2    0    0  0.00000000000E+00  0.00000000000E+00  0.64235687148E+03  0.40549509314E+04  0.40037488315E+04 0.  0.
        4    1    3    3  502    0  0.68958440190E+03  0.11257128115E+04  0.18453304948E+04  0.22689209394E+04  0.12699999809E+01 0.  1.
       -4    1    3    3    0  502 -0.68958440190E+03 -0.11257128115E+04 -0.12029736233E+04  0.17860299921E+04  0.12699999809E+01 0. -1.
</event>
<event>
 5   0  0.6645526E-09  0.4000744E+04  0.7818609E-02  0.8004397E-01
       -2   -1    0    0    0  501  0.00000000000E+00  0.00000000000E+00  0.28534998561E+04  0.28534998561E+04  0.25500000920E-02 0. -1.
        2   -1    0    0  501    0  0.00000000000E+00  0.00000000000E+00 -0.14023086594E+04  0.14023086594E+04  0.25500000920E-02 0.  1.
    10030    2    1    2    0    0  0.00000000000E+00  0.00000000000E+00  0.14511911967E+04  0.42558085155E+04  0.40007437098E+04 0.  0.
        3    1    3    3  502    0  0.87545036718E+03 -0.36261167553E+03  0.25996116584E+04  0.27669263376E+04  0.10100000352E+00 0. -1.
       -3    1    3    3    0  502 -0.87545036718E+03  0.36261167553E+03 -0.11484204618E+04  0.14888821779E+04  0.10100000352E+00 0.  1.
</event>
<event>
 5   0  0.2078125E-09  0.3999785E+04  0.7818609E-02  0.8004590E-01
        1   -1    0    0  501    0  0.00000000000E+00  0.00000000000E+00  0.30436623899E+04  0.30436623899E+04  0.50400001928E-02 0. -1.
       -1   -1    0    0    0  501  0.00000000000E+00  0.00000000000E+00 -0.13140648975E+04  0.13140648976E+04  0.50400001928E-02 0.  1.
    10030    2    1    2    0    0  0.00000000000E+00  0.00000000000E+00  0.17295974924E+04  0.43577272875E+04  0.39997849475E+04 0.  0.
        5    1    3    3  502    0 -0.40249428335E+03 -0.16238119951E+04 -0.32906638758E+03  0.17050143169E+04  0.46999998093E+01 0.  1.
       -5    1    3    3    0  502  0.40249428335E+03  0.16238119951E+04  0.20586638799E+04  0.26527129705E+04  0.46999998093E+01 0. -1.
</event>
<event>
 5   0  0.6645526E-09  0.4002843E+04  0.7818609E-02  0.8003973E-01
       -2   -1    0    0    0  501  0.00000000000E+00  0.00000000000E+00  0.18349418587E+04  0.18349418587E+04  0.25500000920E-02 0.  1.
        2   -1    0    0  501    0  0.00000000000E+00  0.00000000000E+00 -0.21830056684E+04  0.21830056684E+04  0.25500000920E-02 0. -1.
    10030    2    1    2    0    0  0.00000000000E+00  0.00000000000E+00 -0.34806380967E+03  0.40179475271E+04  0.40028432289E+04 0.  0.
        3    1    3    3  502    0 -0.66064434542E+03  0.18559412464E+04  0.18045732674E+03  0.19782653306E+04  0.10100000352E+00 0. -1.
       -3    1    3    3    0  502  0.66064434542E+03 -0.18559412464E+04 -0.52852113642E+03  0.20396821966E+04  0.10100000352E+00 0.  1.
</event>
<event>
 5   0  0.2078125E-09  0.3996730E+04  0.7818609E-02  0.8005206E-01
       -1   -1    0    0    0  501  0.00000000000E+00  0.00000000000E+00  0.36106142983E+04  0.36106142983E+04  0.50400001928E-02 0.  1.
        1   -1    0    0  501    0  0.00000000000E+00  0.00000000000E+00 -0.11060342455E+04  0.11060342455E+04  0.50400001928E-02 0. -1.
    10030    2    1    2    0    0  0.00000000000E+00  0.00000000000E+00  0.25045800528E+04  0.47166485437E+04  0.39967301941E+04 0.  0.
        2    1    3    3  502    0  0.69497959585E+03 -0.37141371046E+03 -0.91494415143E+03  0.12075046928E+04  0.25500000920E-02 0. -1.
       -2    1    3    3    0  502 -0.69497959585E+03  0.37141371046E+03  0.34195242042E+04  0.35091438509E+04  0.25500000920E-02 0.  1.
</event>
<event>
 5   0  0.2078125E-09  0.4001053E+04  0.7818609E-02  0.8004334E-01
        1   -1    0    0  501    0  0.00000000000E+00  0.00000000000E+00  0.22594379739E+04  0.22594379739E+04  0.50400001928E-02 0.  1.
       -1   -1    0    0    0  501  0.00000000000E+00  0.00000000000E+00 -0.17712840193E+04  0.17712840193E+04  0.50400001928E-02 0. -1.
    10030    2    1    2    0    0  0.00000000000E+00  0.00000000000E+00  0.48815395464E+03  0.40307219932E+04  0.40010530492E+04 0.  0.
        1    1    3    3  502    0  0.74218255038E+03 -0.18105357112E+04  0.66337463828E+03  0.20661414304E+04  0.50400001928E-02 0.  1.
       -1    1    3    3    0  502 -0.74218255038E+03  0.18105357112E+04 -0.17522068364E+03  0.19645805628E+04  0.50400001928E-02 0. -1.
</event>
<event>
 5   0  0.6538370E-09  0.4001230E+04  0.7818609E-02  0.8004298E-01
       -2   -1    0    0    0  501  0.00000000000E+00  0.00000000000E+00  0.26392620197E+04  0.26392620197E+04  0.25500000920E-02 0.  1.
        2   -1    0    0  501    0  0.00000000000E+00  0.00000000000E+00 -0.15165073589E+04  0.15165073589E+04  0.25500000920E-02 0. -1.
    10030    2    1    2    0    0  0.00000000000E+00  0.00000000000E+00  0.11227546608E+04  0.41557693786E+04  0.40012299484E+04 0.  0.
        4    1    3    3  502    0 -0.12845715313E+04  0.12753357083E+04  0.14462533135E+04  0.23169495997E+04  0.12699999809E+01 0.  1.
       -4    1    3    3    0  502  0.12845715313E+04 -0.12753357083E+04 -0.32349865277E+03  0.18388197789E+04  0.12699999809E+01 0. -1.
</event>
<event>
 5   0  0.6538370E-09  0.3998098E+04  0.7818609E-02  0.8004930E-01
       -2   -1    0    0    0  501  0.00000000000E+00  0.00000000000E+00  0.17106390915E+04  0.17106390915E+04  0.25500000920E-02 0. -1.
        2   -1    0    0  501    0  0.00000000000E+00  0.00000000000E+00 -0.23360838214E+04  0.23360838214E+04  0.25500000920E-02 0.  1.
    10030    2    1    2    0    0  0.00000000000E+00  0.00000000000E+00 -0.62544472987E+03  0.40467229129E+04  0.39980977006E+04 0.  0.
        4    1    3    3  502    0  0.13489159049E+04  0.95821766550E+03 -0.14481677070E+04  0.21988511849E+04  0.12699999809E+01 0.  1.
       -4    1    3    3    0  502 -0.13489159049E+04 -0.95821766550E+03  0.82272297709E+03  0.18478717280E+04  0.12699999809E+01 0. -1.
</event>
<event>
 5   0  0.6538370E-09  0.4011866E+04  0.7818609E-02  0.8002157E-01
       -2   -1    0    0    0  501  0.00000000000E+00  0.00000000000E+00  0.18972643955E+04  0.18972643955E+04  0.25500000920E-02 0. -1.
        2   -1    0    0  501    0  0.00000000000E+00  0.00000000000E+00 -0.21208253433E+04  0.21208253433E+04  0.25500000920E-02 0.  1.
    10030    2    1    2    0    0  0.00000000000E+00  0.00000000000E+00 -0.22356094781E+03  0.40180897388E+04  0.40118656074E+04 0.  0.
        4    1    3    3  502    0  0.10698252422E+04 -0.29623858402E+03  0.15615843254E+04  0.19159411697E+04  0.12699999809E+01 0. -1.
       -4    1    3    3    0  502 -0.10698252422E+04  0.29623858402E+03 -0.17851452732E+04  0.21021485691E+04  0.12699999809E+01 0.  1.
</event>
<event>
 5   0  0.2078125E-09  0.3994396E+04  0.7818609E-02  0.8005678E-01
       -1   -1    0    0    0  501  0.00000000000E+00  0.00000000000E+00  0.30115856342E+04  0.30115856342E+04  0.50400001928E-02 0. -1.
        1   -1    0    0  501    0  0.00000000000E+00  0.00000000000E+00 -0.13244849410E+04  0.13244849410E+04  0.50400001928E-02 0.  1.
    10030    2    1    2    0    0  0.00000000000E+00  0.00000000000E+00  0.16871006932E+04  0.43360705752E+04  0.39943959849E+04 0.  0.
        3    1    3    3  502    0  0.39576903298E+03 -0.18107836107E+03  0.29594810390E+04  0.29913125097E+04  0.10100000352E+00 0. -1.
       -3    1    3    3    0  502 -0.39576903298E+03  0.18107836107E+03 -0.12723803457E+04  0.13447580655E+04  0.10100000352E+00 0.  1.
</event>
<event>
 5   0  0.6645526E-09  0.4002622E+04  0.7818609E-02  0.8004018E-01
       -2   -1    0    0    0  501  0.00000000000E+00  0.00000000000E+00  0.15917960209E+04  0.15917960209E+04  0.25500000920E-02 0. -1.
        2   -1    0    0  501    0  0.00000000000E+00  0.00000000000E+00 -0.25161797750E+04  0.25161797750E+04  0.25500000920E-02 0.  1.
    10030    2    1    2    0    0  0.00000000000E+00  0.00000000000E+00 -0.92438375410E+03  0.41079757959E+04  0.40026216178E+04 0.  0.
        3    1    3    3  502    0  0.94988959921E+03  0.11764215646E+04  0.88341945228E+03  0.17511961304E+04  0.10100000352E+00 0. -1.
       -3    1    3    3    0  502 -0.94988959921E+03 -0.11764215646E+04 -0.18078032064E+04  0.23567796655E+04  0.10100000352E+00 0.  1.
</event>
<event>
 5   0  0.6736335E-09  0.3999209E+04  0.7818609E-02  0.8004706E-01
       -2   -1    0    0    0  501  0.00000000000E+00  0.00000000000E+00  0.18364587345E+04  0.18364587345E+04  0.25500000920E-02 0.  1.
        2   -1    0    0  501    0  0.00000000000E+00  0.00000000000E+00 -0.21772434620E+04  0.21772434620E+04  0.25500000920E-02 0. -1.
    10030    2    1    2    0    0  0.00000000000E+00  0.00000000000E+00 -0.34078472755E+03  0.40137021965E+04  0.39992088082E+04 0.  0.
        1    1    3    3  502    0 -0.81029330557E+03 -0.66737083579E+03  0.15376739827E+04  0.18618271538E+04  0.50400001928E-02 0.  1.
       -1    1    3    3    0  502  0.81029330557E+03  0.66737083579E+03 -0.18784587102E+04  0.21518750427E+04  0.50400001928E-02 0. -1.
</event>
<event>
 5   0  0.2078125E-09  0.3999597E+04  0.7818609E-02  0.8004628E-01
        1   -1    0    0  501    0  0.00000000000E+00  0.00000000000E+00  0.18215562568E+04  0.18215562568E+04  0.50400001928E-02 0. -1.
       -1   -1    0    0    0  501  0.00000000000E+00  0.00000000000E+00 -0.21954819274E+04  0.21954819274E+04  0.50400001928E-02 0.  1.
    10030    2    1    2    0    0  0.00000000000E+00  0.00000000000E+00 -0.37392567064E+03  0.40170381842E+04  0.39995969004E+04 0.  0.
        2    1    3    3  502    0 -0.53582817152E+03  0.36553468771E+03 -0.20868954979E+04  0.21853741685E+04  0.25500000920E-02 0.  1.
       -2    1    3    3    0  502  0.53582817152E+03 -0.36553468771E+03  0.17129698272E+04  0.18316640157E+04  0.25500000920E-02 0. -1.
</event>
<event>
 5   0  0.2078125E-09  0.4000183E+04  0.7818609E-02  0.8004510E-01
       -1   -1    0    0    0  501  0.00000000000E+00  0.00000000000E+00  0.14907191072E+04  0.14907191072E+04  0.50400001928E-02 0.  1.
        1   -1    0    0  501    0  0.00000000000E+00  0.00000000000E+00 -0.26835146150E+04  0.26835146150E+04  0.50400001928E-02 0. -1.
    10030    2    1    2    0    0  0.00000000000E+00  0.00000000000E+00 -0.11927955078E+04  0.41742337223E+04  0.40001832514E+04 0.  0.
        1    1    3    3  502    0  0.84839110074E+03  0.18109359052E+04 -0.63116715469E+03  0.20970522859E+04  0.50400001928E-02 0. -1.
       -1    1    3    3    0  502 -0.84839110074E+03 -0.18109359052E+04 -0.56162835311E+03  0.20771814364E+04  0.50400001928E-02 0.  1.
</event>
<event>
 5   0  0.2078125E-09  0.3996413E+04  0.7818609E-02  0.8005271E-01
       -1   -1    0    0    0  501  0.00000000000E+00  0.00000000000E+00  0.14847802491E+04  0.14847802491E+04  0.50400001928E-02 0.  1.
        1   -1    0    0  501    0  0.00000000000E+00  0.00000000000E+00 -0.26891718060E+04  0.26891718060E+04  0.50400001928E-02 0. -1.
    10030    2    1    2    0    0  0.00000000000E+00  0.00000000000E+00 -0.12043915570E+04  0.41739520551E+04  0.39964129837E+04 0.  0.
        2    1    3    3  502    0 -0.32670817982E+03  0.19669948251E+04 -0.46593015424E+03  0.20476566571E+04  0.25500000920E-02 0. -1.
       -2    1    3    3    0  502  0.32670817982E+03 -0.19669948251E+04 -0.73846140273E+03  0.21262953981E+04  0.25500000920E-02 0.  1.
</event>
<event>
 5   0  0.6645526E-09  0.3999880E+04  0.7818609E-02  0.8004571E-01
        2   -1    0    0  501    0  0.00000000000E+00  0.00000000000E+00  0.22165104442E+04  0.22165104442E+04  0.25500000920E-02 0. -1.
       -2   -1    0    0    0  501  0.00000000000E+00  0.00000000000E+00 -0.18045302603E+04  0.18045302603E+04  0.25500000920E-02 0.  1.
    10030    2    1    2    0    0  0.00000000000E+00  0.00000000000E+00  0.41198018392E+03  0.40210407045E+04  0.39998800826E+04 0.  0.
        3    1    3    3  502    0  0.72552838611E+02 -0.16151563322E+04  0.13894035145E+04  0.21317682866E+04  0.10100000352E+00 0. -1.
       -3    1    3    3    0  502 -0.72552838611E+02  0.16151563322E+04 -0.97742333053E+03  0.18892724179E+04  0.10100000352E+00 0.  1.
</event>
<event>
 5   0  0.2078125E-09  0.4001285E+04  0.7818609E-02  0.8004287E-01
       -1   -1    0    0    0  501  0.00000000000E+00  0.00000000000E+00  0.18679627361E+04  0.18679627361E+04  0.50400001928E-02 0.  1.
        1   -1    0    0  501    0  0.00000000000E+00  0.00000000000E+00 -0.21427464514E+04  0.21427464514E+04  0.50400001928E-02 0. -1.
    10030    2    1    2    0    0  0.00000000000E+00  0.00000000000E+00 -0.27478371524E+03  0.40107091875E+04  0.40012850557E+04 0.  0.
        2    1    3    3  502    0 -0.75176051674E+01 -0.20005535441E+04 -0.12004425147E+03  0.20041660659E+04  0.25500000920E-02 0.  1.
       -2    1    3    3    0  502  0.75176051674E+01  0.20005535441E+04 -0.15473946377E+03  0.20065431216E+04  0.25500000920E-02 0. -1.
</event>
<event>
 5   0  0.6599276E-09  0.3999558E+04  0.7818609E-02  0.8004636E-01
       -2   -1    0    0    0  501  0.00000000000E+00  0.00000000000E+00  0.19665925827E+04  0.19665925827E+04  0.25500000920E-02 0. -1.
        2   -1    0    0  501    0  0.00000000000E+00  0.00000000000E+00 -0.20335253073E+04  0.20335253073E+04  0.25500000920E-02 0.  1.
    10030    2    1    2    0    0  0.00000000000E+00  0.00000000000E+00 -0.66932724656E+02  0.40001178900E+04  0.39995578686E+04 0.  0.
        2    1    3    3  502    0 -0.34806867297E+03  0.13117373203E+04  0.14355174246E+04  0.19754788976E+04  0.25500000920E-02 0. -1.
       -2    1    3    3    0  502  0.34806867297E+03 -0.13117373203E+04 -0.15024501492E+04  0.20246389924E+04  0.25500000920E-02 0.  1.
</event>
<event>
 5   0  0.2078125E-09  0.3999648E+04  0.7818609E-02  0.8004617E-01
        1   -1    0    0  501    0  0.00000000000E+00  0.00000000000E+00  0.17840984047E+04  0.17840984047E+04  0.50400001928E-02 0. -1.
       -1   -1    0    0    0  501  0.00000000000E+00  0.00000000000E+00 -0.22416347323E+04  0.22416347323E+04  0.50400001928E-02 0.  1.
    10030    2    1    2    0    0  0.00000000000E+00  0.00000000000E+00 -0.45753632763E+03  0.40257331370E+04  0.39996484594E+04 0.  0.
        3    1    3    3  502    0 -0.56603583870E+03 -0.19116615581E+04 -0.38615436153E+03  0.20307539695E+04  0.10100000352E+00 0.  1.
       -3    1    3    3    0  502  0.56603583870E+03  0.19116615581E+04 -0.71381966101E+02  0.19949791675E+04  0.10100000352E+00 0. -1.
</event>
<event>
 5   0  0.2078125E-09  0.4000608E+04  0.7818609E-02  0.8004424E-01
        1   -1    0    0  501    0  0.00000000000E+00  0.00000000000E+00  0.30917087096E+04  0.30917087096E+04  0.50400001928E-02 0.  1.
       -1   -1    0    0    0  501  0.00000000000E+00  0.00000000000E+00 -0.12941764837E+04  0.12941764837E+04  0.50400001928E-02 0. -1.
    10030    2    1    2    0    0  0.00000000000E+00  0.00000000000E+00  0.17975322259E+04  0.43858851934E+04  0.40006083070E+04 0.  0.
        1    1    3    3  502    0  0.88464971939E+03 -0.17769224502E+04  0.62764800421E+03  0.20818262505E+04  0.50400001928E-02 0. -1.
       -1    1    3    3    0  502 -0.88464971939E+03  0.17769224502E+04  0.11698842217E+04  0.23040589429E+04  0.50400001928E-02 0.  1.
</event>
<event>
 5   0  0.6538370E-09  0.4004505E+04  0.7818609E-02  0.8003638E-01
        2   -1    0    0  501    0  0.00000000000E+00  0.00000000000E+00  0.27087370333E+04  0.27087370333E+04  0.25500000920E-02 0. -1.
       -2   -1    0    0    0  501  0.00000000000E+00  0.00000000000E+00 -0.14800313420E+04  0.14800313420E+04  0.25500000920E-02 0.  1.
    10030    2    1    2    0    0  0.00000000000E+00  0.00000000000E+00  0.12287056912E+04  0.41887683753E+04  0.40045053160E+04 0.  0.
        4    1    3    3  502    0  0.18443222897E+04  0.26614245627E+03  0.13806304005E+04  0.23191589922E+04  0.12699999809E+01 0. -1.
       -4    1    3    3    0  502 -0.18443222897E+04 -0.26614245627E+03 -0.15192470927E+03  0.18696093831E+04  0.12699999809E+01 0.  1.
</event>
<event>
 5   0  0.6547327E-09  0.4002395E+04  0.7818609E-02  0.8004064E-01
       -2   -1    0    0    0  501  0.00000000000E+00  0.00000000000E+00  0.20179918447E+04  0.20179918447E+04  0.25500000920E-02 0.  1.
        2   -1    0    0  501    0  0.00000000000E+00  0.00000000000E+00 -0.19845427984E+04  0.19845427984E+04  0.25500000920E-02 0. -1.
    10030    2    1    2    0    0  0.00000000000E+00  0.00000000000E+00  0.33449046342E+02  0.40025346431E+04  0.40023948744E+04 0.  0.
        5    1    3    3  502    0  0.12407298559E+04 -0.43330468246E+03  0.15259510290E+04  0.20138798763E+04  0.46999998093E+01 0.  1.
       -5    1    3    3    0  502 -0.12407298559E+04  0.43330468246E+03 -0.14925019827E+04  0.19886547668E+04  0.46999998093E+01 0. -1.
</event>
<event>
 5   0  0.2078125E-09  0.3989248E+04  0.7818609E-02  0.8006719E-01
        1   -1    0    0  501    0  0.00000000000E+00  0.00000000000E+00  0.17029170295E+04  0.17029170295E+04  0.50400001928E-02 0.  1.
       -1   -1    0    0    0  501  0.00000000000E+00  0.00000000000E+00 -0.23362996571E+04  0.23362996571E+04  0.50400001928E-02 0. -1.
    10030    2    1    2    0    0  0.00000000000E+00  0.00000000000E+00 -0.63338262757E+03  0.40392166866E+04  0.39892477848E+04 0.  0.
        2    1    3    3  502    0  0.13121464707E+04 -0.86513235677E+03 -0.15602207445E+04  0.22146040565E+04  0.25500000920E-02 0. -1.
       -2    1    3    3    0  502 -0.13121464707E+04  0.86513235677E+03  0.92683811695E+03  0.18246126302E+04  0.25500000920E-02 0.  1.
</event>
<event>
 5   0  0.2078125E-09  0.4005682E+04  0.7818609E-02  0.8003401E-01
        1   -1    0    0  501    0  0.00000000000E+00  0.00000000000E+00  0.25260604908E+04  0.25260604908E+04  0.50400001928E-02 0.  1.
       -1   -1    0    0    0  501  0.00000000000E+00  0.00000000000E+00 -0.15879954326E+04  0.15879954326E+04  0.50400001928E-02 0. -1.
    10030    2    1    2    0    0  0.00000000000E+00  0.00000000000E+00  0.93806505824E+03  0.41140559234E+04  0.40056822250E+04 0.  0.
        4    1    3    3  502    0 -0.62306579993E+03 -0.12036273665E+04 -0.10454613407E+04  0.17117011585E+04  0.12699999809E+01 0. -1.
       -4    1    3    3    0  502  0.62306579993E+03  0.12036273665E+04  0.19835263989E+04  0.24023547649E+04  0.12699999809E+01 0.  1.
</event>
<event>
 5   0  0.2078125E-09  0.4009201E+04  0.7818609E-02  0.8002693E-01
       -1   -1    0    0    0  501  0.00000000000E+00  0.00000000000E+00  0.12287396157E+04  0.12287396157E+04  0.50400001928E-02 0. -1.
        1   -1    0    0  501    0  0.00000000000E+00  0.00000000000E+00 -0.32703619224E+04  0.32703619224E+04  0.50400001928E-02 0.  1.
    10030    2    1    2    0    0  0.00000000000E+00  0.00000000000E+00 -0.20416223067E+04  0.44991015381E+04  0.40092010434E+04 0.  0.
        1    1    3    3  502    0 -0.73586363375E+03 -0.84799756834E+03 -0.28844062334E+04  0.30952212332E+04  0.50400001928E-02 0.  1.
       -1    1    3    3    0  502  0.73586363375E+03  0.84799756834E+03  0.84278392665E+03  0.14038803049E+04  0.50400001928E-02 0. -1.
</event>
<event>
 5   0  0.2078125E-09  0.4000245E+04  0.7818609E-02  0.8004497E-01
        3   -1    0    0  501    0  0.00000000000E+00  0.00000000000E+00  0.12773952651E+04  0.12773952691E+04  0.10100000352E+00 0. -1.
       -3   -1    0    0    0  501  0.00000000000E+00  0.00000000000E+00 -0.31317553515E+04  0.31317553531E+04  0.10100000352E+00 0.  1.
    10030    2    1    2    0    0  0.00000000000E+00  0.00000000000E+00 -0.18543600864E+04  0.44091506222E+04  0.40002447275E+04 0.  0.
        2    1    3    3  502    0  0.71113456671E+03  0.15135376246E+04 -0.21366029293E+04  0.27132232843E+04  0.25500000920E-02 0.  1.
       -2    1    3    3    0  502 -0.71113456671E+03 -0.15135376246E+04  0.28224284296E+03  0.16959273379E+04  0.25500000920E-02 0. -1.
</event>
<event>
 5   0  0.2078125E-09  0.3998731E+04  0.7818609E-02  0.8004803E-01
        1   -1    0    0  501    0  0.00000000000E+00  0.00000000000E+00  0.22135139798E+04  0.22135139798E+04  0.50400001928E-02 0.  1.
       -1   -1    0    0    0  501  0.00000000000E+00  0.00000000000E+00 -0.18059352710E+04  0.18059352710E+04  0.50400001928E-02 0. -1.
    10030    2    1    2    0    0  0.00000000000E+00  0.00000000000E+00  0.40757870883E+03  0.40194492508E+04  0.39987312833E+04 0.  0.
        3    1    3    3  502    0 -0.18097643940E+04 -0.24107818169E+03 -0.61535439861E+03  0.19266621130E+04  0.10100000352E+00 0. -1.
       -3    1    3    3    0  502  0.18097643940E+04  0.24107818169E+03  0.10229331074E+04  0.20927871378E+04  0.10100000352E+00 0.  1.
</event>
<event>
 5   0  0.6736335E-09  0.4011223E+04  0.7818609E-02  0.8002286E-01
        2   -1    0    0  501    0  0.00000000000E+00  0.00000000000E+00  0.18990790073E+04  0.18990790073E+04  0.25500000920E-02 0. -1.
       -2   -1    0    0    0  501  0.00000000000E+00  0.00000000000E+00 -0.21181206352E+04  0.21181206352E+04  0.25500000920E-02 0.  1.
    10030    2    1    2    0    0  0.00000000000E+00  0.00000000000E+00 -0.21904162783E+03  0.40171996425E+04  0.40112234708E+04 0.  0.
        1    1    3    3  502    0 -0.18281622963E+04  0.72196683720E+03  0.28990284627E+03  0.19868208666E+04  0.50400001928E-02 0. -1.
       -1    1    3    3    0  502  0.18281622963E+04 -0.72196683720E+03 -0.50894447410E+03  0.20303787759E+04  0.50400001928E-02 0.  1.
</event>
<event>
 5   0  0.2078125E-09  0.3998792E+04  0.7818609E-02  0.8004790E-01
        1   -1    0    0  501    0  0.00000000000E+00  0.00000000000E+00  0.21353937305E+04  0.21353937305E+04  0.50400001928E-02 0. -1.
       -1   -1    0    0    0  501  0.00000000000E+00  0.00000000000E+00 -0.18720598058E+04  0.18720598058E+04  0.50400001928E-02 0.  1.
    10030    2    1    2    0    0  0.00000000000E+00  0.00000000000E+00  0.26333392468E+03  0.40074535363E+04  0.39987922038E+04 0.  0.
        5    1    3    3  502    0  0.81854095246E+03  0.49922221621E+03 -0.16266504894E+04  0.18881859063E+04  0.46999998093E+01 0.  1.
       -5    1    3    3    0  502 -0.81854095246E+03 -0.49922221621E+03  0.18899844141E+04  0.21192676300E+04  0.46999998093E+01 0. -1.
</event>
<event>
 5   0  0.2078125E-09  0.4000831E+04  0.7818609E-02  0.8004379E-01
       -1   -1    0    0    0  501  0.00000000000E+00  0.00000000000E+00  0.18808323760E+04  0.18808323760E+04  0.50400001928E-02 0.  1.
        1   -1    0    0  501    0  0.00000000000E+00  0.00000000000E+00 -0.21276019471E+04  0.21276019471E+04  0.50400001928E-02 0. -1.
    10030    2    1    2    0    0  0.00000000000E+00  0.00000000000E+00 -0.24676957108E+03  0.40084343231E+04  0.40008312263E+04 0.  0.
        1    1    3    3  502    0  0.13545208249E+04 -0.14328869046E+04  0.21455589908E+03  0.19834126601E+04  0.50400001928E-02 0. -1.
       -1    1    3    3    0  502 -0.13545208249E+04  0.14328869046E+04 -0.46132547016E+03  0.20250216630E+04  0.50400001928E-02 0.  1.
</event>
<event>
 5   0  0.2078125E-09  0.4000030E+04  0.7818609E-02  0.8004541E-01
        1   -1    0    0  501    0  0.00000000000E+00  0.00000000000E+00  0.22840108552E+04  0.22840108552E+04  0.50400001928E-02 0.  1.
       -1   -1    0    0    0  501  0.00000000000E+00  0.00000000000E+00 -0.17513314202E+04  0.17513314202E+04  0.50400001928E-02 0. -1.
    10030    2    1    2    0    0  0.00000000000E+00  0.00000000000E+00  0.53267943499E+03  0.40353422753E+04  0.40000299872E+04 0.  0.
        3    1    3    3  502    0 -0.75185385224E+03  0.10389345073E+02  0.21359862141E+04  0.22644710796E+04  0.10100000352E+00 0.  1.
       -3    1    3    3    0  502  0.75185385224E+03 -0.10389345073E+02 -0.16033067791E+04  0.17708711957E+04  0.10100000352E+00 0. -1.
</event>
<event>
 5   0  0.2078125E-09  0.4001451E+04  0.7818609E-02  0.8004254E-01
       -1   -1    0    0    0  501  0.00000000000E+00  0.00000000000E+00  0.20367096326E+04  0.20367096326E+04  0.50400001928E-02 0.  1.
        1   -1    0    0  501    0  0.00000000000E+00  0.00000000000E+00 -0.19653776113E+04  0.19653776113E+04  0.50400001928E-02 0. -1.
    10030    2    1    2    0    0  0.00000000000E+00  0.00000000000E+00  0.71332021255E+02  0.40020872439E+04  0.40014514930E+04 0.  0.
        4    1    3    3  502    0  0.10365773970E+04  0.15865959019E+04  0.67695634479E+03  0.20124737915E+04  0.12699999809E+01 0.  1.
       -4    1    3    3    0  502 -0.10365773970E+04 -0.15865959019E+04 -0.60562432353E+03  0.19896134524E+04  0.12699999809E+01 0. -1.
</event>
<event>
 5   0  0.2078125E-09  0.4000081E+04  0.7818609E-02  0.8004530E-01
       -1   -1    0    0    0  501  0.00000000000E+00  0.00000000000E+00  0.22608162772E+04  0.22608162772E+04  0.50400001928E-02 0.  1.
        1   -1    0    0  501    0  0.00000000000E+00  0.00000000000E+00 -0.17693440070E+04  0.17693440070E+04  0.50400001928E-02 0. -1.
    10030    2    1    2    0    0  0.00000000000E+00  0.00000000000E+00  0.49147227023E+03  0.40301602842E+04  0.40000808647E+04 0.  0.
        5    1    3    3  502    0  0.14842484591E+04 -0.30639603587E+03  0.15606430016E+04  0.21754311498E+04  0.46999998093E+01 0.  1.
       -5    1    3    3    0  502 -0.14842484591E+04  0.30639603587E+03 -0.10691707313E+04  0.18547291344E+04  0.46999998093E+01 0. -1.
</event>
<event>
 5   0  0.6736335E-09  0.3998167E+04  0.7818609E-02  0.8004916E-01
       -2   -1    0    0    0  501  0.00000000000E+00  0.00000000000E+00  0.16563396990E+04  0.16563396990E+04  0.25500000920E-02 0.  1.
        2   -1    0    0  501    0  0.00000000000E+00  0.00000000000E+00 -0.24127507594E+04  0.24127507594E+04  0.25500000920E-02 0. -1.
    10030    2    1    2    0    0  0.00000000000E+00  0.00000000000E+00 -0.75641106040E+03  0.40690904583E+04  0.39981670132E+04 0.  0.
        1    1    3    3  502    0 -0.79758363281E+03  0.73829460843E+02 -0.22422923376E+04  0.23810639151E+04  0.50400001928E-02 0. -1.
       -1    1    3    3    0  502  0.79758363281E+03 -0.73829460843E+02  0.14858812772E+04  0.16880265432E+04  0.50400001928E-02 0.  1.
</event>
<event>
 5   0  0.6645526E-09  0.3999945E+04  0.7818609E-02  0.8004558E-01
       -2   -1    0    0    0  501  0.00000000000E+00  0.00000000000E+00  0.18598367124E+04  0.18598367124E+04  0.25500000920E-02 0. -1.
        2   -1    0    0  501    0  0.00000000000E+00  0.00000000000E+00 -0.21506674366E+04  0.21506674366E+04  0.25500000920E-02 0.  1.
    10030    2    1    2    0    0  0.00000000000E+00  0.00000000000E+00 -0.29083072424E+03  0.40105041490E+04  0.39999451270E+04 0.  0.
        3    1    3    3  502    0  0.73462006823E+03 -0.13650612591E+04  0.11215783595E+04  0.19133731765E+04  0.10100000352E+00 0. -1.
       -3    1    3    3    0  502 -0.73462006823E+03  0.13650612591E+04 -0.14124090837E+04  0.20971309725E+04  0.10100000352E+00 0.  1.
</event>
<event>
 5   0  0.2078125E-09  0.3998980E+04  0.7818609E-02  0.8004752E-01
       -1   -1    0    0    0  501  0.00000000000E+00  0.00000000000E+00  0.19965030978E+04  0.19965030978E+04  0.50400001928E-02 0. -1.
        1   -1    0    0  501    0  0.00000000000E+00  0.00000000000E+00 -0.20024816996E+04  0.20024816996E+04  0.50400001928E-02 0.  1.
    10030    2    1    2    0    0  0.00000000000E+00  0.00000000000E+00 -0.59786018752E+01  0.39989847974E+04  0.39989803283E+04 0.  0.
        3    1    3    3  502    0 -0.24886052808E+03  0.42611237340E+03  0.19346551403E+04  0.19965955623E+04  0.10100000352E+00 0. -1.
       -3    1    3    3    0  502  0.24886052808E+03 -0.42611237340E+03 -0.19406337422E+04  0.20023892351E+04  0.10100000352E+00 0.  1.
</event>
<event>
 5   0  0.6547327E-09  0.4000589E+04  0.7818609E-02  0.8004428E-01
       -2   -1    0    0    0  501  0.00000000000E+00  0.00000000000E+00  0.14604928187E+04  0.14604928187E+04  0.25500000920E-02 0. -1.
        2   -1    0    0  501    0  0.00000000000E+00  0.00000000000E+00 -0.27396081205E+04  0.27396081205E+04  0.25500000920E-02 0.  1.
    10030    2    1    2    0    0  0.00000000000E+00  0.00000000000E+00 -0.12791153018E+04  0.42001009392E+04  0.40005889497E+04 0.  0.
        5    1    3    3  502    0 -0.28479497669E+03 -0.17120268490E+04 -0.16836442707E+04  0.24180207258E+04  0.46999998093E+01 0. -1.
       -5    1    3    3    0  502  0.28479497669E+03  0.17120268490E+04  0.40452896885E+03  0.17820802134E+04  0.46999998093E+01 0.  1.
</event>
<event>
 5   0  0.2078125E-09  0.3997666E+04  0.7818609E-02  0.8005018E-01
       -1   -1    0    0    0  501  0.00000000000E+00  0.00000000000E+00  0.17281038921E+04  0.17281038921E+04  0.50400001928E-02 0. -1.
        1   -1    0    0  501    0  0.00000000000E+00  0.00000000000E+00 -0.23119749820E+04  0.23119749820E+04  0.50400001928E-02 0.  1.
    10030    2    1    2    0    0  0.00000000000E+00  0.00000000000E+00 -0.58387108990E+03  0.40400788741E+04  0.39976658014E+04 0.  0.
        4    1    3    3  502    0 -0.23847396812E+03  0.18906946928E+04 -0.90143870739E+03  0.21081246668E+04  0.12699999809E+01 0.  1.
       -4    1    3    3    0  502  0.23847396812E+03 -0.18906946928E+04  0.31756761749E+03  0.19319542073E+04  0.12699999809E+01 0. -1.
</event>
<event>
 5   0  0.2078125E-09  0.3998527E+04  0.7818609E-02  0.8004844E-01
        1   -1    0    0  501    0  0.00000000000E+00  0.00000000000E+00  0.24745435439E+04  0.24745435439E+04  0.50400001928E-02 0.  1.
       -1   -1    0    0    0  501  0.00000000000E+00  0.00000000000E+00 -0.16152693303E+04  0.16152693303E+04  0.50400001928E-02 0. -1.
    10030    2    1    2    0    0  0.00000000000E+00  0.00000000000E+00  0.85927421357E+03  0.40898128742E+04  0.39985268752E+04 0.  0.
        2    1    3    3  502    0  0.36886861657E+03 -0.68539077718E+03 -0.14539340137E+04  0.16491660590E+04  0.25500000920E-02 0. -1.
       -2    1    3    3    0  502 -0.36886861657E+03  0.68539077718E+03  0.23132082273E+04  0.24406468152E+04  0.25500000920E-02 0.  1.
</event>
<event>
 5   0  0.2078125E-09  0.3999192E+04  0.7818609E-02  0.8004709E-01
        1   -1    0    0  501    0  0.00000000000E+00  0.00000000000E+00  0.12109144793E+04  0.12109144793E+04  0.50400001928E-02 0.  1.
       -1   -1    0    0    0  501  0.00000000000E+00  0.00000000000E+00 -0.33019549684E+04  0.33019549684E+04  0.50400001928E-02 0. -1.
    10030    2    1    2    0    0  0.00000000000E+00  0.00000000000E+00 -0.20910404892E+04  0.45128694477E+04  0.39991924591E+04 0.  0.
        1    1    3    3  502    0  0.87722270710E+03 -0.17954917601E+04 -0.11259075514E+04  0.22936822258E+04  0.50400001928E-02 0.  1.
       -1    1    3    3    0  502 -0.87722270710E+03  0.17954917601E+04 -0.96513293778E+03  0.22191872220E+04  0.50400001928E-02 0. -1.
</event>
<event>
 5   0  0.2078125E-09  0.4011608E+04  0.7818609E-02  0.8002209E-01
       -1   -1    0    0    0  501  0.00000000000E+00  0.00000000000E+00  0.21667797611E+04  0.21667797611E+04  0.50400001928E-02 0. -1.
        1   -1    0    0  501    0  0.00000000000E+00  0.00000000000E+00 -0.18567871858E+04  0.18567871858E+04  0.50400001928E-02 0.  1.
    10030    2    1    2    0    0  0.00000000000E+00  0.00000000000E+00  0.30999257529E+03  0.40235669470E+04  0.40116076054E+04 0.  0.
        5    1    3    3  502    0  0.40153327981E+03 -0.11498858178E+04  0.17534098749E+04  0.21349320009E+04  0.46999998093E+01 0. -1.
       -5    1    3    3    0  502 -0.40153327981E+03  0.11498858178E+04 -0.14434172996E+04  0.18886349461E+04  0.46999998093E+01 0.  1.
</event>
<event>
 5   0  0.6547327E-09  0.3999505E+04  0.7818609E-02  0.8004647E-01
       -2   -1    0    0    0  501  0.00000000000E+00  0.00000000000E+00  0.29160654186E+04  0.29160654186E+04  0.25500000920E-02 0.  1.
        2   -1    0    0  501    0  0.00000000000E+00  0.00000000000E+00 -0.13713715307E+04  0.13713715307E+04  0.25500000920E-02 0. -1.
    10030    2    1    2    0    0  0.00000000000E+00  0.00000000000E+00  0.15446938879E+04  0.42874369493E+04  0.39995045177E+04 0.  0.
        5    1    3    3  502    0 -0.11384884195E+04 -0.82473980537E+03  0.22969274220E+04  0.26930000557E+04  0.46999998093E+01 0.  1.
       -5    1    3    3    0  502  0.11384884195E+04  0.82473980537E+03 -0.75223353412E+03  0.15944368936E+04  0.46999998093E+01 0. -1.
</event>
<event>
 5   0  0.6538370E-09  0.3997967E+04  0.7818609E-02  0.8004957E-01
       -2   -1    0    0    0  501  0.00000000000E+00  0.00000000000E+00  0.23868426587E+04  0.23868426587E+04  0.25500000920E-02 0. -1.
        2   -1    0    0  501    0  0.00000000000E+00  0.00000000000E+00 -0.16741512585E+04  0.16741512585E+04  0.25500000920E-02 0.  1.
    10030    2    1    2    0    0  0.00000000000E+00  0.00000000000E+00  0.71269140021E+03  0.40609939173E+04  0.39979673040E+04 0.  0.
        4    1    3    3  502    0  0.10312419525E+04 -0.40391301669E+03 -0.13340186539E+04  0.17338434391E+04  0.12699999809E+01 0.  1.
       -4    1    3    3    0  502 -0.10312419525E+04  0.40391301669E+03  0.20467100541E+04  0.23271504782E+04  0.12699999809E+01 0. -1.
</event>
<event>
 5   0  0.2078125E-09  0.4001777E+04  0.7818609E-02  0.8004188E-01
        3   -1    0    0  501    0  0.00000000000E+00  0.00000000000E+00  0.26939266467E+04  0.26939266486E+04  0.10100000352E+00 0. -1.
       -3   -1    0    0    0  501  0.00000000000E+00  0.00000000000E+00 -0.14861412182E+04  0.14861412216E+04  0.10100000352E+00 0.  1.
    10030    2    1    2    0    0  0.00000000000E+00  0.00000000000E+00  0.12077854286E+04  0.41800678703E+04  0.40017773249E+04 0.  0.
        4    1    3    3  502    0 -0.62171947926E+03 -0.47836091587E+03  0.25266048327E+04  0.26455808191E+04  0.12699999809E+01 0. -1.
       -4    1    3    3    0  502  0.62171947926E+03  0.47836091587E+03 -0.13188194041E+04  0.15344870512E+04  0.12699999809E+01 0.  1.
</event>
<event>
 5   0  0.6736335E-09  0.3996479E+04  0.7818609E-02  0.8005257E-01
        2   -1    0    0  501    0  0.00000000000E+00  0.00000000000E+00  0.16531997379E+04  0.16531997379E+04  0.25500000920E-02 0.  1.
       -2   -1    0    0    0  501  0.00000000000E+00  0.00000000000E+00 -0.24152923695E+04  0.24152923695E+04  0.25500000920E-02 0. -1.
    10030    2    1    2    0    0  0.00000000000E+00  0.00000000000E+00 -0.76209263160E+03  0.40684921073E+04  0.39964788062E+04 0.  0.
        1    1    3    3  502    0 -0.78468633468E+03 -0.22336298704E+03  0.14759214334E+04  0.16864067556E+04  0.50400001928E-02 0.  1.
       -1    1    3    3    0  502  0.78468633468E+03  0.22336298704E+03 -0.22380140650E+04  0.23820853517E+04  0.50400001928E-02 0. -1.
</event>
<event>
 5   0  0.6538370E-09  0.3999087E+04  0.7818609E-02  0.8004731E-01
        2   -1    0    0  501    0  0.00000000000E+00  0.00000000000E+00  0.21533798444E+04  0.21533798444E+04  0.25500000920E-02 0. -1.
       -2   -1    0    0    0  501  0.00000000000E+00  0.00000000000E+00 -0.18566969145E+04  0.18566969145E+04  0.25500000920E-02 0.  1.
    10030    2    1    2    0    0  0.00000000000E+00  0.00000000000E+00  0.29668292990E+03  0.40100767590E+04  0.39990867522E+04 0.  0.
        4    1    3    3  502    0  0.12567282471E+04 -0.15291064928E+04  0.43309288565E+03  0.20261055288E+04  0.12699999809E+01 0. -1.
       -4    1    3    3    0  502 -0.12567282471E+04  0.15291064928E+04 -0.13640995574E+03  0.19839712302E+04  0.12699999809E+01 0.  1.
</event>
<event>
 5   0  0.6538370E-09  0.3990828E+04  0.7818609E-02  0.8006399E-01
       -2   -1    0    0    0  501  0.00000000000E+00  0.00000000000E+00  0.12817736387E+04  0.12817736387E+04  0.25500000920E-02 0. -1.
        2   -1    0    0  501    0  0.00000000000E+00  0.00000000000E+00 -0.31063806644E+04  0.31063806644E+04  0.25500000920E-02 0.  1.
    10030    2    1    2    0    0  0.00000000000E+00  0.00000000000E+00 -0.18246070257E+04  0.43881543032E+04  0.39908279078E+04 0.  0.
        4    1    3    3  502    0  0.99882345339E+03  0.13357240751E+04  0.29213781941E+03  0.16932670239E+04  0.12699999809E+01 0. -1.
       -4    1    3    3    0  502 -0.99882345339E+03 -0.13357240751E+04 -0.21167448451E+04  0.26948872793E+04  0.12699999809E+01 0.  1.
</event>
<event>
 5   0  0.2078125E-09  0.3997134E+04  0.7818609E-02  0.8005125E-01
       -1   -1    0    0    0  501  0.00000000000E+00  0.00000000000E+00  0.19299564884E+04  0.19299564884E+04  0.50400001928E-02 0. -1.
        1   -1    0    0  501    0  0.00000000000E+00  0.00000000000E+00 -0.20696166662E+04  0.20696166662E+04  0.50400001928E-02 0.  1.
    10030    2    1    2    0    0  0.00000000000E+00  0.00000000000E+00 -0.13966017772E+03  0.39995731546E+04  0.39971340300E+04 0.  0.
        1    1    3    3  502    0 -0.13482860638E+03  0.84567829206E+03  0.17370734910E+04  0.19366917256E+04  0.50400001928E-02 0. -1.
       -1    1    3    3    0  502  0.13482860638E+03 -0.84567829206E+03 -0.18767336687E+04  0.20628814290E+04  0.50400001928E-02 0.  1.
</event>
<event>
 5   0  0.2078125E-09  0.3999320E+04  0.7818609E-02  0.8004684E-01
        1   -1    0    0  501    0  0.00000000000E+00  0.00000000000E+00  0.25824351468E+04  0.25824351468E+04  0.50400001928E-02 0. -1.
       -1   -1    0    0    0  501  0.00000000000E+00  0.00000000000E+00 -0.15483991134E+04  0.15483991134E+04  0.50400001928E-02 0.  1.
    10030    2    1    2    0    0  0.00000000000E+00  0.00000000000E+00  0.10340360334E+04  0.41308342602E+04  0.39993200880E+04 0.  0.
        5    1    3    3  502    0  0.18383627098E+04 -0.63261326570E+03  0.10002060325E+04  0.21863694094E+04  0.46999998093E+01 0. -1.
       -5    1    3    3    0  502 -0.18383627098E+04  0.63261326570E+03  0.33830000873E+02  0.19444648508E+04  0.46999998093E+01 0.  1.
</event>
<event>
 5   0  0.2078125E-09  0.4003145E+04  0.7818609E-02  0.8003912E-01
        1   -1    0    0  501    0  0.00000000000E+00  0.00000000000E+00  0.32787573097E+04  0.32787573097E+04  0.50400001928E-02 0. -1.
       -1   -1    0    0    0  501  0.00000000000E+00  0.00000000000E+00 -0.12218938201E+04  0.12218938201E+04  0.50400001928E-02 0.  1.
    10030    2    1    2    0    0  0.00000000000E+00  0.00000000000E+00  0.20568634896E+04  0.45006511297E+04  0.40031454104E+04 0.  0.
        3    1    3    3  502    0  0.91520826450E+03 -0.12673923023E+04 -0.37687340186E+03  0.16080805286E+04  0.10100000352E+00 0.  1.
       -3    1    3    3    0  502 -0.91520826450E+03  0.12673923023E+04  0.24337368915E+04  0.28925706011E+04  0.10100000352E+00 0. -1.
</event>
<event>
 5   0  0.6538370E-09  0.4001360E+04  0.7818609E-02  0.8004272E-01
        2   -1    0    0  501    0  0.00000000000E+00  0.00000000000E+00  0.17879739121E+04  0.17879739121E+04  0.25500000920E-02 0. -1.
       -2   -1    0    0    0  501  0.00000000000E+00  0.00000000000E+00 -0.22386903409E+04  0.22386903409E+04  0.25500000920E-02 0.  1.
    10030    2    1    2    0    0  0.00000000000E+00  0.00000000000E+00 -0.45071642873E+03  0.40266642530E+04  0.40013597323E+04 0.  0.
        4    1    3    3  502    0 -0.27151479488E+03  0.15680231333E+04  0.99486987924E+03  0.18767483902E+04  0.12699999809E+01 0. -1.
       -4    1    3    3    0  502  0.27151479488E+03 -0.15680231333E+04 -0.14455863080E+04  0.21499158628E+04  0.12699999809E+01 0.  1.
</event>
<event>
 5   0  0.2078125E-09  0.3998541E+04  0.7818609E-02  0.8004841E-01
        1   -1    0    0  501    0  0.00000000000E+00  0.00000000000E+00  0.26219713915E+04  0.26219713915E+04  0.50400001928E-02 0.  1.
       -1   -1    0    0    0  501  0.00000000000E+00  0.00000000000E+00 -0.15244573010E+04  0.15244573010E+04  0.50400001928E-02 0. -1.
    10030    2    1    2    0    0  0.00000000000E+00  0.00000000000E+00  0.10975140905E+04  0.41464286926E+04  0.39985414496E+04 0.  0.
        4    1    3    3  502    0 -0.33992215656E+03 -0.19292385729E+04  0.13451643100E+03  0.19635694097E+04  0.12699999809E+01 0.  1.
       -4    1    3    3    0  502  0.33992215656E+03  0.19292385729E+04  0.96299765949E+03  0.21828592829E+04  0.12699999809E+01 0. -1.
</event>
<event>
 5   0  0.6736335E-09  0.4002409E+04  0.7818609E-02  0.8004061E-01
       -2   -1    0    0    0  501  0.00000000000E+00  0.00000000000E+00  0.14653201414E+04  0.14653201414E+04  0.25500000920E-02 0.  1.
        2   -1    0    0  501    0  0.00000000000E+00  0.00000000000E+00 -0.27330684354E+04  0.27330684355E+04  0.25500000920E-02 0. -1.
    10030    2    1    2    0    0  0.00000000000E+00  0.00000000000E+00 -0.12677482941E+04  0.41983885768E+04  0.40024093875E+04 0.  0.
        1    1    3    3  502    0  0.14387854197E+02  0.80270748166E+02 -0.27313247505E+04  0.27325419112E+04  0.50400001928E-02 0. -1.
       -1    1    3    3    0  502 -0.14387854197E+02 -0.80270748166E+02  0.14635764565E+04  0.14658466657E+04  0.50400001928E-02 0.  1.
</event>
<event>
 5   0  0.2078125E-09  0.4000138E+04  0.7818609E-02  0.8004519E-01
        1   -1    0    0  501    0  0.00000000000E+00  0.00000000000E+00  0.29992091407E+04  0.29992091407E+04  0.50400001928E-02 0.  1.
       -1   -1    0    0    0  501  0.00000000000E+00  0.00000000000E+00 -0.13337768753E+04  0.13337768753E+04  0.50400001928E-02 0. -1.
    10030    2    1    2    0    0  0.00000000000E+00  0.00000000000E+00  0.16654322655E+04  0.43329860160E+04  0.40001378957E+04 0.  0.
        5    1    3    3  502    0  0.10345192365E+04  0.93918265042E+03  0.23828636089E+04  0.27623097527E+04  0.46999998093E+01 0.  1.
       -5    1    3    3    0  502 -0.10345192365E+04 -0.93918265042E+03 -0.71743134340E+03  0.15706762633E+04  0.46999998093E+01 0. -1.
</event>
<event>
 5   0  0.6645526E-09  0.4000125E+04  0.7818609E-02  0.8004521E-01
        2   -1    0    0  501    0  0.00000000000E+00  0.00000000000E+00  0.19093556023E+04  0.19093556023E+04  0.25500000920E-02 0. -1.
       -2   -1    0    0    0  501  0.00000000000E+00  0.00000000000E+00 -0.20950788371E+04  0.20950788371E+04  0.25500000920E-02 0.  1.
    10030    2    1    2    0    0  0.00000000000E+00  0.00000000000E+00 -0.18572323480E+03  0.40044344394E+04  0.40001252555E+04 0.  0.
        3    1    3    3  502    0  0.25690209773E+03 -0.71709977106E+03 -0.19441833670E+04  0.20880803969E+04  0.10100000352E+00 0.  1.
       -3    1    3    3    0  502 -0.25690209773E+03  0.71709977106E+03  0.17584601322E+04  0.19163540425E+04  0.10100000352E+00 0. -1.
</event>
<event>
 5   0  0.6736335E-09  0.3999128E+04  0.7818609E-02  0.8004722E-01
       -2   -1    0    0    0  501  0.00000000000E+00  0.00000000000E+00  0.19608873867E+04  0.19608873867E+04  0.25500000920E-02 0.  1.
        2   -1    0    0  501    0  0.00000000000E+00  0.00000000000E+00 -0.20390039249E+04  0.20390039249E+04  0.25500000920E-02 0. -1.
    10030    2    1    2    0    0  0.00000000000E+00  0.00000000000E+00 -0.78116538205E+02  0.39998913116E+04  0.39991284440E+04 0.  0.
        1    1    3    3  502    0 -0.15159330712E+04 -0.46728285373E+03 -0.12566033982E+04  0.20237239046E+04  0.50400001928E-02 0. -1.
       -1    1    3    3    0  502  0.15159330712E+04  0.46728285373E+03  0.11784868600E+04  0.19761674071E+04  0.50400001928E-02 0.  1.
</event>
<event>
 5   0  0.2078125E-09  0.4000827E+04  0.7818609E-02  0.8004380E-01
        1   -1    0    0  501    0  0.00000000000E+00  0.00000000000E+00  0.17040769077E+04  0.17040769077E+04  0.50400001928E-02 0. -1.
       -1   -1    0    0    0  501  0.00000000000E+00  0.00000000000E+00 -0.23482829521E+04  0.23482829521E+04  0.50400001928E-02 0.  1.
    10030    2    1    2    0    0  0.00000000000E+00  0.00000000000E+00 -0.64420604442E+03  0.40523598598E+04  0.40008272902E+04 0.  0.
        5    1    3    3  502    0 -0.23224550936E+03 -0.13085427164E+04 -0.18364899711E+04  0.22669229191E+04  0.46999998093E+01 0.  1.
       -5    1    3    3    0  502  0.23224550936E+03  0.13085427164E+04  0.11922839267E+04  0.17854369407E+04  0.46999998093E+01 0. -1.
</event>
<event>
 5   0  0.2078125E-09  0.3998924E+04  0.7818609E-02  0.8004764E-01
       -1   -1    0    0    0  501  0.00000000000E+00  0.00000000000E+00  0.14334520564E+04  0.14334520564E+04  0.50400001928E-02 0. -1.
        1   -1    0    0  501    0  0.00000000000E+00  0.00000000000E+00 -0.27889656307E+04  0.27889656308E+04  0.50400001928E-02 0.  1.
    10030    2    1    2    0    0  0.00000000000E+00  0.00000000000E+00 -0.13555135744E+04  0.42224176871E+04  0.39989241146E+04 0.  0.
        2    1    3    3  502    0 -0.18177585250E+04 -0.60402835692E+03 -0.12831706593E+04  0.23055635433E+04  0.25500000920E-02 0. -1.
       -2    1    3    3    0  502  0.18177585250E+04  0.60402835692E+03 -0.72342915059E+02  0.19168541438E+04  0.25500000920E-02 0.  1.
</event>
<event>
 5   0  0.6599276E-09  0.4000902E+04  0.7818609E-02  0.8004365E-01
       -2   -1    0    0    0  501  0.00000000000E+00  0.00000000000E+00  0.13988783896E+04  0.13988783896E+04  0.25500000920E-02 0.  1.
        2   -1    0    0  501    0  0.00000000000E+00  0.00000000000E+00 -0.28607227970E+04  0.28607227970E+04  0.25500000920E-02 0. -1.
    10030    2    1    2    0    0  0.00000000000E+00  0.00000000000E+00 -0.14618444074E+04  0.42596011866E+04  0.40009015481E+04 0.  0.
        2    1    3    3  502    0 -0.12794628553E+04  0.12299136440E+04  0.25185244245E+03  0.17925240368E+04  0.25500000920E-02 0. -1.
       -2    1    3    3    0  502  0.12794628553E+04 -0.12299136440E+04 -0.17136968499E+04  0.24670771498E+04  0.25500000920E-02 0.  1.
</event>
<event>
 5   0  0.6599276E-09  0.3997719E+04  0.7818609E-02  0.8005007E-01
       -2   -1    0    0    0  501  0.00000000000E+00  0.00000000000E+00  0.29661553685E+04  0.29661553685E+04  0.25500000920E-02 0. -1.
        2   -1    0    0  501    0  0.00000000000E+00  0.00000000000E+00 -0.13470097132E+04  0.13470097132E+04  0.25500000920E-02 0.  1.
    10030    2    1    2    0    0  0.00000000000E+00  0.00000000000E+00  0.16191456553E+04  0.43131650818E+04  0.39977193960E+04 0.  0.
        2    1    3    3  502    0 -0.39573380783E+03  0.97569763568E+03  0.26427135499E+04  0.28447365484E+04  0.25500000920E-02 0. -1.
       -2    1    3    3    0  502  0.39573380783E+03 -0.97569763568E+03 -0.10235678945E+04  0.14684285334E+04  0.25500000920E-02 0.  1.
</event>
<event>
 5   0  0.2078125E-09  0.3999726E+04  0.7818609E-02  0.8004602E-01
       -1   -1    0    0    0  501  0.00000000000E+00  0.00000000000E+00  0.17759878810E+04  0.17759878810E+04  0.50400001928E-02 0.  1.
        1   -1    0    0  501    0  0.00000000000E+00  0.00000000000E+00 -0.22519593680E+04  0.22519593680E+04  0.50400001928E-02 0. -1.
    10030    2    1    2    0    0  0.00000000000E+00  0.00000000000E+00 -0.47597148696E+03  0.40279472490E+04  0.39997262637E+04 0.  0.
        3    1    3    3  502    0 -0.19515363968E+04  0.20307916850E+03 -0.62764875030E+03  0.20600190341E+04  0.10100000352E+00 0.  1.
       -3    1    3    3    0  502  0.19515363968E+04 -0.20307916850E+03  0.15167726334E+03  0.19679282150E+04  0.10100000352E+00 0. -1.
</event>
<event>
 5   0  0.2078125E-09  0.4003512E+04  0.7818609E-02  0.8003838E-01
        1   -1    0    0  501    0  0.00000000000E+00  0.00000000000E+00  0.25446324172E+04  0.25446324172E+04  0.50400001928E-02 0. -1.
       -1   -1    0    0    0  501  0.00000000000E+00  0.00000000000E+00 -0.15746977599E+04  0.15746977599E+04  0.50400001928E-02 0.  1.
    10030    2    1    2    0    0  0.00000000000E+00  0.00000000000E+00  0.96993465730E+03  0.41193301771E+04  0.40035119418E+04 0.  0.
        2    1    3    3  502    0  0.53059481249E+03 -0.17173850880E+04  0.13914092863E+04  0.22730952900E+04  0.25500000920E-02 0. -1.
       -2    1    3    3    0  502 -0.53059481249E+03  0.17173850880E+04 -0.42147462897E+03  0.18462348871E+04  0.25500000920E-02 0.  1.
</event>
<event>
 5   0  0.6736335E-09  0.4000162E+04  0.7818609E-02  0.8004514E-01
        2   -1    0    0  501    0  0.00000000000E+00  0.00000000000E+00  0.26857470445E+04  0.26857470445E+04  0.25500000920E-02 0. -1.
       -2   -1    0    0    0  501  0.00000000000E+00  0.00000000000E+00 -0.14894639075E+04  0.14894639075E+04  0.25500000920E-02 0.  1.
    10030    2    1    2    0    0  0.00000000000E+00  0.00000000000E+00  0.11962831370E+04  0.41752109520E+04  0.40001616405E+04 0.  0.
        1    1    3    3  502    0 -0.14189651790E+04  0.30891540709E+03  0.20336187455E+04  0.24988989796E+04  0.50400001928E-02 0. -1.
       -1    1    3    3    0  502  0.14189651790E+04 -0.30891540709E+03 -0.83733560846E+03  0.16763119725E+04  0.50400001928E-02 0.  1.
</event>
<event>
 5   0  0.2078125E-09  0.3995690E+04  0.7818609E-02  0.8005417E-01
       -1   -1    0    0    0  501  0.00000000000E+00  0.00000000000E+00  0.18914405425E+04  0.18914405425E+04  0.50400001928E-02 0. -1.
        1   -1    0    0  501    0  0.00000000000E+00  0.00000000000E+00 -0.21102355152E+04  0.21102355152E+04  0.50400001928E-02 0.  1.
    10030    2    1    2    0    0  0.00000000000E+00  0.00000000000E+00 -0.21879497270E+03  0.40016760578E+04  0.39956901821E+04 0.  0.
        4    1    3    3  502    0 -0.30565879104E+03 -0.76374307351E+03  0.17139486971E+04  0.19011450571E+04  0.12699999809E+01 0. -1.
       -4    1    3    3    0  502  0.30565879104E+03  0.76374307351E+03 -0.19327436698E+04  0.21005310007E+04  0.12699999809E+01 0.  1.
</event>
<event>
 5   0  0.6736335E-09  0.3996329E+04  0.7818609E-02  0.8005288E-01
        2   -1    0    0  501    0  0.00000000000E+00  0.00000000000E+00  0.17760618270E+04  0.17760618270E+04  0.25500000920E-02 0.  1.
       -2   -1    0    0    0  501  0.00000000000E+00  0.00000000000E+00 -0.22480417096E+04  0.22480417096E+04  0.25500000920E-02 0. -1.
    10030    2    1    2    0    0  0.00000000000E+00  0.00000000000E+00 -0.47197988259E+03  0.40241035367E+04  0.39963288484E+04 0.  0.
        1    1    3    3  502    0 -0.81230839824E+03  0.15965964513E+04  0.65542870974E+03  0.19074988744E+04  0.50400001928E-02 0.  1.
       -1    1    3    3    0  502  0.81230839824E+03 -0.15965964513E+04 -0.11274085923E+04  0.21166046623E+04  0.50400001928E-02 0. -1.
</event>
<event>
 5   0  0.2078125E-09  0.4000965E+04  0.7818609E-02  0.8004352E-01
       -1   -1    0    0    0  501  0.00000000000E+00  0.00000000000E+00  0.18104333964E+04  0.18104333964E+04  0.50400001928E-02 0. -1.
        1   -1    0    0  501    0  0.00000000000E+00  0.00000000000E+00 -0.22104824020E+04  0.22104824020E+04  0.50400001928E-02 0.  1.
    10030    2    1    2    0    0  0.00000000000E+00  0.00000000000E+00 -0.40004900556E+03  0.40209157984E+04  0.40009654649E+04 0.  0.
        1    1    3    3  502    0 -0.18909022160E+04  0.55021237552E+03  0.15341981136E+03  0.19752930130E+04  0.50400001928E-02 0. -1.
       -1    1    3    3    0  502  0.18909022160E+04 -0.55021237552E+03 -0.55346881692E+03  0.20456227854E+04  0.50400001928E-02 0.  1.
</event>
<event>
 5   0  0.6538370E-09  0.4001612E+04  0.7818609E-02  0.8004222E-01
       -2   -1    0    0    0  501  0.00000000000E+00  0.00000000000E+00  0.13107353596E+04  0.13107353596E+04  0.25500000920E-02 0. -1.
        2   -1    0    0  501    0  0.00000000000E+00  0.00000000000E+00 -0.30541816564E+04  0.30541816564E+04  0.25500000920E-02 0.  1.
    10030    2    1    2    0    0  0.00000000000E+00  0.00000000000E+00 -0.17434462968E+04  0.43649170161E+04  0.40016116213E+04 0.  0.
        4    1    3    3  502    0  0.26358508553E+03  0.68843745282E+02 -0.30338560542E+04  0.30460631525E+04  0.12699999809E+01 0.  1.
       -4    1    3    3    0  502 -0.26358508553E+03 -0.68843745282E+02  0.12904097574E+04  0.13188538636E+04  0.12699999809E+01 0. -1.
</event>
<event>
 5   0  0.6645526E-09  0.3999992E+04  0.7818609E-02  0.8004548E-01
       -2   -1    0    0    0  501  0.00000000000E+00  0.00000000000E+00  0.29042946377E+04  0.29042946377E+04  0.25500000920E-02 0.  1.
        2   -1    0    0  501    0  0.00000000000E+00  0.00000000000E+00 -0.13772648901E+04  0.13772648901E+04  0.25500000920E-02 0. -1.
    10030    2    1    2    0    0  0.00000000000E+00  0.00000000000E+00  0.15270297477E+04  0.42815595278E+04  0.39999915175E+04 0.  0.
        3    1    3    3  502    0  0.33209724081E+03 -0.55501821576E+03 -0.12622285673E+04  0.14182929047E+04  0.10100000352E+00 0. -1.
       -3    1    3    3    0  502 -0.33209724081E+03  0.55501821576E+03  0.27892583150E+04  0.28632666231E+04  0.10100000352E+00 0.  1.
</event>
<event>
 5   0  0.6599276E-09  0.4001592E+04  0.7818609E-02  0.8004225E-01
        2   -1    0    0  501    0  0.00000000000E+00  0.00000000000E+00  0.22362160495E+04  0.22362160495E+04  0.25500000920E-02 0.  1.
       -2   -1    0    0    0  501  0.00000000000E+00  0.00000000000E+00 -0.17901602813E+04  0.17901602813E+04  0.25500000920E-02 0. -1.
    10030    2    1    2    0    0  0.00000000000E+00  0.00000000000E+00  0.44605576822E+03  0.40263763308E+04  0.40015922592E+04 0.  0.
        2    1    3    3  502    0 -0.50343141747E+03  0.14864306728E+04  0.14717890039E+04  0.21515302017E+04  0.25500000920E-02 0.  1.
       -2    1    3    3    0  502  0.50343141747E+03 -0.14864306728E+04 -0.10257332357E+04  0.18748461291E+04  0.25500000920E-02 0. -1.
</event>
<event>
 5   0  0.6736335E-09  0.4028537E+04  0.7818609E-02  0.7998814E-01
        2   -1    0    0  501    0  0.00000000000E+00  0.00000000000E+00  0.26034601938E+04  0.26034601938E+04  0.25500000920E-02 0. -1.
       -2   -1    0    0    0  501  0.00000000000E+00  0.00000000000E+00 -0.15584172691E+04  0.15584172691E+04  0.25500000920E-02 0.  1.
    10030    2    1    2    0    0  0.00000000000E+00  0.00000000000E+00  0.10450429247E+04  0.41618774629E+04  0.40285368686E+04 0.  0.
        1    1    3    3  502    0  0.17058772178E+04  0.22702925038E+03  0.16039338428E+04  0.23524802093E+04  0.50400001928E-02 0. -1.
       -1    1    3    3    0  502 -0.17058772178E+04 -0.22702925038E+03 -0.55889091819E+03  0.18093972536E+04  0.50400001928E-02 0.  1.
</event>
<event>
 5   0  0.2078125E-09  0.3994025E+04  0.7818609E-02  0.8005753E-01
       -1   -1    0    0    0  501  0.00000000000E+00  0.00000000000E+00  0.16512115201E+04  0.16512115201E+04  0.50400001928E-02 0.  1.
        1   -1    0    0  501    0  0.00000000000E+00  0.00000000000E+00 -0.24152316397E+04  0.24152316397E+04  0.50400001928E-02 0. -1.
    10030    2    1    2    0    0  0.00000000000E+00  0.00000000000E+00 -0.76402011953E+03  0.40664431598E+04  0.39940246906E+04 0.  0.
        4    1    3    3  502    0  0.86796594405E+03  0.24846565146E+03 -0.21955871840E+04  0.23739639331E+04  0.12699999809E+01 0. -1.
       -4    1    3    3    0  502 -0.86796594405E+03 -0.24846565146E+03  0.14315670645E+04  0.16924792267E+04  0.12699999809E+01 0.  1.
</event>
<event>
 5   0  0.6599276E-09  0.3993658E+04  0.7818609E-02  0.8005827E-01
        2   -1    0    0  501    0  0.00000000000E+00  0.00000000000E+00  0.24059498698E+04  0.24059498698E+04  0.25500000920E-02 0.  1.
       -2   -1    0    0    0  501  0.00000000000E+00  0.00000000000E+00 -0.16572770026E+04  0.16572770026E+04  0.25500000920E-02 0. -1.
    10030    2    1    2    0    0  0.00000000000E+00  0.00000000000E+00  0.74867286724E+03  0.40632268724E+04  0.39936576662E+04 0.  0.
        2    1    3    3  502    0 -0.82839490591E+03 -0.70868751916E+03  0.20764557195E+04  0.23452386819E+04  0.25500000920E-02 0.  1.
       -2    1    3    3    0  502  0.82839490591E+03  0.70868751916E+03 -0.13277828523E+04  0.17179881905E+04  0.25500000920E-02 0. -1.
</event>
<event>
 5   0  0.2078125E-09  0.4000575E+04  0.7818609E-02  0.8004431E-01
       -1   -1    0    0    0  501  0.00000000000E+00  0.00000000000E+00  0.13731863093E+04  0.13731863093E+04  0.50400001928E-02 0. -1.
        1   -1    0    0  501    0  0.00000000000E+00  0.00000000000E+00 -0.29137705867E+04  0.29137705867E+04  0.50400001928E-02 0.  1.
    10030    2    1    2    0    0  0.00000000000E+00  0.00000000000E+00 -0.15405842774E+04  0.42869568960E+04  0.40005748978E+04 0.  0.
        5    1    3    3  502    0 -0.26123793147E+02  0.43207245600E+03 -0.28629745231E+04  0.28955162355E+04  0.46999998093E+01 0.  1.
       -5    1    3    3    0  502  0.26123793147E+02 -0.43207245600E+03  0.13223902457E+04  0.13914406606E+04  0.46999998093E+01 0. -1.
</event>
<event>
 5   0  0.2078125E-09  0.3999288E+04  0.7818609E-02  0.8004690E-01
       -1   -1    0    0    0  501  0.00000000000E+00  0.00000000000E+00  0.12887491648E+04  0.12887491648E+04  0.50400001928E-02 0. -1.
        1   -1    0    0  501    0  0.00000000000E+00  0.00000000000E+00 -0.31026800782E+04  0.31026800782E+04  0.50400001928E-02 0.  1.
    10030    2    1    2    0    0  0.00000000000E+00  0.00000000000E+00 -0.18139309135E+04  0.43914292430E+04  0.39992881163E+04 0.  0.
        4    1    3    3  502    0  0.85527143711E+03  0.84081218516E+03 -0.26638911367E+04  0.29214332036E+04  0.12699999809E+01 0.  1.
       -4    1    3    3    0  502 -0.85527143711E+03 -0.84081218516E+03  0.84996022326E+03  0.14699960394E+04  0.12699999809E+01 0. -1.
</event>
<event>
 5   0  0.2078125E-09  0.4000192E+04  0.7818609E-02  0.8004508E-01
       -1   -1    0    0    0  501  0.00000000000E+00  0.00000000000E+00  0.23753211450E+04  0.23753211450E+04  0.50400001928E-02 0.  1.
        1   -1    0    0  501    0  0.00000000000E+00  0.00000000000E+00 -0.16841444068E+04  0.16841444068E+04  0.50400001928E-02 0. -1.
    10030    2    1    2    0    0  0.00000000000E+00  0.00000000000E+00  0.69117673815E+03  0.40594655518E+04  0.40001919058E+04 0.  0.
        2    1    3    3  502    0 -0.20143564724E+03  0.16382866051E+04  0.14918493327E+04  0.22248985936E+04  0.25500000920E-02 0.  1.
       -2    1    3    3    0  502  0.20143564724E+03 -0.16382866051E+04 -0.80067259451E+03  0.18345669582E+04  0.25500000920E-02 0. -1.
</event>
<event>
 5   0  0.2078125E-09  0.4001715E+04  0.7818609E-02  0.8004201E-01
        3   -1    0    0  501    0  0.00000000000E+00  0.00000000000E+00  0.23671544201E+04  0.23671544223E+04  0.10100000352E+00 0.  1.
       -3   -1    0    0    0  501  0.00000000000E+00  0.00000000000E+00 -0.16912419741E+04  0.16912419771E+04  0.10100000352E+00 0. -1.
    10030    2    1    2    0    0  0.00000000000E+00  0.00000000000E+00  0.67591244599E+03  0.40583963994E+04  0.40017150948E+04 0.  0.
        2    1    3    3  502    0  0.54140709442E+03 -0.18461946133E+04  0.89516978793E+03  0.21220002689E+04  0.25500000920E-02 0.  1.
       -2    1    3    3    0  502 -0.54140709442E+03  0.18461946133E+04 -0.21925734195E+03  0.19363961305E+04  0.25500000920E-02 0. -1.
</event>
<event>
 5   0  0.6736335E-09  0.3999449E+04  0.7818609E-02  0.8004658E-01
        2   -1    0    0  501    0  0.00000000000E+00  0.00000000000E+00  0.28949737246E+04  0.28949737246E+04  0.25500000920E-02 0. -1.
       -2   -1    0    0    0  501  0.00000000000E+00  0.00000000000E+00 -0.13813243148E+04  0.13813243148E+04  0.25500000920E-02 0.  1.
    10030    2    1    2    0    0  0.00000000000E+00  0.00000000000E+00  0.15136494099E+04  0.42762980394E+04  0.39994487603E+04 0.  0.
        1    1    3    3  502    0  0.88242334302E+03  0.17918198832E+04  0.65201834511E+03  0.21010514921E+04  0.50400001928E-02 0. -1.
       -1    1    3    3    0  502 -0.88242334302E+03 -0.17918198832E+04  0.86163106476E+03  0.21752465473E+04  0.50400001928E-02 0.  1.
</event>
<event>
 5   0  0.6538370E-09  0.4000773E+04  0.7818609E-02  0.8004391E-01
       -2   -1    0    0    0  501  0.00000000000E+00  0.00000000000E+00  0.19659312935E+04  0.19659312935E+04  0.25500000920E-02 0.  1.
        2   -1    0    0  501    0  0.00000000000E+00  0.00000000000E+00 -0.20354456189E+04  0.20354456189E+04  0.25500000920E-02 0. -1.
    10030    2    1    2    0    0  0.00000000000E+00  0.00000000000E+00 -0.69514325409E+02  0.40013769125E+04  0.40007730446E+04 0.  0.
        4    1    3    3  502    0  0.21007609615E+03  0.22285775634E+03 -0.20118577728E+04  0.20350358367E+04  0.12699999809E+01 0. -1.
       -4    1    3    3    0  502 -0.21007609615E+03 -0.22285775634E+03  0.19423434474E+04  0.19663410758E+04  0.12699999809E+01 0.  1.
</event>
<event>
 5   0  0.6645526E-09  0.3993374E+04  0.7818609E-02  0.8005885E-01
       -2   -1    0    0    0  501  0.00000000000E+00  0.00000000000E+00  0.18257672050E+04  0.18257672050E+04  0.25500000920E-02 0. -1.
        2   -1    0    0  501    0  0.00000000000E+00  0.00000000000E+00 -0.21836077480E+04  0.21836077480E+04  0.25500000920E-02 0.  1.
    10030    2    1    2    0    0  0.00000000000E+00  0.00000000000E+00 -0.35784054306E+03  0.40093749530E+04  0.39933742198E+04 0.  0.
        3    1    3    3  502    0 -0.66238371934E+03  0.17095936660E+04 -0.97284574176E+03  0.20755460828E+04  0.10100000352E+00 0.  1.
       -3    1    3    3    0  502  0.66238371934E+03 -0.17095936660E+04  0.61500519870E+03  0.19338288702E+04  0.10100000352E+00 0. -1.
</event>
<event>
 5   0  0.2078125E-09  0.4000484E+04  0.7818609E-02  0.8004449E-01
       -1   -1    0    0    0  501  0.00000000000E+00  0.00000000000E+00  0.31862135136E+04  0.31862135136E+04  0.50400001928E-02 0.  1.
        1   -1    0    0  501    0  0.00000000000E+00  0.00000000000E+00 -0.12557126013E+04  0.12557126013E+04  0.50400001928E-02 0. -1.
    10030    2    1    2    0    0  0.00000000000E+00  0.00000000000E+00  0.19305009123E+04  0.44419261149E+04  0.40004842004E+04 0.  0.
        2    1    3    3  502    0  0.14758834628E+04 -0.12014440278E+04  0.16490554672E+04  0.25181508457E+04  0.25500000920E-02 0.  1.
       -2    1    3    3    0  502 -0.14758834628E+04  0.12014440278E+04  0.28144544506E+03  0.19237752692E+04  0.25500000920E-02 0. -1.
</event>
<event>
 5   0  0.2078125E-09  0.4000054E+04  0.7818609E-02  0.8004536E-01
       -1   -1    0    0    0  501  0.00000000000E+00  0.00000000000E+00  0.14428698219E+04  0.14428698219E+04  0.50400001928E-02 0. -1.
        1   -1    0    0  501    0  0.00000000000E+00  0.00000000000E+00 -0.27723283199E+04  0.27723283199E+04  0.50400001928E-02 0.  1.
    10030    2    1    2    0    0  0.00000000000E+00  0.00000000000E+00 -0.13294584980E+04  0.42151981418E+04  0.40000544342E+04 0.  0.
        2    1    3    3  502    0 -0.84031869659E+03  0.17080789472E+04 -0.18182721929E+02  0.19036805964E+04  0.25500000920E-02 0.  1.
       -2    1    3    3    0  502  0.84031869659E+03 -0.17080789472E+04 -0.13112757761E+04  0.23115175454E+04  0.25500000920E-02 0. -1.
</event>
<event>
 5   0  0.2078125E-09  0.4002890E+04  0.7818609E-02  0.8003964E-01
       -1   -1    0    0    0  501  0.00000000000E+00  0.00000000000E+00  0.12279172064E+04  0.12279172064E+04  0.50400001928E-02 0. -1.
        1   -1    0    0  501    0  0.00000000000E+00  0.00000000000E+00 -0.32622581788E+04  0.32622581788E+04  0.50400001928E-02 0.  1.
    10030    2    1    2    0    0  0.00000000000E+00  0.00000000000E+00 -0.20343409724E+04  0.44901753852E+04  0.40028904305E+04 0.  0.
        4    1    3    3  502    0  0.19433540725E+04  0.39639404362E+03 -0.13182217288E+04  0.23814834512E+04  0.12699999809E+01 0.  1.
       -4    1    3    3    0  502 -0.19433540725E+04 -0.39639404362E+03 -0.71611924356E+03  0.21086919341E+04  0.12699999809E+01 0. -1.
</event>
<event>
 5   0  0.2078125E-09  0.4000017E+04  0.7818609E-02  0.8004543E-01
        1   -1    0    0  501    0  0.00000000000E+00  0.00000000000E+00  0.24294225934E+04  0.24294225934E+04  0.50400001928E-02 0. -1.
       -1   -1    0    0    0  501  0.00000000000E+00  0.00000000000E+00 -0.16464954873E+04  0.16464954873E+04  0.50400001928E-02 0.  1.
    10030    2    1    2    0    0  0.00000000000E+00  0.00000000000E+00  0.78292710611E+03  0.40759180808E+04  0.40000166684E+04 0.  0.
        3    1    3    3  502    0 -0.11299705655E+04  0.60104698842E+02  0.20718731215E+04  0.23607423188E+04  0.10100000352E+00 0. -1.
       -3    1    3    3    0  502  0.11299705655E+04 -0.60104698842E+02 -0.12889460154E+04  0.17151757620E+04  0.10100000352E+00 0.  1.
</event>
<event>
 5   0  0.6538370E-09  0.4001769E+04  0.7818609E-02  0.8004190E-01
       -2   -1    0    0    0  501  0.00000000000E+00  0.00000000000E+00  0.15516660012E+04  0.15516660012E+04  0.25500000920E-02 0. -1.
        2   -1    0    0  501    0  0.00000000000E+00  0.00000000000E+00 -0.25801544926E+04  0.25801544926E+04  0.25500000920E-02 0.  1.
    10030    2    1    2    0    0  0.00000000000E+00  0.00000000000E+00 -0.10284884914E+04  0.41318204937E+04  0.40017686109E+04 0.  0.
        4    1    3    3  502    0  0.46718087382E+03 -0.16708690986E+04 -0.15433687441E+04  0.23220788545E+04  0.12699999809E+01 0.  1.
       -4    1    3    3    0  502 -0.46718087382E+03  0.16708690986E+04  0.51488025264E+03  0.18097416393E+04  0.12699999809E+01 0. -1.
</event>
<event>
 5   0  0.6547327E-09  0.3998185E+04  0.7818609E-02  0.8004913E-01
       -2   -1    0    0    0  501  0.00000000000E+00  0.00000000000E+00  0.18746336105E+04  0.18746336105E+04  0.25500000920E-02 0.  1.
        2   -1    0    0  501    0  0.00000000000E+00  0.00000000000E+00 -0.21318147062E+04  0.21318147062E+04  0.25500000920E-02 0. -1.
    10030    2    1    2    0    0  0.00000000000E+00  0.00000000000E+00 -0.25718109572E+03  0.40064483167E+04  0.39981853381E+04 0.  0.
        5    1    3    3  502    0 -0.15629467733E+04 -0.72721607196E+03 -0.11429590351E+04  0.20683382889E+04  0.46999998093E+01 0. -1.
       -5    1    3    3    0  502  0.15629467733E+04  0.72721607196E+03  0.88577793938E+03  0.19381100277E+04  0.46999998093E+01 0.  1.
</event>
<event>
 5   0  0.2078125E-09  0.3998909E+04  0.7818609E-02  0.8004767E-01
       -1   -1    0    0    0  501  0.00000000000E+00  0.00000000000E+00  0.15399778177E+04  0.15399778177E+04  0.50400001928E-02 0. -1.
        1   -1    0    0  501    0  0.00000000000E+00  0.00000000000E+00 -0.25960238847E+04  0.25960238848E+04  0.50400001928E-02 0.  1.
    10030    2    1    2    0    0  0.00000000000E+00  0.00000000000E+00 -0.10560460671E+04  0.41360017024E+04  0.39989094497E+04 0.  0.
        5    1    3    3  502    0  0.12200511286E+04  0.12447448892E+04 -0.15413466820E+04  0.23267329627E+04  0.46999998093E+01 0.  1.
       -5    1    3    3    0  502 -0.12200511286E+04 -0.12447448892E+04  0.48530061498E+03  0.18092687397E+04  0.46999998093E+01 0. -1.
</event>
<event>
 5   0  0.6736335E-09  0.3999453E+04  0.7818609E-02  0.8004657E-01
       -2   -1    0    0    0  501  0.00000000000E+00  0.00000000000E+00  0.25145511459E+04  0.25145511459E+04  0.25500000920E-02 0. -1.
        2   -1    0    0  501    0  0.00000000000E+00  0.00000000000E+00 -0.15903058345E+04  0.15903058345E+04  0.25500000920E-02 0.  1.
    10030    2    1    2    0    0  0.00000000000E+00  0.00000000000E+00  0.92424531141E+03  0.41048569805E+04  0.39994526419E+04 0.  0.
        1    1    3    3  502    0 -0.37734924185E+03  0.17085762919E+04  0.14557696840E+04  0.22761570176E+04  0.50400001928E-02 0. -1.
       -1    1    3    3    0  502  0.37734924185E+03 -0.17085762919E+04 -0.53152437261E+03  0.18286999629E+04  0.50400001928E-02 0.  1.
</event>
<event>
 5   0  0.6599276E-09  0.3992813E+04  0.7818609E-02  0.8005998E-01
        2   -1    0    0  501    0  0.00000000000E+00  0.00000000000E+00  0.18401828434E+04  0.18401828434E+04  0.25500000920E-02 0. -1.
       -2   -1    0    0    0  501  0.00000000000E+00  0.00000000000E+00 -0.21658931535E+04  0.21658931535E+04  0.25500000920E-02 0.  1.
    10030    2    1    2    0    0  0.00000000000E+00  0.00000000000E+00 -0.32571031006E+03  0.40060759969E+04  0.39928132547E+04 0.  0.
        2    1    3    3  502    0 -0.38081257697E+03  0.18190187329E+04 -0.89451817696E+03  0.20625251849E+04  0.25500000920E-02 0.  1.
       -2    1    3    3    0  502  0.38081257697E+03 -0.18190187329E+04  0.56880786690E+03  0.19435508120E+04  0.25500000920E-02 0. -1.
</event>
<event>
 5   0  0.6599276E-09  0.3985232E+04  0.7818609E-02  0.8007532E-01
        2   -1    0    0  501    0  0.00000000000E+00  0.00000000000E+00  0.19037754438E+04  0.19037754438E+04  0.25500000920E-02 0. -1.
       -2   -1    0    0    0  501  0.00000000000E+00  0.00000000000E+00 -0.20856024187E+04  0.20856024187E+04  0.25500000920E-02 0.  1.
    10030    2    1    2    0    0  0.00000000000E+00  0.00000000000E+00 -0.18182697490E+03  0.39893778626E+04  0.39852320737E+04 0.  0.
        2    1    3    3  502    0  0.86958795926E+03 -0.28368922519E+03  0.16811981037E+04  0.19139200242E+04  0.25500000920E-02 0. -1.
       -2    1    3    3    0  502 -0.86958795926E+03  0.28368922519E+03 -0.18630250786E+04  0.20754578383E+04  0.25500000920E-02 0.  1.
</event>
<event>
 5   0  0.2078125E-09  0.4000425E+04  0.7818609E-02  0.8004461E-01
        1   -1    0    0  501    0  0.00000000000E+00  0.00000000000E+00  0.25173244047E+04  0.25173244047E+04  0.50400001928E-02 0.  1.
       -1   -1    0    0    0  501  0.00000000000E+00  0.00000000000E+00 -0.15893267377E+04  0.15893267377E+04  0.50400001928E-02 0. -1.
    10030    2    1    2    0    0  0.00000000000E+00  0.00000000000E+00  0.92799766701E+03  0.41066511424E+04  0.40004254693E+04 0.  0.
        4    1    3    3  502    0  0.73808330973E+03 -0.18587346811E+04  0.42861943841E+03  0.20453307367E+04  0.12699999809E+01 0. -1.
       -4    1    3    3    0  502 -0.73808330973E+03  0.18587346811E+04  0.49937822859E+03  0.20613204057E+04  0.12699999809E+01 0.  1.
</event>
<event>
 5   0  0.2078125E-09  0.3999327E+04  0.7818609E-02  0.8004682E-01
        1   -1    0    0  501    0  0.00000000000E+00  0.00000000000E+00  0.24190830930E+04  0.24190830930E+04  0.50400001928E-02 0.  1.
       -1   -1    0    0    0  501  0.00000000000E+00  0.00000000000E+00 -0.16529622983E+04  0.16529622983E+04  0.50400001928E-02 0. -1.
    10030    2    1    2    0    0  0.00000000000E+00  0.00000000000E+00  0.76612079466E+03  0.40720453913E+04  0.39993265179E+04 0.  0.
        1    1    3    3  502    0 -0.86242984547E+03  0.31415724843E+03  0.21919254032E+04  0.23763453008E+04  0.50400001928E-02 0.  1.
       -1    1    3    3    0  502  0.86242984547E+03 -0.31415724843E+03 -0.14258046086E+04  0.16957000905E+04  0.50400001928E-02 0. -1.
</event>
<event>
 5   0  0.6547327E-09  0.3999878E+04  0.7818609E-02  0.8004571E-01
       -2   -1    0    0    0  501  0.00000000000E+00  0.00000000000E+00  0.24264931657E+04  0.24264931657E+04  0.25500000920E-02 0.  1.
        2   -1    0    0  501    0  0.00000000000E+00  0.00000000000E+00 -0.16483686805E+04  0.16483686805E+04  0.25500000920E-02 0. -1.
    10030    2    1    2    0    0  0.00000000000E+00  0.00000000000E+00  0.77812448522E+03  0.40748618461E+04  0.39998776670E+04 0.  0.
        5    1    3    3  502    0  0.13023876160E+04  0.49276716504E+03  0.18514872123E+04  0.23166915998E+04  0.46999998093E+01 0.  1.
       -5    1    3    3    0  502 -0.13023876160E+04 -0.49276716504E+03 -0.10733627271E+04  0.17581702463E+04  0.46999998093E+01 0. -1.
</event>
<event>
 5   0  0.2078125E-09  0.4001078E+04  0.7818609E-02  0.8004329E-01
       -1   -1    0    0    0  501  0.00000000000E+00  0.00000000000E+00  0.24904182843E+04  0.24904182843E+04  0.50400001928E-02 0.  1.
        1   -1    0    0  501    0  0.00000000000E+00  0.00000000000E+00 -0.16070220799E+04  0.16070220799E+04  0.50400001928E-02 0. -1.
    10030    2    1    2    0    0  0.00000000000E+00  0.00000000000E+00  0.88339620445E+03  0.40974403642E+04  0.40010784401E+04 0.  0.
        5    1    3    3  502    0  0.18929604048E+04 -0.43939599006E+02  0.11029307419E+04  0.21912800127E+04  0.46999998093E+01 0.  1.
       -5    1    3    3    0  502 -0.18929604048E+04  0.43939599006E+02 -0.21953453741E+03  0.19061603515E+04  0.46999998093E+01 0. -1.
</event>
<event>
 5   0  0.6599276E-09  0.3995185E+04  0.7818609E-02  0.8005519E-01
        2   -1    0    0  501    0  0.00000000000E+00  0.00000000000E+00  0.20498173950E+04  0.20498173950E+04  0.25500000920E-02 0. -1.
       -2   -1    0    0    0  501  0.00000000000E+00  0.00000000000E+00 -0.19466985084E+04  0.19466985084E+04  0.25500000920E-02 0.  1.
    10030    2    1    2    0    0  0.00000000000E+00  0.00000000000E+00  0.10311888653E+03  0.39965159034E+04  0.39951853351E+04 0.  0.
        2    1    3    3  502    0  0.51092050478E+03 -0.75616686616E+03 -0.17259815330E+04  0.19523934911E+04  0.25500000920E-02 0.  1.
       -2    1    3    3    0  502 -0.51092050478E+03  0.75616686616E+03  0.18291004196E+04  0.20441224123E+04  0.25500000920E-02 0. -1.
</event>
<event>
 5   0  0.6538370E-09  0.4000509E+04  0.7818609E-02  0.8004444E-01
       -2   -1    0    0    0  501  0.00000000000E+00  0.00000000000E+00  0.23996421191E+04  0.23996421191E+04  0.25500000920E-02 0.  1.
        2   -1    0    0  501    0  0.00000000000E+00  0.00000000000E+00 -0.16673393701E+04  0.16673393702E+04  0.25500000920E-02 0. -1.
    10030    2    1    2    0    0  0.00000000000E+00  0.00000000000E+00  0.73230274897E+03  0.40669814893E+04  0.40005088574E+04 0.  0.
        4    1    3    3  502    0  0.19418191193E+04 -0.47394117781E+03  0.44313569104E+03  0.20473525797E+04  0.12699999809E+01 0. -1.
       -4    1    3    3    0  502 -0.19418191193E+04  0.47394117781E+03  0.28916705793E+03  0.20196289096E+04  0.12699999809E+01 0.  1.
</event>
<event>
 5   0  0.2078125E-09  0.3999756E+04  0.7818609E-02  0.8004596E-01
       -1   -1    0    0    0  501  0.00000000000E+00  0.00000000000E+00  0.19991212101E+04  0.19991212101E+04  0.50400001928E-02 0. -1.
        1   -1    0    0  501    0  0.00000000000E+00  0.00000000000E+00 -0.20006347126E+04  0.20006347127E+04  0.50400001928E-02 0.  1.
    10030    2    1    2    0    0  0.00000000000E+00  0.00000000000E+00 -0.15135025881E+01  0.39997559227E+04  0.39997556364E+04 0.  0.
        4    1    3    3  502    0  0.14958145976E+04  0.74246956631E+03  0.10996011364E+04  0.19994615873E+04  0.12699999809E+01 0. -1.
       -4    1    3    3    0  502 -0.14958145976E+04 -0.74246956631E+03 -0.11011146390E+04  0.20002943354E+04  0.12699999809E+01 0.  1.
</event>
<event>
 5   0  0.6547327E-09  0.3996454E+04  0.7818609E-02  0.8005262E-01
       -2   -1    0    0    0  501  0.00000000000E+00  0.00000000000E+00  0.14749696804E+04  0.14749696804E+04  0.25500000920E-02 0.  1.
        2   -1    0    0  501    0  0.00000000000E+00  0.00000000000E+00 -0.27071135801E+04  0.27071135801E+04  0.25500000920E-02 0. -1.
    10030    2    1    2    0    0  0.00000000000E+00  0.00000000000E+00 -0.12321438997E+04  0.41820832605E+04  0.39964536540E+04 0.  0.
        5    1    3    3  502    0 -0.85100809099E+03  0.78191895087E+03 -0.23219039403E+04  0.25936214093E+04  0.46999998093E+01 0. -1.
       -5    1    3    3    0  502  0.85100809099E+03 -0.78191895087E+03  0.10897600406E+04  0.15884618512E+04  0.46999998093E+01 0.  1.
</event>
<event>
 5   0  0.6645526E-09  0.4000385E+04  0.7818609E-02  0.8004469E-01
        2   -1    0    0  501    0  0.00000000000E+00  0.00000000000E+00  0.14538604646E+04  0.14538604646E+04  0.25500000920E-02 0. -1.
       -2   -1    0    0    0  501  0.00000000000E+00  0.00000000000E+00 -0.27518254412E+04  0.27518254412E+04  0.25500000920E-02 0.  1.
    10030    2    1    2    0    0  0.00000000000E+00  0.00000000000E+00 -0.12979649766E+04  0.42056859057E+04  0.40003850886E+04 0.  0.
        3    1    3    3  502    0 -0.64723078582E+03 -0.18090012916E+04 -0.12337442094E+04  0.22833129762E+04  0.10100000352E+00 0. -1.
       -3    1    3    3    0  502  0.64723078582E+03  0.18090012916E+04 -0.64220767255E+02  0.19223729295E+04  0.10100000352E+00 0.  1.
</event>
<event>
 5   0  0.6538370E-09  0.3999391E+04  0.7818609E-02  0.8004669E-01
        2   -1    0    0  501    0  0.00000000000E+00  0.00000000000E+00  0.13651413329E+04  0.13651413329E+04  0.25500000920E-02 0. -1.
       -2   -1    0    0    0  501  0.00000000000E+00  0.00000000000E+00 -0.29292076831E+04  0.29292076831E+04  0.25500000920E-02 0.  1.
    10030    2    1    2    0    0  0.00000000000E+00  0.00000000000E+00 -0.15640663502E+04  0.42943490160E+04  0.39993911941E+04 0.  0.
        4    1    3    3  502    0  0.62682136108E-01  0.17722975822E+04  0.21241424779E+03  0.17849818345E+04  0.12699999809E+01 0. -1.
       -4    1    3    3    0  502 -0.62682136108E-01 -0.17722975822E+04 -0.17764805980E+04  0.25093671815E+04  0.12699999809E+01 0.  1.
</event>
<event>
 5   0  0.2078125E-09  0.3997327E+04  0.7818609E-02  0.8005086E-01
       -1   -1    0    0    0  501  0.00000000000E+00  0.00000000000E+00  0.18272323807E+04  0.18272323807E+04  0.50400001928E-02 0.  1.
        1   -1    0    0  501    0  0.00000000000E+00  0.00000000000E+00 -0.21861786450E+04  0.21861786450E+04  0.50400001928E-02 0. -1.
    10030    2    1    2    0    0  0.00000000000E+00  0.00000000000E+00 -0.35894626435E+03  0.40134110257E+04  0.39973273122E+04 0.  0.
        2    1    3    3  502    0 -0.19299148699E+04  0.17294104221E+03 -0.67152297196E+03  0.20507128300E+04  0.25500000920E-02 0.  1.
       -2    1    3    3    0  502  0.19299148699E+04 -0.17294104221E+03  0.31257670761E+03  0.19626981957E+04  0.25500000920E-02 0. -1.
</event>
<event>
 5   0  0.6645526E-09  0.3998126E+04  0.7818609E-02  0.8004925E-01
       -2   -1    0    0    0  501  0.00000000000E+00  0.00000000000E+00  0.14907321451E+04  0.14907321451E+04  0.25500000920E-02 0.  1.
        2   -1    0    0  501    0  0.00000000000E+00  0.00000000000E+00 -0.26807319129E+04  0.26807319129E+04  0.25500000920E-02 0. -1.
    10030    2    1    2    0    0  0.00000000000E+00  0.00000000000E+00 -0.11899997678E+04  0.41714640580E+04  0.39981261786E+04 0.  0.
        3    1    3    3  502    0 -0.18522337656E+03 -0.75531661560E+03 -0.25164283853E+04  0.26338608007E+04  0.10100000352E+00 0. -1.
       -3    1    3    3    0  502  0.18522337656E+03  0.75531661560E+03  0.13264286175E+04  0.15376032572E+04  0.10100000352E+00 0.  1.
</event>
<event>
 5   0  0.2078125E-09  0.4004605E+04  0.7818609E-02  0.8003618E-01
        1   -1    0    0  501    0  0.00000000000E+00  0.00000000000E+00  0.15598266021E+04  0.15598266021E+04  0.50400001928E-02 0. -1.
       -1   -1    0    0    0  501  0.00000000000E+00  0.00000000000E+00 -0.25702958680E+04  0.25702958680E+04  0.50400001928E-02 0.  1.
    10030    2    1    2    0    0  0.00000000000E+00  0.00000000000E+00 -0.10104692659E+04  0.41301224701E+04  0.40046052840E+04 0.  0.
        5    1    3    3  502    0 -0.19712734566E+04  0.23236782401E+03 -0.23377394472E+03  0.19986460901E+04  0.46999998093E+01 0. -1.
       -5    1    3    3    0  502  0.19712734566E+04 -0.23236782401E+03 -0.77669532117E+03  0.21314763799E+04  0.46999998093E+01 0.  1.
</event>
<event>
 5   0  0.6538370E-09  0.4000210E+04  0.7818609E-02  0.8004504E-01
       -2   -1    0    0    0  501  0.00000000000E+00  0.00000000000E+00  0.16993407411E+04  0.16993407411E+04  0.25500000920E-02 0.  1.
        2   -1    0    0  501    0  0.00000000000E+00  0.00000000000E+00 -0.23541015681E+04  0.23541015681E+04  0.25500000920E-02 0. -1.
    10030    2    1    2    0    0  0.00000000000E+00  0.00000000000E+00 -0.65476082695E+03  0.40534423092E+04  0.40002103462E+04 0.  0.
        4    1    3    3  502    0 -0.62370028121E+02  0.18935724625E+04 -0.97693520491E+03  0.21316450687E+04  0.12699999809E+01 0. -1.
       -4    1    3    3    0  502  0.62370028121E+02 -0.18935724625E+04  0.32217437796E+03  0.19217972406E+04  0.12699999809E+01 0.  1.
</event>
<event>
 5   0  0.2078125E-09  0.3999577E+04  0.7818609E-02  0.8004632E-01
       -1   -1    0    0    0  501  0.00000000000E+00  0.00000000000E+00  0.22406496142E+04  0.22406496142E+04  0.50400001928E-02 0. -1.
        1   -1    0    0  501    0  0.00000000000E+00  0.00000000000E+00 -0.17848187463E+04  0.17848187463E+04  0.50400001928E-02 0.  1.
    10030    2    1    2    0    0  0.00000000000E+00  0.00000000000E+00  0.45583086782E+03  0.40254683605E+04  0.39995766953E+04 0.  0.
        1    1    3    3  502    0  0.15243323065E+04 -0.26290647005E+03  0.15035764113E+04  0.21571858560E+04  0.50400001928E-02 0. -1.
       -1    1    3    3    0  502 -0.15243323065E+04  0.26290647005E+03 -0.10477455435E+04  0.18682825045E+04  0.50400001928E-02 0.  1.
</event>
<event>
 5   0  0.6547327E-09  0.4004618E+04  0.7818609E-02  0.8003616E-01
        2   -1    0    0  501    0  0.00000000000E+00  0.00000000000E+00  0.10677467946E+04  0.10677467946E+04  0.25500000920E-02 0.  1.
       -2   -1    0    0    0  501  0.00000000000E+00  0.00000000000E+00 -0.37548613933E+04  0.37548613933E+04  0.25500000920E-02 0. -1.
    10030    2    1    2    0    0  0.00000000000E+00  0.00000000000E+00 -0.26871145987E+04  0.48226081879E+04  0.40046179427E+04 0.  0.
        5    1    3    3  502    0  0.60503767006E+03  0.87975947450E+03 -0.33834116917E+04  0.35478929072E+04  0.46999998093E+01 0. -1.
       -5    1    3    3    0  502 -0.60503767006E+03 -0.87975947450E+03  0.69629709300E+03  0.12747152807E+04  0.46999998093E+01 0.  1.
</event>
<event>
 5   0  0.2078125E-09  0.3998441E+04  0.7818609E-02  0.8004861E-01
       -1   -1    0    0    0  501  0.00000000000E+00  0.00000000000E+00  0.20464775243E+04  0.20464775243E+04  0.50400001928E-02 0.  1.
        1   -1    0    0  501    0  0.00000000000E+00  0.00000000000E+00 -0.19530548963E+04  0.19530548963E+04  0.50400001928E-02 0. -1.
    10030    2    1    2    0    0  0.00000000000E+00  0.00000000000E+00  0.93422628011E+02  0.39995324206E+04  0.39984411708E+04 0.  0.
        5    1    3    3  502    0  0.13256047862E+04 -0.14593112526E+04 -0.28510723855E+03  0.19920154640E+04  0.46999998093E+01 0. -1.
       -5    1    3    3    0  502 -0.13256047862E+04  0.14593112526E+04  0.37852986656E+03  0.20075169566E+04  0.46999998093E+01 0.  1.
</event>
<event>
 5   0  0.2078125E-09  0.3993131E+04  0.7818609E-02  0.8005934E-01
        1   -1    0    0  501    0  0.00000000000E+00  0.00000000000E+00  0.23035668292E+04  0.23035668292E+04  0.50400001928E-02 0. -1.
       -1   -1    0    0    0  501  0.00000000000E+00  0.00000000000E+00 -0.17304789119E+04  0.17304789119E+04  0.50400001928E-02 0.  1.
    10030    2    1    2    0    0  0.00000000000E+00  0.00000000000E+00  0.57308791734E+03  0.40340457411E+04  0.39931310121E+04 0.  0.
        5    1    3    3  502    0 -0.26211421739E+03  0.17395638624E+04  0.12403927056E+04  0.21525293142E+04  0.46999998093E+01 0. -1.
       -5    1    3    3    0  502  0.26211421739E+03 -0.17395638624E+04 -0.66730478823E+03  0.18815164269E+04  0.46999998093E+01 0.  1.
</event>
<event>
 5   0  0.6547327E-09  0.3999885E+04  0.7818609E-02  0.8004570E-01
        2   -1    0    0  501    0  0.00000000000E+00  0.00000000000E+00  0.26229303160E+04  0.26229303160E+04  0.25500000920E-02 0. -1.
       -2   -1    0    0    0  501  0.00000000000E+00  0.00000000000E+00 -0.15249245071E+04  0.15249245071E+04  0.25500000920E-02 0.  1.
    10030    2    1    2    0    0  0.00000000000E+00  0.00000000000E+00  0.10980058089E+04  0.41478548231E+04  0.39998853580E+04 0.  0.
        5    1    3    3  502    0 -0.39851926358E+03 -0.56220394005E+03 -0.13979112447E+04  0.15585470194E+04  0.46999998093E+01 0.  1.
       -5    1    3    3    0  502  0.39851926358E+03  0.56220394005E+03  0.24959170536E+04  0.25893078037E+04  0.46999998093E+01 0. -1.
</event>
<event>
 5   0  0.2078125E-09  0.3995177E+04  0.7818609E-02  0.8005520E-01
        1   -1    0    0  501    0  0.00000000000E+00  0.00000000000E+00  0.12079211289E+04  0.12079211289E+04  0.50400001928E-02 0.  1.
       -1   -1    0    0    0  501  0.00000000000E+00  0.00000000000E+00 -0.33034944699E+04  0.33034944699E+04  0.50400001928E-02 0. -1.
    10030    2    1    2    0    0  0.00000000000E+00  0.00000000000E+00 -0.20955733410E+04  0.45114155988E+04  0.39951774776E+04 0.  0.
        1    1    3    3  502    0 -0.14222299724E+04  0.13376818026E+04 -0.57106241508E+03  0.20342671853E+04  0.50400001928E-02 0.  1.
       -1    1    3    3    0  502  0.14222299724E+04 -0.13376818026E+04 -0.15245109259E+04  0.24771484135E+04  0.50400001928E-02 0. -1.
</event>
<event>
 5   0  0.2078125E-09  0.4000935E+04  0.7818609E-02  0.8004358E-01
       -1   -1    0    0    0  501  0.00000000000E+00  0.00000000000E+00  0.19301856933E+04  0.19301856933E+04  0.50400001928E-02 0. -1.
        1   -1    0    0  501    0  0.00000000000E+00  0.00000000000E+00 -0.20733082269E+04  0.20733082269E+04  0.50400001928E-02 0.  1.
    10030    2    1    2    0    0  0.00000000000E+00  0.00000000000E+00 -0.14312253362E+03  0.40034939202E+04  0.40009348294E+04 0.  0.
        4    1    3    3  502    0  0.53723503430E+03 -0.14701964477E+04  0.11749357919E+04  0.19571854294E+04  0.12699999809E+01 0. -1.
       -4    1    3    3    0  502 -0.53723503430E+03  0.14701964477E+04 -0.13180583255E+04  0.20463084908E+04  0.12699999809E+01 0.  1.
</event>
<event>
 5   0  0.2078125E-09  0.3998177E+04  0.7818609E-02  0.8004914E-01
        1   -1    0    0  501    0  0.00000000000E+00  0.00000000000E+00  0.20232450924E+04  0.20232450924E+04  0.50400001928E-02 0. -1.
       -1   -1    0    0    0  501  0.00000000000E+00  0.00000000000E+00 -0.19752202865E+04  0.19752202865E+04  0.50400001928E-02 0.  1.
    10030    2    1    2    0    0  0.00000000000E+00  0.00000000000E+00  0.48024805942E+02  0.39984653790E+04  0.39981769602E+04 0.  0.
        5    1    3    3  502    0 -0.10679074922E+04 -0.15348896108E+04  0.73118442934E+03  0.20077263980E+04  0.46999998093E+01 0.  1.
       -5    1    3    3    0  502  0.10679074922E+04  0.15348896108E+04 -0.68315962340E+03  0.19907389810E+04  0.46999998093E+01 0. -1.
</event>
<event>
 5   0  0.2078125E-09  0.3999732E+04  0.7818609E-02  0.8004601E-01
        1   -1    0    0  501    0  0.00000000000E+00  0.00000000000E+00  0.14019927674E+04  0.14019927675E+04  0.50400001928E-02 0.  1.
       -1   -1    0    0    0  501  0.00000000000E+00  0.00000000000E+00 -0.28526997111E+04  0.28526997112E+04  0.50400001928E-02 0. -1.
    10030    2    1    2    0    0  0.00000000000E+00  0.00000000000E+00 -0.14507069437E+04  0.42546924786E+04  0.39997321724E+04 0.  0.
        4    1    3    3  502    0 -0.11534889422E+04  0.11936539919E+04  0.46114649220E+03  0.17227896832E+04  0.12699999809E+01 0.  1.
       -4    1    3    3    0  502  0.11534889422E+04 -0.11936539919E+04 -0.19118534359E+04  0.25319027954E+04  0.12699999809E+01 0. -1.
</event>
<event>
 5   0  0.2078125E-09  0.3998114E+04  0.7818609E-02  0.8004927E-01
       -1   -1    0    0    0  501  0.00000000000E+00  0.00000000000E+00  0.13127192500E+04  0.13127192500E+04  0.50400001928E-02 0. -1.
        1   -1    0    0  501    0  0.00000000000E+00  0.00000000000E+00 -0.30442379407E+04  0.30442379407E+04  0.50400001928E-02 0.  1.
    10030    2    1    2    0    0  0.00000000000E+00  0.00000000000E+00 -0.17315186907E+04  0.43569571907E+04  0.39981144287E+04 0.  0.
        4    1    3    3  502    0  0.16102638531E+04 -0.20250983527E+02  0.42497400720E+03  0.16655222300E+04  0.12699999809E+01 0. -1.
       -4    1    3    3    0  502 -0.16102638531E+04  0.20250983527E+02 -0.21564926979E+04  0.26914349607E+04  0.12699999809E+01 0.  1.
</event>
<event>
 5   0  0.2078125E-09  0.3999011E+04  0.7818609E-02  0.8004746E-01
       -1   -1    0    0    0  501  0.00000000000E+00  0.00000000000E+00  0.20933069995E+04  0.20933069995E+04  0.50400001928E-02 0. -1.
        1   -1    0    0  501    0  0.00000000000E+00  0.00000000000E+00 -0.19099075606E+04  0.19099075607E+04  0.50400001928E-02 0.  1.
    10030    2    1    2    0    0  0.00000000000E+00  0.00000000000E+00  0.18339943889E+03  0.40032145602E+04  0.39990113104E+04 0.  0.
        4    1    3    3  502    0  0.19972566037E+03 -0.15202916792E+04 -0.11929433620E+04  0.19427538720E+04  0.12699999809E+01 0.  1.
       -4    1    3    3    0  502 -0.19972566037E+03  0.15202916792E+04  0.13763428009E+04  0.20604606882E+04  0.12699999809E+01 0. -1.
</event>
<event>
 5   0  0.2078125E-09  0.3996948E+04  0.7818609E-02  0.8005163E-01
        1   -1    0    0  501    0  0.00000000000E+00  0.00000000000E+00  0.17742281093E+04  0.17742281093E+04  0.50400001928E-02 0. -1.
       -1   -1    0    0    0  501  0.00000000000E+00  0.00000000000E+00 -0.22510624944E+04  0.22510624944E+04  0.50400001928E-02 0.  1.
    10030    2    1    2    0    0  0.00000000000E+00  0.00000000000E+00 -0.47683438509E+03  0.40252906036E+04  0.39969480123E+04 0.  0.
        3    1    3    3  502    0 -0.48987429986E+03 -0.15541670420E+04  0.92671635822E+03  0.18746240271E+04  0.10100000352E+00 0. -1.
       -3    1    3    3    0  502  0.48987429986E+03  0.15541670420E+04 -0.14035507433E+04  0.21506665765E+04  0.10100000352E+00 0.  1.
</event>
<event>
 5   0  0.6599276E-09  0.3999507E+04  0.7818609E-02  0.8004646E-01
       -2   -1    0    0    0  501  0.00000000000E+00  0.00000000000E+00  0.21915042860E+04  0.21915042860E+04  0.25500000920E-02 0. -1.
        2   -1    0    0  501    0  0.00000000000E+00  0.00000000000E+00 -0.18247805877E+04  0.18247805877E+04  0.25500000920E-02 0.  1.
    10030    2    1    2    0    0  0.00000000000E+00  0.00000000000E+00  0.36672369829E+03  0.40162848737E+04  0.39995072091E+04 0.  0.
        2    1    3    3  502    0 -0.63365038425E+03  0.18966040984E+04  0.20330880110E+03  0.20099637768E+04  0.25500000920E-02 0. -1.
       -2    1    3    3    0  502  0.63365038425E+03 -0.18966040984E+04  0.16341489719E+03  0.20063210969E+04  0.25500000920E-02 0.  1.
</event>
<event>
 5   0  0.2078125E-09  0.4001971E+04  0.7818609E-02  0.8004149E-01
        1   -1    0    0  501    0  0.00000000000E+00  0.00000000000E+00  0.11873571210E+04  0.11873571210E+04  0.50400001928E-02 0.  1.
       -1   -1    0    0    0  501  0.00000000000E+00  0.00000000000E+00 -0.33721478173E+04  0.33721478173E+04  0.50400001928E-02 0. -1.
    10030    2    1    2    0    0  0.00000000000E+00  0.00000000000E+00 -0.21847906963E+04  0.45595049383E+04  0.40019713761E+04 0.  0.
        3    1    3    3  502    0 -0.34015158629E+02 -0.78403600157E+03  0.10047096283E+04  0.12748768294E+04  0.10100000352E+00 0.  1.
       -3    1    3    3    0  502  0.34015158629E+02  0.78403600157E+03 -0.31895003246E+04  0.32846281089E+04  0.10100000352E+00 0. -1.
</event>
<event>
 5   0  0.2078125E-09  0.3992376E+04  0.7818609E-02  0.8006086E-01
       -1   -1    0    0    0  501  0.00000000000E+00  0.00000000000E+00  0.19299579804E+04  0.19299579804E+04  0.50400001928E-02 0. -1.
        1   -1    0    0  501    0  0.00000000000E+00  0.00000000000E+00 -0.20646912386E+04  0.20646912386E+04  0.50400001928E-02 0.  1.
    10030    2    1    2    0    0  0.00000000000E+00  0.00000000000E+00 -0.13473325822E+03  0.39946492191E+04  0.39923764017E+04 0.  0.
        1    1    3    3  502    0  0.14532910478E+04  0.11515248462E+04  0.67244796494E+03  0.19723718226E+04  0.50400001928E-02 0. -1.
       -1    1    3    3    0  502 -0.14532910478E+04 -0.11515248462E+04 -0.80718122316E+03  0.20222773964E+04  0.50400001928E-02 0.  1.
</event>
<event>
 5   0  0.6547327E-09  0.3999509E+04  0.7818609E-02  0.8004646E-01
       -2   -1    0    0    0  501  0.00000000000E+00  0.00000000000E+00  0.20872312656E+04  0.20872312656E+04  0.25500000920E-02 0. -1.
        2   -1    0    0  501    0  0.00000000000E+00  0.00000000000E+00 -0.19159439718E+04  0.19159439718E+04  0.25500000920E-02 0.  1.
    10030    2    1    2    0    0  0.00000000000E+00  0.00000000000E+00  0.17128729375E+03  0.40031752374E+04  0.39995090505E+04 0.  0.
        5    1    3    3  502    0  0.12059027224E+04 -0.17720580004E+03 -0.15011779440E+04  0.19336909218E+04  0.46999998093E+01 0.  1.
       -5    1    3    3    0  502 -0.12059027224E+04  0.17720580004E+03  0.16724652377E+04  0.20694843157E+04  0.46999998093E+01 0. -1.
</event>
<event>
 5   0  0.6547327E-09  0.4002031E+04  0.7818609E-02  0.8004137E-01
        2   -1    0    0  501    0  0.00000000000E+00  0.00000000000E+00  0.13397735526E+04  0.13397735526E+04  0.25500000920E-02 0. -1.
       -2   -1    0    0    0  501  0.00000000000E+00  0.00000000000E+00 -0.29886125131E+04  0.29886125131E+04  0.25500000920E-02 0.  1.
    10030    2    1    2    0    0  0.00000000000E+00  0.00000000000E+00 -0.16488389604E+04  0.43283860657E+04  0.40020314862E+04 0.  0.
        5    1    3    3  502    0  0.93944640844E+01  0.58391430875E+03  0.12455493905E+04  0.13756669474E+04  0.46999998093E+01 0. -1.
       -5    1    3    3    0  502 -0.93944640844E+01 -0.58391430875E+03 -0.28943883509E+04  0.29527191183E+04  0.46999998093E+01 0.  1.
</event>
<event>
 5   0  0.2078125E-09  0.4000434E+04  0.7818609E-02  0.8004459E-01
       -1   -1    0    0    0  501  0.00000000000E+00  0.00000000000E+00  0.12189400221E+04  0.12189400222E+04  0.50400001928E-02 0. -1.
        1   -1    0    0  501    0  0.00000000000E+00  0.00000000000E+00 -0.32822520881E+04  0.32822520881E+04  0.50400001928E-02 0.  1.
    10030    2    1    2    0    0  0.00000000000E+00  0.00000000000E+00 -0.20633120659E+04  0.45011921102E+04  0.40004341929E+04 0.  0.
        5    1    3    3  502    0 -0.53821986723E+03  0.15074920315E+04 -0.23812263003E+04  0.28692287525E+04  0.46999998093E+01 0.  1.
       -5    1    3    3    0  502  0.53821986723E+03 -0.15074920315E+04  0.31791423442E+03  0.16319633578E+04  0.46999998093E+01 0. -1.
</event>
<event>
 5   0  0.2078125E-09  0.3999749E+04  0.7818609E-02  0.8004597E-01
        1   -1    0    0  501    0  0.00000000000E+00  0.00000000000E+00  0.25832839928E+04  0.25832839928E+04  0.50400001928E-02 0. -1.
       -1   -1    0    0    0  501  0.00000000000E+00  0.00000000000E+00 -0.15482221869E+04  0.15482221870E+04  0.50400001928E-02 0.  1.
    10030    2    1    2    0    0  0.00000000000E+00  0.00000000000E+00  0.10350618058E+04  0.41315061797E+04  0.39997487885E+04 0.  0.
        4    1    3    3  502    0  0.70695829124E+02  0.10647573881E+04 -0.12295727199E+04  0.16280530957E+04  0.12699999809E+01 0.  1.
       -4    1    3    3    0  502 -0.70695829124E+02 -0.10647573881E+04  0.22646345258E+04  0.25034530841E+04  0.12699999809E+01 0. -1.
</event>
<event>
 5   0  0.2078125E-09  0.3998810E+04  0.7818609E-02  0.8004787E-01
        1   -1    0    0  501    0  0.00000000000E+00  0.00000000000E+00  0.24004141231E+04  0.24004141231E+04  0.50400001928E-02 0.  1.
       -1   -1    0    0    0  501  0.00000000000E+00  0.00000000000E+00 -0.16653877406E+04  0.16653877407E+04  0.50400001928E-02 0. -1.
    10030    2    1    2    0    0  0.00000000000E+00  0.00000000000E+00  0.73502638247E+03  0.40658018638E+04  0.39988099495E+04 0.  0.
        4    1    3    3  502    0 -0.74932399913E+03  0.25642745666E+03 -0.14991015750E+04  0.16954493922E+04  0.12699999809E+01 0. -1.
       -4    1    3    3    0  502  0.74932399913E+03 -0.25642745666E+03  0.22341279575E+04  0.23703524716E+04  0.12699999809E+01 0.  1.
</event>
<event>
 5   0  0.6538370E-09  0.3999811E+04  0.7818609E-02  0.8004585E-01
        2   -1    0    0  501    0  0.00000000000E+00  0.00000000000E+00  0.13244081407E+04  0.13244081407E+04  0.25500000920E-02 0. -1.
       -2   -1    0    0    0  501  0.00000000000E+00  0.00000000000E+00 -0.30199316226E+04  0.30199316226E+04  0.25500000920E-02 0.  1.
    10030    2    1    2    0    0  0.00000000000E+00  0.00000000000E+00 -0.16955234819E+04  0.43443397633E+04  0.39998110082E+04 0.  0.
        4    1    3    3  502    0 -0.17000689927E+04  0.10431206742E+04 -0.10062226237E+04  0.22340145260E+04  0.12699999809E+01 0.  1.
       -4    1    3    3    0  502  0.17000689927E+04 -0.10431206742E+04 -0.68930085821E+03  0.21103252373E+04  0.12699999809E+01 0. -1.
</event>
<event>
 5   0  0.2078125E-09  0.4000566E+04  0.7818609E-02  0.8004432E-01
        1   -1    0    0  501    0  0.00000000000E+00  0.00000000000E+00  0.26082178158E+04  0.26082178158E+04  0.50400001928E-02 0.  1.
       -1   -1    0    0    0  501  0.00000000000E+00  0.00000000000E+00 -0.15340484369E+04  0.15340484369E+04  0.50400001928E-02 0. -1.
    10030    2    1    2    0    0  0.00000000000E+00  0.00000000000E+00  0.10741693788E+04  0.41422662527E+04  0.40005661916E+04 0.  0.
        3    1    3    3  502    0  0.13756746569E+04  0.13895333224E+04  0.10042604169E+03  0.19578991332E+04  0.10100000352E+00 0. -1.
       -3    1    3    3    0  502 -0.13756746569E+04 -0.13895333224E+04  0.97374333715E+03  0.21843671195E+04  0.10100000352E+00 0.  1.
</event>
<event>
 5   0  0.6599276E-09  0.3999835E+04  0.7818609E-02  0.8004580E-01
       -2   -1    0    0    0  501  0.00000000000E+00  0.00000000000E+00  0.13415529321E+04  0.13415529321E+04  0.25500000920E-02 0.  1.
        2   -1    0    0  501    0  0.00000000000E+00  0.00000000000E+00 -0.29813731970E+04  0.29813731970E+04  0.25500000920E-02 0. -1.
    10030    2    1    2    0    0  0.00000000000E+00  0.00000000000E+00 -0.16398202650E+04  0.43229261291E+04  0.39998349736E+04 0.  0.
        2    1    3    3  502    0  0.42848976215E+03 -0.81375068794E+03  0.10994570652E+04  0.14333874203E+04  0.25500000920E-02 0.  1.
       -2    1    3    3    0  502 -0.42848976215E+03  0.81375068794E+03 -0.27392773302E+04  0.28895387088E+04  0.25500000920E-02 0. -1.
</event>
<event>
 5   0  0.6547327E-09  0.4003269E+04  0.7818609E-02  0.8003887E-01
        2   -1    0    0  501    0  0.00000000000E+00  0.00000000000E+00  0.24440923747E+04  0.24440923747E+04  0.25500000920E-02 0.  1.
       -2   -1    0    0    0  501  0.00000000000E+00  0.00000000000E+00 -0.16392756959E+04  0.16392756959E+04  0.25500000920E-02 0. -1.
    10030    2    1    2    0    0  0.00000000000E+00  0.00000000000E+00  0.80481667886E+03  0.40833680706E+04  0.40032692782E+04 0.  0.
        5    1    3    3  502    0  0.11667390746E+04  0.10326775148E+04 -0.87924187534E+03  0.17890755387E+04  0.46999998093E+01 0. -1.
       -5    1    3    3    0  502 -0.11667390746E+04 -0.10326775148E+04  0.16840585542E+04  0.22942925319E+04  0.46999998093E+01 0.  1.
</event>
<event>
 5   0  0.6645526E-09  0.3997912E+04  0.7818609E-02  0.8004968E-01
       -2   -1    0    0    0  501  0.00000000000E+00  0.00000000000E+00  0.22512066478E+04  0.22512066478E+04  0.25500000920E-02 0.  1.
        2   -1    0    0  501    0  0.00000000000E+00  0.00000000000E+00 -0.17749704998E+04  0.17749704998E+04  0.25500000920E-02 0. -1.
    10030    2    1    2    0    0  0.00000000000E+00  0.00000000000E+00  0.47623614796E+03  0.40261771476E+04  0.39979121496E+04 0.  0.
        3    1    3    3  502    0  0.16620749253E+04 -0.88437602044E+03 -0.43835365758E+03  0.19330721513E+04  0.10100000352E+00 0. -1.
       -3    1    3    3    0  502 -0.16620749253E+04  0.88437602044E+03  0.91458980553E+03  0.20931049963E+04  0.10100000352E+00 0.  1.
</event>
<event>
 5   0  0.2078125E-09  0.4000514E+04  0.7818609E-02  0.8004443E-01
        1   -1    0    0  501    0  0.00000000000E+00  0.00000000000E+00  0.22898163954E+04  0.22898163954E+04  0.50400001928E-02 0.  1.
       -1   -1    0    0    0  501  0.00000000000E+00  0.00000000000E+00 -0.17473135443E+04  0.17473135443E+04  0.50400001928E-02 0. -1.
    10030    2    1    2    0    0  0.00000000000E+00  0.00000000000E+00  0.54250285106E+03  0.40371299397E+04  0.40005135679E+04 0.  0.
        2    1    3    3  502    0 -0.82843446035E+03  0.17689193340E+04  0.70606394831E+03  0.20769943583E+04  0.25500000920E-02 0.  1.
       -2    1    3    3    0  502  0.82843446035E+03 -0.17689193340E+04 -0.16356109725E+03  0.19601355815E+04  0.25500000920E-02 0. -1.
</event>
<event>
 5   0  0.6645526E-09  0.3999729E+04  0.7818609E-02  0.8004601E-01
       -2   -1    0    0    0  501  0.00000000000E+00  0.00000000000E+00  0.17987208362E+04  0.17987208362E+04  0.25500000920E-02 0. -1.
        2   -1    0    0  501    0  0.00000000000E+00  0.00000000000E+00 -0.22235012240E+04  0.22235012240E+04  0.25500000920E-02 0.  1.
    10030    2    1    2    0    0  0.00000000000E+00  0.00000000000E+00 -0.42478038775E+03  0.40222220602E+04  0.39997289813E+04 0.  0.
        3    1    3    3  502    0 -0.13186968925E+04 -0.10764971127E+04  0.84310773485E+03  0.18996415954E+04  0.10100000352E+00 0. -1.
       -3    1    3    3    0  502  0.13186968925E+04  0.10764971127E+04 -0.12678881226E+04  0.21225804648E+04  0.10100000352E+00 0.  1.
</event>
<event>
 5   0  0.2078125E-09  0.3998673E+04  0.7818609E-02  0.8004814E-01
        1   -1    0    0  501    0  0.00000000000E+00  0.00000000000E+00  0.28231618385E+04  0.28231618385E+04  0.50400001928E-02 0. -1.
       -1   -1    0    0    0  501  0.00000000000E+00  0.00000000000E+00 -0.14159110452E+04  0.14159110452E+04  0.50400001928E-02 0.  1.
    10030    2    1    2    0    0  0.00000000000E+00  0.00000000000E+00  0.14072507933E+04  0.42390728837E+04  0.39986727945E+04 0.  0.
        5    1    3    3  502    0 -0.74985559958E+03  0.14345962741E+04 -0.54036747996E+03  0.17065664339E+04  0.46999998093E+01 0.  1.
       -5    1    3    3    0  502  0.74985559958E+03 -0.14345962741E+04  0.19476182732E+04  0.25325064498E+04  0.46999998093E+01 0. -1.
</event>
<event>
 5   0  0.2078125E-09  0.3999564E+04  0.7818609E-02  0.8004634E-01
        1   -1    0    0  501    0  0.00000000000E+00  0.00000000000E+00  0.18171075347E+04  0.18171075347E+04  0.50400001928E-02 0. -1.
       -1   -1    0    0    0  501  0.00000000000E+00  0.00000000000E+00 -0.22008210347E+04  0.22008210347E+04  0.50400001928E-02 0.  1.
    10030    2    1    2    0    0  0.00000000000E+00  0.00000000000E+00 -0.38371349997E+03  0.40179285695E+04  0.39995642187E+04 0.  0.
        3    1    3    3  502    0 -0.37450527002E+03 -0.18733786086E+04  0.40189585928E+03  0.19522607152E+04  0.10100000352E+00 0.  1.
       -3    1    3    3    0  502  0.37450527002E+03  0.18733786086E+04 -0.78560935925E+03  0.20656678542E+04  0.10100000352E+00 0. -1.
</event>
<event>
 5   0  0.2078125E-09  0.4000428E+04  0.7818609E-02  0.8004460E-01
       -1   -1    0    0    0  501  0.00000000000E+00  0.00000000000E+00  0.27720103369E+04  0.27720103369E+04  0.50400001928E-02 0.  1.
        1   -1    0    0  501    0  0.00000000000E+00  0.00000000000E+00 -0.14433051273E+04  0.14433051273E+04  0.50400001928E-02 0. -1.
    10030    2    1    2    0    0  0.00000000000E+00  0.00000000000E+00  0.13287052096E+04  0.42153154642E+04  0.40004283431E+04 0.  0.
        1    1    3    3  502    0 -0.47747614553E+02  0.19719403273E+04  0.31482967236E+03  0.19974849716E+04  0.50400001928E-02 0.  1.
       -1    1    3    3    0  502  0.47747614553E+02 -0.19719403273E+04  0.10138755373E+04  0.22178304926E+04  0.50400001928E-02 0. -1.
</event>
<event>
 5   0  0.6538370E-09  0.3993301E+04  0.7818609E-02  0.8005899E-01
       -2   -1    0    0    0  501  0.00000000000E+00  0.00000000000E+00  0.11864079643E+04  0.11864079643E+04  0.25500000920E-02 0.  1.
        2   -1    0    0  501    0  0.00000000000E+00  0.00000000000E+00 -0.33602375355E+04  0.33602375355E+04  0.25500000920E-02 0. -1.
    10030    2    1    2    0    0  0.00000000000E+00  0.00000000000E+00 -0.21738295712E+04  0.45466454998E+04  0.39933006769E+04 0.  0.
        4    1    3    3  502    0  0.15600976069E+04 -0.91915423219E+03 -0.20448438612E+04  0.27313251501E+04  0.12699999809E+01 0. -1.
       -4    1    3    3    0  502 -0.15600976069E+04  0.91915423219E+03 -0.12898571002E+03  0.18153203497E+04  0.12699999809E+01 0.  1.
</event>
<event>
 5   0  0.2078125E-09  0.4000523E+04  0.7818609E-02  0.8004441E-01
        1   -1    0    0  501    0  0.00000000000E+00  0.00000000000E+00  0.16924338881E+04  0.16924338881E+04  0.50400001928E-02 0.  1.
       -1   -1    0    0    0  501  0.00000000000E+00  0.00000000000E+00 -0.23640776719E+04  0.23640776719E+04  0.50400001928E-02 0. -1.
    10030    2    1    2    0    0  0.00000000000E+00  0.00000000000E+00 -0.67164378376E+03  0.40565115600E+04  0.40005225489E+04 0.  0.
        4    1    3    3  502    0 -0.84439619245E+03  0.13212035902E+04 -0.15951616305E+04  0.22367668848E+04  0.12699999809E+01 0. -1.
       -4    1    3    3    0  502  0.84439619245E+03 -0.13212035902E+04  0.92351784678E+03  0.18197446752E+04  0.12699999809E+01 0.  1.
</event>
<event>
 5   0  0.6547327E-09  0.4001138E+04  0.7818609E-02  0.8004317E-01
       -2   -1    0    0    0  501  0.00000000000E+00  0.00000000000E+00  0.23783223235E+04  0.23783223235E+04  0.25500000920E-02 0. -1.
        2   -1    0    0  501    0  0.00000000000E+00  0.00000000000E+00 -0.16828151250E+04  0.16828151250E+04  0.25500000920E-02 0.  1.
    10030    2    1    2    0    0  0.00000000000E+00  0.00000000000E+00  0.69550719851E+03  0.40611374485E+04  0.40011382271E+04 0.  0.
        5    1    3    3  502    0 -0.18572358880E+04 -0.54977455467E+03  0.85593854598E+03  0.21176000777E+04  0.46999998093E+01 0. -1.
       -5    1    3    3    0  502  0.18572358880E+04  0.54977455467E+03 -0.16043134748E+03  0.19435373708E+04  0.46999998093E+01 0.  1.
</event>
<event>
 5   0  0.2078125E-09  0.3996089E+04  0.7818609E-02  0.8005336E-01
       -1   -1    0    0    0  501  0.00000000000E+00  0.00000000000E+00  0.15540156256E+04  0.15540156256E+04  0.50400001928E-02 0.  1.
        1   -1    0    0  501    0  0.00000000000E+00  0.00000000000E+00 -0.25689453422E+04  0.25689453422E+04  0.50400001928E-02 0. -1.
    10030    2    1    2    0    0  0.00000000000E+00  0.00000000000E+00 -0.10149297167E+04  0.41229609678E+04  0.39960886893E+04 0.  0.
        5    1    3    3  502    0  0.41998588524E+03  0.12096130023E+04 -0.20899834835E+04  0.24510415766E+04  0.46999998093E+01 0. -1.
       -5    1    3    3    0  502 -0.41998588524E+03 -0.12096130023E+04  0.10750537668E+04  0.16719193912E+04  0.46999998093E+01 0.  1.
</event>
<event>
 5   0  0.6599276E-09  0.4007326E+04  0.7818609E-02  0.8003070E-01
        2   -1    0    0  501    0  0.00000000000E+00  0.00000000000E+00  0.23088077205E+04  0.23088077205E+04  0.25500000920E-02 0.  1.
       -2   -1    0    0    0  501  0.00000000000E+00  0.00000000000E+00 -0.17388475085E+04  0.17388475085E+04  0.25500000920E-02 0. -1.
    10030    2    1    2    0    0  0.00000000000E+00  0.00000000000E+00  0.56996021199E+03  0.40476552289E+04  0.40073255681E+04 0.  0.
        2    1    3    3  502    0  0.97693180629E+03 -0.13726722625E+04 -0.81038743977E+03  0.18695862369E+04  0.25500000920E-02 0. -1.
       -2    1    3    3    0  502 -0.97693180629E+03  0.13726722625E+04  0.13803476518E+04  0.21780689921E+04  0.25500000920E-02 0.  1.
</event>
<event>
 5   0  0.6538370E-09  0.3999692E+04  0.7818609E-02  0.8004609E-01
       -2   -1    0    0    0  501  0.00000000000E+00  0.00000000000E+00  0.16502322976E+04  0.16502322976E+04  0.25500000920E-02 0.  1.
        2   -1    0    0  501    0  0.00000000000E+00  0.00000000000E+00 -0.24235280154E+04  0.24235280154E+04  0.25500000920E-02 0. -1.
    10030    2    1    2    0    0  0.00000000000E+00  0.00000000000E+00 -0.77329571778E+03  0.40737603130E+04  0.39996920908E+04 0.  0.
        4    1    3    3  502    0  0.61834063376E+03  0.18563506560E+04  0.34531017216E+02  0.19569304795E+04  0.12699999809E+01 0.  1.
       -4    1    3    3    0  502 -0.61834063376E+03 -0.18563506560E+04 -0.80782673500E+03  0.21168298336E+04  0.12699999809E+01 0. -1.
</event>
<event>
 5   0  0.6599276E-09  0.3999034E+04  0.7818609E-02  0.8004741E-01
       -2   -1    0    0    0  501  0.00000000000E+00  0.00000000000E+00  0.15835335164E+04  0.15835335164E+04  0.25500000920E-02 0. -1.
        2   -1    0    0  501    0  0.00000000000E+00  0.00000000000E+00 -0.25247765348E+04  0.25247765348E+04  0.25500000920E-02 0.  1.
    10030    2    1    2    0    0  0.00000000000E+00  0.00000000000E+00 -0.94124301838E+03  0.41083100511E+04  0.39990340154E+04 0.  0.
        2    1    3    3  502    0  0.11460410436E+04 -0.14025956449E+04  0.39950790549E+03  0.18548021952E+04  0.25500000920E-02 0. -1.
       -2    1    3    3    0  502 -0.11460410436E+04  0.14025956449E+04 -0.13407509239E+04  0.22535078559E+04  0.25500000920E-02 0.  1.
</event>
<event>
 5   0  0.2078125E-09  0.3999674E+04  0.7818609E-02  0.8004612E-01
        1   -1    0    0  501    0  0.00000000000E+00  0.00000000000E+00  0.28873385539E+04  0.28873385539E+04  0.50400001928E-02 0. -1.
       -1   -1    0    0    0  501  0.00000000000E+00  0.00000000000E+00 -0.13851329063E+04  0.13851329063E+04  0.50400001928E-02 0.  1.
    10030    2    1    2    0    0  0.00000000000E+00  0.00000000000E+00  0.15022056476E+04  0.42724714601E+04  0.39996738079E+04 0.  0.
        4    1    3    3  502    0 -0.18006187929E+04  0.47695279562E+03  0.15284992401E+04  0.24095691620E+04  0.12699999809E+01 0.  1.
       -4    1    3    3    0  502  0.18006187929E+04 -0.47695279562E+03 -0.26293592484E+02  0.18629022982E+04  0.12699999809E+01 0. -1.
</event>
<event>
 5   0  0.6547327E-09  0.3998813E+04  0.7818609E-02  0.8004786E-01
        2   -1    0    0  501    0  0.00000000000E+00  0.00000000000E+00  0.14047230749E+04  0.14047230749E+04  0.25500000920E-02 0.  1.
       -2   -1    0    0    0  501  0.00000000000E+00  0.00000000000E+00 -0.28458467113E+04  0.28458467113E+04  0.25500000920E-02 0. -1.
    10030    2    1    2    0    0  0.00000000000E+00  0.00000000000E+00 -0.14411236363E+04  0.42505697862E+04  0.39988130955E+04 0.  0.
        5    1    3    3  502    0  0.14222701579E+03 -0.92407521274E+03 -0.25991608066E+04  0.27622097153E+04  0.46999998093E+01 0. -1.
       -5    1    3    3    0  502 -0.14222701579E+03  0.92407521274E+03  0.11580371703E+04  0.14883600709E+04  0.46999998093E+01 0.  1.
</event>
<event>
 5   0  0.2078125E-09  0.4001237E+04  0.7818609E-02  0.8004297E-01
        1   -1    0    0  501    0  0.00000000000E+00  0.00000000000E+00  0.22046621875E+04  0.22046621875E+04  0.50400001928E-02 0.  1.
       -1   -1    0    0    0  501  0.00000000000E+00  0.00000000000E+00 -0.18154591987E+04  0.18154591987E+04  0.50400001928E-02 0. -1.
    10030    2    1    2    0    0  0.00000000000E+00  0.00000000000E+00  0.38920298875E+03  0.40201213862E+04  0.40012369329E+04 0.  0.
        2    1    3    3  502    0 -0.51289028946E+03  0.10706510057E+04  0.18125196885E+04  0.21666974053E+04  0.25500000920E-02 0.  1.
       -2    1    3    3    0  502  0.51289028946E+03 -0.10706510057E+04 -0.14233166998E+04  0.18534239809E+04  0.25500000920E-02 0. -1.
</event>
<event>
 5   0  0.2078125E-09  0.3999476E+04  0.7818609E-02  0.8004652E-01
        1   -1    0    0  501    0  0.00000000000E+00  0.00000000000E+00  0.15897137490E+04  0.15897137490E+04  0.50400001928E-02 0. -1.
       -1   -1    0    0    0  501  0.00000000000E+00  0.00000000000E+00 -0.25155164486E+04  0.25155164486E+04  0.50400001928E-02 0.  1.
    10030    2    1    2    0    0  0.00000000000E+00  0.00000000000E+00 -0.92580269959E+03  0.41052301976E+04  0.39994755077E+04 0.  0.
        1    1    3    3  502    0  0.57574573149E+03  0.31125977644E+03  0.14766629373E+04  0.16152087253E+04  0.50400001928E-02 0. -1.
       -1    1    3    3    0  502 -0.57574573149E+03 -0.31125977644E+03 -0.24024656369E+04  0.24900214723E+04  0.50400001928E-02 0.  1.
</event>
<event>
 5   0  0.2078125E-09  0.3983160E+04  0.7818609E-02  0.8007952E-01
        1   -1    0    0  501    0  0.00000000000E+00  0.00000000000E+00  0.29083675509E+04  0.29083675509E+04  0.50400001928E-02 0. -1.
       -1   -1    0    0    0  501  0.00000000000E+00  0.00000000000E+00 -0.13637862558E+04  0.13637862558E+04  0.50400001928E-02 0.  1.
    10030    2    1    2    0    0  0.00000000000E+00  0.00000000000E+00  0.15445812952E+04  0.42721538067E+04  0.39831603998E+04 0.  0.
        5    1    3    3  502    0  0.20164552014E+03  0.11955139453E+04  0.24669443447E+04  0.27487726350E+04  0.46999998093E+01 0. -1.
       -5    1    3    3    0  502 -0.20164552014E+03 -0.11955139453E+04 -0.92236304953E+03  0.15233811717E+04  0.46999998093E+01 0.  1.
</event>
<event>
 5   0  0.2078125E-09  0.4000565E+04  0.7818609E-02  0.8004433E-01
        1   -1    0    0  501    0  0.00000000000E+00  0.00000000000E+00  0.26811374784E+04  0.26811374784E+04  0.50400001928E-02 0.  1.
       -1   -1    0    0    0  501  0.00000000000E+00  0.00000000000E+00 -0.14923253873E+04  0.14923253873E+04  0.50400001928E-02 0. -1.
    10030    2    1    2    0    0  0.00000000000E+00  0.00000000000E+00  0.11888120911E+04  0.41734628657E+04  0.40005647230E+04 0.  0.
        4    1    3    3  502    0 -0.27169952638E+02 -0.57355802177E+03  0.25933119032E+04  0.26561203382E+04  0.12699999809E+01 0.  1.
       -4    1    3    3    0  502  0.27169952638E+02  0.57355802177E+03 -0.14044998121E+04  0.15173425275E+04  0.12699999809E+01 0. -1.
</event>
<event>
 5   0  0.6736335E-09  0.3998188E+04  0.7818609E-02  0.8004912E-01
       -2   -1    0    0    0  501  0.00000000000E+00  0.00000000000E+00  0.23547424107E+04  0.23547424107E+04  0.25500000920E-02 0. -1.
        2   -1    0    0  501    0  0.00000000000E+00  0.00000000000E+00 -0.16971610390E+04  0.16971610390E+04  0.25500000920E-02 0.  1.
    10030    2    1    2    0    0  0.00000000000E+00  0.00000000000E+00  0.65758137165E+03  0.40519034497E+04  0.39981881278E+04 0.  0.
        1    1    3    3  502    0  0.18634034514E+04  0.48117662547E+03  0.87695847368E+03  0.21149135993E+04  0.50400001928E-02 0. -1.
       -1    1    3    3    0  502 -0.18634034514E+04 -0.48117662547E+03 -0.21937710204E+03  0.19369898504E+04  0.50400001928E-02 0.  1.
</event>
<event>
 5   0  0.2078125E-09  0.3999786E+04  0.7818609E-02  0.8004590E-01
       -1   -1    0    0    0  501  0.00000000000E+00  0.00000000000E+00  0.18935470186E+04  0.18935470186E+04  0.50400001928E-02 0.  1.
        1   -1    0    0  501    0  0.00000000000E+00  0.00000000000E+00 -0.21122113674E+04  0.21122113674E+04  0.50400001928E-02 0. -1.
    10030    2    1    2    0    0  0.00000000000E+00  0.00000000000E+00 -0.21866434873E+03  0.40057583860E+04  0.39997857630E+04 0.  0.
        1    1    3    3  502    0  0.14498746726E+04  0.27863636327E+03  0.12416806224E+04  0.19291307776E+04  0.50400001928E-02 0.  1.
       -1    1    3    3    0  502 -0.14498746726E+04 -0.27863636327E+03 -0.14603449711E+04  0.20766276084E+04  0.50400001928E-02 0. -1.
</event>
<event>
 5   0  0.6645526E-09  0.4001206E+04  0.7818609E-02  0.8004303E-01
       -2   -1    0    0    0  501  0.00000000000E+00  0.00000000000E+00  0.32573819879E+04  0.32573819879E+04  0.25500000920E-02 0. -1.
        2   -1    0    0  501    0  0.00000000000E+00  0.00000000000E+00 -0.12287205343E+04  0.12287205343E+04  0.25500000920E-02 0.  1.
    10030    2    1    2    0    0  0.00000000000E+00  0.00000000000E+00  0.20286614536E+04  0.44861025222E+04  0.40012058865E+04 0.  0.
        3    1    3    3  502    0  0.16218855679E+04 -0.95005126324E+03  0.17824072038E+04  0.25903833014E+04  0.10100000352E+00 0. -1.
       -3    1    3    3    0  502 -0.16218855679E+04  0.95005126324E+03  0.24625424981E+03  0.18957192207E+04  0.10100000352E+00 0.  1.
</event>
<event>
 5   0  0.6736335E-09  0.4010274E+04  0.7818609E-02  0.8002477E-01
        2   -1    0    0  501    0  0.00000000000E+00  0.00000000000E+00  0.23420817273E+04  0.23420817273E+04  0.25500000920E-02 0.  1.
       -2   -1    0    0    0  501  0.00000000000E+00  0.00000000000E+00 -0.17166672840E+04  0.17166672840E+04  0.25500000920E-02 0. -1.
    10030    2    1    2    0    0  0.00000000000E+00  0.00000000000E+00  0.62541444321E+03  0.40587490113E+04  0.40102743436E+04 0.  0.
        1    1    3    3  502    0  0.20867794090E+03  0.57830741332E+02  0.23302129978E+04  0.23402528695E+04  0.50400001928E-02 0.  1.
       -1    1    3    3    0  502 -0.20867794090E+03 -0.57830741332E+02 -0.17047985546E+04  0.17184961418E+04  0.50400001928E-02 0. -1.
</event>
<event>
 5   0  0.6736335E-09  0.4002305E+04  0.7818609E-02  0.8004082E-01
        2   -1    0    0  501    0  0.00000000000E+00  0.00000000000E+00  0.25771717325E+04  0.25771717325E+04  0.25500000920E-02 0.  1.
       -2   -1    0    0    0  501  0.00000000000E+00  0.00000000000E+00 -0.15538785035E+04  0.15538785035E+04  0.25500000920E-02 0. -1.
    10030    2    1    2    0    0  0.00000000000E+00  0.00000000000E+00  0.10232932290E+04  0.41310502359E+04  0.40023052132E+04 0.  0.
        1    1    3    3  502    0 -0.67057878539E+03 -0.74247929175E+03  0.23005038521E+04  0.25086389496E+04  0.50400001928E-02 0.  1.
       -1    1    3    3    0  502  0.67057878539E+03  0.74247929175E+03 -0.12772106231E+04  0.16224112863E+04  0.50400001928E-02 0. -1.
</event>
<event>
 5   0  0.6547327E-09  0.4003706E+04  0.7818609E-02  0.8003799E-01
       -2   -1    0    0    0  501  0.00000000000E+00  0.00000000000E+00  0.19002750546E+04  0.19002750546E+04  0.25500000920E-02 0.  1.
        2   -1    0    0  501    0  0.00000000000E+00  0.00000000000E+00 -0.21088606449E+04  0.21088606449E+04  0.25500000920E-02 0. -1.
    10030    2    1    2    0    0  0.00000000000E+00  0.00000000000E+00 -0.20858559034E+03  0.40091356995E+04  0.40037059218E+04 0.  0.
        5    1    3    3  502    0 -0.10673706840E+04  0.10916315862E+04 -0.14008280803E+04  0.20720234307E+04  0.46999998093E+01 0. -1.
       -5    1    3    3    0  502  0.10673706840E+04 -0.10916315862E+04  0.11922424899E+04  0.19371122688E+04  0.46999998093E+01 0.  1.
</event>
<event>
 5   0  0.2078125E-09  0.3997455E+04  0.7818609E-02  0.8005060E-01
       -1   -1    0    0    0  501  0.00000000000E+00  0.00000000000E+00  0.16336457465E+04  0.16336457465E+04  0.50400001928E-02 0. -1.
        1   -1    0    0  501    0  0.00000000000E+00  0.00000000000E+00 -0.24453964769E+04  0.24453964769E+04  0.50400001928E-02 0.  1.
    10030    2    1    2    0    0  0.00000000000E+00  0.00000000000E+00 -0.81175073039E+03  0.40790422234E+04  0.39974549668E+04 0.  0.
        5    1    3    3  502    0 -0.16758669912E+04 -0.48403333779E+03  0.58978058526E+03  0.18413803716E+04  0.46999998093E+01 0. -1.
       -5    1    3    3    0  502  0.16758669912E+04  0.48403333779E+03 -0.14015313156E+04  0.22376618518E+04  0.46999998093E+01 0.  1.
</event>
<event>
 5   0  0.6645526E-09  0.4000166E+04  0.7818609E-02  0.8004513E-01
        2   -1    0    0  501    0  0.00000000000E+00  0.00000000000E+00  0.17557953229E+04  0.17557953229E+04  0.25500000920E-02 0. -1.
       -2   -1    0    0    0  501  0.00000000000E+00  0.00000000000E+00 -0.22783594955E+04  0.22783594955E+04  0.25500000920E-02 0.  1.
    10030    2    1    2    0    0  0.00000000000E+00  0.00000000000E+00 -0.52256417262E+03  0.40341548184E+04  0.40001664696E+04 0.  0.
        3    1    3    3  502    0 -0.90291228893E+03 -0.98515086765E+03 -0.17620662266E+04  0.22114814561E+04  0.10100000352E+00 0.  1.
       -3    1    3    3    0  502  0.90291228893E+03  0.98515086765E+03  0.12395020540E+04  0.18226733623E+04  0.10100000352E+00 0. -1.
</event>
<event>
 5   0  0.2078125E-09  0.4001327E+04  0.7818609E-02  0.8004279E-01
       -1   -1    0    0    0  501  0.00000000000E+00  0.00000000000E+00  0.34436948780E+04  0.34436948780E+04  0.50400001928E-02 0.  1.
        1   -1    0    0  501    0  0.00000000000E+00  0.00000000000E+00 -0.11623136423E+04  0.11623136423E+04  0.50400001928E-02 0. -1.
    10030    2    1    2    0    0  0.00000000000E+00  0.00000000000E+00  0.22813812356E+04  0.46060085203E+04  0.40013265484E+04 0.  0.
        2    1    3    3  502    0 -0.14814339058E+04  0.89676070617E+03  0.22940117632E+04  0.28742505373E+04  0.25500000920E-02 0.  1.
       -2    1    3    3    0  502  0.14814339058E+04 -0.89676070617E+03 -0.12630527583E+02  0.17317579830E+04  0.25500000920E-02 0. -1.
</event>
<event>
 5   0  0.2078125E-09  0.4011262E+04  0.7818609E-02  0.8002279E-01
        1   -1    0    0  501    0  0.00000000000E+00  0.00000000000E+00  0.27442101155E+04  0.27442101155E+04  0.50400001928E-02 0. -1.
       -1   -1    0    0    0  501  0.00000000000E+00  0.00000000000E+00 -0.14658336613E+04  0.14658336613E+04  0.50400001928E-02 0.  1.
    10030    2    1    2    0    0  0.00000000000E+00  0.00000000000E+00  0.12783764543E+04  0.42100437768E+04  0.40112619266E+04 0.  0.
        1    1    3    3  502    0  0.15411812880E+04 -0.59334679811E+02  0.19848299474E+04  0.25136249297E+04  0.50400001928E-02 0.  1.
       -1    1    3    3    0  502 -0.15411812880E+04  0.59334679811E+02 -0.70645349317E+03  0.16964188471E+04  0.50400001928E-02 0. -1.
</event>
<event>
 5   0  0.2078125E-09  0.3998000E+04  0.7818609E-02  0.8004950E-01
       -1   -1    0    0    0  501  0.00000000000E+00  0.00000000000E+00  0.26603234518E+04  0.26603234518E+04  0.50400001928E-02 0. -1.
        1   -1    0    0  501    0  0.00000000000E+00  0.00000000000E+00 -0.15020731682E+04  0.15020731682E+04  0.50400001928E-02 0.  1.
    10030    2    1    2    0    0  0.00000000000E+00  0.00000000000E+00  0.11582502836E+04  0.41623966200E+04  0.39979997377E+04 0.  0.
        3    1    3    3  502    0  0.16832996437E+03  0.11570534772E+03  0.26494299229E+04  0.26572921614E+04  0.10100000352E+00 0. -1.
       -3    1    3    3    0  502 -0.16832996437E+03 -0.11570534772E+03 -0.14911796393E+04  0.15051044586E+04  0.10100000352E+00 0.  1.
</event>
<event>
 5   0  0.2078125E-09  0.3973508E+04  0.7818609E-02  0.8009912E-01
        1   -1    0    0  501    0  0.00000000000E+00  0.00000000000E+00  0.18950220942E+04  0.18950220942E+04  0.50400001928E-02 0. -1.
       -1   -1    0    0    0  501  0.00000000000E+00  0.00000000000E+00 -0.20829263627E+04  0.20829263627E+04  0.50400001928E-02 0.  1.
    10030    2    1    2    0    0  0.00000000000E+00  0.00000000000E+00 -0.18790426853E+03  0.39779484569E+04  0.39735080108E+04 0.  0.
        3    1    3    3  502    0  0.25881057503E+03  0.14475418492E+04  0.12435165648E+04  0.19257969198E+04  0.10100000352E+00 0. -1.
       -3    1    3    3    0  502 -0.25881057503E+03 -0.14475418492E+04 -0.14314208333E+04  0.20521515371E+04  0.10100000352E+00 0.  1.
</event>
<event>
 5   0  0.6599276E-09  0.3998354E+04  0.7818609E-02  0.8004879E-01
       -2   -1    0    0    0  501  0.00000000000E+00  0.00000000000E+00  0.17656450687E+04  0.17656450687E+04  0.25500000920E-02 0. -1.
        2   -1    0    0  501    0  0.00000000000E+00  0.00000000000E+00 -0.22635967142E+04  0.22635967142E+04  0.25500000920E-02 0.  1.
    10030    2    1    2    0    0  0.00000000000E+00  0.00000000000E+00 -0.49795164557E+03  0.40292417829E+04  0.39983538492E+04 0.  0.
        2    1    3    3  502    0  0.77894614278E+03  0.31349598500E+03 -0.20772879916E+04  0.22405718525E+04  0.25500000920E-02 0.  1.
       -2    1    3    3    0  502 -0.77894614278E+03 -0.31349598500E+03  0.15793363461E+04  0.17886699304E+04  0.25500000920E-02 0. -1.
</event>
<event>
 5   0  0.2078125E-09  0.3998454E+04  0.7818609E-02  0.8004859E-01
       -1   -1    0    0    0  501  0.00000000000E+00  0.00000000000E+00  0.18889849993E+04  0.18889849993E+04  0.50400001928E-02 0. -1.
        1   -1    0    0  501    0  0.00000000000E+00  0.00000000000E+00 -0.21159025790E+04  0.21159025790E+04  0.50400001928E-02 0.  1.
    10030    2    1    2    0    0  0.00000000000E+00  0.00000000000E+00 -0.22691757972E+03  0.40048875784E+04  0.39984538171E+04 0.  0.
        5    1    3    3  502    0 -0.37141588181E+02  0.23877473808E+03 -0.21012158243E+04  0.21150704251E+04  0.46999998093E+01 0.  1.
       -5    1    3    3    0  502  0.37141588181E+02 -0.23877473808E+03  0.18742982446E+04  0.18898171532E+04  0.46999998093E+01 0. -1.
</event>
<event>
 5   0  0.6547327E-09  0.3997049E+04  0.7818609E-02  0.8005142E-01
       -2   -1    0    0    0  501  0.00000000000E+00  0.00000000000E+00  0.21581633611E+04  0.21581633611E+04  0.25500000920E-02 0.  1.
        2   -1    0    0  501    0  0.00000000000E+00  0.00000000000E+00 -0.18506938589E+04  0.18506938589E+04  0.25500000920E-02 0. -1.
    10030    2    1    2    0    0  0.00000000000E+00  0.00000000000E+00  0.30746950219E+03  0.40088572201E+04  0.39970487508E+04 0.  0.
        5    1    3    3  502    0 -0.97798781005E+03  0.10609852098E+04  0.15405445108E+04  0.21107935123E+04  0.46999998093E+01 0.  1.
       -5    1    3    3    0  502  0.97798781005E+03 -0.10609852098E+04 -0.12330750086E+04  0.18980637078E+04  0.46999998093E+01 0. -1.
</event>
<event>
 5   0  0.2078125E-09  0.3989139E+04  0.7818609E-02  0.8006741E-01
       -1   -1    0    0    0  501  0.00000000000E+00  0.00000000000E+00  0.10969857546E+04  0.10969857546E+04  0.50400001928E-02 0.  1.
        1   -1    0    0  501    0  0.00000000000E+00  0.00000000000E+00 -0.36265816434E+04  0.36265816434E+04  0.50400001928E-02 0. -1.
    10030    2    1    2    0    0  0.00000000000E+00  0.00000000000E+00 -0.25295958889E+04  0.47235673980E+04  0.39891394564E+04 0.  0.
        2    1    3    3  502    0 -0.19464569146E+04  0.26615195304E+03 -0.16728890288E+04  0.25803273213E+04  0.25500000920E-02 0.  1.
       -2    1    3    3    0  502  0.19464569146E+04 -0.26615195304E+03 -0.85670686011E+03  0.21432400767E+04  0.25500000920E-02 0. -1.
</event>
<event>
 5   0  0.2078125E-09  0.4001730E+04  0.7818609E-02  0.8004198E-01
       -4   -1    0    0    0  501  0.00000000000E+00  0.00000000000E+00  0.14884544664E+04  0.14884550082E+04  0.12699999809E+01 0.  1.
        4   -1    0    0  501    0  0.00000000000E+00  0.00000000000E+00 -0.26896744872E+04  0.26896747870E+04  0.12699999809E+01 0. -1.
    10030    2    1    2    0    0  0.00000000000E+00  0.00000000000E+00 -0.12012200208E+04  0.41781297952E+04  0.40017295070E+04 0.  0.
        1    1    3    3  502    0  0.10066540869E+02 -0.81697067784E+03  0.13063511075E+04  0.15408100596E+04  0.50400001928E-02 0.  1.
       -1    1    3    3    0  502 -0.10066540869E+02  0.81697067784E+03 -0.25075711283E+04  0.26373197355E+04  0.50400001928E-02 0. -1.
</event>
<event>
 5   0  0.2078125E-09  0.3999919E+04  0.7818609E-02  0.8004563E-01
       -1   -1    0    0    0  501  0.00000000000E+00  0.00000000000E+00  0.14371638879E+04  0.14371638879E+04  0.50400001928E-02 0.  1.
        1   -1    0    0  501    0  0.00000000000E+00  0.00000000000E+00 -0.27831468880E+04  0.27831468880E+04  0.50400001928E-02 0. -1.
    10030    2    1    2    0    0  0.00000000000E+00  0.00000000000E+00 -0.13459830001E+04  0.42203107759E+04  0.39999191002E+04 0.  0.
        1    1    3    3  502    0  0.15107552724E+04 -0.19242219446E+03 -0.20407313198E+04  0.25463684167E+04  0.50400001928E-02 0. -1.
       -1    1    3    3    0  502 -0.15107552724E+04  0.19242219446E+03  0.69474831968E+03  0.16739423591E+04  0.50400001928E-02 0.  1.
</event>
<event>
 5   0  0.2078125E-09  0.4009877E+04  0.7818609E-02  0.8002557E-01
        1   -1    0    0  501    0  0.00000000000E+00  0.00000000000E+00  0.16952956046E+04  0.16952956046E+04  0.50400001928E-02 0. -1.
       -1   -1    0    0    0  501  0.00000000000E+00  0.00000000000E+00 -0.23711367892E+04  0.23711367892E+04  0.50400001928E-02 0.  1.
    10030    2    1    2    0    0  0.00000000000E+00  0.00000000000E+00 -0.67584118458E+03  0.40664323938E+04  0.40098766947E+04 0.  0.
        2    1    3    3  502    0  0.73326936581E+03  0.46866145956E+03  0.14937800054E+04  0.17287875032E+04  0.25500000920E-02 0. -1.
       -2    1    3    3    0  502 -0.73326936581E+03 -0.46866145956E+03 -0.21696211900E+04  0.23376448906E+04  0.25500000920E-02 0.  1.
</event>
<event>
 5   0  0.6736335E-09  0.3999076E+04  0.7818609E-02  0.8004733E-01
        2   -1    0    0  501    0  0.00000000000E+00  0.00000000000E+00  0.21816839313E+04  0.21816839313E+04  0.25500000920E-02 0. -1.
       -2   -1    0    0    0  501  0.00000000000E+00  0.00000000000E+00 -0.18325987521E+04  0.18325987521E+04  0.25500000920E-02 0.  1.
    10030    2    1    2    0    0  0.00000000000E+00  0.00000000000E+00  0.34908517913E+03  0.40142826834E+04  0.39990755182E+04 0.  0.
        1    1    3    3  502    0 -0.33770761143E+03 -0.15043826136E+03  0.21470782177E+04  0.21786745912E+04  0.50400001928E-02 0. -1.
       -1    1    3    3    0  502  0.33770761143E+03  0.15043826136E+03 -0.17979930386E+04  0.18356080922E+04  0.50400001928E-02 0.  1.
</event>
<event>
 5   0  0.6736335E-09  0.3993504E+04  0.7818609E-02  0.8005858E-01
        2   -1    0    0  501    0  0.00000000000E+00  0.00000000000E+00  0.26559136380E+04  0.26559136380E+04  0.25500000920E-02 0. -1.
       -2   -1    0    0    0  501  0.00000000000E+00  0.00000000000E+00 -0.15011851642E+04  0.15011851642E+04  0.25500000920E-02 0.  1.
    10030    2    1    2    0    0  0.00000000000E+00  0.00000000000E+00  0.11547284738E+04  0.41570988023E+04  0.39935038004E+04 0.  0.
        1    1    3    3  502    0 -0.16410708115E+04  0.11366257783E+04  0.62376119835E+03  0.20914372094E+04  0.50400001928E-02 0. -1.
       -1    1    3    3    0  502  0.16410708115E+04 -0.11366257783E+04  0.53096727543E+03  0.20656615928E+04  0.50400001928E-02 0.  1.
</event>
<event>
 5   0  0.2078125E-09  0.4000465E+04  0.7818609E-02  0.8004453E-01
       -1   -1    0    0    0  501  0.00000000000E+00  0.00000000000E+00  0.14737694542E+04  0.14737694542E+04  0.50400001928E-02 0.  1.
        1   -1    0    0  501    0  0.00000000000E+00  0.00000000000E+00 -0.27147592080E+04  0.27147592080E+04  0.50400001928E-02 0. -1.
    10030    2    1    2    0    0  0.00000000000E+00  0.00000000000E+00 -0.12409897537E+04  0.41885286622E+04  0.40004645712E+04 0.  0.
        4    1    3    3  502    0  0.16521596744E+02 -0.90974504084E+03  0.12445417738E+04  0.15416857145E+04  0.12699999809E+01 0.  1.
       -4    1    3    3    0  502 -0.16521596744E+02  0.90974504084E+03 -0.24855315276E+04  0.26468429477E+04  0.12699999809E+01 0. -1.
</event>
<event>
 5   0  0.6547327E-09  0.3999351E+04  0.7818609E-02  0.8004678E-01
        2   -1    0    0  501    0  0.00000000000E+00  0.00000000000E+00  0.26796563846E+04  0.26796563846E+04  0.25500000920E-02 0.  1.
       -2   -1    0    0    0  501  0.00000000000E+00  0.00000000000E+00 -0.14922442730E+04  0.14922442730E+04  0.25500000920E-02 0. -1.
    10030    2    1    2    0    0  0.00000000000E+00  0.00000000000E+00  0.11874121116E+04  0.41719006576E+04  0.39993508941E+04 0.  0.
        5    1    3    3  502    0  0.52784724363E+03 -0.12191357411E+04 -0.96535528478E+03  0.16422081426E+04  0.46999998093E+01 0. -1.
       -5    1    3    3    0  502 -0.52784724363E+03  0.12191357411E+04  0.21527673964E+04  0.25296925150E+04  0.46999998093E+01 0.  1.
</event>
<event>
 5   0  0.2078125E-09  0.3993352E+04  0.7818609E-02  0.8005889E-01
       -1   -1    0    0    0  501  0.00000000000E+00  0.00000000000E+00  0.25102708689E+04  0.25102708689E+04  0.50400001928E-02 0. -1.
        1   -1    0    0  501    0  0.00000000000E+00  0.00000000000E+00 -0.15881615575E+04  0.15881615575E+04  0.50400001928E-02 0.  1.
    10030    2    1    2    0    0  0.00000000000E+00  0.00000000000E+00  0.92210931139E+03  0.40984324263E+04  0.39933523224E+04 0.  0.
        5    1    3    3  502    0  0.15178703228E+04  0.10238517534E+04  0.12785642159E+04  0.22331482875E+04  0.46999998093E+01 0. -1.
       -5    1    3    3    0  502 -0.15178703228E+04 -0.10238517534E+04 -0.35645490452E+03  0.18652841389E+04  0.46999998093E+01 0.  1.
</event>
<event>
 5   0  0.2078125E-09  0.4019934E+04  0.7818609E-02  0.8000537E-01
        1   -1    0    0  501    0  0.00000000000E+00  0.00000000000E+00  0.21007705179E+04  0.21007705179E+04  0.50400001928E-02 0.  1.
       -1   -1    0    0    0  501  0.00000000000E+00  0.00000000000E+00 -0.19230886997E+04  0.19230886997E+04  0.50400001928E-02 0. -1.
    10030    2    1    2    0    0  0.00000000000E+00  0.00000000000E+00  0.17768181826E+03  0.40238592176E+04  0.40199343495E+04 0.  0.
        2    1    3    3  502    0 -0.13464814859E+04 -0.21184390911E+03 -0.13897871168E+04  0.19466377330E+04  0.25500000920E-02 0. -1.
       -2    1    3    3    0  502  0.13464814859E+04  0.21184390911E+03  0.15674689351E+04  0.20772214846E+04  0.25500000920E-02 0.  1.
</event>
<event>
 5   0  0.6547327E-09  0.4021892E+04  0.7818609E-02  0.8000145E-01
        2   -1    0    0  501    0  0.00000000000E+00  0.00000000000E+00  0.14528496265E+04  0.14528496265E+04  0.25500000920E-02 0. -1.
       -2   -1    0    0    0  501  0.00000000000E+00  0.00000000000E+00 -0.27834285023E+04  0.27834285023E+04  0.25500000920E-02 0.  1.
    10030    2    1    2    0    0  0.00000000000E+00  0.00000000000E+00 -0.13305788758E+04  0.42362781289E+04  0.40218916246E+04 0.  0.
        5    1    3    3  502    0 -0.14880248487E+04 -0.67473520816E+03  0.56954846415E+03  0.17302869977E+04  0.46999998093E+01 0. -1.
       -5    1    3    3    0  502  0.14880248487E+04  0.67473520816E+03 -0.19001273400E+04  0.25059911312E+04  0.46999998093E+01 0.  1.
</event>
<event>
 5   0  0.6736335E-09  0.3999813E+04  0.7818609E-02  0.8004584E-01
       -2   -1    0    0    0  501  0.00000000000E+00  0.00000000000E+00  0.15303066302E+04  0.15303066302E+04  0.25500000920E-02 0.  1.
        2   -1    0    0  501    0  0.00000000000E+00  0.00000000000E+00 -0.26136109467E+04  0.26136109467E+04  0.25500000920E-02 0. -1.
    10030    2    1    2    0    0  0.00000000000E+00  0.00000000000E+00 -0.10833043165E+04  0.41439175768E+04  0.39998130758E+04 0.  0.
        1    1    3    3  502    0  0.81363527465E+03 -0.39725596846E+03  0.13057953193E+04  0.15889984520E+04  0.50400001928E-02 0.  1.
       -1    1    3    3    0  502 -0.81363527465E+03  0.39725596846E+03 -0.23890996358E+04  0.25549191248E+04  0.50400001928E-02 0. -1.
</event>
<event>
 5   0  0.2078125E-09  0.3982120E+04  0.7818609E-02  0.8008163E-01
       -1   -1    0    0    0  501  0.00000000000E+00  0.00000000000E+00  0.14872446645E+04  0.14872446645E+04  0.50400001928E-02 0. -1.
        1   -1    0    0  501    0  0.00000000000E+00  0.00000000000E+00 -0.26655467532E+04  0.26655467532E+04  0.50400001928E-02 0.  1.
    10030    2    1    2    0    0  0.00000000000E+00  0.00000000000E+00 -0.11783020887E+04  0.41527914177E+04  0.39821201322E+04 0.  0.
        4    1    3    3  502    0  0.32072055866E+03 -0.19334216168E+04 -0.22290430289E+03  0.19724778240E+04  0.12699999809E+01 0. -1.
       -4    1    3    3    0  502 -0.32072055866E+03  0.19334216168E+04 -0.95539778577E+03  0.21803135937E+04  0.12699999809E+01 0.  1.
</event>
<event>
 5   0  0.2078125E-09  0.4001026E+04  0.7818609E-02  0.8004340E-01
       -1   -1    0    0    0  501  0.00000000000E+00  0.00000000000E+00  0.22072761127E+04  0.22072761127E+04  0.50400001928E-02 0.  1.
        1   -1    0    0  501    0  0.00000000000E+00  0.00000000000E+00 -0.18131177577E+04  0.18131177577E+04  0.50400001928E-02 0. -1.
    10030    2    1    2    0    0  0.00000000000E+00  0.00000000000E+00  0.39415835502E+03  0.40203938704E+04  0.40010256265E+04 0.  0.
        5    1    3    3  502    0 -0.18289465770E+04  0.53601264025E+03  0.80803090229E+03  0.20700944812E+04  0.46999998093E+01 0. -1.
       -5    1    3    3    0  502  0.18289465770E+04 -0.53601264025E+03 -0.41387254727E+03  0.19502993892E+04  0.46999998093E+01 0.  1.
</event>
<event>
 5   0  0.2078125E-09  0.3998683E+04  0.7818609E-02  0.8004812E-01
        1   -1    0    0  501    0  0.00000000000E+00  0.00000000000E+00  0.19231961013E+04  0.19231961013E+04  0.50400001928E-02 0.  1.
       -1   -1    0    0    0  501  0.00000000000E+00  0.00000000000E+00 -0.20785014055E+04  0.20785014055E+04  0.50400001928E-02 0. -1.
    10030    2    1    2    0    0  0.00000000000E+00  0.00000000000E+00 -0.15530530425E+03  0.40016975068E+04  0.39986826829E+04 0.  0.
        3    1    3    3  502    0 -0.12318966805E+04  0.12917164324E+04 -0.97903425334E+03  0.20358312436E+04  0.10100000352E+00 0.  1.
       -3    1    3    3    0  502  0.12318966805E+04 -0.12917164324E+04  0.82372894909E+03  0.19658662632E+04  0.10100000352E+00 0. -1.
</event>
<event>
 5   0  0.2078125E-09  0.4000064E+04  0.7818609E-02  0.8004534E-01
        3   -1    0    0  501    0  0.00000000000E+00  0.00000000000E+00  0.24173152856E+04  0.24173152877E+04  0.10100000352E+00 0.  1.
       -3   -1    0    0    0  501  0.00000000000E+00  0.00000000000E+00 -0.16547812113E+04  0.16547812144E+04  0.10100000352E+00 0. -1.
    10030    2    1    2    0    0  0.00000000000E+00  0.00000000000E+00  0.76253407429E+03  0.40720965021E+04  0.40000639630E+04 0.  0.
        1    1    3    3  502    0  0.42084968281E+03 -0.47251500964E+03  0.23127321840E+04  0.23977312286E+04  0.50400001928E-02 0.  1.
       -1    1    3    3    0  502 -0.42084968281E+03  0.47251500964E+03 -0.15501981097E+04  0.16743652735E+04  0.50400001928E-02 0. -1.
</event>
<event>
 5   0  0.2078125E-09  0.4000356E+04  0.7818609E-02  0.8004475E-01
        1   -1    0    0  501    0  0.00000000000E+00  0.00000000000E+00  0.12963315289E+04  0.12963315289E+04  0.50400001928E-02 0.  1.
       -1   -1    0    0    0  501  0.00000000000E+00  0.00000000000E+00 -0.30861789377E+04  0.30861789377E+04  0.50400001928E-02 0. -1.
    10030    2    1    2    0    0  0.00000000000E+00  0.00000000000E+00 -0.17898474088E+04  0.43825104665E+04  0.40003555145E+04 0.  0.
        4    1    3    3  502    0 -0.73408660030E+03  0.18594923526E+04 -0.96519581543E+03  0.22199548466E+04  0.12699999809E+01 0.  1.
       -4    1    3    3    0  502  0.73408660030E+03 -0.18594923526E+04 -0.82465159334E+03  0.21625556199E+04  0.12699999809E+01 0. -1.
</event>
<event>
 5   0  0.2078125E-09  0.4000562E+04  0.7818609E-02  0.8004433E-01
       -1   -1    0    0    0  501  0.00000000000E+00  0.00000000000E+00  0.19300418845E+04  0.19300418845E+04  0.50400001928E-02 0. -1.
        1   -1    0    0  501    0  0.00000000000E+00  0.00000000000E+00 -0.20730762117E+04  0.20730762117E+04  0.50400001928E-02 0.  1.
    10030    2    1    2    0    0  0.00000000000E+00  0.00000000000E+00 -0.14303432727E+03  0.40031180962E+04  0.40005619197E+04 0.  0.
        5    1    3    3  502    0 -0.18652550427E+04 -0.28636135965E+03 -0.73520759319E+03  0.20252731909E+04  0.46999998093E+01 0.  1.
       -5    1    3    3    0  502  0.18652550427E+04  0.28636135965E+03  0.59217326592E+03  0.19778449053E+04  0.46999998093E+01 0. -1.
</event>
<event>
 5   0  0.6538370E-09  0.3999242E+04  0.7818609E-02  0.8004700E-01
        2   -1    0    0  501    0  0.00000000000E+00  0.00000000000E+00  0.21197575547E+04  0.21197575547E+04  0.25500000920E-02 0. -1.
       -2   -1    0    0    0  501  0.00000000000E+00  0.00000000000E+00 -0.18862929939E+04  0.18862929939E+04  0.25500000920E-02 0.  1.
    10030    2    1    2    0    0  0.00000000000E+00  0.00000000000E+00  0.23346456080E+03  0.40060505486E+04  0.39992418403E+04 0.  0.
        4    1    3    3  502    0 -0.12519107756E+04  0.99489675935E+03 -0.10858874195E+04  0.19329390194E+04  0.12699999809E+01 0.  1.
       -4    1    3    3    0  502  0.12519107756E+04 -0.99489675935E+03  0.13193519803E+04  0.20731115293E+04  0.12699999809E+01 0. -1.
</event>
<event>
 5   0  0.2078125E-09  0.4000868E+04  0.7818609E-02  0.8004371E-01
        1   -1    0    0  501    0  0.00000000000E+00  0.00000000000E+00  0.25401287222E+04  0.25401287222E+04  0.50400001928E-02 0. -1.
       -1   -1    0    0    0  501  0.00000000000E+00  0.00000000000E+00 -0.15754072292E+04  0.15754072292E+04  0.50400001928E-02 0.  1.
    10030    2    1    2    0    0  0.00000000000E+00  0.00000000000E+00  0.96472149306E+03  0.41155359514E+04  0.40008684817E+04 0.  0.
        5    1    3    3  502    0  0.16633685775E+04 -0.11036266077E+04  0.34852275308E+03  0.20263950536E+04  0.46999998093E+01 0.  1.
       -5    1    3    3    0  502 -0.16633685775E+04  0.11036266077E+04  0.61619873998E+03  0.20891408978E+04  0.46999998093E+01 0. -1.
</event>
<event>
 5   0  0.6645526E-09  0.4001049E+04  0.7818609E-02  0.8004335E-01
        2   -1    0    0  501    0  0.00000000000E+00  0.00000000000E+00  0.13069591943E+04  0.13069591943E+04  0.25500000920E-02 0. -1.
       -2   -1    0    0    0  501  0.00000000000E+00  0.00000000000E+00 -0.30621451888E+04  0.30621451888E+04  0.25500000920E-02 0.  1.
    10030    2    1    2    0    0  0.00000000000E+00  0.00000000000E+00 -0.17551859945E+04  0.43691043831E+04  0.40010492668E+04 0.  0.
        3    1    3    3  502    0  0.18275608123E+04 -0.48657344867E+03 -0.16539591253E+03  0.18984435893E+04  0.10100000352E+00 0. -1.
       -3    1    3    3    0  502 -0.18275608123E+04  0.48657344867E+03 -0.15897900819E+04  0.24706607939E+04  0.10100000352E+00 0.  1.
</event>
<event>
 5   0  0.6645526E-09  0.3998688E+04  0.7818609E-02  0.8004811E-01
       -2   -1    0    0    0  501  0.00000000000E+00  0.00000000000E+00  0.15462944620E+04  0.15462944620E+04  0.25500000920E-02 0. -1.
        2   -1    0    0  501    0  0.00000000000E+00  0.00000000000E+00 -0.25851331485E+04  0.25851331485E+04  0.25500000920E-02 0.  1.
    10030    2    1    2    0    0  0.00000000000E+00  0.00000000000E+00 -0.10388386866E+04  0.41314276105E+04  0.39986883205E+04 0.  0.
        3    1    3    3  502    0 -0.89630429787E+03  0.13094216918E+04 -0.17761143148E+04  0.23817070833E+04  0.10100000352E+00 0.  1.
       -3    1    3    3    0  502  0.89630429787E+03 -0.13094216918E+04  0.73727562819E+03  0.17497205272E+04  0.10100000352E+00 0. -1.
</event>
<event>
 5   0  0.2078125E-09  0.4000254E+04  0.7818609E-02  0.8004495E-01
        1   -1    0    0  501    0  0.00000000000E+00  0.00000000000E+00  0.11889860288E+04  0.11889860289E+04  0.50400001928E-02 0. -1.
       -1   -1    0    0    0  501  0.00000000000E+00  0.00000000000E+00 -0.33646380773E+04  0.33646380773E+04  0.50400001928E-02 0.  1.
    10030    2    1    2    0    0  0.00000000000E+00  0.00000000000E+00 -0.21756520484E+04  0.45536241061E+04  0.40002538249E+04 0.  0.
        2    1    3    3  502    0 -0.16963499284E+04  0.19097782699E+03  0.98682640326E+02  0.17099163352E+04  0.25500000920E-02 0. -1.
       -2    1    3    3    0  502  0.16963499284E+04 -0.19097782699E+03 -0.22743346887E+04  0.28437077709E+04  0.25500000920E-02 0.  1.
</event>
<event>
 5   0  0.6547327E-09  0.4001569E+04  0.7818609E-02  0.8004230E-01
        2   -1    0    0  501    0  0.00000000000E+00  0.00000000000E+00  0.23715703490E+04  0.23715703490E+04  0.25500000920E-02 0. -1.
       -2   -1    0    0    0  501  0.00000000000E+00  0.00000000000E+00 -0.16879696343E+04  0.16879696343E+04  0.25500000920E-02 0.  1.
    10030    2    1    2    0    0  0.00000000000E+00  0.00000000000E+00  0.68360071471E+03  0.40595399834E+04  0.40015690597E+04 0.  0.
        5    1    3    3  502    0 -0.34742030096E+03  0.12087217683E+04  0.19204306976E+04  0.22956013010E+04  0.46999998093E+01 0. -1.
       -5    1    3    3    0  502  0.34742030096E+03 -0.12087217683E+04 -0.12368299829E+04  0.17639386824E+04  0.46999998093E+01 0.  1.
</event>
<event>
 5   0  0.2078125E-09  0.4004949E+04  0.7818609E-02  0.8003549E-01
        3   -1    0    0  501    0  0.00000000000E+00  0.00000000000E+00  0.17330170743E+04  0.17330170772E+04  0.10100000352E+00 0.  1.
       -3   -1    0    0    0  501  0.00000000000E+00  0.00000000000E+00 -0.23138283031E+04  0.23138283053E+04  0.10100000352E+00 0. -1.
    10030    2    1    2    0    0  0.00000000000E+00  0.00000000000E+00 -0.58081122884E+03  0.40468453825E+04  0.40049489218E+04 0.  0.
        4    1    3    3  502    0  0.19705461254E+04 -0.35530201964E+03 -0.26543278028E+03  0.20198385409E+04  0.12699999809E+01 0. -1.
       -4    1    3    3    0  502 -0.19705461254E+04  0.35530201964E+03 -0.31537844856E+03  0.20270068417E+04  0.12699999809E+01 0.  1.
</event>
<event>
 5   0  0.2078125E-09  0.4000038E+04  0.7818609E-02  0.8004539E-01
       -1   -1    0    0    0  501  0.00000000000E+00  0.00000000000E+00  0.27125639323E+04  0.27125639323E+04  0.50400001928E-02 0.  1.
        1   -1    0    0  501    0  0.00000000000E+00  0.00000000000E+00 -0.14746473369E+04  0.14746473369E+04  0.50400001928E-02 0. -1.
    10030    2    1    2    0    0  0.00000000000E+00  0.00000000000E+00  0.12379165955E+04  0.41872112692E+04  0.40000375893E+04 0.  0.
        2    1    3    3  502    0  0.34271518228E+03 -0.81929553629E+03  0.24948441200E+04  0.26481967554E+04  0.25500000920E-02 0.  1.
       -2    1    3    3    0  502 -0.34271518228E+03  0.81929553629E+03 -0.12569275245E+04  0.15390145139E+04  0.25500000920E-02 0. -1.
</event>
<event>
 5   0  0.6547327E-09  0.4001330E+04  0.7818609E-02  0.8004278E-01
        2   -1    0    0  501    0  0.00000000000E+00  0.00000000000E+00  0.17438599744E+04  0.17438599744E+04  0.25500000920E-02 0.  1.
       -2   -1    0    0    0  501  0.00000000000E+00  0.00000000000E+00 -0.22952879903E+04  0.22952879903E+04  0.25500000920E-02 0. -1.
    10030    2    1    2    0    0  0.00000000000E+00  0.00000000000E+00 -0.55142801596E+03  0.40391479647E+04  0.40013302068E+04 0.  0.
        5    1    3    3  502    0  0.21430018400E+02  0.18221048474E+04 -0.11094214443E+04  0.21333924514E+04  0.46999998093E+01 0.  1.
       -5    1    3    3    0  502 -0.21430018400E+02 -0.18221048474E+04  0.55799342833E+03  0.19057555133E+04  0.46999998093E+01 0. -1.
</event>
<event>
 5   0  0.6736335E-09  0.3998067E+04  0.7818609E-02  0.8004937E-01
        2   -1    0    0  501    0  0.00000000000E+00  0.00000000000E+00  0.20828613579E+04  0.20828613579E+04  0.25500000920E-02 0. -1.
       -2   -1    0    0    0  501  0.00000000000E+00  0.00000000000E+00 -0.19185794909E+04  0.19185794909E+04  0.25500000920E-02 0.  1.
    10030    2    1    2    0    0  0.00000000000E+00  0.00000000000E+00  0.16428186697E+03  0.40014408488E+04  0.39980670748E+04 0.  0.
        1    1    3    3  502    0 -0.91492288358E+03  0.10082117222E+04  0.15471248427E+04  0.20608663320E+04  0.50400001928E-02 0. -1.
       -1    1    3    3    0  502  0.91492288358E+03 -0.10082117222E+04 -0.13828429757E+04  0.19405745168E+04  0.50400001928E-02 0.  1.
</event>
<event>
 5   0  0.2078125E-09  0.4004015E+04  0.7818609E-02  0.8003737E-01
       -1   -1    0    0    0  501  0.00000000000E+00  0.00000000000E+00  0.22158621337E+04  0.22158621337E+04  0.50400001928E-02 0. -1.
        1   -1    0    0  501    0  0.00000000000E+00  0.00000000000E+00 -0.18087919346E+04  0.18087919346E+04  0.50400001928E-02 0.  1.
    10030    2    1    2    0    0  0.00000000000E+00  0.00000000000E+00  0.40707019913E+03  0.40246540683E+04  0.40040147630E+04 0.  0.
        2    1    3    3  502    0 -0.15548157921E+04  0.53652268107E+03 -0.94371797750E+03  0.18962891013E+04  0.25500000920E-02 0.  1.
       -2    1    3    3    0  502  0.15548157921E+04 -0.53652268107E+03  0.13507881766E+04  0.21283649670E+04  0.25500000920E-02 0. -1.
</event>
<event>
 5   0  0.6736335E-09  0.3998700E+04  0.7818609E-02  0.8004809E-01
        2   -1    0    0  501    0  0.00000000000E+00  0.00000000000E+00  0.23068403578E+04  0.23068403578E+04  0.25500000920E-02 0.  1.
       -2   -1    0    0    0  501  0.00000000000E+00  0.00000000000E+00 -0.17328464864E+04  0.17328464864E+04  0.25500000920E-02 0. -1.
    10030    2    1    2    0    0  0.00000000000E+00  0.00000000000E+00  0.57399387138E+03  0.40396868442E+04  0.39986998931E+04 0.  0.
        1    1    3    3  502    0  0.10444314007E+04 -0.48357913696E+02  0.20086435051E+04  0.22644699532E+04  0.50400001928E-02 0.  1.
       -1    1    3    3    0  502 -0.10444314007E+04  0.48357913696E+02 -0.14346496337E+04  0.17752168910E+04  0.50400001928E-02 0. -1.
</event>
<event>
 5   0  0.2078125E-09  0.3999365E+04  0.7818609E-02  0.8004675E-01
       -1   -1    0    0    0  501  0.00000000000E+00  0.00000000000E+00  0.23495926177E+04  0.23495926177E+04  0.50400001928E-02 0. -1.
        1   -1    0    0  501    0  0.00000000000E+00  0.00000000000E+00 -0.17018826259E+04  0.17018826259E+04  0.50400001928E-02 0.  1.
    10030    2    1    2    0    0  0.00000000000E+00  0.00000000000E+00  0.64770999179E+03  0.40514752437E+04  0.39993653767E+04 0.  0.
        4    1    3    3  502    0  0.15677267327E+04 -0.52894798299E+03 -0.81379844335E+03  0.18438607855E+04  0.12699999809E+01 0.  1.
       -4    1    3    3    0  502 -0.15677267327E+04  0.52894798299E+03  0.14615084351E+04  0.22076144582E+04  0.12699999809E+01 0. -1.
</event>
<event>
 5   0  0.6645526E-09  0.4002756E+04  0.7818609E-02  0.8003991E-01
       -2   -1    0    0    0  501  0.00000000000E+00  0.00000000000E+00  0.31318328370E+04  0.31318328370E+04  0.25500000920E-02 0.  1.
        2   -1    0    0  501    0  0.00000000000E+00  0.00000000000E+00 -0.12789677061E+04  0.12789677061E+04  0.25500000920E-02 0. -1.
    10030    2    1    2    0    0  0.00000000000E+00  0.00000000000E+00  0.18528651309E+04  0.44108005431E+04  0.40027555805E+04 0.  0.
        3    1    3    3  502    0  0.53275738556E+03 -0.20178840330E+03  0.30405988180E+04  0.30935077459E+04  0.10100000352E+00 0.  1.
       -3    1    3    3    0  502 -0.53275738556E+03  0.20178840330E+03 -0.11877336872E+04  0.13172927971E+04  0.10100000352E+00 0. -1.
</event>
<event>
 5   0  0.2078125E-09  0.3999828E+04  0.7818609E-02  0.8004581E-01
       -1   -1    0    0    0  501  0.00000000000E+00  0.00000000000E+00  0.25497884305E+04  0.25497884305E+04  0.50400001928E-02 0. -1.
        1   -1    0    0  501    0  0.00000000000E+00  0.00000000000E+00 -0.15686224769E+04  0.15686224769E+04  0.50400001928E-02 0.  1.
    10030    2    1    2    0    0  0.00000000000E+00  0.00000000000E+00  0.98116595358E+03  0.41184109074E+04  0.39998277180E+04 0.  0.
        4    1    3    3  502    0  0.17228391918E+04  0.63605176856E+03 -0.32467197779E+03  0.18649799568E+04  0.12699999809E+01 0.  1.
       -4    1    3    3    0  502 -0.17228391918E+04 -0.63605176856E+03  0.13058379314E+04  0.22534309506E+04  0.12699999809E+01 0. -1.
</event>
<event>
 5   0  0.6645526E-09  0.4001330E+04  0.7818609E-02  0.8004278E-01
       -2   -1    0    0    0  501  0.00000000000E+00  0.00000000000E+00  0.36585101301E+04  0.36585101301E+04  0.25500000920E-02 0. -1.
        2   -1    0    0  501    0  0.00000000000E+00  0.00000000000E+00 -0.10940683576E+04  0.10940683576E+04  0.25500000920E-02 0.  1.
    10030    2    1    2    0    0  0.00000000000E+00  0.00000000000E+00  0.25644417725E+04  0.47525784876E+04  0.40013298635E+04 0.  0.
        3    1    3    3  502    0 -0.89833185629E+03  0.48792949959E+03 -0.76042718385E+03  0.12740976543E+04  0.10100000352E+00 0.  1.
       -3    1    3    3    0  502  0.89833185629E+03 -0.48792949959E+03  0.33248689564E+04  0.34784808333E+04  0.10100000352E+00 0. -1.
</event>
<event>
 5   0  0.6538370E-09  0.3995453E+04  0.7818609E-02  0.8005464E-01
       -2   -1    0    0    0  501  0.00000000000E+00  0.00000000000E+00  0.20024455122E+04  0.20024455122E+04  0.25500000920E-02 0.  1.
        2   -1    0    0  501    0  0.00000000000E+00  0.00000000000E+00 -0.19930188039E+04  0.19930188039E+04  0.25500000920E-02 0. -1.
    10030    2    1    2    0    0  0.00000000000E+00  0.00000000000E+00  0.94267083138E+01  0.39954643162E+04  0.39954531957E+04 0.  0.
        4    1    3    3  502    0 -0.14795712714E+04  0.12635652754E+04  0.45768436485E+03  0.19988008763E+04  0.12699999809E+01 0.  1.
       -4    1    3    3    0  502  0.14795712714E+04 -0.12635652754E+04 -0.44825765654E+03  0.19966634398E+04  0.12699999809E+01 0. -1.
</event>
<event>
 5   0  0.6599276E-09  0.3999998E+04  0.7818609E-02  0.8004547E-01
        2   -1    0    0  501    0  0.00000000000E+00  0.00000000000E+00  0.26720888100E+04  0.26720888100E+04  0.25500000920E-02 0.  1.
       -2   -1    0    0    0  501  0.00000000000E+00  0.00000000000E+00 -0.14969547016E+04  0.14969547016E+04  0.25500000920E-02 0. -1.
    10030    2    1    2    0    0  0.00000000000E+00  0.00000000000E+00  0.11751341084E+04  0.41690435116E+04  0.39999979536E+04 0.  0.
        2    1    3    3  502    0  0.37364660959E+03 -0.57715304946E+03  0.25450434453E+04  0.26362783559E+04  0.25500000920E-02 0.  1.
       -2    1    3    3    0  502 -0.37364660959E+03  0.57715304946E+03 -0.13699093369E+04  0.15327651557E+04  0.25500000920E-02 0. -1.
</event>
<event>
 5   0  0.6599276E-09  0.3998778E+04  0.7818609E-02  0.8004793E-01
        2   -1    0    0  501    0  0.00000000000E+00  0.00000000000E+00  0.26180902723E+04  0.26180902723E+04  0.25500000920E-02 0. -1.
       -2   -1    0    0    0  501  0.00000000000E+00  0.00000000000E+00 -0.15268979834E+04  0.15268979834E+04  0.25500000920E-02 0.  1.
    10030    2    1    2    0    0  0.00000000000E+00  0.00000000000E+00  0.10911922889E+04  0.41449882557E+04  0.39987781920E+04 0.  0.
        2    1    3    3  502    0  0.13360769437E+04  0.56769887101E+03  0.19707008833E+04  0.24476612468E+04  0.25500000920E-02 0. -1.
       -2    1    3    3    0  502 -0.13360769437E+04 -0.56769887101E+03 -0.87950859442E+03  0.16973270089E+04  0.25500000920E-02 0.  1.
</event>
<event>
 5   0  0.2078125E-09  0.4001471E+04  0.7818609E-02  0.8004250E-01
       -1   -1    0    0    0  501  0.00000000000E+00  0.00000000000E+00  0.15745129932E+04  0.15745129933E+04  0.50400001928E-02 0.  1.
        1   -1    0    0  501    0  0.00000000000E+00  0.00000000000E+00 -0.25423366538E+04  0.25423366538E+04  0.50400001928E-02 0. -1.
    10030    2    1    2    0    0  0.00000000000E+00  0.00000000000E+00 -0.96782366051E+03  0.41168496470E+04  0.40014707769E+04 0.  0.
        4    1    3    3  502    0 -0.14824472977E+04 -0.87918090770E+03 -0.15292454786E+04  0.23041706546E+04  0.12699999809E+01 0. -1.
       -4    1    3    3    0  502  0.14824472977E+04  0.87918090770E+03  0.56142181806E+03  0.18126789924E+04  0.12699999809E+01 0.  1.
</event>
<event>
 5   0  0.6599276E-09  0.4001570E+04  0.7818609E-02  0.8004230E-01
       -2   -1    0    0    0  501  0.00000000000E+00  0.00000000000E+00  0.32362178789E+04  0.32362178789E+04  0.25500000920E-02 0. -1.
        2   -1    0    0  501    0  0.00000000000E+00  0.00000000000E+00 -0.12369812843E+04  0.12369812843E+04  0.25500000920E-02 0.  1.
    10030    2    1    2    0    0  0.00000000000E+00  0.00000000000E+00  0.19992365946E+04  0.44731991632E+04  0.40015701659E+04 0.  0.
        2    1    3    3  502    0 -0.93280053410E+03 -0.10319699792E+03  0.29749056981E+04  0.31194278914E+04  0.25500000920E-02 0. -1.
       -2    1    3    3    0  502  0.93280053410E+03  0.10319699792E+03 -0.97566910353E+03  0.13537712718E+04  0.25500000920E-02 0.  1.
</event>
<event>
 5   0  0.6547327E-09  0.4002592E+04  0.7818609E-02  0.8004024E-01
       -2   -1    0    0    0  501  0.00000000000E+00  0.00000000000E+00  0.16954152172E+04  0.16954152172E+04  0.25500000920E-02 0. -1.
        2   -1    0    0  501    0  0.00000000000E+00  0.00000000000E+00 -0.23623622508E+04  0.23623622508E+04  0.25500000920E-02 0.  1.
    10030    2    1    2    0    0  0.00000000000E+00  0.00000000000E+00 -0.66694703357E+03  0.40577774680E+04  0.40025916147E+04 0.  0.
        5    1    3    3  502    0 -0.16208307684E+04 -0.11586532125E+04 -0.52473622106E+03  0.20603251778E+04  0.46999998093E+01 0. -1.
       -5    1    3    3    0  502  0.16208307684E+04  0.11586532125E+04 -0.14221081251E+03  0.19974522902E+04  0.46999998093E+01 0.  1.
</event>
<event>
 5   0  0.6547327E-09  0.4000666E+04  0.7818609E-02  0.8004412E-01
        2   -1    0    0  501    0  0.00000000000E+00  0.00000000000E+00  0.19544222974E+04  0.19544222974E+04  0.25500000920E-02 0.  1.
       -2   -1    0    0    0  501  0.00000000000E+00  0.00000000000E+00 -0.20473222493E+04  0.20473222493E+04  0.25500000920E-02 0. -1.
    10030    2    1    2    0    0  0.00000000000E+00  0.00000000000E+00 -0.92899951932E+02  0.40017445467E+04  0.40006660715E+04 0.  0.
        5    1    3    3  502    0 -0.17695236633E+04 -0.12867234094E+03  0.87767114369E+03  0.19794189280E+04  0.46999998093E+01 0.  1.
       -5    1    3    3    0  502  0.17695236633E+04  0.12867234094E+03 -0.97057109562E+03  0.20223256187E+04  0.46999998093E+01 0. -1.
</event>
<event>
 5   0  0.6645526E-09  0.4028144E+04  0.7818609E-02  0.7998893E-01
        2   -1    0    0  501    0  0.00000000000E+00  0.00000000000E+00  0.19564789781E+04  0.19564789781E+04  0.25500000920E-02 0.  1.
       -2   -1    0    0    0  501  0.00000000000E+00  0.00000000000E+00 -0.20733603212E+04  0.20733603212E+04  0.25500000920E-02 0. -1.
    10030    2    1    2    0    0  0.00000000000E+00  0.00000000000E+00 -0.11688134307E+03  0.40298392994E+04  0.40281439312E+04 0.  0.
        3    1    3    3  502    0 -0.16173316865E+04  0.61176414939E+03  0.97469369284E+03  0.19849546503E+04  0.10100000352E+00 0.  1.
       -3    1    3    3    0  502  0.16173316865E+04 -0.61176414939E+03 -0.10915750359E+04  0.20448846491E+04  0.10100000352E+00 0. -1.
</event>
<event>
 5   0  0.2078125E-09  0.3998889E+04  0.7818609E-02  0.8004771E-01
        1   -1    0    0  501    0  0.00000000000E+00  0.00000000000E+00  0.17376847738E+04  0.17376847738E+04  0.50400001928E-02 0.  1.
       -1   -1    0    0    0  501  0.00000000000E+00  0.00000000000E+00 -0.23006345041E+04  0.23006345041E+04  0.50400001928E-02 0. -1.
    10030    2    1    2    0    0  0.00000000000E+00  0.00000000000E+00 -0.56294973031E+03  0.40383192780E+04  0.39988886196E+04 0.  0.
        5    1    3    3  502    0  0.18812393966E+04  0.50774947226E+03 -0.73409545215E+03  0.20822558480E+04  0.46999998093E+01 0.  1.
       -5    1    3    3    0  502 -0.18812393966E+04 -0.50774947226E+03  0.17114572185E+03  0.19560634299E+04  0.46999998093E+01 0. -1.
</event>
<event>
 5   0  0.2078125E-09  0.4000468E+04  0.7818609E-02  0.8004452E-01
       -1   -1    0    0    0  501  0.00000000000E+00  0.00000000000E+00  0.19619524936E+04  0.19619524936E+04  0.50400001928E-02 0. -1.
        1   -1    0    0  501    0  0.00000000000E+00  0.00000000000E+00 -0.20392629353E+04  0.20392629353E+04  0.50400001928E-02 0.  1.
    10030    2    1    2    0    0  0.00000000000E+00  0.00000000000E+00 -0.77310441758E+02  0.40012154289E+04  0.40004684731E+04 0.  0.
        1    1    3    3  502    0 -0.11586450193E+04 -0.15536962326E+04 -0.53322377288E+03  0.20101636391E+04  0.50400001928E-02 0.  1.
       -1    1    3    3    0  502  0.11586450193E+04  0.15536962326E+04  0.45591333112E+03  0.19910517898E+04  0.50400001928E-02 0. -1.
</event>
<event>
 5   0  0.6645526E-09  0.4007029E+04  0.7818609E-02  0.8003130E-01
       -2   -1    0    0    0  501  0.00000000000E+00  0.00000000000E+00  0.27238467591E+04  0.27238467591E+04  0.25500000920E-02 0.  1.
        2   -1    0    0  501    0  0.00000000000E+00  0.00000000000E+00 -0.14736767608E+04  0.14736767608E+04  0.25500000920E-02 0. -1.
    10030    2    1    2    0    0  0.00000000000E+00  0.00000000000E+00  0.12501699983E+04  0.41975235198E+04  0.40070286591E+04 0.  0.
        3    1    3    3  502    0  0.14878500423E+03 -0.19938342544E+04  0.75987882440E+03  0.21389080975E+04  0.10100000352E+00 0.  1.
       -3    1    3    3    0  502 -0.14878500423E+03  0.19938342544E+04  0.49029117391E+03  0.20586154223E+04  0.10100000352E+00 0. -1.
</event>
<event>
 5   0  0.2078125E-09  0.4003745E+04  0.7818609E-02  0.8003792E-01
       -1   -1    0    0    0  501  0.00000000000E+00  0.00000000000E+00  0.13261435613E+04  0.13261435613E+04  0.50400001928E-02 0.  1.
        1   -1    0    0  501    0  0.00000000000E+00  0.00000000000E+00 -0.30219147185E+04  0.30219147185E+04  0.50400001928E-02 0. -1.
    10030    2    1    2    0    0  0.00000000000E+00  0.00000000000E+00 -0.16957711572E+04  0.43480582798E+04  0.40037446206E+04 0.  0.
        2    1    3    3  502    0 -0.16789947444E+04  0.52229139925E+03 -0.18870902995E+04  0.25793257755E+04  0.25500000920E-02 0. -1.
       -2    1    3    3    0  502  0.16789947444E+04 -0.52229139925E+03  0.19131914234E+03  0.17687325043E+04  0.25500000920E-02 0.  1.
</event>
<event>
 5   0  0.6538370E-09  0.3993676E+04  0.7818609E-02  0.8005824E-01
       -2   -1    0    0    0  501  0.00000000000E+00  0.00000000000E+00  0.18623845497E+04  0.18623845497E+04  0.25500000920E-02 0. -1.
        2   -1    0    0  501    0  0.00000000000E+00  0.00000000000E+00 -0.21409980555E+04  0.21409980555E+04  0.25500000920E-02 0.  1.
    10030    2    1    2    0    0  0.00000000000E+00  0.00000000000E+00 -0.27861350572E+03  0.40033826052E+04  0.39936758504E+04 0.  0.
        4    1    3    3  502    0 -0.15534372281E+03  0.16351666842E+04 -0.12776099132E+04  0.20809109689E+04  0.12699999809E+01 0.  1.
       -4    1    3    3    0  502  0.15534372281E+03 -0.16351666842E+04  0.99899640746E+03  0.19224716363E+04  0.12699999809E+01 0. -1.
</event>
<event>
 5   0  0.2078125E-09  0.4004006E+04  0.7818609E-02  0.8003739E-01
       -1   -1    0    0    0  501  0.00000000000E+00  0.00000000000E+00  0.20892190817E+04  0.20892190817E+04  0.50400001928E-02 0. -1.
        1   -1    0    0  501    0  0.00000000000E+00  0.00000000000E+00 -0.19184275297E+04  0.19184275297E+04  0.50400001928E-02 0.  1.
    10030    2    1    2    0    0  0.00000000000E+00  0.00000000000E+00  0.17079155202E+03  0.40076466114E+04  0.40040056952E+04 0.  0.
        4    1    3    3  502    0  0.18125109690E+04 -0.75944824482E+03 -0.29712465935E+03  0.19875216541E+04  0.12699999809E+01 0.  1.
       -4    1    3    3    0  502 -0.18125109690E+04  0.75944824482E+03  0.46791621137E+03  0.20201249573E+04  0.12699999809E+01 0. -1.
</event>
<event>
 5   0  0.6538370E-09  0.4000181E+04  0.7818609E-02  0.8004510E-01
       -2   -1    0    0    0  501  0.00000000000E+00  0.00000000000E+00  0.31962651236E+04  0.31962651236E+04  0.25500000920E-02 0. -1.
        2   -1    0    0  501    0  0.00000000000E+00  0.00000000000E+00 -0.12515740655E+04  0.12515740655E+04  0.25500000920E-02 0.  1.
    10030    2    1    2    0    0  0.00000000000E+00  0.00000000000E+00  0.19446910581E+04  0.44478391892E+04  0.40001812635E+04 0.  0.
        4    1    3    3  502    0 -0.14395971952E+04  0.73228669673E+03  0.22840579637E+04  0.27974285130E+04  0.12699999809E+01 0. -1.
       -4    1    3    3    0  502  0.14395971952E+04 -0.73228669673E+03 -0.33936690561E+03  0.16504106762E+04  0.12699999809E+01 0.  1.
</event>
<event>
 5   0  0.6736335E-09  0.3999661E+04  0.7818609E-02  0.8004615E-01
       -2   -1    0    0    0  501  0.00000000000E+00  0.00000000000E+00  0.18309862646E+04  0.18309862646E+04  0.25500000920E-02 0. -1.
        2   -1    0    0  501    0  0.00000000000E+00  0.00000000000E+00 -0.21842447036E+04  0.21842447036E+04  0.25500000920E-02 0.  1.
    10030    2    1    2    0    0  0.00000000000E+00  0.00000000000E+00 -0.35325843894E+03  0.40152309682E+04  0.39996610111E+04 0.  0.
        1    1    3    3  502    0  0.13311786845E+04 -0.14790815460E+04 -0.37640929100E+03  0.20251920561E+04  0.50400001928E-02 0. -1.
       -1    1    3    3    0  502 -0.13311786845E+04  0.14790815460E+04  0.23150852060E+02  0.19900389121E+04  0.50400001928E-02 0.  1.
</event>
<event>
 5   0  0.6599276E-09  0.3998477E+04  0.7818609E-02  0.8004854E-01
       -2   -1    0    0    0  501  0.00000000000E+00  0.00000000000E+00  0.15146656356E+04  0.15146656356E+04  0.25500000920E-02 0. -1.
        2   -1    0    0  501    0  0.00000000000E+00  0.00000000000E+00 -0.26388358483E+04  0.26388358483E+04  0.25500000920E-02 0.  1.
    10030    2    1    2    0    0  0.00000000000E+00  0.00000000000E+00 -0.11241702127E+04  0.41535014838E+04  0.39984766986E+04 0.  0.
        2    1    3    3  502    0 -0.68807055980E+03 -0.11900955060E+03  0.13838713512E+04  0.15500658970E+04  0.25500000920E-02 0. -1.
       -2    1    3    3    0  502  0.68807055980E+03  0.11900955060E+03 -0.25080415639E+04  0.26034355868E+04  0.25500000920E-02 0.  1.
</event>
<event>
 5   0  0.2078125E-09  0.3999990E+04  0.7818609E-02  0.8004549E-01
       -1   -1    0    0    0  501  0.00000000000E+00  0.00000000000E+00  0.19918239584E+04  0.19918239584E+04  0.50400001928E-02 0. -1.
        1   -1    0    0  501    0  0.00000000000E+00  0.00000000000E+00 -0.20081994477E+04  0.20081994477E+04  0.50400001928E-02 0.  1.
    10030    2    1    2    0    0  0.00000000000E+00  0.00000000000E+00 -0.16375489267E+02  0.40000234061E+04  0.39999898865E+04 0.  0.
        3    1    3    3  502    0 -0.34338251516E+03  0.17498758105E+04 -0.91373542538E+03  0.20037188779E+04  0.10100000352E+00 0.  1.
       -3    1    3    3    0  502  0.34338251516E+03 -0.17498758105E+04  0.89735993612E+03  0.19963045281E+04  0.10100000352E+00 0. -1.
</event>
<event>
 5   0  0.2078125E-09  0.4013137E+04  0.7818609E-02  0.8001902E-01
        1   -1    0    0  501    0  0.00000000000E+00  0.00000000000E+00  0.15009506818E+04  0.15009506818E+04  0.50400001928E-02 0.  1.
       -1   -1    0    0    0  501  0.00000000000E+00  0.00000000000E+00 -0.26825118944E+04  0.26825118944E+04  0.50400001928E-02 0. -1.
    10030    2    1    2    0    0  0.00000000000E+00  0.00000000000E+00 -0.11815612126E+04  0.41834625762E+04  0.40131374543E+04 0.  0.
        1    1    3    3  502    0 -0.59508812654E+03  0.24102512582E+03 -0.25725432578E+04  0.26514527721E+04  0.50400001928E-02 0. -1.
       -1    1    3    3    0  502  0.59508812654E+03 -0.24102512582E+03  0.13909820452E+04  0.15320098040E+04  0.50400001928E-02 0.  1.
</event>
<event>
 5   0  0.2078125E-09  0.4000164E+04  0.7818609E-02  0.8004514E-01
        1   -1    0    0  501    0  0.00000000000E+00  0.00000000000E+00  0.22920328982E+04  0.22920328982E+04  0.50400001928E-02 0. -1.
       -1   -1    0    0    0  501  0.00000000000E+00  0.00000000000E+00 -0.17453185333E+04  0.17453185333E+04  0.50400001928E-02 0.  1.
    10030    2    1    2    0    0  0.00000000000E+00  0.00000000000E+00  0.54671436489E+03  0.40373514315E+04  0.40001637448E+04 0.  0.
        2    1    3    3  502    0 -0.13245304017E+04  0.64754354831E+03  0.16374520068E+04  0.22033934071E+04  0.25500000920E-02 0. -1.
       -2    1    3    3    0  502  0.13245304017E+04 -0.64754354831E+03 -0.10907376419E+04  0.18339580244E+04  0.25500000920E-02 0.  1.
</event>
<event>
 5   0  0.6599276E-09  0.3999205E+04  0.7818609E-02  0.8004707E-01
       -2   -1    0    0    0  501  0.00000000000E+00  0.00000000000E+00  0.25655348345E+04  0.25655348345E+04  0.25500000920E-02 0. -1.
        2   -1    0    0  501    0  0.00000000000E+00  0.00000000000E+00 -0.15585095848E+04  0.15585095848E+04  0.25500000920E-02 0.  1.
    10030    2    1    2    0    0  0.00000000000E+00  0.00000000000E+00  0.10070252497E+04  0.41240444192E+04  0.39992052358E+04 0.  0.
        2    1    3    3  502    0  0.12096313664E+04 -0.14812768910E+04 -0.98686933200E+02  0.19149747730E+04  0.25500000920E-02 0.  1.
       -2    1    3    3    0  502 -0.12096313664E+04  0.14812768910E+04  0.11057121829E+04  0.22090696462E+04  0.25500000920E-02 0. -1.
</event>
<event>
 5   0  0.6547327E-09  0.4018323E+04  0.7818609E-02  0.8000860E-01
       -2   -1    0    0    0  501  0.00000000000E+00  0.00000000000E+00  0.17908750302E+04  0.17908750302E+04  0.25500000920E-02 0. -1.
        2   -1    0    0  501    0  0.00000000000E+00  0.00000000000E+00 -0.22540547236E+04  0.22540547236E+04  0.25500000920E-02 0.  1.
    10030    2    1    2    0    0  0.00000000000E+00  0.00000000000E+00 -0.46317969335E+03  0.40449297538E+04  0.40183231932E+04 0.  0.
        5    1    3    3  502    0  0.12499274197E+04 -0.38197435046E+03  0.13044513636E+04  0.18465747774E+04  0.46999998093E+01 0. -1.
       -5    1    3    3    0  502 -0.12499274197E+04  0.38197435046E+03 -0.17676310569E+04  0.21983549764E+04  0.46999998093E+01 0.  1.
</event>
<event>
 5   0  0.2078125E-09  0.4006164E+04  0.7818609E-02  0.8003304E-01
        1   -1    0    0  501    0  0.00000000000E+00  0.00000000000E+00  0.23301772769E+04  0.23301772769E+04  0.50400001928E-02 0. -1.
       -1   -1    0    0    0  501  0.00000000000E+00  0.00000000000E+00 -0.17219020807E+04  0.17219020807E+04  0.50400001928E-02 0.  1.
    10030    2    1    2    0    0  0.00000000000E+00  0.00000000000E+00  0.60827519617E+03  0.40520793576E+04  0.40061638017E+04 0.  0.
        1    1    3    3  502    0 -0.54637547576E+03  0.72361169359E+03 -0.15024457163E+04  0.17548456268E+04  0.50400001928E-02 0.  1.
       -1    1    3    3    0  502  0.54637547576E+03 -0.72361169359E+03  0.21107209125E+04  0.22972337308E+04  0.50400001928E-02 0. -1.
</event>
<event>
 5   0  0.6736335E-09  0.4000481E+04  0.7818609E-02  0.8004450E-01
        2   -1    0    0  501    0  0.00000000000E+00  0.00000000000E+00  0.14480039999E+04  0.14480039999E+04  0.25500000920E-02 0.  1.
       -2   -1    0    0    0  501  0.00000000000E+00  0.00000000000E+00 -0.27630877439E+04  0.27630877439E+04  0.25500000920E-02 0. -1.
    10030    2    1    2    0    0  0.00000000000E+00  0.00000000000E+00 -0.13150837440E+04  0.42110917438E+04  0.40004810237E+04 0.  0.
        1    1    3    3  502    0 -0.13607133522E+04 -0.13868572534E+04 -0.15706610865E+03  0.19492520696E+04  0.50400001928E-02 0.  1.
       -1    1    3    3    0  502  0.13607133522E+04  0.13868572534E+04 -0.11580176354E+04  0.22618396743E+04  0.50400001928E-02 0. -1.
</event>
<event>
 5   0  0.2078125E-09  0.3999051E+04  0.7818609E-02  0.8004738E-01
        1   -1    0    0  501    0  0.00000000000E+00  0.00000000000E+00  0.11385963860E+04  0.11385963860E+04  0.50400001928E-02 0.  1.
       -1   -1    0    0    0  501  0.00000000000E+00  0.00000000000E+00 -0.35114306131E+04  0.35114306131E+04  0.50400001928E-02 0. -1.
    10030    2    1    2    0    0  0.00000000000E+00  0.00000000000E+00 -0.23728342272E+04  0.46500269991E+04  0.39990509903E+04 0.  0.
        1    1    3    3  502    0  0.39635284140E+03  0.12132739914E+04 -0.29761102592E+04  0.32382652189E+04  0.50400001928E-02 0. -1.
       -1    1    3    3    0  502 -0.39635284140E+03 -0.12132739914E+04  0.60327603203E+03  0.14117617802E+04  0.50400001928E-02 0.  1.
</event>
<event>
 5   0  0.6547327E-09  0.4001305E+04  0.7818609E-02  0.8004283E-01
        2   -1    0    0  501    0  0.00000000000E+00  0.00000000000E+00  0.15742827845E+04  0.15742827845E+04  0.25500000920E-02 0.  1.
       -2   -1    0    0    0  501  0.00000000000E+00  0.00000000000E+00 -0.25424983607E+04  0.25424983607E+04  0.25500000920E-02 0. -1.
    10030    2    1    2    0    0  0.00000000000E+00  0.00000000000E+00 -0.96821557629E+03  0.41167811452E+04  0.40013054864E+04 0.  0.
        5    1    3    3  502    0  0.38175674589E+03  0.18282544523E+04 -0.12219777821E+04  0.22319283917E+04  0.46999998093E+01 0.  1.
       -5    1    3    3    0  502 -0.38175674589E+03 -0.18282544523E+04  0.25376220586E+03  0.18848527535E+04  0.46999998093E+01 0. -1.
</event>
<event>
 5   0  0.6538370E-09  0.3999899E+04  0.7818609E-02  0.8004567E-01
       -2   -1    0    0    0  501  0.00000000000E+00  0.00000000000E+00  0.17575428549E+04  0.17575428549E+04  0.25500000920E-02 0. -1.
        2   -1    0    0  501    0  0.00000000000E+00  0.00000000000E+00 -0.22757893589E+04  0.22757893589E+04  0.25500000920E-02 0.  1.
    10030    2    1    2    0    0  0.00000000000E+00  0.00000000000E+00 -0.51824650395E+03  0.40333322138E+04  0.39998986623E+04 0.  0.
        4    1    3    3  502    0  0.13412035988E+04  0.10146239068E+04  0.83228552222E+03  0.18764300064E+04  0.12699999809E+01 0.  1.
       -4    1    3    3    0  502 -0.13412035988E+04 -0.10146239068E+04 -0.13505320262E+04  0.21569022074E+04  0.12699999809E+01 0. -1.
</event>
<event>
 5   0  0.6547327E-09  0.3999363E+04  0.7818609E-02  0.8004675E-01
       -2   -1    0    0    0  501  0.00000000000E+00  0.00000000000E+00  0.17184518457E+04  0.17184518457E+04  0.25500000920E-02 0.  1.
        2   -1    0    0  501    0  0.00000000000E+00  0.00000000000E+00 -0.23269349108E+04  0.23269349108E+04  0.25500000920E-02 0. -1.
    10030    2    1    2    0    0  0.00000000000E+00  0.00000000000E+00 -0.60848306508E+03  0.40453867566E+04  0.39993627454E+04 0.  0.
        5    1    3    3  502    0 -0.18795288803E+04 -0.67804522417E+03 -0.22376869637E+03  0.20105891319E+04  0.46999998093E+01 0.  1.
       -5    1    3    3    0  502  0.18795288803E+04  0.67804522417E+03 -0.38471436871E+03  0.20347976247E+04  0.46999998093E+01 0. -1.
</event>
<event>
 5   0  0.6547327E-09  0.3999417E+04  0.7818609E-02  0.8004664E-01
        2   -1    0    0  501    0  0.00000000000E+00  0.00000000000E+00  0.13570020382E+04  0.13570020382E+04  0.25500000920E-02 0.  1.
       -2   -1    0    0    0  501  0.00000000000E+00  0.00000000000E+00 -0.29468158148E+04  0.29468158148E+04  0.25500000920E-02 0. -1.
    10030    2    1    2    0    0  0.00000000000E+00  0.00000000000E+00 -0.15898137766E+04  0.43038178529E+04  0.39994174910E+04 0.  0.
        5    1    3    3  502    0  0.15430642281E+04  0.11066990085E+04 -0.14695033537E+04  0.24011022685E+04  0.46999998093E+01 0. -1.
       -5    1    3    3    0  502 -0.15430642281E+04 -0.11066990085E+04 -0.12031042288E+03  0.19027155844E+04  0.46999998093E+01 0.  1.
</event>
<event>
 5   0  0.2078125E-09  0.4004882E+04  0.7818609E-02  0.8003563E-01
       -1   -1    0    0    0  501  0.00000000000E+00  0.00000000000E+00  0.24987211499E+04  0.24987211499E+04  0.50400001928E-02 0. -1.
        1   -1    0    0  501    0  0.00000000000E+00  0.00000000000E+00 -0.16047285533E+04  0.16047285534E+04  0.50400001928E-02 0.  1.
    10030    2    1    2    0    0  0.00000000000E+00  0.00000000000E+00  0.89399259658E+03  0.41034497033E+04  0.40048816093E+04 0.  0.
        2    1    3    3  502    0  0.14637902964E+04  0.31312766180E+03  0.18097834781E+04  0.23486266629E+04  0.25500000920E-02 0. -1.
       -2    1    3    3    0  502 -0.14637902964E+04 -0.31312766180E+03 -0.91579088149E+03  0.17548230404E+04  0.25500000920E-02 0.  1.
</event>
<event>
 5   0  0.6736335E-09  0.4001685E+04  0.7818609E-02  0.8004207E-01
        2   -1    0    0  501    0  0.00000000000E+00  0.00000000000E+00  0.22216437508E+04  0.22216437508E+04  0.25500000920E-02 0. -1.
       -2   -1    0    0    0  501  0.00000000000E+00  0.00000000000E+00 -0.18019857271E+04  0.18019857271E+04  0.25500000920E-02 0.  1.
    10030    2    1    2    0    0  0.00000000000E+00  0.00000000000E+00  0.41965802372E+03  0.40236294779E+04  0.40016848100E+04 0.  0.
        1    1    3    3  502    0  0.12995671306E+04 -0.37843019984E+02  0.17390451799E+04  0.21713095032E+04  0.50400001928E-02 0. -1.
       -1    1    3    3    0  502 -0.12995671306E+04  0.37843019984E+02 -0.13193871561E+04  0.18523199748E+04  0.50400001928E-02 0.  1.
</event>
<event>
 5   0  0.2078125E-09  0.4000428E+04  0.7818609E-02  0.8004460E-01
       -1   -1    0    0    0  501  0.00000000000E+00  0.00000000000E+00  0.25692157887E+04  0.25692157887E+04  0.50400001928E-02 0. -1.
        1   -1    0    0  501    0  0.00000000000E+00  0.00000000000E+00 -0.15572288478E+04  0.15572288478E+04  0.50400001928E-02 0.  1.
    10030    2    1    2    0    0  0.00000000000E+00  0.00000000000E+00  0.10119869409E+04  0.41264446365E+04  0.40004284483E+04 0.  0.
        2    1    3    3  502    0 -0.60064336481E+03  0.18371323968E+04 -0.25033101809E+02  0.19329910893E+04  0.25500000920E-02 0.  1.
       -2    1    3    3    0  502  0.60064336481E+03 -0.18371323968E+04  0.10370200427E+04  0.21934535473E+04  0.25500000920E-02 0. -1.
</event>
<event>
 5   0  0.6538370E-09  0.4000983E+04  0.7818609E-02  0.8004348E-01
        2   -1    0    0  501    0  0.00000000000E+00  0.00000000000E+00  0.13925726935E+04  0.13925726935E+04  0.25500000920E-02 0.  1.
       -2   -1    0    0    0  501  0.00000000000E+00  0.00000000000E+00 -0.28737929401E+04  0.28737929401E+04  0.25500000920E-02 0. -1.
    10030    2    1    2    0    0  0.00000000000E+00  0.00000000000E+00 -0.14812202466E+04  0.42663656336E+04  0.40009826669E+04 0.  0.
        4    1    3    3  502    0 -0.12416719434E+04  0.75950386687E+03  0.72277645629E+03  0.16251162289E+04  0.12699999809E+01 0.  1.
       -4    1    3    3    0  502  0.12416719434E+04 -0.75950386687E+03 -0.22039967029E+04  0.26412494047E+04  0.12699999809E+01 0. -1.
</event>
<event>
 5   0  0.2078125E-09  0.3998406E+04  0.7818609E-02  0.8004868E-01
        1   -1    0    0  501    0  0.00000000000E+00  0.00000000000E+00  0.17184434654E+04  0.17184434654E+04  0.50400001928E-02 0. -1.
       -1   -1    0    0    0  501  0.00000000000E+00  0.00000000000E+00 -0.23258330633E+04  0.23258330633E+04  0.50400001928E-02 0.  1.
    10030    2    1    2    0    0  0.00000000000E+00  0.00000000000E+00 -0.60738959792E+03  0.40442765287E+04  0.39984059970E+04 0.  0.
        3    1    3    3  502    0  0.28120801719E+03  0.13869601493E+04 -0.17320125361E+04  0.22366501381E+04  0.10100000352E+00 0.  1.
       -3    1    3    3    0  502 -0.28120801719E+03 -0.13869601493E+04  0.11246229382E+04  0.18076263906E+04  0.10100000352E+00 0. -1.
</event>
<event>
 5   0  0.6645526E-09  0.3999850E+04  0.7818609E-02  0.8004577E-01
       -2   -1    0    0    0  501  0.00000000000E+00  0.00000000000E+00  0.14343614314E+04  0.14343614314E+04  0.25500000920E-02 0.  1.
        2   -1    0    0  501    0  0.00000000000E+00  0.00000000000E+00 -0.27884878476E+04  0.27884878476E+04  0.25500000920E-02 0. -1.
    10030    2    1    2    0    0  0.00000000000E+00  0.00000000000E+00 -0.13541264162E+04  0.42228492790E+04  0.39998497074E+04 0.  0.
        3    1    3    3  502    0  0.95104793974E+03  0.25239807073E+03 -0.25152551961E+04  0.27008712819E+04  0.10100000352E+00 0. -1.
       -3    1    3    3    0  502 -0.95104793974E+03 -0.25239807073E+03  0.11611287799E+04  0.15219779971E+04  0.10100000352E+00 0.  1.
</event>
<event>
 5   0  0.2078125E-09  0.4018299E+04  0.7818609E-02  0.8000865E-01
       -1   -1    0    0    0  501  0.00000000000E+00  0.00000000000E+00  0.19361283535E+04  0.19361283535E+04  0.50400001928E-02 0.  1.
        1   -1    0    0  501    0  0.00000000000E+00  0.00000000000E+00 -0.20849250297E+04  0.20849250297E+04  0.50400001928E-02 0. -1.
    10030    2    1    2    0    0  0.00000000000E+00  0.00000000000E+00 -0.14879667615E+03  0.40210533832E+04  0.40182993741E+04 0.  0.
        4    1    3    3  502    0 -0.15353749734E+04 -0.10315475642E+04  0.71049512578E+03  0.19814821783E+04  0.12699999809E+01 0.  1.
       -4    1    3    3    0  502  0.15353749734E+04  0.10315475642E+04 -0.85929180193E+03  0.20395712049E+04  0.12699999809E+01 0. -1.
</event>
<event>
 5   0  0.6736335E-09  0.3996563E+04  0.7818609E-02  0.8005240E-01
       -2   -1    0    0    0  501  0.00000000000E+00  0.00000000000E+00  0.35958758581E+04  0.35958758581E+04  0.25500000920E-02 0. -1.
        2   -1    0    0  501    0  0.00000000000E+00  0.00000000000E+00 -0.11104748700E+04  0.11104748700E+04  0.25500000920E-02 0.  1.
    10030    2    1    2    0    0  0.00000000000E+00  0.00000000000E+00  0.24854009881E+04  0.47063507281E+04  0.39965634117E+04 0.  0.
        1    1    3    3  502    0  0.19525092485E+04  0.26275799677E+03  0.16364409364E+04  0.25611077815E+04  0.50400001928E-02 0.  1.
       -1    1    3    3    0  502 -0.19525092485E+04 -0.26275799677E+03  0.84896005177E+03  0.21452429466E+04  0.50400001928E-02 0. -1.
</event>
<event>
 5   0  0.2078125E-09  0.3999733E+04  0.7818609E-02  0.8004600E-01
       -1   -1    0    0    0  501  0.00000000000E+00  0.00000000000E+00  0.33062671347E+04  0.33062671347E+04  0.50400001928E-02 0.  1.
        1   -1    0    0  501    0  0.00000000000E+00  0.00000000000E+00 -0.12096622053E+04  0.12096622053E+04  0.50400001928E-02 0. -1.
    10030    2    1    2    0    0  0.00000000000E+00  0.00000000000E+00  0.20966049294E+04  0.45159293400E+04  0.39997331879E+04 0.  0.
        5    1    3    3  502    0  0.17582615834E+04 -0.82582002588E+03  0.15850287210E+04  0.25071499052E+04  0.46999998093E+01 0.  1.
       -5    1    3    3    0  502 -0.17582615834E+04  0.82582002588E+03  0.51157620844E+03  0.20087794348E+04  0.46999998093E+01 0. -1.
</event>
<event>
 5   0  0.2078125E-09  0.3999364E+04  0.7818609E-02  0.8004675E-01
        1   -1    0    0  501    0  0.00000000000E+00  0.00000000000E+00  0.17704535917E+04  0.17704535917E+04  0.50400001928E-02 0.  1.
       -1   -1    0    0    0  501  0.00000000000E+00  0.00000000000E+00 -0.22585893781E+04  0.22585893781E+04  0.50400001928E-02 0. -1.
    10030    2    1    2    0    0  0.00000000000E+00  0.00000000000E+00 -0.48813578642E+03  0.40290429698E+04  0.39993637877E+04 0.  0.
        4    1    3    3  502    0  0.69550398567E+03  0.25119391197E+03 -0.21157850055E+04  0.22412880176E+04  0.12699999809E+01 0. -1.
       -4    1    3    3    0  502 -0.69550398567E+03 -0.25119391197E+03  0.16276492191E+04  0.17877549521E+04  0.12699999809E+01 0.  1.
</event>
<event>
 5   0  0.6645526E-09  0.4001277E+04  0.7818609E-02  0.8004289E-01
        2   -1    0    0  501    0  0.00000000000E+00  0.00000000000E+00  0.20167393285E+04  0.20167393285E+04  0.25500000920E-02 0. -1.
       -2   -1    0    0    0  501  0.00000000000E+00  0.00000000000E+00 -0.19846664680E+04  0.19846664680E+04  0.25500000920E-02 0.  1.
    10030    2    1    2    0    0  0.00000000000E+00  0.00000000000E+00  0.32072860557E+02  0.40014057965E+04  0.40012772560E+04 0.  0.
        3    1    3    3  502    0  0.13308820120E+03 -0.88541870629E+03  0.18051931628E+04  0.20150437018E+04  0.10100000352E+00 0. -1.
       -3    1    3    3    0  502 -0.13308820120E+03  0.88541870629E+03 -0.17731203023E+04  0.19863620947E+04  0.10100000352E+00 0.  1.
</event>
<event>
 5   0  0.2078125E-09  0.3998436E+04  0.7818609E-02  0.8004862E-01
        3   -1    0    0  501    0  0.00000000000E+00  0.00000000000E+00  0.30114354768E+04  0.30114354785E+04  0.10100000352E+00 0.  1.
       -3   -1    0    0    0  501  0.00000000000E+00  0.00000000000E+00 -0.13272317576E+04  0.13272317615E+04  0.10100000352E+00 0. -1.
    10030    2    1    2    0    0  0.00000000000E+00  0.00000000000E+00  0.16842037192E+04  0.43386672400E+04  0.39984361007E+04 0.  0.
        5    1    3    3  502    0 -0.30491281621E+03 -0.11297998808E+04  0.26009642114E+04  0.28520968629E+04  0.46999998093E+01 0.  1.
       -5    1    3    3    0  502  0.30491281621E+03  0.11297998808E+04 -0.91676049219E+03  0.14865703771E+04  0.46999998093E+01 0. -1.
</event>
<event>
 5   0  0.2078125E-09  0.4000511E+04  0.7818609E-02  0.8004443E-01
       -1   -1    0    0    0  501  0.00000000000E+00  0.00000000000E+00  0.22388378668E+04  0.22388378668E+04  0.50400001928E-02 0. -1.
        1   -1    0    0  501    0  0.00000000000E+00  0.00000000000E+00 -0.17870979478E+04  0.17870979478E+04  0.50400001928E-02 0.  1.
    10030    2    1    2    0    0  0.00000000000E+00  0.00000000000E+00  0.45173991905E+03  0.40259358146E+04  0.40005112459E+04 0.  0.
        3    1    3    3  502    0 -0.10379739353E+04 -0.16878912196E+04  0.50083873678E+03  0.20438214477E+04  0.10100000352E+00 0.  1.
       -3    1    3    3    0  502  0.10379739353E+04  0.16878912196E+04 -0.49098817727E+02  0.19821143669E+04  0.10100000352E+00 0. -1.
</event>
<event>
 5   0  0.2078125E-09  0.3999860E+04  0.7818609E-02  0.8004575E-01
        1   -1    0    0  501    0  0.00000000000E+00  0.00000000000E+00  0.26329381761E+04  0.26329381761E+04  0.50400001928E-02 0.  1.
       -1   -1    0    0    0  501  0.00000000000E+00  0.00000000000E+00 -0.15191086555E+04  0.15191086555E+04  0.50400001928E-02 0. -1.
    10030    2    1    2    0    0  0.00000000000E+00  0.00000000000E+00  0.11138295206E+04  0.41520468316E+04  0.39998595839E+04 0.  0.
        2    1    3    3  502    0  0.78083053858E+03  0.18199376919E+04  0.26728325411E+03  0.19983267677E+04  0.25500000920E-02 0. -1.
       -2    1    3    3    0  502 -0.78083053858E+03 -0.18199376919E+04  0.84654626646E+03  0.21537200639E+04  0.25500000920E-02 0.  1.
</event>
<event>
 5   0  0.6599276E-09  0.4001634E+04  0.7818609E-02  0.8004217E-01
       -2   -1    0    0    0  501  0.00000000000E+00  0.00000000000E+00  0.20332529855E+04  0.20332529855E+04  0.25500000920E-02 0. -1.
        2   -1    0    0  501    0  0.00000000000E+00  0.00000000000E+00 -0.19688980175E+04  0.19688980175E+04  0.25500000920E-02 0.  1.
    10030    2    1    2    0    0  0.00000000000E+00  0.00000000000E+00  0.64354967962E+02  0.40021510030E+04  0.40016335525E+04 0.  0.
        2    1    3    3  502    0 -0.12476110694E+04  0.72368582522E+03  0.14190843227E+04  0.20233770951E+04  0.25500000920E-02 0. -1.
       -2    1    3    3    0  502  0.12476110694E+04 -0.72368582522E+03 -0.13547293547E+04  0.19787739079E+04  0.25500000920E-02 0.  1.
</event>
<event>
 5   0  0.2078125E-09  0.4001197E+04  0.7818609E-02  0.8004305E-01
        1   -1    0    0  501    0  0.00000000000E+00  0.00000000000E+00  0.17930891889E+04  0.17930891889E+04  0.50400001928E-02 0. -1.
       -1   -1    0    0    0  501  0.00000000000E+00  0.00000000000E+00 -0.22321219968E+04  0.22321219968E+04  0.50400001928E-02 0.  1.
    10030    2    1    2    0    0  0.00000000000E+00  0.00000000000E+00 -0.43903280793E+03  0.40252111858E+04  0.40011967314E+04 0.  0.
        4    1    3    3  502    0 -0.54319021269E+03 -0.19024661834E+04 -0.51787527911E+03  0.20451478195E+04  0.12699999809E+01 0.  1.
       -4    1    3    3    0  502  0.54319021269E+03  0.19024661834E+04  0.78842471182E+02  0.19800633662E+04  0.12699999809E+01 0. -1.
</event>
<event>
 5   0  0.2078125E-09  0.3999320E+04  0.7818609E-02  0.8004684E-01
       -1   -1    0    0    0  501  0.00000000000E+00  0.00000000000E+00  0.20613135317E+04  0.20613135317E+04  0.50400001928E-02 0.  1.
        1   -1    0    0  501    0  0.00000000000E+00  0.00000000000E+00 -0.19398504963E+04  0.19398504964E+04  0.50400001928E-02 0. -1.
    10030    2    1    2    0    0  0.00000000000E+00  0.00000000000E+00  0.12146303535E+03  0.40011640281E+04  0.39993199810E+04 0.  0.
        2    1    3    3  502    0  0.16920643182E+04  0.47488155437E+03  0.10151346557E+04  0.20295547583E+04  0.25500000920E-02 0.  1.
       -2    1    3    3    0  502 -0.16920643182E+04 -0.47488155437E+03 -0.89367162038E+03  0.19716092698E+04  0.25500000920E-02 0. -1.
</event>
<event>
 5   0  0.2078125E-09  0.3997527E+04  0.7818609E-02  0.8005046E-01
        1   -1    0    0  501    0  0.00000000000E+00  0.00000000000E+00  0.19348819985E+04  0.19348819985E+04  0.50400001928E-02 0. -1.
       -1   -1    0    0    0  501  0.00000000000E+00  0.00000000000E+00 -0.20647540015E+04  0.20647540015E+04  0.50400001928E-02 0.  1.
    10030    2    1    2    0    0  0.00000000000E+00  0.00000000000E+00 -0.12987200304E+03  0.39996360000E+04  0.39975269099E+04 0.  0.
        3    1    3    3  502    0  0.65030765325E+03 -0.17634684983E+04  0.61537431943E+03  0.19777276738E+04  0.10100000352E+00 0.  1.
       -3    1    3    3    0  502 -0.65030765325E+03  0.17634684983E+04 -0.74524632247E+03  0.20219083263E+04  0.10100000352E+00 0. -1.
</event>
<event>
 5   0  0.6736335E-09  0.4000420E+04  0.7818609E-02  0.8004462E-01
        2   -1    0    0  501    0  0.00000000000E+00  0.00000000000E+00  0.25165255274E+04  0.25165255274E+04  0.25500000920E-02 0.  1.
       -2   -1    0    0    0  501  0.00000000000E+00  0.00000000000E+00 -0.15898269253E+04  0.15898269253E+04  0.25500000920E-02 0. -1.
    10030    2    1    2    0    0  0.00000000000E+00  0.00000000000E+00  0.92669860213E+03  0.41063524527E+04  0.40004199987E+04 0.  0.
        1    1    3    3  502    0 -0.45137112060E+03 -0.14424536709E+04 -0.88146982978E+03  0.17496849837E+04  0.50400001928E-02 0. -1.
       -1    1    3    3    0  502  0.45137112060E+03  0.14424536709E+04  0.18081684319E+04  0.23566674690E+04  0.50400001928E-02 0.  1.
</event>
<event>
 5   0  0.6538370E-09  0.4001955E+04  0.7818609E-02  0.8004152E-01
       -2   -1    0    0    0  501  0.00000000000E+00  0.00000000000E+00  0.18535174610E+04  0.18535174610E+04  0.25500000920E-02 0.  1.
        2   -1    0    0  501    0  0.00000000000E+00  0.00000000000E+00 -0.21601688103E+04  0.21601688103E+04  0.25500000920E-02 0. -1.
    10030    2    1    2    0    0  0.00000000000E+00  0.00000000000E+00 -0.30665134931E+03  0.40136862713E+04  0.40019548266E+04 0.  0.
        4    1    3    3  502    0  0.11723902265E+04  0.11086854934E+04 -0.13401061895E+04  0.20975148577E+04  0.12699999809E+01 0. -1.
       -4    1    3    3    0  502 -0.11723902265E+04 -0.11086854934E+04  0.10334548402E+04  0.19161714135E+04  0.12699999809E+01 0.  1.
</event>
<event>
 5   0  0.2078125E-09  0.4019796E+04  0.7818609E-02  0.8000565E-01
       -1   -1    0    0    0  501  0.00000000000E+00  0.00000000000E+00  0.25980646459E+04  0.25980646459E+04  0.50400001928E-02 0.  1.
        1   -1    0    0  501    0  0.00000000000E+00  0.00000000000E+00 -0.15548839707E+04  0.15548839707E+04  0.50400001928E-02 0. -1.
    10030    2    1    2    0    0  0.00000000000E+00  0.00000000000E+00  0.10431806751E+04  0.41529486166E+04  0.40197955534E+04 0.  0.
        3    1    3    3  502    0 -0.63107001168E+03  0.17857017519E+04  0.12167141011E+04  0.22510826996E+04  0.10100000352E+00 0.  1.
       -3    1    3    3    0  502  0.63107001168E+03 -0.17857017519E+04 -0.17353342601E+03  0.19018659170E+04  0.10100000352E+00 0. -1.
</event>
<event>
 5   0  0.6736335E-09  0.3999445E+04  0.7818609E-02  0.8004659E-01
       -2   -1    0    0    0  501  0.00000000000E+00  0.00000000000E+00  0.25678882211E+04  0.25678882211E+04  0.25500000920E-02 0.  1.
        2   -1    0    0  501    0  0.00000000000E+00  0.00000000000E+00 -0.15572679361E+04  0.15572679361E+04  0.25500000920E-02 0. -1.
    10030    2    1    2    0    0  0.00000000000E+00  0.00000000000E+00  0.10106202849E+04  0.41251561572E+04  0.39994449566E+04 0.  0.
        1    1    3    3  502    0 -0.24878507678E+02  0.36982367653E+03 -0.15215266212E+04  0.15660241859E+04  0.50400001928E-02 0. -1.
       -1    1    3    3    0  502  0.24878507678E+02 -0.36982367653E+03  0.25321469061E+04  0.25591319712E+04  0.50400001928E-02 0.  1.
</event>
<event>
 5   0  0.6538370E-09  0.4001776E+04  0.7818609E-02  0.8004188E-01
       -2   -1    0    0    0  501  0.00000000000E+00  0.00000000000E+00  0.14518142667E+04  0.14518142667E+04  0.25500000920E-02 0. -1.
        2   -1    0    0  501    0  0.00000000000E+00  0.00000000000E+00 -0.27576211687E+04  0.27576211687E+04  0.25500000920E-02 0.  1.
    10030    2    1    2    0    0  0.00000000000E+00  0.00000000000E+00 -0.13058069020E+04  0.42094354353E+04  0.40017764829E+04 0.  0.
        4    1    3    3  502    0  0.59853033189E+03  0.16588381808E+04  0.34143718200E+03  0.17962637976E+04  0.12699999809E+01 0. -1.
       -4    1    3    3    0  502 -0.59853033189E+03 -0.16588381808E+04 -0.16472440840E+04  0.24131716378E+04  0.12699999809E+01 0.  1.
</event>
<event>
 5   0  0.6547327E-09  0.3997517E+04  0.7818609E-02  0.8005048E-01
       -2   -1    0    0    0  501  0.00000000000E+00  0.00000000000E+00  0.19908483157E+04  0.19908483157E+04  0.25500000920E-02 0. -1.
        2   -1    0    0  501    0  0.00000000000E+00  0.00000000000E+00 -0.20066997502E+04  0.20066997502E+04  0.25500000920E-02 0.  1.
    10030    2    1    2    0    0  0.00000000000E+00  0.00000000000E+00 -0.15851434536E+02  0.39975480659E+04  0.39975166380E+04 0.  0.
        5    1    3    3  502    0 -0.10816779133E+04  0.18728704712E+03  0.16623895373E+04  0.19921507498E+04  0.46999998093E+01 0. -1.
       -5    1    3    3    0  502  0.10816779133E+04 -0.18728704712E+03 -0.16782409718E+04  0.20053973162E+04  0.46999998093E+01 0.  1.
</event>
<event>
 5   0  0.6736335E-09  0.4002838E+04  0.7818609E-02  0.8003974E-01
        2   -1    0    0  501    0  0.00000000000E+00  0.00000000000E+00  0.18582966593E+04  0.18582966593E+04  0.25500000920E-02 0. -1.
       -2   -1    0    0    0  501  0.00000000000E+00  0.00000000000E+00 -0.21555645286E+04  0.21555645286E+04  0.25500000920E-02 0.  1.
    10030    2    1    2    0    0  0.00000000000E+00  0.00000000000E+00 -0.29726786925E+03  0.40138611879E+04  0.40028381743E+04 0.  0.
        1    1    3    3  502    0 -0.16556095816E+04  0.10566604462E+04 -0.53453650996E+03  0.20355106646E+04  0.50400001928E-02 0.  1.
       -1    1    3    3    0  502  0.16556095816E+04 -0.10566604462E+04  0.23726864071E+03  0.19783505233E+04  0.50400001928E-02 0. -1.
</event>
<event>
 5   0  0.6547327E-09  0.3998362E+04  0.7818609E-02  0.8004877E-01
        2   -1    0    0  501    0  0.00000000000E+00  0.00000000000E+00  0.15309814655E+04  0.15309814655E+04  0.25500000920E-02 0.  1.
       -2   -1    0    0    0  501  0.00000000000E+00  0.00000000000E+00 -0.26105635909E+04  0.26105635909E+04  0.25500000920E-02 0. -1.
    10030    2    1    2    0    0  0.00000000000E+00  0.00000000000E+00 -0.10795821254E+04  0.41415450564E+04  0.39983619007E+04 0.  0.
        5    1    3    3  502    0 -0.18313592969E+04 -0.68277832504E+03 -0.97512639495E+03  0.21842519753E+04  0.46999998093E+01 0. -1.
       -5    1    3    3    0  502  0.18313592969E+04  0.68277832504E+03 -0.10445573047E+03  0.19572930811E+04  0.46999998093E+01 0.  1.
</event>
<event>
 5   0  0.6736335E-09  0.4011962E+04  0.7818609E-02  0.8002138E-01
       -2   -1    0    0    0  501  0.00000000000E+00  0.00000000000E+00  0.13250230200E+04  0.13250230200E+04  0.25500000920E-02 0. -1.
        2   -1    0    0  501    0  0.00000000000E+00  0.00000000000E+00 -0.30368974435E+04  0.30368974435E+04  0.25500000920E-02 0.  1.
    10030    2    1    2    0    0  0.00000000000E+00  0.00000000000E+00 -0.17118744234E+04  0.43619204635E+04  0.40119616260E+04 0.  0.
        1    1    3    3  502    0 -0.10564751782E+04 -0.49983227117E+03  0.91660828674E+03  0.14853090092E+04  0.50400001928E-02 0. -1.
       -1    1    3    3    0  502  0.10564751782E+04  0.49983227117E+03 -0.26284827102E+04  0.28766114543E+04  0.50400001928E-02 0.  1.
</event>
<event>
 5   0  0.2078125E-09  0.4000241E+04  0.7818609E-02  0.8004498E-01
        1   -1    0    0  501    0  0.00000000000E+00  0.00000000000E+00  0.28222628651E+04  0.28222628651E+04  0.50400001928E-02 0. -1.
       -1   -1    0    0    0  501  0.00000000000E+00  0.00000000000E+00 -0.14174732215E+04  0.14174732215E+04  0.50400001928E-02 0.  1.
    10030    2    1    2    0    0  0.00000000000E+00  0.00000000000E+00  0.14047896436E+04  0.42397360866E+04  0.40002410104E+04 0.  0.
        4    1    3    3  502    0 -0.19239568319E+04  0.54499147087E+03  0.65674863616E+03  0.21047436847E+04  0.12699999809E+01 0. -1.
       -4    1    3    3    0  502  0.19239568319E+04 -0.54499147087E+03  0.74804100744E+03  0.21349924019E+04  0.12699999809E+01 0.  1.
</event>
<event>
 5   0  0.2078125E-09  0.4000134E+04  0.7818609E-02  0.8004520E-01
        1   -1    0    0  501    0  0.00000000000E+00  0.00000000000E+00  0.17769237741E+04  0.17769237741E+04  0.50400001928E-02 0.  1.
       -1   -1    0    0    0  501  0.00000000000E+00  0.00000000000E+00 -0.22512316733E+04  0.22512316733E+04  0.50400001928E-02 0. -1.
    10030    2    1    2    0    0  0.00000000000E+00  0.00000000000E+00 -0.47430789920E+03  0.40281554474E+04  0.40001335384E+04 0.  0.
        3    1    3    3  502    0 -0.19078424262E+04  0.29456783481E+03  0.28961100187E+03  0.19520521190E+04  0.10100000352E+00 0.  1.
       -3    1    3    3    0  502  0.19078424262E+04 -0.29456783481E+03 -0.76391890107E+03  0.20761033284E+04  0.10100000352E+00 0. -1.
</event>
<event>
 5   0  0.6736335E-09  0.4000676E+04  0.7818609E-02  0.8004410E-01
       -2   -1    0    0    0  501  0.00000000000E+00  0.00000000000E+00  0.15681359196E+04  0.15681359196E+04  0.25500000920E-02 0.  1.
        2   -1    0    0  501    0  0.00000000000E+00  0.00000000000E+00 -0.25516611313E+04  0.25516611313E+04  0.25500000920E-02 0. -1.
    10030    2    1    2    0    0  0.00000000000E+00  0.00000000000E+00 -0.98352521172E+03  0.41197970509E+04  0.40006756803E+04 0.  0.
        1    1    3    3  502    0 -0.70147364442E+03  0.26935699266E+03  0.14172789116E+04  0.16041502351E+04  0.50400001928E-02 0.  1.
       -1    1    3    3    0  502  0.70147364442E+03 -0.26935699266E+03 -0.24008041233E+04  0.25156468158E+04  0.50400001928E-02 0. -1.
</event>
<event>
 5   0  0.2078125E-09  0.4000507E+04  0.7818609E-02  0.8004444E-01
       -1   -1    0    0    0  501  0.00000000000E+00  0.00000000000E+00  0.19974602086E+04  0.19974602086E+04  0.50400001928E-02 0.  1.
        1   -1    0    0  501    0  0.00000000000E+00  0.00000000000E+00 -0.20030504986E+04  0.20030504987E+04  0.50400001928E-02 0. -1.
    10030    2    1    2    0    0  0.00000000000E+00  0.00000000000E+00 -0.55902900082E+01  0.40005107073E+04  0.40005068014E+04 0.  0.
        2    1    3    3  502    0 -0.16620403312E+04  0.76742284112E+03 -0.80883426064E+03  0.20013817079E+04  0.25500000920E-02 0.  1.
       -2    1    3    3    0  502  0.16620403312E+04 -0.76742284112E+03  0.80324397063E+03  0.19991289994E+04  0.25500000920E-02 0. -1.
</event>
<event>
 5   0  0.6599276E-09  0.3999948E+04  0.7818609E-02  0.8004557E-01
       -2   -1    0    0    0  501  0.00000000000E+00  0.00000000000E+00  0.25469633296E+04  0.25469633296E+04  0.25500000920E-02 0. -1.
        2   -1    0    0  501    0  0.00000000000E+00  0.00000000000E+00 -0.15704567540E+04  0.15704567540E+04  0.25500000920E-02 0.  1.
    10030    2    1    2    0    0  0.00000000000E+00  0.00000000000E+00  0.97650657560E+03  0.41174200837E+04  0.39999478813E+04 0.  0.
        2    1    3    3  502    0 -0.10164000746E+04 -0.16726735138E+04  0.91141007192E+03  0.21590678809E+04  0.25500000920E-02 0.  1.
       -2    1    3    3    0  502  0.10164000746E+04  0.16726735138E+04  0.65096503678E+02  0.19583522028E+04  0.25500000920E-02 0. -1.
</event>
<event>
 5   0  0.2078125E-09  0.4000424E+04  0.7818609E-02  0.8004461E-01
       -1   -1    0    0    0  501  0.00000000000E+00  0.00000000000E+00  0.26303649952E+04  0.26303649952E+04  0.50400001928E-02 0. -1.
        1   -1    0    0  501    0  0.00000000000E+00  0.00000000000E+00 -0.15210236255E+04  0.15210236255E+04  0.50400001928E-02 0.  1.
    10030    2    1    2    0    0  0.00000000000E+00  0.00000000000E+00  0.11093413696E+04  0.41513886207E+04  0.40004236283E+04 0.  0.
        4    1    3    3  502    0 -0.15208119169E+04  0.12719838008E+04  0.28004452011E+03  0.20023082236E+04  0.12699999809E+01 0.  1.
       -4    1    3    3    0  502  0.15208119169E+04 -0.12719838008E+04  0.82929684952E+03  0.21490803972E+04  0.12699999809E+01 0. -1.
</event>
<event>
 5   0  0.6547327E-09  0.3995788E+04  0.7818609E-02  0.8005397E-01
        2   -1    0    0  501    0  0.00000000000E+00  0.00000000000E+00  0.23711691765E+04  0.23711691765E+04  0.25500000920E-02 0.  1.
       -2   -1    0    0    0  501  0.00000000000E+00  0.00000000000E+00 -0.16833809094E+04  0.16833809094E+04  0.25500000920E-02 0. -1.
    10030    2    1    2    0    0  0.00000000000E+00  0.00000000000E+00  0.68778826718E+03  0.40545500859E+04  0.39957882450E+04 0.  0.
        5    1    3    3  502    0  0.90846224761E+03  0.17658315271E+04  0.56642309704E+03  0.20650234508E+04  0.46999998093E+01 0.  1.
       -5    1    3    3    0  502 -0.90846224761E+03 -0.17658315271E+04  0.12136517014E+03  0.19895266351E+04  0.46999998093E+01 0. -1.
</event>
<event>
 5   0  0.2078125E-09  0.3992118E+04  0.7818609E-02  0.8006139E-01
       -1   -1    0    0    0  501  0.00000000000E+00  0.00000000000E+00  0.15719528227E+04  0.15719528227E+04  0.50400001928E-02 0.  1.
        1   -1    0    0  501    0  0.00000000000E+00  0.00000000000E+00 -0.25345867841E+04  0.25345867841E+04  0.50400001928E-02 0. -1.
    10030    2    1    2    0    0  0.00000000000E+00  0.00000000000E+00 -0.96263396137E+03  0.41065396069E+04  0.39921176585E+04 0.  0.
        1    1    3    3  502    0 -0.53881189158E+03 -0.12958509922E+04  0.97876815067E+03  0.17110041325E+04  0.50400001928E-02 0.  1.
       -1    1    3    3    0  502  0.53881189158E+03  0.12958509922E+04 -0.19414021120E+04  0.23955354744E+04  0.50400001928E-02 0. -1.
</event>
<event>
 5   0  0.6736335E-09  0.3998000E+04  0.7818609E-02  0.8004950E-01
       -2   -1    0    0    0  501  0.00000000000E+00  0.00000000000E+00  0.31069446354E+04  0.31069446354E+04  0.25500000920E-02 0. -1.
        2   -1    0    0  501    0  0.00000000000E+00  0.00000000000E+00 -0.12861512029E+04  0.12861512029E+04  0.25500000920E-02 0.  1.
    10030    2    1    2    0    0  0.00000000000E+00  0.00000000000E+00  0.18207934325E+04  0.43930958383E+04  0.39979997900E+04 0.  0.
        1    1    3    3  502    0 -0.67276418123E+03  0.76331347374E+03  0.28011207936E+04  0.29801907327E+04  0.50400001928E-02 0. -1.
       -1    1    3    3    0  502  0.67276418123E+03 -0.76331347374E+03 -0.98032736105E+03  0.14129051057E+04  0.50400001928E-02 0.  1.
</event>
<event>
 5   0  0.2078125E-09  0.4000210E+04  0.7818609E-02  0.8004504E-01
        1   -1    0    0  501    0  0.00000000000E+00  0.00000000000E+00  0.21987822771E+04  0.21987822771E+04  0.50400001928E-02 0. -1.
       -1   -1    0    0    0  501  0.00000000000E+00  0.00000000000E+00 -0.18193794594E+04  0.18193794594E+04  0.50400001928E-02 0.  1.
    10030    2    1    2    0    0  0.00000000000E+00  0.00000000000E+00  0.37940281773E+03  0.40181617365E+04  0.40002096498E+04 0.  0.
        2    1    3    3  502    0 -0.92291175392E+03  0.17732644440E+04  0.25469430392E+03  0.20152176266E+04  0.25500000920E-02 0.  1.
       -2    1    3    3    0  502  0.92291175392E+03 -0.17732644440E+04  0.12470851381E+03  0.20029441099E+04  0.25500000920E-02 0. -1.
</event>
<event>
 5   0  0.2078125E-09  0.3999612E+04  0.7818609E-02  0.8004625E-01
       -1   -1    0    0    0  501  0.00000000000E+00  0.00000000000E+00  0.15780118643E+04  0.15780118643E+04  0.50400001928E-02 0.  1.
        1   -1    0    0  501    0  0.00000000000E+00  0.00000000000E+00 -0.25343439490E+04  0.25343439490E+04  0.50400001928E-02 0. -1.
    10030    2    1    2    0    0  0.00000000000E+00  0.00000000000E+00 -0.95633208468E+03  0.41123558133E+04  0.39996123911E+04 0.  0.
        2    1    3    3  502    0 -0.18676166560E+04 -0.76928510065E+02 -0.12090590544E+04  0.22261477414E+04  0.25500000920E-02 0. -1.
       -2    1    3    3    0  502  0.18676166560E+04  0.76928510065E+02  0.25272696971E+03  0.18862080719E+04  0.25500000920E-02 0.  1.
</event>
<event>
 5   0  0.2078125E-09  0.3998849E+04  0.7818609E-02  0.8004779E-01
       -1   -1    0    0    0  501  0.00000000000E+00  0.00000000000E+00  0.20781984223E+04  0.20781984223E+04  0.50400001928E-02 0.  1.
        1   -1    0    0  501    0  0.00000000000E+00  0.00000000000E+00 -0.19236369129E+04  0.19236369129E+04  0.50400001928E-02 0. -1.
    10030    2    1    2    0    0  0.00000000000E+00  0.00000000000E+00  0.15456150939E+03  0.40018353352E+04  0.39988494332E+04 0.  0.
        5    1    3    3  502    0 -0.12939592685E+04 -0.75123993802E+03  0.14045384121E+04  0.20521798835E+04  0.46999998093E+01 0.  1.
       -5    1    3    3    0  502  0.12939592685E+04  0.75123993802E+03 -0.12499769027E+04  0.19496554517E+04  0.46999998093E+01 0. -1.
</event>
<event>
 5   0  0.2078125E-09  0.4000254E+04  0.7818609E-02  0.8004495E-01
        1   -1    0    0  501    0  0.00000000000E+00  0.00000000000E+00  0.24480390635E+04  0.24480390635E+04  0.50400001928E-02 0.  1.
       -1   -1    0    0    0  501  0.00000000000E+00  0.00000000000E+00 -0.16341686885E+04  0.16341686885E+04  0.50400001928E-02 0. -1.
    10030    2    1    2    0    0  0.00000000000E+00  0.00000000000E+00  0.81387037500E+03  0.40822077519E+04  0.40002543847E+04 0.  0.
        5    1    3    3  502    0  0.18734227010E+04 -0.58495933169E+03  0.13555423136E+02  0.19626756930E+04  0.46999998093E+01 0.  1.
       -5    1    3    3    0  502 -0.18734227010E+04  0.58495933169E+03  0.80031495187E+03  0.21195320589E+04  0.46999998093E+01 0. -1.
</event>
<event>
 5   0  0.2078125E-09  0.3999683E+04  0.7818609E-02  0.8004610E-01
        1   -1    0    0  501    0  0.00000000000E+00  0.00000000000E+00  0.26797166908E+04  0.26797166908E+04  0.50400001928E-02 0. -1.
       -1   -1    0    0    0  501  0.00000000000E+00  0.00000000000E+00 -0.14924588168E+04  0.14924588168E+04  0.50400001928E-02 0.  1.
    10030    2    1    2    0    0  0.00000000000E+00  0.00000000000E+00  0.11872578740E+04  0.41721755075E+04  0.39996833883E+04 0.  0.
        4    1    3    3  502    0  0.21418176750E+03 -0.58553637502E+03  0.25757444479E+04  0.26501297609E+04  0.12699999809E+01 0. -1.
       -4    1    3    3    0  502 -0.21418176750E+03  0.58553637502E+03 -0.13884865739E+04  0.15220457466E+04  0.12699999809E+01 0.  1.
</event>
<event>
 5   0  0.6538370E-09  0.4002717E+04  0.7818609E-02  0.8003999E-01
       -2   -1    0    0    0  501  0.00000000000E+00  0.00000000000E+00  0.28324746423E+04  0.28324746423E+04  0.25500000920E-02 0. -1.
        2   -1    0    0  501    0  0.00000000000E+00  0.00000000000E+00 -0.14141116978E+04  0.14141116978E+04  0.25500000920E-02 0.  1.
    10030    2    1    2    0    0  0.00000000000E+00  0.00000000000E+00  0.14183629445E+04  0.42465863400E+04  0.40027168400E+04 0.  0.
        4    1    3    3  502    0  0.79131544591E+03  0.17891348532E+04  0.11571011783E+04  0.22728986795E+04  0.12699999809E+01 0. -1.
       -4    1    3    3    0  502 -0.79131544591E+03 -0.17891348532E+04  0.26126176621E+03  0.19736876605E+04  0.12699999809E+01 0.  1.
</event>
<event>
 5   0  0.6736335E-09  0.3999459E+04  0.7818609E-02  0.8004656E-01
        2   -1    0    0  501    0  0.00000000000E+00  0.00000000000E+00  0.23610284206E+04  0.23610284206E+04  0.25500000920E-02 0. -1.
       -2   -1    0    0    0  501  0.00000000000E+00  0.00000000000E+00 -0.16937191239E+04  0.16937191239E+04  0.25500000920E-02 0.  1.
    10030    2    1    2    0    0  0.00000000000E+00  0.00000000000E+00  0.66730929675E+03  0.40547475445E+04  0.39994594575E+04 0.  0.
        1    1    3    3  502    0  0.48441268908E+03 -0.15952989589E+04 -0.78582205197E+03  0.18431361098E+04  0.50400001928E-02 0.  1.
       -1    1    3    3    0  502 -0.48441268908E+03  0.15952989589E+04  0.14531313487E+04  0.22116114348E+04  0.50400001928E-02 0. -1.
</event>
<event>
 5   0  0.6547327E-09  0.3997315E+04  0.7818609E-02  0.8005088E-01
        2   -1    0    0  501    0  0.00000000000E+00  0.00000000000E+00  0.12794769024E+04  0.12794769024E+04  0.25500000920E-02 0.  1.
       -2   -1    0    0    0  501  0.00000000000E+00  0.00000000000E+00 -0.31220821803E+04  0.31220821803E+04  0.25500000920E-02 0. -1.
    10030    2    1    2    0    0  0.00000000000E+00  0.00000000000E+00 -0.18426052779E+04  0.44015590827E+04  0.39973151175E+04 0.  0.
        5    1    3    3  502    0  0.37492743562E+03 -0.11301936548E+04 -0.26888465797E+04  0.29407186704E+04  0.46999998093E+01 0. -1.
       -5    1    3    3    0  502 -0.37492743562E+03  0.11301936548E+04  0.84624130183E+03  0.14608404123E+04  0.46999998093E+01 0.  1.
</event>
<event>
 5   0  0.6599276E-09  0.4004602E+04  0.7818609E-02  0.8003619E-01
        2   -1    0    0  501    0  0.00000000000E+00  0.00000000000E+00  0.23217000527E+04  0.23217000527E+04  0.25500000920E-02 0. -1.
       -2   -1    0    0    0  501  0.00000000000E+00  0.00000000000E+00 -0.17268420388E+04  0.17268420388E+04  0.25500000920E-02 0.  1.
    10030    2    1    2    0    0  0.00000000000E+00  0.00000000000E+00  0.59485801396E+03  0.40485420915E+04  0.40046019790E+04 0.  0.
        2    1    3    3  502    0  0.79890377663E+03 -0.13506822092E+04  0.15547062446E+04  0.22090045680E+04  0.25500000920E-02 0. -1.
       -2    1    3    3    0  502 -0.79890377663E+03  0.13506822092E+04 -0.95984823063E+03  0.18395375235E+04  0.25500000920E-02 0.  1.
</event>
<event>
 5   0  0.2078125E-09  0.4000966E+04  0.7818609E-02  0.8004352E-01
        1   -1    0    0  501    0  0.00000000000E+00  0.00000000000E+00  0.17703070491E+04  0.17703070491E+04  0.50400001928E-02 0. -1.
       -1   -1    0    0    0  501  0.00000000000E+00  0.00000000000E+00 -0.22605861143E+04  0.22605861143E+04  0.50400001928E-02 0.  1.
    10030    2    1    2    0    0  0.00000000000E+00  0.00000000000E+00 -0.49027906525E+03  0.40308931634E+04  0.40009656501E+04 0.  0.
        2    1    3    3  502    0 -0.13946317912E+04  0.54824843646E+03  0.10900499610E+04  0.18530469769E+04  0.25500000920E-02 0. -1.
       -2    1    3    3    0  502  0.13946317912E+04 -0.54824843646E+03 -0.15803290262E+04  0.21778461865E+04  0.25500000920E-02 0.  1.
</event>
<event>
 5   0  0.2078125E-09  0.4000164E+04  0.7818609E-02  0.8004513E-01
       -1   -1    0    0    0  501  0.00000000000E+00  0.00000000000E+00  0.15499772328E+04  0.15499772328E+04  0.50400001928E-02 0. -1.
        1   -1    0    0  501    0  0.00000000000E+00  0.00000000000E+00 -0.25808950739E+04  0.25808950739E+04  0.50400001928E-02 0.  1.
    10030    2    1    2    0    0  0.00000000000E+00  0.00000000000E+00 -0.10309178411E+04  0.41308723067E+04  0.40001642990E+04 0.  0.
        1    1    3    3  502    0 -0.10835988560E+04  0.11474771065E+04  0.75327818065E+03  0.17488047941E+04  0.50400001928E-02 0. -1.
       -1    1    3    3    0  502  0.10835988560E+04 -0.11474771065E+04 -0.17841960218E+04  0.23820675126E+04  0.50400001928E-02 0.  1.
</event>
<event>
 5   0  0.6547327E-09  0.4000255E+04  0.7818609E-02  0.8004495E-01
       -2   -1    0    0    0  501  0.00000000000E+00  0.00000000000E+00  0.15326522162E+04  0.15326522162E+04  0.25500000920E-02 0.  1.
        2   -1    0    0  501    0  0.00000000000E+00  0.00000000000E+00 -0.26101883320E+04  0.26101883320E+04  0.25500000920E-02 0. -1.
    10030    2    1    2    0    0  0.00000000000E+00  0.00000000000E+00 -0.10775361158E+04  0.41428405483E+04  0.40002554578E+04 0.  0.
        5    1    3    3  502    0  0.13263427062E+04  0.37448406542E+03 -0.20399394970E+04  0.24618689102E+04  0.46999998093E+01 0. -1.
       -5    1    3    3    0  502 -0.13263427062E+04 -0.37448406542E+03  0.96240338127E+03  0.16809716380E+04  0.46999998093E+01 0.  1.
</event>
<event>
 5   0  0.6736335E-09  0.3998942E+04  0.7818609E-02  0.8004760E-01
       -2   -1    0    0    0  501  0.00000000000E+00  0.00000000000E+00  0.19913459973E+04  0.19913459973E+04  0.25500000920E-02 0. -1.
        2   -1    0    0  501    0  0.00000000000E+00  0.00000000000E+00 -0.20076289044E+04  0.20076289044E+04  0.25500000920E-02 0.  1.
    10030    2    1    2    0    0  0.00000000000E+00  0.00000000000E+00 -0.16282907008E+02  0.39989749017E+04  0.39989417514E+04 0.  0.
        1    1    3    3  502    0  0.29144869981E+03  0.13809622194E+04 -0.14244458147E+04  0.20052543168E+04  0.50400001928E-02 0.  1.
       -1    1    3    3    0  502 -0.29144869981E+03 -0.13809622194E+04  0.14081629077E+04  0.19937205849E+04  0.50400001928E-02 0. -1.
</event>
<event>
 5   0  0.2078125E-09  0.4003101E+04  0.7818609E-02  0.8003921E-01
       -3   -1    0    0    0  501  0.00000000000E+00  0.00000000000E+00  0.19309595525E+04  0.19309595551E+04  0.10100000352E+00 0. -1.
        3   -1    0    0  501    0  0.00000000000E+00  0.00000000000E+00 -0.20747222376E+04  0.20747222401E+04  0.10100000352E+00 0.  1.
    10030    2    1    2    0    0  0.00000000000E+00  0.00000000000E+00 -0.14376268513E+03  0.40056817952E+04  0.40031011647E+04 0.  0.
        5    1    3    3  502    0 -0.46715868493E+03 -0.86064105237E+03  0.16748792333E+04  0.19401501989E+04  0.46999998093E+01 0. -1.
       -5    1    3    3    0  502  0.46715868493E+03  0.86064105237E+03 -0.18186419185E+04  0.20655315963E+04  0.46999998093E+01 0.  1.
</event>
<event>
 5   0  0.2078125E-09  0.4001725E+04  0.7818609E-02  0.8004199E-01
       -1   -1    0    0    0  501  0.00000000000E+00  0.00000000000E+00  0.24340499597E+04  0.24340499597E+04  0.50400001928E-02 0. -1.
        1   -1    0    0  501    0  0.00000000000E+00  0.00000000000E+00 -0.16447692595E+04  0.16447692595E+04  0.50400001928E-02 0.  1.
    10030    2    1    2    0    0  0.00000000000E+00  0.00000000000E+00  0.78928070024E+03  0.40788192192E+04  0.40017249030E+04 0.  0.
        3    1    3    3  502    0 -0.96708214609E+02 -0.56760771308E+03 -0.15585015887E+04  0.16614626709E+04  0.10100000352E+00 0.  1.
       -3    1    3    3    0  502  0.96708214609E+02  0.56760771308E+03  0.23477822890E+04  0.24173565482E+04  0.10100000352E+00 0. -1.
</event>
<event>
 5   0  0.6547327E-09  0.3999230E+04  0.7818609E-02  0.8004702E-01
        2   -1    0    0  501    0  0.00000000000E+00  0.00000000000E+00  0.13837875208E+04  0.13837875208E+04  0.25500000920E-02 0.  1.
       -2   -1    0    0    0  501  0.00000000000E+00  0.00000000000E+00 -0.28895049337E+04  0.28895049337E+04  0.25500000920E-02 0. -1.
    10030    2    1    2    0    0  0.00000000000E+00  0.00000000000E+00 -0.15057174129E+04  0.42732924546E+04  0.39992303603E+04 0.  0.
        5    1    3    3  502    0  0.38315395138E+03 -0.43031567608E+03  0.12931604027E+04  0.14157204698E+04  0.46999998093E+01 0.  1.
       -5    1    3    3    0  502 -0.38315395138E+03  0.43031567608E+03 -0.27988778156E+04  0.28575719848E+04  0.46999998093E+01 0. -1.
</event>
<event>
 5   0  0.2078125E-09  0.3996381E+04  0.7818609E-02  0.8005277E-01
       -1   -1    0    0    0  501  0.00000000000E+00  0.00000000000E+00  0.17541895242E+04  0.17541895242E+04  0.50400001928E-02 0.  1.
        1   -1    0    0  501    0  0.00000000000E+00  0.00000000000E+00 -0.22761307015E+04  0.22761307015E+04  0.50400001928E-02 0. -1.
    10030    2    1    2    0    0  0.00000000000E+00  0.00000000000E+00 -0.52194117725E+03  0.40303202257E+04  0.39963806787E+04 0.  0.
        3    1    3    3  502    0  0.56690323002E+03  0.12378216031E+04 -0.17359863996E+04  0.22061800432E+04  0.10100000352E+00 0. -1.
       -3    1    3    3    0  502 -0.56690323002E+03 -0.12378216031E+04  0.12140452223E+04  0.18241401825E+04  0.10100000352E+00 0.  1.
</event>
<event>
 5   0  0.6645526E-09  0.4000768E+04  0.7818609E-02  0.8004392E-01
        2   -1    0    0  501    0  0.00000000000E+00  0.00000000000E+00  0.19118399924E+04  0.19118399924E+04  0.25500000920E-02 0.  1.
       -2   -1    0    0    0  501  0.00000000000E+00  0.00000000000E+00 -0.20930284512E+04  0.20930284512E+04  0.25500000920E-02 0. -1.
    10030    2    1    2    0    0  0.00000000000E+00  0.00000000000E+00 -0.18118845883E+03  0.40048684436E+04  0.40007676755E+04 0.  0.
        3    1    3    3  502    0 -0.12248053518E+04 -0.42580963422E+03  0.14341457681E+04  0.19334518584E+04  0.10100000352E+00 0.  1.
       -3    1    3    3    0  502  0.12248053518E+04  0.42580963422E+03 -0.16153342270E+04  0.20714165852E+04  0.10100000352E+00 0. -1.
</event>
<event>
 5   0  0.2078125E-09  0.3999507E+04  0.7818609E-02  0.8004646E-01
        1   -1    0    0  501    0  0.00000000000E+00  0.00000000000E+00  0.26624169866E+04  0.26624169866E+04  0.50400001928E-02 0.  1.
       -1   -1    0    0    0  501  0.00000000000E+00  0.00000000000E+00 -0.15020238478E+04  0.15020238478E+04  0.50400001928E-02 0. -1.
    10030    2    1    2    0    0  0.00000000000E+00  0.00000000000E+00  0.11603931388E+04  0.41644408344E+04  0.39995068729E+04 0.  0.
        2    1    3    3  502    0  0.79424172680E+02  0.11620509008E+04  0.22727596776E+04  0.25538416254E+04  0.25500000920E-02 0.  1.
       -2    1    3    3    0  502 -0.79424172680E+02 -0.11620509008E+04 -0.11123665388E+04  0.16105992090E+04  0.25500000920E-02 0. -1.
</event>
<event>
 5   0  0.6736335E-09  0.3999163E+04  0.7818609E-02  0.8004716E-01
       -2   -1    0    0    0  501  0.00000000000E+00  0.00000000000E+00  0.33740510104E+04  0.33740510104E+04  0.25500000920E-02 0. -1.
        2   -1    0    0  501    0  0.00000000000E+00  0.00000000000E+00 -0.11850221830E+04  0.11850221830E+04  0.25500000920E-02 0.  1.
    10030    2    1    2    0    0  0.00000000000E+00  0.00000000000E+00  0.21890288275E+04  0.45590731934E+04  0.39991625592E+04 0.  0.
        1    1    3    3  502    0 -0.36168671096E+03 -0.18699536103E+03  0.33262919273E+04  0.33511195932E+04  0.50400001928E-02 0. -1.
       -1    1    3    3    0  502  0.36168671096E+03  0.18699536103E+03 -0.11372630999E+04  0.12079536002E+04  0.50400001928E-02 0.  1.
</event>
<event>
 5   0  0.2078125E-09  0.3999698E+04  0.7818609E-02  0.8004607E-01
       -1   -1    0    0    0  501  0.00000000000E+00  0.00000000000E+00  0.21226521760E+04  0.21226521760E+04  0.50400001928E-02 0.  1.
        1   -1    0    0  501    0  0.00000000000E+00  0.00000000000E+00 -0.18841507409E+04  0.18841507409E+04  0.50400001928E-02 0. -1.
    10030    2    1    2    0    0  0.00000000000E+00  0.00000000000E+00  0.23850143505E+03  0.40068029169E+04  0.39996983237E+04 0.  0.
        2    1    3    3  502    0 -0.34632257428E+03  0.80551198597E+03  0.19198325460E+04  0.21105795151E+04  0.25500000920E-02 0.  1.
       -2    1    3    3    0  502  0.34632257428E+03 -0.80551198597E+03 -0.16813311109E+04  0.18962234018E+04  0.25500000920E-02 0. -1.
</event>
<event>
 5   0  0.6538370E-09  0.4000224E+04  0.7818609E-02  0.8004501E-01
       -2   -1    0    0    0  501  0.00000000000E+00  0.00000000000E+00  0.15266286675E+04  0.15266286675E+04  0.25500000920E-02 0. -1.
        2   -1    0    0  501    0  0.00000000000E+00  0.00000000000E+00 -0.26204464159E+04  0.26204464159E+04  0.25500000920E-02 0.  1.
    10030    2    1    2    0    0  0.00000000000E+00  0.00000000000E+00 -0.10938177484E+04  0.41470750834E+04  0.40002243038E+04 0.  0.
        4    1    3    3  502    0 -0.15532147086E+04  0.18613293060E+03 -0.18389870928E+04  0.24143314891E+04  0.12699999809E+01 0.  1.
       -4    1    3    3    0  502  0.15532147086E+04 -0.18613293060E+03  0.74516934447E+03  0.17327435943E+04  0.12699999809E+01 0. -1.
</event>
<event>
 5   0  0.2078125E-09  0.3997813E+04  0.7818609E-02  0.8004988E-01
        1   -1    0    0  501    0  0.00000000000E+00  0.00000000000E+00  0.14763479294E+04  0.14763479294E+04  0.50400001928E-02 0.  1.
       -1   -1    0    0    0  501  0.00000000000E+00  0.00000000000E+00 -0.27064268067E+04  0.27064268067E+04  0.50400001928E-02 0. -1.
    10030    2    1    2    0    0  0.00000000000E+00  0.00000000000E+00 -0.12300788773E+04  0.41827747362E+04  0.39978132084E+04 0.  0.
        4    1    3    3  502    0  0.99465970747E+03  0.16143934262E+04  0.46686944316E+02  0.18967855314E+04  0.12699999809E+01 0.  1.
       -4    1    3    3    0  502 -0.99465970747E+03 -0.16143934262E+04 -0.12767658216E+04  0.22859892048E+04  0.12699999809E+01 0. -1.
</event>
<event>
 5   0  0.2078125E-09  0.4000632E+04  0.7818609E-02  0.8004419E-01
       -1   -1    0    0    0  501  0.00000000000E+00  0.00000000000E+00  0.15819603468E+04  0.15819603468E+04  0.50400001928E-02 0.  1.
        1   -1    0    0  501    0  0.00000000000E+00  0.00000000000E+00 -0.25293080116E+04  0.25293080116E+04  0.50400001928E-02 0. -1.
    10030    2    1    2    0    0  0.00000000000E+00  0.00000000000E+00 -0.94734766486E+03  0.41112683584E+04  0.40006324396E+04 0.  0.
        2    1    3    3  502    0  0.67045233486E+02 -0.13877053719E+04  0.10052363761E+04  0.17148531816E+04  0.25500000920E-02 0.  1.
       -2    1    3    3    0  502 -0.67045233486E+02  0.13877053719E+04 -0.19525840410E+04  0.23964151768E+04  0.25500000920E-02 0. -1.
</event>
<event>
 5   0  0.2078125E-09  0.3983911E+04  0.7818609E-02  0.8007800E-01
        1   -1    0    0  501    0  0.00000000000E+00  0.00000000000E+00  0.31470869223E+04  0.31470869223E+04  0.50400001928E-02 0. -1.
       -1   -1    0    0    0  501  0.00000000000E+00  0.00000000000E+00 -0.12608124903E+04  0.12608124903E+04  0.50400001928E-02 0.  1.
    10030    2    1    2    0    0  0.00000000000E+00  0.00000000000E+00  0.18862744320E+04  0.44078994126E+04  0.39839108924E+04 0.  0.
        5    1    3    3  502    0  0.15833129396E+04 -0.40004434494E+03  0.22051164436E+04  0.27439890602E+04  0.46999998093E+01 0. -1.
       -5    1    3    3    0  502 -0.15833129396E+04  0.40004434494E+03 -0.31884201158E+03  0.16639103524E+04  0.46999998093E+01 0.  1.
</event>
<event>
 5   0  0.2078125E-09  0.4000756E+04  0.7818609E-02  0.8004394E-01
       -1   -1    0    0    0  501  0.00000000000E+00  0.00000000000E+00  0.22379394476E+04  0.22379394476E+04  0.50400001928E-02 0. -1.
        1   -1    0    0  501    0  0.00000000000E+00  0.00000000000E+00 -0.17880343494E+04  0.17880343494E+04  0.50400001928E-02 0.  1.
    10030    2    1    2    0    0  0.00000000000E+00  0.00000000000E+00  0.44990509820E+03  0.40259737969E+04  0.40007562305E+04 0.  0.
        2    1    3    3  502    0  0.12710862107E+03 -0.18748823008E+04 -0.46506065466E+03  0.19358774900E+04  0.25500000920E-02 0.  1.
       -2    1    3    3    0  502 -0.12710862107E+03  0.18748823008E+04  0.91496575286E+03  0.20900963070E+04  0.25500000920E-02 0. -1.
</event>
<event>
 5   0  0.2078125E-09  0.4000676E+04  0.7818609E-02  0.8004410E-01
        1   -1    0    0  501    0  0.00000000000E+00  0.00000000000E+00  0.21361052288E+04  0.21361052288E+04  0.50400001928E-02 0.  1.
       -1   -1    0    0    0  501  0.00000000000E+00  0.00000000000E+00 -0.18731997395E+04  0.18731997395E+04  0.50400001928E-02 0. -1.
    10030    2    1    2    0    0  0.00000000000E+00  0.00000000000E+00  0.26290548929E+03  0.40093049684E+04  0.40006758221E+04 0.  0.
        3    1    3    3  502    0 -0.36223022024E+03  0.17689695790E+04  0.99405761650E+03  0.20612167909E+04  0.10100000352E+00 0.  1.
       -3    1    3    3    0  502  0.36223022024E+03 -0.17689695790E+04 -0.73115212721E+03  0.19480881775E+04  0.10100000352E+00 0. -1.
</event>
<event>
 5   0  0.2078125E-09  0.4000032E+04  0.7818609E-02  0.8004540E-01
       -1   -1    0    0    0  501  0.00000000000E+00  0.00000000000E+00  0.18585753561E+04  0.18585753561E+04  0.50400001928E-02 0. -1.
        1   -1    0    0  501    0  0.00000000000E+00  0.00000000000E+00 -0.21522203522E+04  0.21522203522E+04  0.50400001928E-02 0.  1.
    10030    2    1    2    0    0  0.00000000000E+00  0.00000000000E+00 -0.29364499618E+03  0.40107957083E+04  0.40000318536E+04 0.  0.
        5    1    3    3  502    0  0.80613453008E+01  0.11608350376E+04 -0.17798359618E+04  0.21249567315E+04  0.46999998093E+01 0.  1.
       -5    1    3    3    0  502 -0.80613453008E+01 -0.11608350376E+04  0.14861909657E+04  0.18858389768E+04  0.46999998093E+01 0. -1.
</event>
<event>
 5   0  0.2078125E-09  0.3999659E+04  0.7818609E-02  0.8004615E-01
        1   -1    0    0  501    0  0.00000000000E+00  0.00000000000E+00  0.15199476617E+04  0.15199476617E+04  0.50400001928E-02 0.  1.
       -1   -1    0    0    0  501  0.00000000000E+00  0.00000000000E+00 -0.26312208818E+04  0.26312208818E+04  0.50400001928E-02 0. -1.
    10030    2    1    2    0    0  0.00000000000E+00  0.00000000000E+00 -0.11112732201E+04  0.41511685434E+04  0.39996589988E+04 0.  0.
        5    1    3    3  502    0  0.18084238074E+03 -0.68370940996E+03  0.13858198323E+04  0.15558538561E+04  0.46999998093E+01 0.  1.
       -5    1    3    3    0  502 -0.18084238074E+03  0.68370940996E+03 -0.24970930524E+04  0.25953146874E+04  0.46999998093E+01 0. -1.
</event>
<event>
 5   0  0.2078125E-09  0.4000001E+04  0.7818609E-02  0.8004546E-01
       -1   -1    0    0    0  501  0.00000000000E+00  0.00000000000E+00  0.13880571794E+04  0.13880571794E+04  0.50400001928E-02 0. -1.
        1   -1    0    0  501    0  0.00000000000E+00  0.00000000000E+00 -0.28817264416E+04  0.28817264416E+04  0.50400001928E-02 0.  1.
    10030    2    1    2    0    0  0.00000000000E+00  0.00000000000E+00 -0.14936692622E+04  0.42697836210E+04  0.40000005382E+04 0.  0.
        5    1    3    3  502    0  0.95418722303E+03 -0.92206301680E+03 -0.23441934830E+04  0.26936849554E+04  0.46999998093E+01 0.  1.
       -5    1    3    3    0  502 -0.95418722303E+03  0.92206301680E+03  0.85052422079E+03  0.15760986656E+04  0.46999998093E+01 0. -1.
</event>
<event>
 5   0  0.6538370E-09  0.4000939E+04  0.7818609E-02  0.8004357E-01
       -2   -1    0    0    0  501  0.00000000000E+00  0.00000000000E+00  0.14187136152E+04  0.14187136152E+04  0.25500000920E-02 0.  1.
        2   -1    0    0  501    0  0.00000000000E+00  0.00000000000E+00 -0.28207788682E+04  0.28207788682E+04  0.25500000920E-02 0. -1.
    10030    2    1    2    0    0  0.00000000000E+00  0.00000000000E+00 -0.14020652531E+04  0.42394924834E+04  0.40009385827E+04 0.  0.
        4    1    3    3  502    0 -0.43826057307E+03 -0.17142376947E+03 -0.27612918061E+04  0.28011055835E+04  0.12699999809E+01 0. -1.
       -4    1    3    3    0  502  0.43826057307E+03  0.17142376947E+03  0.13592265530E+04  0.14383868999E+04  0.12699999809E+01 0.  1.
</event>
<event>
 5   0  0.2078125E-09  0.3998989E+04  0.7818609E-02  0.8004751E-01
        1   -1    0    0  501    0  0.00000000000E+00  0.00000000000E+00  0.22733700242E+04  0.22733700242E+04  0.50400001928E-02 0.  1.
       -1   -1    0    0    0  501  0.00000000000E+00  0.00000000000E+00 -0.17586127739E+04  0.17586127739E+04  0.50400001928E-02 0. -1.
    10030    2    1    2    0    0  0.00000000000E+00  0.00000000000E+00  0.51475725029E+03  0.40319827982E+04  0.39989886544E+04 0.  0.
        4    1    3    3  502    0  0.77292791446E+03  0.17713709640E+04 -0.25949444396E+03  0.19500029827E+04  0.12699999809E+01 0. -1.
       -4    1    3    3    0  502 -0.77292791446E+03 -0.17713709640E+04  0.77425169425E+03  0.20819798155E+04  0.12699999809E+01 0.  1.
</event>
<event>
 5   0  0.6645526E-09  0.4008796E+04  0.7818609E-02  0.8002775E-01
        2   -1    0    0  501    0  0.00000000000E+00  0.00000000000E+00  0.18622279899E+04  0.18622279899E+04  0.25500000920E-02 0. -1.
       -2   -1    0    0    0  501  0.00000000000E+00  0.00000000000E+00 -0.21574214967E+04  0.21574214967E+04  0.25500000920E-02 0.  1.
    10030    2    1    2    0    0  0.00000000000E+00  0.00000000000E+00 -0.29519350677E+03  0.40196494865E+04  0.40087956780E+04 0.  0.
        3    1    3    3  502    0 -0.58613651120E+01 -0.47868356960E+03 -0.20992577192E+04  0.21531500871E+04  0.10100000352E+00 0.  1.
       -3    1    3    3    0  502  0.58613651120E+01  0.47868356960E+03  0.18040642125E+04  0.18664993995E+04  0.10100000352E+00 0. -1.
</event>
<event>
 5   0  0.6736335E-09  0.3975029E+04  0.7818609E-02  0.8009603E-01
       -2   -1    0    0    0  501  0.00000000000E+00  0.00000000000E+00  0.14344935901E+04  0.14344935901E+04  0.25500000920E-02 0.  1.
        2   -1    0    0  501    0  0.00000000000E+00  0.00000000000E+00 -0.27537344948E+04  0.27537344948E+04  0.25500000920E-02 0. -1.
    10030    2    1    2    0    0  0.00000000000E+00  0.00000000000E+00 -0.13192409048E+04  0.41882280849E+04  0.39750292988E+04 0.  0.
        1    1    3    3  502    0 -0.98448655464E+03  0.10963813236E+04  0.74568814334E+03  0.16514589278E+04  0.50400001928E-02 0.  1.
       -1    1    3    3    0  502  0.98448655464E+03 -0.10963813236E+04 -0.20649290481E+04  0.25367691572E+04  0.50400001928E-02 0. -1.
</event>
<event>
 5   0  0.2078125E-09  0.4000993E+04  0.7818609E-02  0.8004346E-01
       -1   -1    0    0    0  501  0.00000000000E+00  0.00000000000E+00  0.17513314546E+04  0.17513314546E+04  0.50400001928E-02 0.  1.
        1   -1    0    0  501    0  0.00000000000E+00  0.00000000000E+00 -0.22851104239E+04  0.22851104239E+04  0.50400001928E-02 0. -1.
    10030    2    1    2    0    0  0.00000000000E+00  0.00000000000E+00 -0.53377896936E+03  0.40364418785E+04  0.40009927581E+04 0.  0.
        4    1    3    3  502    0 -0.98421947103E+03  0.32237227545E+03  0.14598158202E+04  0.17898814745E+04  0.12699999809E+01 0.  1.
       -4    1    3    3    0  502  0.98421947103E+03 -0.32237227545E+03 -0.19935947895E+04  0.22465604040E+04  0.12699999809E+01 0. -1.
</event>
<event>
 5   0  0.6736335E-09  0.4001603E+04  0.7818609E-02  0.8004223E-01
        2   -1    0    0  501    0  0.00000000000E+00  0.00000000000E+00  0.31776610175E+04  0.31776610175E+04  0.25500000920E-02 0. -1.
       -2   -1    0    0    0  501  0.00000000000E+00  0.00000000000E+00 -0.12597965854E+04  0.12597965855E+04  0.25500000920E-02 0.  1.
    10030    2    1    2    0    0  0.00000000000E+00  0.00000000000E+00  0.19178644321E+04  0.44374576030E+04  0.40016029286E+04 0.  0.
        1    1    3    3  502    0  0.97802751733E+02  0.12551527939E+04 -0.76551243263E+03  0.14734256679E+04  0.50400001928E-02 0.  1.
       -1    1    3    3    0  502 -0.97802751733E+02 -0.12551527939E+04  0.26833768647E+04  0.29640319351E+04  0.50400001928E-02 0. -1.
</event>
<event>
 5   0  0.6645526E-09  0.3999825E+04  0.7818609E-02  0.8004582E-01
       -2   -1    0    0    0  501  0.00000000000E+00  0.00000000000E+00  0.20936871981E+04  0.20936871981E+04  0.25500000920E-02 0.  1.
        2   -1    0    0  501    0  0.00000000000E+00  0.00000000000E+00 -0.19103374942E+04  0.19103374942E+04  0.25500000920E-02 0. -1.
    10030    2    1    2    0    0  0.00000000000E+00  0.00000000000E+00  0.18334970393E+03  0.40040246923E+04  0.39998245739E+04 0.  0.
        3    1    3    3  502    0  0.65548001359E+03 -0.71672910081E+03  0.18417367206E+04  0.20821500451E+04  0.10100000352E+00 0.  1.
       -3    1    3    3    0  502 -0.65548001359E+03  0.71672910081E+03 -0.16583870167E+04  0.19218746472E+04  0.10100000352E+00 0. -1.
</event>
<event>
 5   0  0.2078125E-09  0.3999263E+04  0.7818609E-02  0.8004695E-01
       -1   -1    0    0    0  501  0.00000000000E+00  0.00000000000E+00  0.18864922283E+04  0.18864922283E+04  0.50400001928E-02 0.  1.
        1   -1    0    0  501    0  0.00000000000E+00  0.00000000000E+00 -0.21195563793E+04  0.21195563793E+04  0.50400001928E-02 0. -1.
    10030    2    1    2    0    0  0.00000000000E+00  0.00000000000E+00 -0.23306415098E+03  0.40060486076E+04  0.39992632506E+04 0.  0.
        2    1    3    3  502    0  0.16022842330E+04 -0.98257013844E+03 -0.80016182099E+03  0.20427965587E+04  0.25500000920E-02 0. -1.
       -2    1    3    3    0  502 -0.16022842330E+04  0.98257013844E+03  0.56709767001E+03  0.19632520489E+04  0.25500000920E-02 0.  1.
</event>
<event>
 5   0  0.6736335E-09  0.4001747E+04  0.7818609E-02  0.8004194E-01
        2   -1    0    0  501    0  0.00000000000E+00  0.00000000000E+00  0.13923384372E+04  0.13923384372E+04  0.25500000920E-02 0. -1.
       -2   -1    0    0    0  501  0.00000000000E+00  0.00000000000E+00 -0.28753742505E+04  0.28753742505E+04  0.25500000920E-02 0.  1.
    10030    2    1    2    0    0  0.00000000000E+00  0.00000000000E+00 -0.14830358133E+04  0.42677126877E+04  0.40017466638E+04 0.  0.
        1    1    3    3  502    0 -0.18790110574E+04 -0.16365682825E+03 -0.29277458340E+02  0.18863518444E+04  0.50400001928E-02 0. -1.
       -1    1    3    3    0  502  0.18790110574E+04  0.16365682825E+03 -0.14537583550E+04  0.23813608433E+04  0.50400001928E-02 0.  1.
</event>
<event>
 5   0  0.2078125E-09  0.3999858E+04  0.7818609E-02  0.8004575E-01
        1   -1    0    0  501    0  0.00000000000E+00  0.00000000000E+00  0.14870032672E+04  0.14870032673E+04  0.50400001928E-02 0. -1.
       -1   -1    0    0    0  501  0.00000000000E+00  0.00000000000E+00 -0.26897835690E+04  0.26897835690E+04  0.50400001928E-02 0.  1.
    10030    2    1    2    0    0  0.00000000000E+00  0.00000000000E+00 -0.12027803018E+04  0.41767868363E+04  0.39998584752E+04 0.  0.
        1    1    3    3  502    0  0.65955505321E+03 -0.18788982454E+04 -0.40758570009E+03  0.20325839682E+04  0.50400001928E-02 0.  1.
       -1    1    3    3    0  502 -0.65955505321E+03  0.18788982454E+04 -0.79519460167E+03  0.21442028681E+04  0.50400001928E-02 0. -1.
</event>
<event>
 5   0  0.2078125E-09  0.4001452E+04  0.7818609E-02  0.8004254E-01
       -1   -1    0    0    0  501  0.00000000000E+00  0.00000000000E+00  0.19135583182E+04  0.19135583182E+04  0.50400001928E-02 0.  1.
        1   -1    0    0  501    0  0.00000000000E+00  0.00000000000E+00 -0.20918644928E+04  0.20918644928E+04  0.50400001928E-02 0. -1.
    10030    2    1    2    0    0  0.00000000000E+00  0.00000000000E+00 -0.17830617461E+03  0.40054228109E+04  0.40014520867E+04 0.  0.
        2    1    3    3  502    0 -0.73667484614E+03 -0.83606986997E+03 -0.17524885194E+04  0.20767567665E+04  0.25500000920E-02 0. -1.
       -2    1    3    3    0  502  0.73667484614E+03  0.83606986997E+03  0.15741823448E+04  0.19286660445E+04  0.25500000920E-02 0.  1.
</event>
<event>
 5   0  0.2078125E-09  0.3998751E+04  0.7818609E-02  0.8004799E-01
        1   -1    0    0  501    0  0.00000000000E+00  0.00000000000E+00  0.22943868484E+04  0.22943868484E+04  0.50400001928E-02 0. -1.
       -1   -1    0    0    0  501  0.00000000000E+00  0.00000000000E+00 -0.17422965096E+04  0.17422965096E+04  0.50400001928E-02 0.  1.
    10030    2    1    2    0    0  0.00000000000E+00  0.00000000000E+00  0.55209033885E+03  0.40366833580E+04  0.39987509038E+04 0.  0.
        1    1    3    3  502    0  0.15359170797E+04 -0.12150551564E+04  0.68248323026E+03  0.20739295235E+04  0.50400001928E-02 0. -1.
       -1    1    3    3    0  502 -0.15359170797E+04  0.12150551564E+04 -0.13039289141E+03  0.19627538345E+04  0.50400001928E-02 0.  1.
</event>
<event>
 5   0  0.6736335E-09  0.3985167E+04  0.7818609E-02  0.8007545E-01
        2   -1    0    0  501    0  0.00000000000E+00  0.00000000000E+00  0.11498972857E+04  0.11498972857E+04  0.25500000920E-02 0.  1.
       -2   -1    0    0    0  501  0.00000000000E+00  0.00000000000E+00 -0.34528211725E+04  0.34528211725E+04  0.25500000920E-02 0. -1.
    10030    2    1    2    0    0  0.00000000000E+00  0.00000000000E+00 -0.23029238868E+04  0.46027184581E+04  0.39851673461E+04 0.  0.
        1    1    3    3  502    0 -0.16969553595E+03  0.10357266718E+04 -0.31077048535E+04  0.32801456934E+04  0.50400001928E-02 0. -1.
       -1    1    3    3    0  502  0.16969553595E+03 -0.10357266718E+04  0.80478096673E+03  0.13225727647E+04  0.50400001928E-02 0.  1.
</event>
<event>
 5   0  0.2078125E-09  0.3989509E+04  0.7818609E-02  0.8006666E-01
       -1   -1    0    0    0  501  0.00000000000E+00  0.00000000000E+00  0.12827412452E+04  0.12827412452E+04  0.50400001928E-02 0.  1.
        1   -1    0    0  501    0  0.00000000000E+00  0.00000000000E+00 -0.31019860952E+04  0.31019860952E+04  0.50400001928E-02 0. -1.
    10030    2    1    2    0    0  0.00000000000E+00  0.00000000000E+00 -0.18192448500E+04  0.43847273404E+04  0.39895089955E+04 0.  0.
        1    1    3    3  502    0  0.14870633631E+04 -0.69083560785E+03  0.33888485750E+03  0.16743518835E+04  0.50400001928E-02 0.  1.
       -1    1    3    3    0  502 -0.14870633631E+04  0.69083560785E+03 -0.21581297075E+04  0.27103754569E+04  0.50400001928E-02 0. -1.
</event>
<event>
 5   0  0.2078125E-09  0.3999477E+04  0.7818609E-02  0.8004652E-01
        1   -1    0    0  501    0  0.00000000000E+00  0.00000000000E+00  0.19434176602E+04  0.19434176602E+04  0.50400001928E-02 0.  1.
       -1   -1    0    0    0  501  0.00000000000E+00  0.00000000000E+00 -0.20576918227E+04  0.20576918227E+04  0.50400001928E-02 0. -1.
    10030    2    1    2    0    0  0.00000000000E+00  0.00000000000E+00 -0.11427416250E+03  0.40011094829E+04  0.39994772796E+04 0.  0.
        4    1    3    3  502    0  0.12062856518E+04  0.10904665590E+04 -0.12215324507E+04  0.20338105937E+04  0.12699999809E+01 0. -1.
       -4    1    3    3    0  502 -0.12062856518E+04 -0.10904665590E+04  0.11072582882E+04  0.19672988892E+04  0.12699999809E+01 0.  1.
</event>
<event>
 5   0  0.6599276E-09  0.4003361E+04  0.7818609E-02  0.8003869E-01
       -2   -1    0    0    0  501  0.00000000000E+00  0.00000000000E+00  0.21882123742E+04  0.21882123742E+04  0.25500000920E-02 0.  1.
        2   -1    0    0  501    0  0.00000000000E+00  0.00000000000E+00 -0.18310494897E+04  0.18310494897E+04  0.25500000920E-02 0. -1.
    10030    2    1    2    0    0  0.00000000000E+00  0.00000000000E+00  0.35716288442E+03  0.40192618639E+04  0.40033611634E+04 0.  0.
        2    1    3    3  502    0 -0.13838966404E+04  0.69236639213E+03 -0.10961797583E+04  0.18963520756E+04  0.25500000920E-02 0. -1.
       -2    1    3    3    0  502  0.13838966404E+04 -0.69236639213E+03  0.14533426427E+04  0.21229097883E+04  0.25500000920E-02 0.  1.
</event>
<event>
 5   0  0.6599276E-09  0.3996554E+04  0.7818609E-02  0.8005242E-01
       -2   -1    0    0    0  501  0.00000000000E+00  0.00000000000E+00  0.17278396555E+04  0.17278396555E+04  0.25500000920E-02 0. -1.
        2   -1    0    0  501    0  0.00000000000E+00  0.00000000000E+00 -0.23110431196E+04  0.23110431196E+04  0.25500000920E-02 0.  1.
    10030    2    1    2    0    0  0.00000000000E+00  0.00000000000E+00 -0.58320346410E+03  0.40388827750E+04  0.39965544898E+04 0.  0.
        2    1    3    3  502    0 -0.60429909853E+03  0.56691640626E+03  0.15460466738E+04  0.17540900575E+04  0.25500000920E-02 0. -1.
       -2    1    3    3    0  502  0.60429909853E+03 -0.56691640626E+03 -0.21292501379E+04  0.22847927175E+04  0.25500000920E-02 0.  1.
</event>
<event>
 5   0  0.6547327E-09  0.4004777E+04  0.7818609E-02  0.8003584E-01
       -2   -1    0    0    0  501  0.00000000000E+00  0.00000000000E+00  0.17393359741E+04  0.17393359741E+04  0.25500000920E-02 0.  1.
        2   -1    0    0  501    0  0.00000000000E+00  0.00000000000E+00 -0.23052239455E+04  0.23052239455E+04  0.25500000920E-02 0. -1.
    10030    2    1    2    0    0  0.00000000000E+00  0.00000000000E+00 -0.56588797137E+03  0.40445599196E+04  0.40047766164E+04 0.  0.
        5    1    3    3  502    0 -0.24786712726E+03 -0.19128212355E+04  0.26018424161E+03  0.19462890642E+04  0.46999998093E+01 0.  1.
       -5    1    3    3    0  502  0.24786712726E+03  0.19128212355E+04 -0.82607221298E+03  0.20982708554E+04  0.46999998093E+01 0. -1.
</event>
<event>
 5   0  0.6736335E-09  0.4001298E+04  0.7818609E-02  0.8004285E-01
       -2   -1    0    0    0  501  0.00000000000E+00  0.00000000000E+00  0.19002955704E+04  0.19002955704E+04  0.25500000920E-02 0. -1.
        2   -1    0    0  501    0  0.00000000000E+00  0.00000000000E+00 -0.21063025309E+04  0.21063025309E+04  0.25500000920E-02 0.  1.
    10030    2    1    2    0    0  0.00000000000E+00  0.00000000000E+00 -0.20600696055E+03  0.40065981013E+04  0.40012984740E+04 0.  0.
        1    1    3    3  502    0  0.69651131907E+03 -0.18102635069E+03 -0.19722107270E+04  0.20994079425E+04  0.50400001928E-02 0.  1.
       -1    1    3    3    0  502 -0.69651131907E+03  0.18102635069E+03  0.17662037665E+04  0.19071901588E+04  0.50400001928E-02 0. -1.
</event>
<event>
 5   0  0.2078125E-09  0.4000912E+04  0.7818609E-02  0.8004363E-01
        1   -1    0    0  501    0  0.00000000000E+00  0.00000000000E+00  0.24211080658E+04  0.24211080658E+04  0.50400001928E-02 0.  1.
       -1   -1    0    0    0  501  0.00000000000E+00  0.00000000000E+00 -0.16528895126E+04  0.16528895126E+04  0.50400001928E-02 0. -1.
    10030    2    1    2    0    0  0.00000000000E+00  0.00000000000E+00  0.76821855316E+03  0.40739975784E+04  0.40009119615E+04 0.  0.
        3    1    3    3  502    0  0.16064400075E+04  0.10108659548E+04 -0.25935557382E+03  0.19156630184E+04  0.10100000352E+00 0. -1.
       -3    1    3    3    0  502 -0.16064400075E+04 -0.10108659548E+04  0.10275741270E+04  0.21583345600E+04  0.10100000352E+00 0.  1.
</event>
<event>
 5   0  0.6538370E-09  0.3999496E+04  0.7818609E-02  0.8004648E-01
       -2   -1    0    0    0  501  0.00000000000E+00  0.00000000000E+00  0.26400456407E+04  0.26400456407E+04  0.25500000920E-02 0. -1.
        2   -1    0    0  501    0  0.00000000000E+00  0.00000000000E+00 -0.15147439013E+04  0.15147439013E+04  0.25500000920E-02 0.  1.
    10030    2    1    2    0    0  0.00000000000E+00  0.00000000000E+00  0.11253017394E+04  0.41547895421E+04  0.39994964851E+04 0.  0.
        4    1    3    3  502    0 -0.19397337286E+04  0.77422031635E+02  0.10613211823E+04  0.22124568637E+04  0.12699999809E+01 0. -1.
       -4    1    3    3    0  502  0.19397337286E+04 -0.77422031635E+02  0.63980557102E+02  0.19423326784E+04  0.12699999809E+01 0.  1.
</event>
<event>
 5   0  0.6547327E-09  0.4001948E+04  0.7818609E-02  0.8004154E-01
       -2   -1    0    0    0  501  0.00000000000E+00  0.00000000000E+00  0.16507226702E+04  0.16507226702E+04  0.25500000920E-02 0.  1.
        2   -1    0    0  501    0  0.00000000000E+00  0.00000000000E+00 -0.24255424638E+04  0.24255424638E+04  0.25500000920E-02 0. -1.
    10030    2    1    2    0    0  0.00000000000E+00  0.00000000000E+00 -0.77481979358E+03  0.40762651341E+04  0.40019484918E+04 0.  0.
        5    1    3    3  502    0 -0.13231063133E+04  0.73643879637E+03  0.94490295104E+03  0.17848854568E+04  0.46999998093E+01 0.  1.
       -5    1    3    3    0  502  0.13231063133E+04 -0.73643879637E+03 -0.17197227446E+04  0.22913796773E+04  0.46999998093E+01 0. -1.
</event>
<event>
 5   0  0.6736335E-09  0.4000137E+04  0.7818609E-02  0.8004519E-01
        2   -1    0    0  501    0  0.00000000000E+00  0.00000000000E+00  0.21073821778E+04  0.21073821778E+04  0.25500000920E-02 0. -1.
       -2   -1    0    0    0  501  0.00000000000E+00  0.00000000000E+00 -0.18982199957E+04  0.18982199957E+04  0.25500000920E-02 0.  1.
    10030    2    1    2    0    0  0.00000000000E+00  0.00000000000E+00  0.20916218211E+03  0.40056021735E+04  0.40001374919E+04 0.  0.
        1    1    3    3  502    0 -0.90432071305E+03  0.60168540755E+03  0.17862960331E+04  0.20906158900E+04  0.50400001928E-02 0. -1.
       -1    1    3    3    0  502  0.90432071305E+03 -0.60168540755E+03 -0.15771338510E+04  0.19149862834E+04  0.50400001928E-02 0.  1.
</event>
<event>
 5   0  0.2078125E-09  0.4006408E+04  0.7818609E-02  0.8003255E-01
        1   -1    0    0  501    0  0.00000000000E+00  0.00000000000E+00  0.18243442623E+04  0.18243442623E+04  0.50400001928E-02 0.  1.
       -1   -1    0    0    0  501  0.00000000000E+00  0.00000000000E+00 -0.21995996993E+04  0.21995996993E+04  0.50400001928E-02 0. -1.
    10030    2    1    2    0    0  0.00000000000E+00  0.00000000000E+00 -0.37525543702E+03  0.40239439615E+04  0.40064084119E+04 0.  0.
        1    1    3    3  502    0  0.43915733596E+03 -0.19107995921E+04 -0.60029444042E+03  0.20504554767E+04  0.50400001928E-02 0. -1.
       -1    1    3    3    0  502 -0.43915733596E+03  0.19107995921E+04  0.22503900340E+03  0.19734884848E+04  0.50400001928E-02 0.  1.
</event>
<event>
 5   0  0.2078125E-09  0.3995724E+04  0.7818609E-02  0.8005410E-01
        1   -1    0    0  501    0  0.00000000000E+00  0.00000000000E+00  0.20619496116E+04  0.20619496116E+04  0.50400001928E-02 0. -1.
       -1   -1    0    0    0  501  0.00000000000E+00  0.00000000000E+00 -0.19357662722E+04  0.19357662722E+04  0.50400001928E-02 0.  1.
    10030    2    1    2    0    0  0.00000000000E+00  0.00000000000E+00  0.12618333938E+03  0.39977158838E+04  0.39957239710E+04 0.  0.
        2    1    3    3  502    0 -0.30628145096E+03 -0.58982126580E+03 -0.18219269316E+04  0.19393594811E+04  0.25500000920E-02 0.  1.
       -2    1    3    3    0  502  0.30628145096E+03  0.58982126580E+03  0.19481102710E+04  0.20583564027E+04  0.25500000920E-02 0. -1.
</event>
<event>
 5   0  0.2078125E-09  0.3998116E+04  0.7818609E-02  0.8004927E-01
        1   -1    0    0  501    0  0.00000000000E+00  0.00000000000E+00  0.16689007333E+04  0.16689007333E+04  0.50400001928E-02 0. -1.
       -1   -1    0    0    0  501  0.00000000000E+00  0.00000000000E+00 -0.23945297139E+04  0.23945297139E+04  0.50400001928E-02 0.  1.
    10030    2    1    2    0    0  0.00000000000E+00  0.00000000000E+00 -0.72562898056E+03  0.40634304472E+04  0.39981157540E+04 0.  0.
        2    1    3    3  502    0 -0.13406281460E+04  0.12609012350E+04 -0.11559975682E+04  0.21733582604E+04  0.25500000920E-02 0.  1.
       -2    1    3    3    0  502  0.13406281460E+04 -0.12609012350E+04  0.43036858768E+03  0.18900721868E+04  0.25500000920E-02 0. -1.
</event>
<event>
 5   0  0.6599276E-09  0.3998680E+04  0.7818609E-02  0.8004813E-01
        2   -1    0    0  501    0  0.00000000000E+00  0.00000000000E+00  0.21123487254E+04  0.21123487254E+04  0.25500000920E-02 0.  1.
       -2   -1    0    0    0  501  0.00000000000E+00  0.00000000000E+00 -0.18923773015E+04  0.18923773015E+04  0.25500000920E-02 0. -1.
    10030    2    1    2    0    0  0.00000000000E+00  0.00000000000E+00  0.21997142396E+03  0.40047260269E+04  0.39986801726E+04 0.  0.
        2    1    3    3  502    0 -0.58386777828E+03  0.77572039761E+02  0.20234874192E+04  0.21074677553E+04  0.25500000920E-02 0.  1.
       -2    1    3    3    0  502  0.58386777828E+03 -0.77572039761E+02 -0.18035159953E+04  0.18972582716E+04  0.25500000920E-02 0. -1.
</event>
<event>
 5   0  0.6538370E-09  0.4000472E+04  0.7818609E-02  0.8004451E-01
       -2   -1    0    0    0  501  0.00000000000E+00  0.00000000000E+00  0.26417130299E+04  0.26417130299E+04  0.25500000920E-02 0. -1.
        2   -1    0    0  501    0  0.00000000000E+00  0.00000000000E+00 -0.15145260991E+04  0.15145260991E+04  0.25500000920E-02 0.  1.
    10030    2    1    2    0    0  0.00000000000E+00  0.00000000000E+00  0.11271869308E+04  0.41562391290E+04  0.40004716372E+04 0.  0.
        4    1    3    3  502    0  0.19840310636E+04 -0.25409139837E+03  0.56345746868E+03  0.20780826817E+04  0.12699999809E+01 0. -1.
       -4    1    3    3    0  502 -0.19840310636E+04  0.25409139837E+03  0.56372946215E+03  0.20781564473E+04  0.12699999809E+01 0.  1.
</event>
<event>
 5   0  0.6547327E-09  0.3996222E+04  0.7818609E-02  0.8005309E-01
        2   -1    0    0  501    0  0.00000000000E+00  0.00000000000E+00  0.17399160520E+04  0.17399160520E+04  0.25500000920E-02 0. -1.
       -2   -1    0    0    0  501  0.00000000000E+00  0.00000000000E+00 -0.22946207821E+04  0.22946207821E+04  0.25500000920E-02 0.  1.
    10030    2    1    2    0    0  0.00000000000E+00  0.00000000000E+00 -0.55470473016E+03  0.40345368341E+04  0.39962219818E+04 0.  0.
        5    1    3    3  502    0  0.30903750794E+03  0.68353271870E+02  0.17144415137E+04  0.17434185226E+04  0.46999998093E+01 0. -1.
       -5    1    3    3    0  502 -0.30903750794E+03 -0.68353271870E+02 -0.22691462439E+04  0.22911183115E+04  0.46999998093E+01 0.  1.
</event>
<event>
 5   0  0.2078125E-09  0.3999991E+04  0.7818609E-02  0.8004548E-01
        1   -1    0    0  501    0  0.00000000000E+00  0.00000000000E+00  0.20182313404E+04  0.20182313404E+04  0.50400001928E-02 0.  1.
       -1   -1    0    0    0  501  0.00000000000E+00  0.00000000000E+00 -0.19819241624E+04  0.19819241624E+04  0.50400001928E-02 0. -1.
    10030    2    1    2    0    0  0.00000000000E+00  0.00000000000E+00  0.36307178078E+02  0.40001555028E+04  0.39999907294E+04 0.  0.
        1    1    3    3  502    0  0.36370212917E+03  0.97134124026E+03 -0.16919456290E+04  0.19845561356E+04  0.50400001928E-02 0. -1.
       -1    1    3    3    0  502 -0.36370212917E+03 -0.97134124026E+03  0.17282528071E+04  0.20155993672E+04  0.50400001928E-02 0.  1.
</event>
<event>
 5   0  0.2078125E-09  0.4001655E+04  0.7818609E-02  0.8004213E-01
       -1   -1    0    0    0  501  0.00000000000E+00  0.00000000000E+00  0.21649876635E+04  0.21649876635E+04  0.50400001928E-02 0.  1.
        1   -1    0    0  501    0  0.00000000000E+00  0.00000000000E+00 -0.18491144606E+04  0.18491144606E+04  0.50400001928E-02 0. -1.
    10030    2    1    2    0    0  0.00000000000E+00  0.00000000000E+00  0.31587320291E+03  0.40141021242E+04  0.40016546556E+04 0.  0.
        4    1    3    3  502    0  0.55288248361E+03 -0.57799347252E+03 -0.16817673519E+04  0.18622831508E+04  0.12699999809E+01 0. -1.
       -4    1    3    3    0  502 -0.55288248361E+03  0.57799347252E+03  0.19976405548E+04  0.21518189734E+04  0.12699999809E+01 0.  1.
</event>
<event>
 5   0  0.6599276E-09  0.3978994E+04  0.7818609E-02  0.8008798E-01
       -2   -1    0    0    0  501  0.00000000000E+00  0.00000000000E+00  0.16467372602E+04  0.16467372602E+04  0.25500000920E-02 0. -1.
        2   -1    0    0  501    0  0.00000000000E+00  0.00000000000E+00 -0.24036006215E+04  0.24036006215E+04  0.25500000920E-02 0.  1.
    10030    2    1    2    0    0  0.00000000000E+00  0.00000000000E+00 -0.75686336134E+03  0.40503378817E+04  0.39789941956E+04 0.  0.
        2    1    3    3  502    0 -0.10799855791E+04  0.80526269033E+03 -0.18686763994E+04  0.23036424065E+04  0.25500000920E-02 0.  1.
       -2    1    3    3    0  502  0.10799855791E+04 -0.80526269033E+03  0.11118130380E+04  0.17466954752E+04  0.25500000920E-02 0. -1.
</event>
<event>
 5   0  0.6736335E-09  0.4000367E+04  0.7818609E-02  0.8004473E-01
        2   -1    0    0  501    0  0.00000000000E+00  0.00000000000E+00  0.23205775240E+04  0.23205775240E+04  0.25500000920E-02 0. -1.
       -2   -1    0    0    0  501  0.00000000000E+00  0.00000000000E+00 -0.17240249256E+04  0.17240249256E+04  0.25500000920E-02 0.  1.
    10030    2    1    2    0    0  0.00000000000E+00  0.00000000000E+00  0.59655259840E+03  0.40446024496E+04  0.40003667297E+04 0.  0.
        1    1    3    3  502    0 -0.21140485021E+02 -0.15975191594E+04 -0.91845077123E+03  0.18428418825E+04  0.50400001928E-02 0.  1.
       -1    1    3    3    0  502  0.21140485021E+02  0.15975191594E+04  0.15150033696E+04  0.22017605671E+04  0.50400001928E-02 0. -1.
</event>
<event>
 5   0  0.6736335E-09  0.4000539E+04  0.7818609E-02  0.8004438E-01
       -2   -1    0    0    0  501  0.00000000000E+00  0.00000000000E+00  0.23648517325E+04  0.23648517325E+04  0.25500000920E-02 0.  1.
        2   -1    0    0  501    0  0.00000000000E+00  0.00000000000E+00 -0.16918942600E+04  0.16918942600E+04  0.25500000920E-02 0. -1.
    10030    2    1    2    0    0  0.00000000000E+00  0.00000000000E+00  0.67295747249E+03  0.40567459925E+04  0.40005394996E+04 0.  0.
        1    1    3    3  502    0 -0.17428920461E+04  0.96059910346E+03  0.54094433185E+03  0.20622909814E+04  0.50400001928E-02 0. -1.
       -1    1    3    3    0  502  0.17428920461E+04 -0.96059910346E+03  0.13201314065E+03  0.19944550111E+04  0.50400001928E-02 0.  1.
</event>
<event>
 5   0  0.2078125E-09  0.4000630E+04  0.7818609E-02  0.8004419E-01
        1   -1    0    0  501    0  0.00000000000E+00  0.00000000000E+00  0.18950863650E+04  0.18950863650E+04  0.50400001928E-02 0. -1.
       -1   -1    0    0    0  501  0.00000000000E+00  0.00000000000E+00 -0.21113866541E+04  0.21113866541E+04  0.50400001928E-02 0.  1.
    10030    2    1    2    0    0  0.00000000000E+00  0.00000000000E+00 -0.21630028907E+03  0.40064730191E+04  0.40006299801E+04 0.  0.
        2    1    3    3  502    0  0.17656810969E+04 -0.93996748847E+03 -0.11772675337E+03  0.20037535287E+04  0.25500000920E-02 0. -1.
       -2    1    3    3    0  502 -0.17656810969E+04  0.93996748847E+03 -0.98573535703E+02  0.20027194904E+04  0.25500000920E-02 0.  1.
</event>
<event>
 5   0  0.6547327E-09  0.4001793E+04  0.7818609E-02  0.8004185E-01
       -2   -1    0    0    0  501  0.00000000000E+00  0.00000000000E+00  0.18812186074E+04  0.18812186074E+04  0.25500000920E-02 0. -1.
        2   -1    0    0  501    0  0.00000000000E+00  0.00000000000E+00 -0.21281875743E+04  0.21281875743E+04  0.25500000920E-02 0.  1.
    10030    2    1    2    0    0  0.00000000000E+00  0.00000000000E+00 -0.24696896692E+03  0.40094061818E+04  0.40017926308E+04 0.  0.
        5    1    3    3  502    0  0.32597875490E+03 -0.52473811474E+03 -0.20302478742E+04  0.21221547442E+04  0.46999998093E+01 0.  1.
       -5    1    3    3    0  502 -0.32597875490E+03  0.52473811474E+03  0.17832789072E+04  0.18872514376E+04  0.46999998093E+01 0. -1.
</event>
<event>
 5   0  0.2078125E-09  0.4000549E+04  0.7818609E-02  0.8004436E-01
        1   -1    0    0  501    0  0.00000000000E+00  0.00000000000E+00  0.17621437527E+04  0.17621437527E+04  0.50400001928E-02 0. -1.
       -1   -1    0    0    0  501  0.00000000000E+00  0.00000000000E+00 -0.22705849484E+04  0.22705849484E+04  0.50400001928E-02 0.  1.
    10030    2    1    2    0    0  0.00000000000E+00  0.00000000000E+00 -0.50844119573E+03  0.40327287010E+04  0.40005485032E+04 0.  0.
        4    1    3    3  502    0 -0.18073354468E+03 -0.11525503689E+04 -0.18921162921E+04  0.22228681119E+04  0.12699999809E+01 0.  1.
       -4    1    3    3    0  502  0.18073354468E+03  0.11525503689E+04  0.13836750964E+04  0.18098605892E+04  0.12699999809E+01 0. -1.
</event>
<event>
 5   0  0.2078125E-09  0.3999369E+04  0.7818609E-02  0.8004674E-01
        1   -1    0    0  501    0  0.00000000000E+00  0.00000000000E+00  0.24110010010E+04  0.24110010010E+04  0.50400001928E-02 0. -1.
       -1   -1    0    0    0  501  0.00000000000E+00  0.00000000000E+00 -0.16585384555E+04  0.16585384555E+04  0.50400001928E-02 0.  1.
    10030    2    1    2    0    0  0.00000000000E+00  0.00000000000E+00  0.75246254547E+03  0.40695394566E+04  0.39993688885E+04 0.  0.
        1    1    3    3  502    0  0.15663743812E+04 -0.10603518754E+04 -0.28389073449E+03  0.19127124068E+04  0.50400001928E-02 0.  1.
       -1    1    3    3    0  502 -0.15663743812E+04  0.10603518754E+04  0.10363532800E+04  0.21568270498E+04  0.50400001928E-02 0. -1.
</event>
<event>
 5   0  0.2078125E-09  0.3981725E+04  0.7818609E-02  0.8008243E-01
        1   -1    0    0  501    0  0.00000000000E+00  0.00000000000E+00  0.18599294184E+04  0.18599294184E+04  0.50400001928E-02 0. -1.
       -1   -1    0    0    0  501  0.00000000000E+00  0.00000000000E+00 -0.21310127947E+04  0.21310127947E+04  0.50400001928E-02 0.  1.
    10030    2    1    2    0    0  0.00000000000E+00  0.00000000000E+00 -0.27108337627E+03  0.39909422131E+04  0.39817249468E+04 0.  0.
        1    1    3    3  502    0 -0.18840484689E+04  0.27145927333E+03 -0.72016251831E+03  0.20351812753E+04  0.50400001928E-02 0.  1.
       -1    1    3    3    0  502  0.18840484689E+04 -0.27145927333E+03  0.44907914203E+03  0.19557609379E+04  0.50400001928E-02 0. -1.
</event>
<event>
 5   0  0.2078125E-09  0.4000529E+04  0.7818609E-02  0.8004440E-01
        1   -1    0    0  501    0  0.00000000000E+00  0.00000000000E+00  0.19832881946E+04  0.19832881946E+04  0.50400001928E-02 0. -1.
       -1   -1    0    0    0  501  0.00000000000E+00  0.00000000000E+00 -0.20173857691E+04  0.20173857691E+04  0.50400001928E-02 0.  1.
    10030    2    1    2    0    0  0.00000000000E+00  0.00000000000E+00 -0.34097574518E+02  0.40006739637E+04  0.40005286549E+04 0.  0.
        2    1    3    3  502    0  0.16455757681E+04 -0.96459635704E+03  0.58521194319E+03  0.19952039392E+04  0.25500000920E-02 0. -1.
       -2    1    3    3    0  502 -0.16455757681E+04  0.96459635704E+03 -0.61930951771E+03  0.20054700245E+04  0.25500000920E-02 0.  1.
</event>
<event>
 5   0  0.2078125E-09  0.3995903E+04  0.7818609E-02  0.8005374E-01
        1   -1    0    0  501    0  0.00000000000E+00  0.00000000000E+00  0.17233944795E+04  0.17233944795E+04  0.50400001928E-02 0.  1.
       -1   -1    0    0    0  501  0.00000000000E+00  0.00000000000E+00 -0.23162489591E+04  0.23162489591E+04  0.50400001928E-02 0. -1.
    10030    2    1    2    0    0  0.00000000000E+00  0.00000000000E+00 -0.59285447960E+03  0.40396434386E+04  0.39959032367E+04 0.  0.
        3    1    3    3  502    0  0.13166772361E+04  0.13320036923E+02 -0.18155381765E+04  0.22427650898E+04  0.10100000352E+00 0. -1.
       -3    1    3    3    0  502 -0.13166772361E+04 -0.13320036923E+02  0.12226836969E+04  0.17968783488E+04  0.10100000352E+00 0.  1.
</event>
<event>
 5   0  0.6645526E-09  0.3999544E+04  0.7818609E-02  0.8004638E-01
       -2   -1    0    0    0  501  0.00000000000E+00  0.00000000000E+00  0.15943360141E+04  0.15943360141E+04  0.25500000920E-02 0.  1.
        2   -1    0    0  501    0  0.00000000000E+00  0.00000000000E+00 -0.25083100073E+04  0.25083100073E+04  0.25500000920E-02 0. -1.
    10030    2    1    2    0    0  0.00000000000E+00  0.00000000000E+00 -0.91397399322E+03  0.41026460215E+04  0.39995444637E+04 0.  0.
        3    1    3    3  502    0 -0.19370553204E+03  0.12372850810E+04 -0.20562450716E+04  0.24076004671E+04  0.10100000352E+00 0. -1.
       -3    1    3    3    0  502  0.19370553204E+03 -0.12372850810E+04  0.11422710783E+04  0.16950455544E+04  0.10100000352E+00 0.  1.
</event>
<event>
 5   0  0.2078125E-09  0.4000390E+04  0.7818609E-02  0.8004468E-01
       -1   -1    0    0    0  501  0.00000000000E+00  0.00000000000E+00  0.23924419811E+04  0.23924419811E+04  0.50400001928E-02 0. -1.
        1   -1    0    0  501    0  0.00000000000E+00  0.00000000000E+00 -0.16722575109E+04  0.16722575110E+04  0.50400001928E-02 0.  1.
    10030    2    1    2    0    0  0.00000000000E+00  0.00000000000E+00  0.72018447014E+03  0.40646994920E+04  0.40003895172E+04 0.  0.
        3    1    3    3  502    0 -0.19809839898E+04 -0.24369936744E+03  0.22725371314E+03  0.20088133836E+04  0.10100000352E+00 0.  1.
       -3    1    3    3    0  502  0.19809839898E+04  0.24369936744E+03  0.49293075700E+03  0.20558861085E+04  0.10100000352E+00 0. -1.
</event>
<event>
 5   0  0.6538370E-09  0.4000696E+04  0.7818609E-02  0.8004406E-01
       -2   -1    0    0    0  501  0.00000000000E+00  0.00000000000E+00  0.16021127289E+04  0.16021127289E+04  0.25500000920E-02 0. -1.
        2   -1    0    0  501    0  0.00000000000E+00  0.00000000000E+00 -0.24975722896E+04  0.24975722896E+04  0.25500000920E-02 0.  1.
    10030    2    1    2    0    0  0.00000000000E+00  0.00000000000E+00 -0.89545956073E+03  0.40996850185E+04  0.40006961176E+04 0.  0.
        4    1    3    3  502    0 -0.16949987749E+04 -0.45103684496E+03  0.53780212401E+03  0.18345811020E+04  0.12699999809E+01 0. -1.
       -4    1    3    3    0  502  0.16949987749E+04  0.45103684496E+03 -0.14332616847E+04  0.22651039164E+04  0.12699999809E+01 0.  1.
</event>
<event>
 5   0  0.6645526E-09  0.4004172E+04  0.7818609E-02  0.8003705E-01
        2   -1    0    0  501    0  0.00000000000E+00  0.00000000000E+00  0.22529450837E+04  0.22529450837E+04  0.25500000920E-02 0.  1.
       -2   -1    0    0    0  501  0.00000000000E+00  0.00000000000E+00 -0.17791594313E+04  0.17791594313E+04  0.25500000920E-02 0. -1.
    10030    2    1    2    0    0  0.00000000000E+00  0.00000000000E+00  0.47378565241E+03  0.40321045150E+04  0.40041720711E+04 0.  0.
        3    1    3    3  502    0  0.32952980751E+02  0.12835838353E+04  0.17837319770E+04  0.21978109876E+04  0.10100000352E+00 0.  1.
       -3    1    3    3    0  502 -0.32952980751E+02 -0.12835838353E+04 -0.13099463246E+04  0.18342935274E+04  0.10100000352E+00 0. -1.
</event>
<event>
 5   0  0.6599276E-09  0.4000318E+04  0.7818609E-02  0.8004482E-01
       -2   -1    0    0    0  501  0.00000000000E+00  0.00000000000E+00  0.24410288494E+04  0.24410288494E+04  0.25500000920E-02 0.  1.
        2   -1    0    0  501    0  0.00000000000E+00  0.00000000000E+00 -0.16389134792E+04  0.16389134792E+04  0.25500000920E-02 0. -1.
    10030    2    1    2    0    0  0.00000000000E+00  0.00000000000E+00  0.80211537023E+03  0.40799423286E+04  0.40003175295E+04 0.  0.
        2    1    3    3  502    0  0.12454938457E+04  0.11356691228E+03  0.19930509528E+04  0.23529565367E+04  0.25500000920E-02 0.  1.
       -2    1    3    3    0  502 -0.12454938457E+04 -0.11356691228E+03 -0.11909355826E+04  0.17269857918E+04  0.25500000920E-02 0. -1.
</event>
<event>
 5   0  0.2078125E-09  0.3999594E+04  0.7818609E-02  0.8004629E-01
       -1   -1    0    0    0  501  0.00000000000E+00  0.00000000000E+00  0.15657448895E+04  0.15657448895E+04  0.50400001928E-02 0. -1.
        1   -1    0    0  501    0  0.00000000000E+00  0.00000000000E+00 -0.25541756642E+04  0.25541756642E+04  0.50400001928E-02 0.  1.
    10030    2    1    2    0    0  0.00000000000E+00  0.00000000000E+00 -0.98843077469E+03  0.41199205538E+04  0.39995937260E+04 0.  0.
        5    1    3    3  502    0  0.17421082821E+04  0.86069213062E+03 -0.98112327400E+03  0.21767767867E+04  0.46999998093E+01 0.  1.
       -5    1    3    3    0  502 -0.17421082821E+04 -0.86069213062E+03 -0.73075006896E+01  0.19431437671E+04  0.46999998093E+01 0. -1.
</event>
<event>
 5   0  0.2078125E-09  0.4001956E+04  0.7818609E-02  0.8004152E-01
       -1   -1    0    0    0  501  0.00000000000E+00  0.00000000000E+00  0.13526908013E+04  0.13526908013E+04  0.50400001928E-02 0.  1.
        1   -1    0    0  501    0  0.00000000000E+00  0.00000000000E+00 -0.29599613765E+04  0.29599613765E+04  0.50400001928E-02 0. -1.
    10030    2    1    2    0    0  0.00000000000E+00  0.00000000000E+00 -0.16072705752E+04  0.43126521778E+04  0.40019557850E+04 0.  0.
        1    1    3    3  502    0 -0.14410150140E+04 -0.97413522055E+03  0.26232544232E+03  0.17590560924E+04  0.50400001928E-02 0.  1.
       -1    1    3    3    0  502  0.14410150140E+04  0.97413522055E+03 -0.18695960175E+04  0.25535960854E+04  0.50400001928E-02 0. -1.
</event>
<event>
 5   0  0.6538370E-09  0.3999168E+04  0.7818609E-02  0.8004714E-01
       -2   -1    0    0    0  501  0.00000000000E+00  0.00000000000E+00  0.13681210138E+04  0.13681210138E+04  0.25500000920E-02 0.  1.
        2   -1    0    0  501    0  0.00000000000E+00  0.00000000000E+00 -0.29225022324E+04  0.29225022324E+04  0.25500000920E-02 0. -1.
    10030    2    1    2    0    0  0.00000000000E+00  0.00000000000E+00 -0.15543812186E+04  0.42906232462E+04  0.39991682720E+04 0.  0.
        4    1    3    3  502    0  0.36444795376E+03  0.38127145404E+03 -0.28465247812E+04  0.28949775777E+04  0.12699999809E+01 0. -1.
       -4    1    3    3    0  502 -0.36444795376E+03 -0.38127145404E+03  0.12921435626E+04  0.13956456685E+04  0.12699999809E+01 0.  1.
</event>
<event>
 5   0  0.6538370E-09  0.3998976E+04  0.7818609E-02  0.8004753E-01
       -2   -1    0    0    0  501  0.00000000000E+00  0.00000000000E+00  0.17026086359E+04  0.17026086359E+04  0.25500000920E-02 0. -1.
        2   -1    0    0  501    0  0.00000000000E+00  0.00000000000E+00 -0.23481333884E+04  0.23481333884E+04  0.25500000920E-02 0.  1.
    10030    2    1    2    0    0  0.00000000000E+00  0.00000000000E+00 -0.64552475247E+03  0.40507420243E+04  0.39989759615E+04 0.  0.
        4    1    3    3  502    0  0.10376761598E+04 -0.16028787195E+04  0.27817824885E+03  0.19296053361E+04  0.12699999809E+01 0. -1.
       -4    1    3    3    0  502 -0.10376761598E+04  0.16028787195E+04 -0.92370300132E+03  0.21211366881E+04  0.12699999809E+01 0.  1.
</event>
<event>
 5   0  0.6547327E-09  0.3979073E+04  0.7818609E-02  0.8008781E-01
       -2   -1    0    0    0  501  0.00000000000E+00  0.00000000000E+00  0.19276041252E+04  0.19276041252E+04  0.25500000920E-02 0.  1.
        2   -1    0    0  501    0  0.00000000000E+00  0.00000000000E+00 -0.20534589458E+04  0.20534589458E+04  0.25500000920E-02 0. -1.
    10030    2    1    2    0    0  0.00000000000E+00  0.00000000000E+00 -0.12585482065E+03  0.39810630710E+04  0.39790732262E+04 0.  0.
        5    1    3    3  502    0 -0.15385584062E+03 -0.35314373542E+03 -0.20157876516E+04  0.20522680293E+04  0.46999998093E+01 0. -1.
       -5    1    3    3    0  502  0.15385584062E+03  0.35314373542E+03  0.18899328310E+04  0.19287950418E+04  0.46999998093E+01 0.  1.
</event>
<event>
 5   0  0.6645526E-09  0.3997502E+04  0.7818609E-02  0.8005051E-01
       -2   -1    0    0    0  501  0.00000000000E+00  0.00000000000E+00  0.18283117463E+04  0.18283117463E+04  0.25500000920E-02 0.  1.
        2   -1    0    0  501    0  0.00000000000E+00  0.00000000000E+00 -0.21850793580E+04  0.21850793580E+04  0.25500000920E-02 0. -1.
    10030    2    1    2    0    0  0.00000000000E+00  0.00000000000E+00 -0.35676761172E+03  0.40133911043E+04  0.39975023487E+04 0.  0.
        3    1    3    3  502    0  0.17944453890E+04 -0.85651017526E+03  0.25801817282E+02  0.19885446132E+04  0.10100000352E+00 0. -1.
       -3    1    3    3    0  502 -0.17944453890E+04  0.85651017526E+03 -0.38256942900E+03  0.20248464912E+04  0.10100000352E+00 0.  1.
</event>
<event>
 5   0  0.6538370E-09  0.4000719E+04  0.7818609E-02  0.8004401E-01
       -2   -1    0    0    0  501  0.00000000000E+00  0.00000000000E+00  0.18868112872E+04  0.18868112872E+04  0.25500000920E-02 0.  1.
        2   -1    0    0  501    0  0.00000000000E+00  0.00000000000E+00 -0.21207412863E+04  0.21207412863E+04  0.25500000920E-02 0. -1.
    10030    2    1    2    0    0  0.00000000000E+00  0.00000000000E+00 -0.23392999918E+03  0.40075525735E+04  0.40007192335E+04 0.  0.
        4    1    3    3  502    0  0.20002447629E+04 -0.90346678093E+01 -0.13639521165E+03  0.20049104726E+04  0.12699999809E+01 0. -1.
       -4    1    3    3    0  502 -0.20002447629E+04  0.90346678093E+01 -0.97534787525E+02  0.20026421009E+04  0.12699999809E+01 0.  1.
</event>
<event>
 5   0  0.2078125E-09  0.3999929E+04  0.7818609E-02  0.8004561E-01
        1   -1    0    0  501    0  0.00000000000E+00  0.00000000000E+00  0.20769979825E+04  0.20769979825E+04  0.50400001928E-02 0.  1.
       -1   -1    0    0    0  501  0.00000000000E+00  0.00000000000E+00 -0.19257885608E+04  0.19257885608E+04  0.50400001928E-02 0. -1.
    10030    2    1    2    0    0  0.00000000000E+00  0.00000000000E+00  0.15120942170E+03  0.40027865433E+04  0.39999294771E+04 0.  0.
        5    1    3    3  502    0  0.10423625646E+04 -0.15426158077E+04 -0.65543307672E+03  0.19737775595E+04  0.46999998093E+01 0. -1.
       -5    1    3    3    0  502 -0.10423625646E+04  0.15426158077E+04  0.80664249843E+03  0.20290089838E+04  0.46999998093E+01 0.  1.
</event>
<event>
 5   0  0.2078125E-09  0.4000126E+04  0.7818609E-02  0.8004521E-01
        1   -1    0    0  501    0  0.00000000000E+00  0.00000000000E+00  0.18763438083E+04  0.18763438083E+04  0.50400001928E-02 0.  1.
       -1   -1    0    0    0  501  0.00000000000E+00  0.00000000000E+00 -0.21319403027E+04  0.21319403027E+04  0.50400001928E-02 0. -1.
    10030    2    1    2    0    0  0.00000000000E+00  0.00000000000E+00 -0.25559649438E+03  0.40082841109E+04  0.40001264912E+04 0.  0.
        2    1    3    3  502    0  0.17557478360E+03 -0.19066818519E+04 -0.70689619093E+03  0.20410694289E+04  0.25500000920E-02 0. -1.
       -2    1    3    3    0  502 -0.17557478360E+03  0.19066818519E+04  0.45129969654E+03  0.19672146820E+04  0.25500000920E-02 0.  1.
</event>
<event>
 5   0  0.6538370E-09  0.4000752E+04  0.7818609E-02  0.8004395E-01
       -2   -1    0    0    0  501  0.00000000000E+00  0.00000000000E+00  0.17347391298E+04  0.17347391298E+04  0.25500000920E-02 0. -1.
        2   -1    0    0  501    0  0.00000000000E+00  0.00000000000E+00 -0.23066895184E+04  0.23066895184E+04  0.25500000920E-02 0.  1.
    10030    2    1    2    0    0  0.00000000000E+00  0.00000000000E+00 -0.57195038859E+03  0.40414286482E+04  0.40007522133E+04 0.  0.
        4    1    3    3  502    0  0.16983012695E+04 -0.95443925377E+03 -0.74481962727E+03  0.20856508292E+04  0.12699999809E+01 0.  1.
       -4    1    3    3    0  502 -0.16983012695E+04  0.95443925377E+03  0.17286923869E+03  0.19557778191E+04  0.12699999809E+01 0. -1.
</event>
<event>
 5   0  0.6645526E-09  0.3999914E+04  0.7818609E-02  0.8004564E-01
       -2   -1    0    0    0  501  0.00000000000E+00  0.00000000000E+00  0.18659015952E+04  0.18659015952E+04  0.25500000920E-02 0. -1.
        2   -1    0    0  501    0  0.00000000000E+00  0.00000000000E+00 -0.21436433221E+04  0.21436433221E+04  0.25500000920E-02 0.  1.
    10030    2    1    2    0    0  0.00000000000E+00  0.00000000000E+00 -0.27774172686E+03  0.40095449173E+04  0.39999137462E+04 0.  0.
        3    1    3    3  502    0 -0.13730841568E+04 -0.96195633310E+03  0.95421680981E+03  0.19290541254E+04  0.10100000352E+00 0. -1.
       -3    1    3    3    0  502  0.13730841568E+04  0.96195633310E+03 -0.12319585367E+04  0.20804907918E+04  0.10100000352E+00 0.  1.
</event>
<event>
 5   0  0.6599276E-09  0.4000383E+04  0.7818609E-02  0.8004469E-01
       -2   -1    0    0    0  501  0.00000000000E+00  0.00000000000E+00  0.14491201272E+04  0.14491201272E+04  0.25500000920E-02 0.  1.
        2   -1    0    0  501    0  0.00000000000E+00  0.00000000000E+00 -0.27608245646E+04  0.27608245646E+04  0.25500000920E-02 0. -1.
    10030    2    1    2    0    0  0.00000000000E+00  0.00000000000E+00 -0.13117044374E+04  0.42099446918E+04  0.40003832038E+04 0.  0.
        2    1    3    3  502    0  0.14951237901E+04  0.78861777539E+03 -0.17811928805E+04  0.24555979355E+04  0.25500000920E-02 0. -1.
       -2    1    3    3    0  502 -0.14951237901E+04 -0.78861777539E+03  0.46948844307E+03  0.17543467563E+04  0.25500000920E-02 0.  1.
</event>
<event>
 5   0  0.6538370E-09  0.3999093E+04  0.7818609E-02  0.8004730E-01
       -2   -1    0    0    0  501  0.00000000000E+00  0.00000000000E+00  0.28976263028E+04  0.28976263028E+04  0.25500000920E-02 0.  1.
        2   -1    0    0  501    0  0.00000000000E+00  0.00000000000E+00 -0.13798144440E+04  0.13798144440E+04  0.25500000920E-02 0. -1.
    10030    2    1    2    0    0  0.00000000000E+00  0.00000000000E+00  0.15178118588E+04  0.42774407468E+04  0.39990932102E+04 0.  0.
        4    1    3    3  502    0 -0.91202151809E+03 -0.94579069771E+03  0.23710926293E+04  0.27107905052E+04  0.12699999809E+01 0.  1.
       -4    1    3    3    0  502  0.91202151809E+03  0.94579069771E+03 -0.85328077053E+03  0.15666502416E+04  0.12699999809E+01 0. -1.
</event>
<event>
 5   0  0.2078125E-09  0.3999617E+04  0.7818609E-02  0.8004624E-01
        1   -1    0    0  501    0  0.00000000000E+00  0.00000000000E+00  0.17142844737E+04  0.17142844737E+04  0.50400001928E-02 0.  1.
       -1   -1    0    0    0  501  0.00000000000E+00  0.00000000000E+00 -0.23328885331E+04  0.23328885331E+04  0.50400001928E-02 0. -1.
    10030    2    1    2    0    0  0.00000000000E+00  0.00000000000E+00 -0.61860405942E+03  0.40471730068E+04  0.39996172773E+04 0.  0.
        1    1    3    3  502    0 -0.14053212335E+04 -0.43798040281E+03  0.10604846997E+04  0.18142167458E+04  0.50400001928E-02 0.  1.
       -1    1    3    3    0  502  0.14053212335E+04  0.43798040281E+03 -0.16790887592E+04  0.22329562610E+04  0.50400001928E-02 0. -1.
</event>
<event>
 5   0  0.6599276E-09  0.4000574E+04  0.7818609E-02  0.8004431E-01
       -2   -1    0    0    0  501  0.00000000000E+00  0.00000000000E+00  0.20330550602E+04  0.20330550602E+04  0.25500000920E-02 0. -1.
        2   -1    0    0  501    0  0.00000000000E+00  0.00000000000E+00 -0.19680472708E+04  0.19680472708E+04  0.25500000920E-02 0.  1.
    10030    2    1    2    0    0  0.00000000000E+00  0.00000000000E+00  0.65007789387E+02  0.40011023309E+04  0.40005741900E+04 0.  0.
        2    1    3    3  502    0 -0.71264371878E+03 -0.12709373354E+04  0.14030882844E+04  0.20228196940E+04  0.25500000920E-02 0. -1.
       -2    1    3    3    0  502  0.71264371878E+03  0.12709373354E+04 -0.13380804951E+04  0.19782826370E+04  0.25500000920E-02 0.  1.
</event>
<event>
 5   0  0.2078125E-09  0.3999085E+04  0.7818609E-02  0.8004731E-01
        1   -1    0    0  501    0  0.00000000000E+00  0.00000000000E+00  0.14820187881E+04  0.14820187881E+04  0.50400001928E-02 0.  1.
       -1   -1    0    0    0  501  0.00000000000E+00  0.00000000000E+00 -0.26977865791E+04  0.26977865791E+04  0.50400001928E-02 0. -1.
    10030    2    1    2    0    0  0.00000000000E+00  0.00000000000E+00 -0.12157677911E+04  0.41798053672E+04  0.39990850936E+04 0.  0.
        5    1    3    3  502    0  0.86571255164E+03 -0.16794182838E+04  0.76092660133E+02  0.18909564186E+04  0.46999998093E+01 0.  1.
       -5    1    3    3    0  502 -0.86571255164E+03  0.16794182838E+04 -0.12918604512E+04  0.22888489486E+04  0.46999998093E+01 0. -1.
</event>
<event>
 5   0  0.2078125E-09  0.3998946E+04  0.7818609E-02  0.8004759E-01
        1   -1    0    0  501    0  0.00000000000E+00  0.00000000000E+00  0.30446938565E+04  0.30446938565E+04  0.50400001928E-02 0. -1.
       -1   -1    0    0    0  501  0.00000000000E+00  0.00000000000E+00 -0.13130685044E+04  0.13130685044E+04  0.50400001928E-02 0.  1.
    10030    2    1    2    0    0  0.00000000000E+00  0.00000000000E+00  0.17316253521E+04  0.43577623609E+04  0.39989456653E+04 0.  0.
        3    1    3    3  502    0  0.50149218141E+03  0.18211999951E+04  0.15153971210E+03  0.18950535941E+04  0.10100000352E+00 0.  1.
       -3    1    3    3    0  502 -0.50149218141E+03 -0.18211999951E+04  0.15800856400E+04  0.24627087667E+04  0.10100000352E+00 0. -1.
</event>
<event>
 5   0  0.6547327E-09  0.3999322E+04  0.7818609E-02  0.8004683E-01
       -2   -1    0    0    0  501  0.00000000000E+00  0.00000000000E+00  0.19951001339E+04  0.19951001339E+04  0.25500000920E-02 0. -1.
        2   -1    0    0  501    0  0.00000000000E+00  0.00000000000E+00 -0.20042322036E+04  0.20042322036E+04  0.25500000920E-02 0.  1.
    10030    2    1    2    0    0  0.00000000000E+00  0.00000000000E+00 -0.91320697305E+01  0.39993323375E+04  0.39993219114E+04 0.  0.
        5    1    3    3  502    0 -0.12480691786E+04 -0.55192283654E+03 -0.14661875640E+04  0.20030036333E+04  0.46999998093E+01 0.  1.
       -5    1    3    3    0  502  0.12480691786E+04  0.55192283654E+03  0.14570554943E+04  0.19963287043E+04  0.46999998093E+01 0. -1.
</event>
<event>
 5   0  0.2078125E-09  0.3996231E+04  0.7818609E-02  0.8005307E-01
       -1   -1    0    0    0  501  0.00000000000E+00  0.00000000000E+00  0.16673361578E+04  0.16673361578E+04  0.50400001928E-02 0. -1.
        1   -1    0    0  501    0  0.00000000000E+00  0.00000000000E+00 -0.23945179052E+04  0.23945179052E+04  0.50400001928E-02 0.  1.
    10030    2    1    2    0    0  0.00000000000E+00  0.00000000000E+00 -0.72718174737E+03  0.40618540630E+04  0.39962313666E+04 0.  0.
        5    1    3    3  502    0 -0.18455585723E+03  0.19874936961E+04 -0.45592386806E+03  0.20474571351E+04  0.46999998093E+01 0.  1.
       -5    1    3    3    0  502  0.18455585723E+03 -0.19874936961E+04 -0.27125787930E+03  0.20143969280E+04  0.46999998093E+01 0. -1.
</event>
<event>
 5   0  0.6645526E-09  0.4000163E+04  0.7818609E-02  0.8004514E-01
        2   -1    0    0  501    0  0.00000000000E+00  0.00000000000E+00  0.12118785512E+04  0.12118785512E+04  0.25500000920E-02 0.  1.
       -2   -1    0    0    0  501  0.00000000000E+00  0.00000000000E+00 -0.33009294931E+04  0.33009294931E+04  0.25500000920E-02 0. -1.
    10030    2    1    2    0    0  0.00000000000E+00  0.00000000000E+00 -0.20890509419E+04  0.45128080443E+04  0.40001628225E+04 0.  0.
        3    1    3    3  502    0 -0.19851014759E+04  0.23292451627E+03 -0.96128665169E+03  0.22178714428E+04  0.10100000352E+00 0.  1.
       -3    1    3    3    0  502  0.19851014759E+04 -0.23292451627E+03 -0.11277642902E+04  0.22949366014E+04  0.10100000352E+00 0. -1.
</event>
<event>
 5   0  0.2078125E-09  0.4001620E+04  0.7818609E-02  0.8004220E-01
       -1   -1    0    0    0  501  0.00000000000E+00  0.00000000000E+00  0.17940783914E+04  0.17940783914E+04  0.50400001928E-02 0. -1.
        1   -1    0    0  501    0  0.00000000000E+00  0.00000000000E+00 -0.22313637732E+04  0.22313637732E+04  0.50400001928E-02 0.  1.
    10030    2    1    2    0    0  0.00000000000E+00  0.00000000000E+00 -0.43728538178E+03  0.40254421647E+04  0.40016204363E+04 0.  0.
        1    1    3    3  502    0 -0.84427281266E+03  0.46735685915E+03 -0.19817952670E+04  0.22042530472E+04  0.50400001928E-02 0.  1.
       -1    1    3    3    0  502  0.84427281266E+03 -0.46735685915E+03  0.15445098852E+04  0.18211891174E+04  0.50400001928E-02 0. -1.
</event>
<event>
 5   0  0.2078125E-09  0.3997825E+04  0.7818609E-02  0.8004985E-01
        1   -1    0    0  501    0  0.00000000000E+00  0.00000000000E+00  0.24779484098E+04  0.24779484098E+04  0.50400001928E-02 0. -1.
       -1   -1    0    0    0  501  0.00000000000E+00  0.00000000000E+00 -0.16124836705E+04  0.16124836705E+04  0.50400001928E-02 0.  1.
    10030    2    1    2    0    0  0.00000000000E+00  0.00000000000E+00  0.86546473934E+03  0.40904320803E+04  0.39978250823E+04 0.  0.
        5    1    3    3  502    0 -0.36916514037E+03 -0.15002882800E+04 -0.86490523761E+03  0.17706583476E+04  0.46999998093E+01 0.  1.
       -5    1    3    3    0  502  0.36916514037E+03  0.15002882800E+04  0.17303699770E+04  0.23197737327E+04  0.46999998093E+01 0. -1.
</event>
<event>
 5   0  0.6645526E-09  0.4000187E+04  0.7818609E-02  0.8004509E-01
       -2   -1    0    0    0  501  0.00000000000E+00  0.00000000000E+00  0.32198620368E+04  0.32198620368E+04  0.25500000920E-02 0. -1.
        2   -1    0    0  501    0  0.00000000000E+00  0.00000000000E+00 -0.12424051582E+04  0.12424051583E+04  0.25500000920E-02 0.  1.
    10030    2    1    2    0    0  0.00000000000E+00  0.00000000000E+00  0.19774568786E+04  0.44622671951E+04  0.40001865973E+04 0.  0.
        3    1    3    3  502    0  0.29653760650E+03 -0.19101163365E+04  0.41568141446E+03  0.19771874013E+04  0.10100000352E+00 0.  1.
       -3    1    3    3    0  502 -0.29653760650E+03  0.19101163365E+04  0.15617754641E+04  0.24850797938E+04  0.10100000352E+00 0. -1.
</event>
<event>
 5   0  0.6547327E-09  0.3975058E+04  0.7818609E-02  0.8009597E-01
       -2   -1    0    0    0  501  0.00000000000E+00  0.00000000000E+00  0.15881516497E+04  0.15881516497E+04  0.25500000920E-02 0. -1.
        2   -1    0    0  501    0  0.00000000000E+00  0.00000000000E+00 -0.24873389211E+04  0.24873389211E+04  0.25500000920E-02 0.  1.
    10030    2    1    2    0    0  0.00000000000E+00  0.00000000000E+00 -0.89918727141E+03  0.40754905708E+04  0.39750579421E+04 0.  0.
        5    1    3    3  502    0 -0.57943497813E+03  0.56075910424E+03 -0.23120964156E+04  0.24486746603E+04  0.46999998093E+01 0.  1.
       -5    1    3    3    0  502  0.57943497813E+03 -0.56075910424E+03  0.14129091442E+04  0.16268159105E+04  0.46999998093E+01 0. -1.
</event>
<event>
 5   0  0.6547327E-09  0.4001661E+04  0.7818609E-02  0.8004211E-01
       -2   -1    0    0    0  501  0.00000000000E+00  0.00000000000E+00  0.15523377413E+04  0.15523377413E+04  0.25500000920E-02 0. -1.
        2   -1    0    0  501    0  0.00000000000E+00  0.00000000000E+00 -0.25788998506E+04  0.25788998506E+04  0.25500000920E-02 0.  1.
    10030    2    1    2    0    0  0.00000000000E+00  0.00000000000E+00 -0.10265621093E+04  0.41312375919E+04  0.40016614395E+04 0.  0.
        5    1    3    3  502    0  0.16168865804E+04 -0.37844489484E+03  0.63899569565E+03  0.17792920900E+04  0.46999998093E+01 0. -1.
       -5    1    3    3    0  502 -0.16168865804E+04  0.37844489484E+03 -0.16655578050E+04  0.23519455019E+04  0.46999998093E+01 0.  1.
</event>
<event>
 5   0  0.2078125E-09  0.3998457E+04  0.7818609E-02  0.8004858E-01
       -1   -1    0    0    0  501  0.00000000000E+00  0.00000000000E+00  0.17637238398E+04  0.17637238398E+04  0.50400001928E-02 0.  1.
        1   -1    0    0  501    0  0.00000000000E+00  0.00000000000E+00 -0.22661792461E+04  0.22661792461E+04  0.50400001928E-02 0. -1.
    10030    2    1    2    0    0  0.00000000000E+00  0.00000000000E+00 -0.50245540624E+03  0.40299030859E+04  0.39984568832E+04 0.  0.
        4    1    3    3  502    0 -0.13031952417E+04 -0.10747736572E+04  0.82650734888E+03  0.18805776407E+04  0.12699999809E+01 0.  1.
       -4    1    3    3    0  502  0.13031952417E+04  0.10747736572E+04 -0.13289627551E+04  0.21493254452E+04  0.12699999809E+01 0. -1.
</event>
<event>
 5   0  0.2078125E-09  0.3997710E+04  0.7818609E-02  0.8005009E-01
        1   -1    0    0  501    0  0.00000000000E+00  0.00000000000E+00  0.15500846083E+04  0.15500846084E+04  0.50400001928E-02 0.  1.
       -1   -1    0    0    0  501  0.00000000000E+00  0.00000000000E+00 -0.25775498478E+04  0.25775498478E+04  0.50400001928E-02 0. -1.
    10030    2    1    2    0    0  0.00000000000E+00  0.00000000000E+00 -0.10274652395E+04  0.41276344562E+04  0.39977095174E+04 0.  0.
        4    1    3    3  502    0  0.34738290784E+03 -0.10585063724E+04 -0.22272805446E+04  0.24903595849E+04  0.12699999809E+01 0. -1.
       -4    1    3    3    0  502 -0.34738290784E+03  0.10585063724E+04  0.11998153051E+04  0.16372748713E+04  0.12699999809E+01 0.  1.
</event>
<event>
 5   0  0.2078125E-09  0.4000457E+04  0.7818609E-02  0.8004454E-01
        1   -1    0    0  501    0  0.00000000000E+00  0.00000000000E+00  0.20638082789E+04  0.20638082789E+04  0.50400001928E-02 0. -1.
       -1   -1    0    0    0  501  0.00000000000E+00  0.00000000000E+00 -0.19386075653E+04  0.19386075654E+04  0.50400001928E-02 0.  1.
    10030    2    1    2    0    0  0.00000000000E+00  0.00000000000E+00  0.12520071353E+03  0.40024158442E+04  0.40004571453E+04 0.  0.
        3    1    3    3  502    0 -0.11750562541E+03 -0.31114692278E+03 -0.19107482713E+04  0.19394790399E+04  0.10100000352E+00 0.  1.
       -3    1    3    3    0  502  0.11750562541E+03  0.31114692278E+03  0.20359489849E+04  0.20629368043E+04  0.10100000352E+00 0. -1.
</event>
<event>
 5   0  0.2078125E-09  0.4003487E+04  0.7818609E-02  0.8003844E-01
       -1   -1    0    0    0  501  0.00000000000E+00  0.00000000000E+00  0.27607357044E+04  0.27607357044E+04  0.50400001928E-02 0.  1.
        1   -1    0    0  501    0  0.00000000000E+00  0.00000000000E+00 -0.14514162176E+04  0.14514162176E+04  0.50400001928E-02 0. -1.
    10030    2    1    2    0    0  0.00000000000E+00  0.00000000000E+00  0.13093194869E+04  0.42121519220E+04  0.40034867672E+04 0.  0.
        1    1    3    3  502    0 -0.73778944286E+03  0.64739381972E+03 -0.11808387580E+04  0.15355234262E+04  0.50400001928E-02 0. -1.
       -1    1    3    3    0  502  0.73778944286E+03 -0.64739381972E+03  0.24901582449E+04  0.26766284958E+04  0.50400001928E-02 0.  1.
</event>
<event>
 5   0  0.6645526E-09  0.3980638E+04  0.7818609E-02  0.8008464E-01
        2   -1    0    0  501    0  0.00000000000E+00  0.00000000000E+00  0.22287537008E+04  0.22287537008E+04  0.25500000920E-02 0.  1.
       -2   -1    0    0    0  501  0.00000000000E+00  0.00000000000E+00 -0.17773922825E+04  0.17773922826E+04  0.25500000920E-02 0. -1.
    10030    2    1    2    0    0  0.00000000000E+00  0.00000000000E+00  0.45136141824E+03  0.40061459833E+04  0.39806379526E+04 0.  0.
        3    1    3    3  502    0 -0.20150063316E+03 -0.25273997188E+03 -0.17508005303E+04  0.17803883019E+04  0.10100000352E+00 0. -1.
       -3    1    3    3    0  502  0.20150063316E+03  0.25273997188E+03  0.22021619485E+04  0.22257576814E+04  0.10100000352E+00 0.  1.
</event>
<event>
 5   0  0.6547327E-09  0.4000839E+04  0.7818609E-02  0.8004377E-01
       -2   -1    0    0    0  501  0.00000000000E+00  0.00000000000E+00  0.31648079048E+04  0.31648079048E+04  0.25500000920E-02 0.  1.
        2   -1    0    0  501    0  0.00000000000E+00  0.00000000000E+00 -0.12644299404E+04  0.12644299404E+04  0.25500000920E-02 0. -1.
    10030    2    1    2    0    0  0.00000000000E+00  0.00000000000E+00  0.19003779644E+04  0.44292378452E+04  0.40008388473E+04 0.  0.
        5    1    3    3  502    0 -0.16765707227E+04  0.54225867955E+02  0.21567640516E+04  0.27323036247E+04  0.46999998093E+01 0.  1.
       -5    1    3    3    0  502  0.16765707227E+04 -0.54225867955E+02 -0.25638608723E+03  0.16969342205E+04  0.46999998093E+01 0. -1.
</event>
<event>
 5   0  0.6547327E-09  0.3999080E+04  0.7818609E-02  0.8004732E-01
       -2   -1    0    0    0  501  0.00000000000E+00  0.00000000000E+00  0.25188705918E+04  0.25188705918E+04  0.25500000920E-02 0.  1.
        2   -1    0    0  501    0  0.00000000000E+00  0.00000000000E+00 -0.15872826635E+04  0.15872826635E+04  0.25500000920E-02 0. -1.
    10030    2    1    2    0    0  0.00000000000E+00  0.00000000000E+00  0.93158792822E+03  0.41061532553E+04  0.39990797051E+04 0.  0.
        5    1    3    3  502    0  0.66882797036E+02  0.51451700114E+03  0.24485422690E+04  0.25029147780E+04  0.46999998093E+01 0.  1.
       -5    1    3    3    0  502 -0.66882797036E+02 -0.51451700114E+03 -0.15169543408E+04  0.16032384773E+04  0.46999998093E+01 0. -1.
</event>
<event>
 5   0  0.2078125E-09  0.3999957E+04  0.7818609E-02  0.8004555E-01
       -1   -1    0    0    0  501  0.00000000000E+00  0.00000000000E+00  0.20935162310E+04  0.20935162310E+04  0.50400001928E-02 0.  1.
        1   -1    0    0  501    0  0.00000000000E+00  0.00000000000E+00 -0.19106202335E+04  0.19106202335E+04  0.50400001928E-02 0. -1.
    10030    2    1    2    0    0  0.00000000000E+00  0.00000000000E+00  0.18289599750E+03  0.40041364646E+04  0.39999572349E+04 0.  0.
        1    1    3    3  502    0  0.54165575989E+03  0.75903605736E+02  0.20171944620E+04  0.20900300996E+04  0.50400001928E-02 0.  1.
       -1    1    3    3    0  502 -0.54165575989E+03 -0.75903605736E+02 -0.18342984645E+04  0.19141063650E+04  0.50400001928E-02 0. -1.
</event>
<event>
 5   0  0.6736335E-09  0.4000190E+04  0.7818609E-02  0.8004508E-01
        2   -1    0    0  501    0  0.00000000000E+00  0.00000000000E+00  0.27591668451E+04  0.27591668451E+04  0.25500000920E-02 0. -1.
       -2   -1    0    0    0  501  0.00000000000E+00  0.00000000000E+00 -0.14498508092E+04  0.14498508092E+04  0.25500000920E-02 0.  1.
    10030    2    1    2    0    0  0.00000000000E+00  0.00000000000E+00  0.13093160358E+04  0.42090176543E+04  0.40001901371E+04 0.  0.
        1    1    3    3  502    0 -0.84179238454E+03  0.13099535741E+04 -0.66617810564E+03  0.16936310264E+04  0.50400001928E-02 0.  1.
       -1    1    3    3    0  502  0.84179238454E+03 -0.13099535741E+04  0.19754941415E+04  0.25153866280E+04  0.50400001928E-02 0. -1.
</event>
<event>
 5   0  0.6736335E-09  0.4005428E+04  0.7818609E-02  0.8003452E-01
       -2   -1    0    0    0  501  0.00000000000E+00  0.00000000000E+00  0.28064910801E+04  0.28064910801E+04  0.25500000920E-02 0. -1.
        2   -1    0    0  501    0  0.00000000000E+00  0.00000000000E+00 -0.14291379512E+04  0.14291379512E+04  0.25500000920E-02 0.  1.
    10030    2    1    2    0    0  0.00000000000E+00  0.00000000000E+00  0.13773531288E+04  0.42356290313E+04  0.40054277736E+04 0.  0.
        1    1    3    3  502    0  0.19545129881E+04  0.43373374850E+03  0.63458060456E+03  0.21002234474E+04  0.50400001928E-02 0. -1.
       -1    1    3    3    0  502 -0.19545129881E+04 -0.43373374850E+03  0.74277252426E+03  0.21354055840E+04  0.50400001928E-02 0.  1.
</event>
<event>
 5   0  0.2078125E-09  0.3998483E+04  0.7818609E-02  0.8004853E-01
       -1   -1    0    0    0  501  0.00000000000E+00  0.00000000000E+00  0.21971706017E+04  0.21971706017E+04  0.50400001928E-02 0. -1.
        1   -1    0    0  501    0  0.00000000000E+00  0.00000000000E+00 -0.18191426805E+04  0.18191426805E+04  0.50400001928E-02 0.  1.
    10030    2    1    2    0    0  0.00000000000E+00  0.00000000000E+00  0.37802792116E+03  0.40163132822E+04  0.39984831213E+04 0.  0.
        3    1    3    3  502    0  0.23757733288E+03  0.13370196844E+04 -0.12848060994E+04  0.18694361045E+04  0.10100000352E+00 0.  1.
       -3    1    3    3    0  502 -0.23757733288E+03 -0.13370196844E+04  0.16628340206E+04  0.21468771776E+04  0.10100000352E+00 0. -1.
</event>
<event>
 5   0  0.6538370E-09  0.4000154E+04  0.7818609E-02  0.8004515E-01
        2   -1    0    0  501    0  0.00000000000E+00  0.00000000000E+00  0.18029866226E+04  0.18029866226E+04  0.25500000920E-02 0.  1.
       -2   -1    0    0    0  501  0.00000000000E+00  0.00000000000E+00 -0.22187120913E+04  0.22187120913E+04  0.25500000920E-02 0. -1.
    10030    2    1    2    0    0  0.00000000000E+00  0.00000000000E+00 -0.41572546869E+03  0.40216987139E+04  0.40001541070E+04 0.  0.
        4    1    3    3  502    0  0.63920161893E+03  0.17745833664E+04 -0.87671402827E+03  0.20799889264E+04  0.12699999809E+01 0.  1.
       -4    1    3    3    0  502 -0.63920161893E+03 -0.17745833664E+04  0.46098855958E+03  0.19417097875E+04  0.12699999809E+01 0. -1.
</event>
<event>
 5   0  0.2078125E-09  0.3999493E+04  0.7818609E-02  0.8004649E-01
        1   -1    0    0  501    0  0.00000000000E+00  0.00000000000E+00  0.18393922009E+04  0.18393922009E+04  0.50400001928E-02 0.  1.
       -1   -1    0    0    0  501  0.00000000000E+00  0.00000000000E+00 -0.21740797015E+04  0.21740797015E+04  0.50400001928E-02 0. -1.
    10030    2    1    2    0    0  0.00000000000E+00  0.00000000000E+00 -0.33468750060E+03  0.40134719023E+04  0.39994925913E+04 0.  0.
        2    1    3    3  502    0 -0.91491461237E+03 -0.13575472440E+04  0.98513986888E+03  0.19106291710E+04  0.25500000920E-02 0.  1.
       -2    1    3    3    0  502  0.91491461237E+03  0.13575472440E+04 -0.13198273695E+04  0.21028427314E+04  0.25500000920E-02 0. -1.
</event>
<event>
 5   0  0.6599276E-09  0.4000563E+04  0.7818609E-02  0.8004433E-01
       -2   -1    0    0    0  501  0.00000000000E+00  0.00000000000E+00  0.28510263370E+04  0.28510263370E+04  0.25500000920E-02 0. -1.
        2   -1    0    0  501    0  0.00000000000E+00  0.00000000000E+00 -0.14033988290E+04  0.14033988290E+04  0.25500000920E-02 0.  1.
    10030    2    1    2    0    0  0.00000000000E+00  0.00000000000E+00  0.14476275080E+04  0.42544251660E+04  0.40005634717E+04 0.  0.
        2    1    3    3  502    0  0.55676573374E+03  0.19057696106E+04  0.46510486136E+03  0.20391832735E+04  0.25500000920E-02 0. -1.
       -2    1    3    3    0  502 -0.55676573374E+03 -0.19057696106E+04  0.98252264666E+03  0.22152418925E+04  0.25500000920E-02 0.  1.
</event>
<event>
 5   0  0.2078125E-09  0.3998023E+04  0.7818609E-02  0.8004945E-01
       -1   -1    0    0    0  501  0.00000000000E+00  0.00000000000E+00  0.17488492044E+04  0.17488492044E+04  0.50400001928E-02 0.  1.
        1   -1    0    0  501    0  0.00000000000E+00  0.00000000000E+00 -0.22849581866E+04  0.22849581866E+04  0.50400001928E-02 0. -1.
    10030    2    1    2    0    0  0.00000000000E+00  0.00000000000E+00 -0.53610898216E+03  0.40338073910E+04  0.39980231649E+04 0.  0.
        3    1    3    3  502    0 -0.64426394456E+03 -0.13190355411E+04 -0.16370766802E+04  0.21988521678E+04  0.10100000352E+00 0. -1.
       -3    1    3    3    0  502  0.64426394456E+03  0.13190355411E+04  0.11009676981E+04  0.18349552232E+04  0.10100000352E+00 0.  1.
</event>
<event>
 5   0  0.6599276E-09  0.4000841E+04  0.7818609E-02  0.8004377E-01
        2   -1    0    0  501    0  0.00000000000E+00  0.00000000000E+00  0.18764763414E+04  0.18764763414E+04  0.25500000920E-02 0.  1.
       -2   -1    0    0    0  501  0.00000000000E+00  0.00000000000E+00 -0.21325511085E+04  0.21325511085E+04  0.25500000920E-02 0. -1.
    10030    2    1    2    0    0  0.00000000000E+00  0.00000000000E+00 -0.25607476713E+03  0.40090274499E+04  0.40008407626E+04 0.  0.
        2    1    3    3  502    0 -0.93828133158E+03  0.15915333584E+04 -0.89663455622E+03  0.20536075125E+04  0.25500000920E-02 0. -1.
       -2    1    3    3    0  502  0.93828133158E+03 -0.15915333584E+04  0.64055978909E+03  0.19554199374E+04  0.25500000920E-02 0.  1.
</event>
<event>
 5   0  0.6547327E-09  0.4000337E+04  0.7818609E-02  0.8004478E-01
        2   -1    0    0  501    0  0.00000000000E+00  0.00000000000E+00  0.23321228624E+04  0.23321228624E+04  0.25500000920E-02 0. -1.
       -2   -1    0    0    0  501  0.00000000000E+00  0.00000000000E+00 -0.17154649409E+04  0.17154649409E+04  0.25500000920E-02 0.  1.
    10030    2    1    2    0    0  0.00000000000E+00  0.00000000000E+00  0.61665792149E+03  0.40475878034E+04  0.40003374900E+04 0.  0.
        5    1    3    3  502    0  0.12266895967E+04 -0.26625696406E+03  0.18839612469E+04  0.22638445634E+04  0.46999998093E+01 0. -1.
       -5    1    3    3    0  502 -0.12266895967E+04  0.26625696406E+03 -0.12673033254E+04  0.17837432400E+04  0.46999998093E+01 0.  1.
</event>
<event>
 5   0  0.6547327E-09  0.4007951E+04  0.7818609E-02  0.8002944E-01
        2   -1    0    0  501    0  0.00000000000E+00  0.00000000000E+00  0.20276568839E+04  0.20276568839E+04  0.25500000920E-02 0.  1.
       -2   -1    0    0    0  501  0.00000000000E+00  0.00000000000E+00 -0.19805711065E+04  0.19805711065E+04  0.25500000920E-02 0. -1.
    10030    2    1    2    0    0  0.00000000000E+00  0.00000000000E+00  0.47085777335E+02  0.40082279904E+04  0.40079514160E+04 0.  0.
        5    1    3    3  502    0  0.12813975614E+04 -0.41464855835E+02  0.15638431544E+04  0.20222083340E+04  0.46999998093E+01 0.  1.
       -5    1    3    3    0  502 -0.12813975614E+04  0.41464855835E+02 -0.15167573771E+04  0.19860196564E+04  0.46999998093E+01 0. -1.
</event>
<event>
 5   0  0.6547327E-09  0.4002924E+04  0.7818609E-02  0.8003957E-01
       -2   -1    0    0    0  501  0.00000000000E+00  0.00000000000E+00  0.21626452952E+04  0.21626452952E+04  0.25500000920E-02 0.  1.
        2   -1    0    0  501    0  0.00000000000E+00  0.00000000000E+00 -0.18522913893E+04  0.18522913893E+04  0.25500000920E-02 0. -1.
    10030    2    1    2    0    0  0.00000000000E+00  0.00000000000E+00  0.31035390593E+03  0.40149366845E+04  0.40029235608E+04 0.  0.
        5    1    3    3  502    0 -0.18825969518E+04 -0.63772345421E+03 -0.79972114754E+02  0.19892913603E+04  0.46999998093E+01 0.  1.
       -5    1    3    3    0  502  0.18825969518E+04  0.63772345421E+03  0.39032602069E+03  0.20256453242E+04  0.46999998093E+01 0. -1.
</event>
<event>
 5   0  0.2078125E-09  0.3999340E+04  0.7818609E-02  0.8004680E-01
       -1   -1    0    0    0  501  0.00000000000E+00  0.00000000000E+00  0.13539879116E+04  0.13539879116E+04  0.50400001928E-02 0. -1.
        1   -1    0    0  501    0  0.00000000000E+00  0.00000000000E+00 -0.29532613203E+04  0.29532613203E+04  0.50400001928E-02 0.  1.
    10030    2    1    2    0    0  0.00000000000E+00  0.00000000000E+00 -0.15992734087E+04  0.43072492319E+04  0.39993400093E+04 0.  0.
        3    1    3    3  502    0  0.14619553387E+04  0.11344576070E+04 -0.16158591767E+04  0.24566864601E+04  0.10100000352E+00 0.  1.
       -3    1    3    3    0  502 -0.14619553387E+04 -0.11344576070E+04  0.16585767960E+02  0.18505627718E+04  0.10100000352E+00 0. -1.
</event>
<event>
 5   0  0.2078125E-09  0.3998829E+04  0.7818609E-02  0.8004783E-01
       -1   -1    0    0    0  501  0.00000000000E+00  0.00000000000E+00  0.15255940439E+04  0.15255940439E+04  0.50400001928E-02 0.  1.
        1   -1    0    0  501    0  0.00000000000E+00  0.00000000000E+00 -0.26203945032E+04  0.26203945032E+04  0.50400001928E-02 0. -1.
    10030    2    1    2    0    0  0.00000000000E+00  0.00000000000E+00 -0.10948004593E+04  0.41459885472E+04  0.39988289520E+04 0.  0.
        3    1    3    3  502    0  0.19076003690E+04 -0.73137185009E+02  0.68925248575E+02  0.19102457737E+04  0.10100000352E+00 0.  1.
       -3    1    3    3    0  502 -0.19076003690E+04  0.73137185009E+02 -0.11637257079E+04  0.22357427735E+04  0.10100000352E+00 0. -1.
</event>
<event>
 5   0  0.2078125E-09  0.4000964E+04  0.7818609E-02  0.8004352E-01
        1   -1    0    0  501    0  0.00000000000E+00  0.00000000000E+00  0.13806918762E+04  0.13806918763E+04  0.50400001928E-02 0.  1.
       -1   -1    0    0    0  501  0.00000000000E+00  0.00000000000E+00 -0.28984950094E+04  0.28984950095E+04  0.50400001928E-02 0. -1.
    10030    2    1    2    0    0  0.00000000000E+00  0.00000000000E+00 -0.15178031332E+04  0.42791868857E+04  0.40009641403E+04 0.  0.
        5    1    3    3  502    0 -0.13862085643E+04  0.34132124146E+03  0.73991597296E+03  0.16079714272E+04  0.46999998093E+01 0.  1.
       -5    1    3    3    0  502  0.13862085643E+04 -0.34132124146E+03 -0.22577191062E+04  0.26712154585E+04  0.46999998093E+01 0. -1.
</event>
<event>
 5   0  0.6736335E-09  0.3994345E+04  0.7818609E-02  0.8005688E-01
       -2   -1    0    0    0  501  0.00000000000E+00  0.00000000000E+00  0.15197312250E+04  0.15197312250E+04  0.25500000920E-02 0.  1.
        2   -1    0    0  501    0  0.00000000000E+00  0.00000000000E+00 -0.26246075175E+04  0.26246075175E+04  0.25500000920E-02 0. -1.
    10030    2    1    2    0    0  0.00000000000E+00  0.00000000000E+00 -0.11048762925E+04  0.41443387425E+04  0.39943450015E+04 0.  0.
        1    1    3    3  502    0  0.89945671731E+03  0.16379729139E+04 -0.12836877549E+04  0.22671197377E+04  0.50400001928E-02 0. -1.
       -1    1    3    3    0  502 -0.89945671731E+03 -0.16379729139E+04  0.17881146243E+03  0.18772190048E+04  0.50400001928E-02 0.  1.
</event>
<event>
 5   0  0.2078125E-09  0.4002899E+04  0.7818609E-02  0.8003962E-01
        1   -1    0    0  501    0  0.00000000000E+00  0.00000000000E+00  0.16549467440E+04  0.16549467440E+04  0.50400001928E-02 0.  1.
       -1   -1    0    0    0  501  0.00000000000E+00  0.00000000000E+00 -0.24205005134E+04  0.24205005134E+04  0.50400001928E-02 0. -1.
    10030    2    1    2    0    0  0.00000000000E+00  0.00000000000E+00 -0.76555376940E+03  0.40754472574E+04  0.40028986714E+04 0.  0.
        5    1    3    3  502    0 -0.52543092808E+03  0.19256290093E+04 -0.23296170305E+03  0.20095815452E+04  0.46999998093E+01 0. -1.
       -5    1    3    3    0  502  0.52543092808E+03 -0.19256290093E+04 -0.53259206635E+03  0.20658657122E+04  0.46999998093E+01 0.  1.
</event>
<event>
 5   0  0.6736335E-09  0.3997445E+04  0.7818609E-02  0.8005062E-01
        2   -1    0    0  501    0  0.00000000000E+00  0.00000000000E+00  0.17938514641E+04  0.17938514641E+04  0.25500000920E-02 0. -1.
       -2   -1    0    0    0  501  0.00000000000E+00  0.00000000000E+00 -0.22269909933E+04  0.22269909933E+04  0.25500000920E-02 0.  1.
    10030    2    1    2    0    0  0.00000000000E+00  0.00000000000E+00 -0.43313952925E+03  0.40208424574E+04  0.39974447107E+04 0.  0.
        1    1    3    3  502    0  0.17067233496E+04 -0.23928215260E+03 -0.12347846122E+04  0.21201069735E+04  0.50400001928E-02 0.  1.
       -1    1    3    3    0  502 -0.17067233496E+04  0.23928215260E+03  0.80164508291E+03  0.19007354839E+04  0.50400001928E-02 0. -1.
</event>
<event>
 5   0  0.6645526E-09  0.4000036E+04  0.7818609E-02  0.8004539E-01
       -2   -1    0    0    0  501  0.00000000000E+00  0.00000000000E+00  0.20710355382E+04  0.20710355382E+04  0.25500000920E-02 0.  1.
        2   -1    0    0  501    0  0.00000000000E+00  0.00000000000E+00 -0.19314359844E+04  0.19314359844E+04  0.25500000920E-02 0. -1.
    10030    2    1    2    0    0  0.00000000000E+00  0.00000000000E+00  0.13959955388E+03  0.40024715226E+04  0.40000362816E+04 0.  0.
        3    1    3    3  502    0  0.80096883595E+03 -0.17066496418E+04  0.73794013354E+03  0.20245393864E+04  0.10100000352E+00 0.  1.
       -3    1    3    3    0  502 -0.80096883595E+03  0.17066496418E+04 -0.59834057966E+03  0.19779321362E+04  0.10100000352E+00 0. -1.
</event>
<event>
 5   0  0.6599276E-09  0.4001917E+04  0.7818609E-02  0.8004160E-01
       -2   -1    0    0    0  501  0.00000000000E+00  0.00000000000E+00  0.12344097024E+04  0.12344097024E+04  0.25500000920E-02 0.  1.
        2   -1    0    0  501    0  0.00000000000E+00  0.00000000000E+00 -0.32435220319E+04  0.32435220319E+04  0.25500000920E-02 0. -1.
    10030    2    1    2    0    0  0.00000000000E+00  0.00000000000E+00 -0.20091123295E+04  0.44779317343E+04  0.40019170736E+04 0.  0.
        2    1    3    3  502    0  0.89237928993E+03 -0.13962386681E+04 -0.22595793514E+04  0.28020567555E+04  0.25500000920E-02 0.  1.
       -2    1    3    3    0  502 -0.89237928993E+03  0.13962386681E+04  0.25046702195E+03  0.16758749788E+04  0.25500000920E-02 0. -1.
</event>
<event>
 5   0  0.2078125E-09  0.3999695E+04  0.7818609E-02  0.8004608E-01
        1   -1    0    0  501    0  0.00000000000E+00  0.00000000000E+00  0.35518469720E+04  0.35518469720E+04  0.50400001928E-02 0.  1.
       -1   -1    0    0    0  501  0.00000000000E+00  0.00000000000E+00 -0.11260028416E+04  0.11260028416E+04  0.50400001928E-02 0. -1.
    10030    2    1    2    0    0  0.00000000000E+00  0.00000000000E+00  0.24258441304E+04  0.46778498136E+04  0.39996948801E+04 0.  0.
        2    1    3    3  502    0 -0.68578727095E+03 -0.75980881572E+03 -0.79645352920E+03  0.12969008604E+04  0.25500000920E-02 0. -1.
       -2    1    3    3    0  502  0.68578727095E+03  0.75980881572E+03  0.32222976596E+04  0.33809489532E+04  0.25500000920E-02 0.  1.
</event>
<event>
 5   0  0.6547327E-09  0.4000525E+04  0.7818609E-02  0.8004441E-01
       -2   -1    0    0    0  501  0.00000000000E+00  0.00000000000E+00  0.25863580901E+04  0.25863580901E+04  0.25500000920E-02 0. -1.
        2   -1    0    0  501    0  0.00000000000E+00  0.00000000000E+00 -0.15469820463E+04  0.15469820463E+04  0.25500000920E-02 0.  1.
    10030    2    1    2    0    0  0.00000000000E+00  0.00000000000E+00  0.10393760437E+04  0.41333401364E+04  0.40005247310E+04 0.  0.
        5    1    3    3  502    0  0.53293628022E+03  0.18454807662E+04  0.10960680667E+04  0.22116074774E+04  0.46999998093E+01 0. -1.
       -5    1    3    3    0  502 -0.53293628022E+03 -0.18454807662E+04 -0.56692022903E+02  0.19217326590E+04  0.46999998093E+01 0.  1.
</event>
<event>
 5   0  0.6547327E-09  0.4000038E+04  0.7818609E-02  0.8004539E-01
        2   -1    0    0  501    0  0.00000000000E+00  0.00000000000E+00  0.17755830764E+04  0.17755830764E+04  0.25500000920E-02 0.  1.
       -2   -1    0    0    0  501  0.00000000000E+00  0.00000000000E+00 -0.22528240531E+04  0.22528240531E+04  0.25500000920E-02 0. -1.
    10030    2    1    2    0    0  0.00000000000E+00  0.00000000000E+00 -0.47724097671E+03  0.40284071295E+04  0.40000381312E+04 0.  0.
        5    1    3    3  502    0  0.16252557478E+04  0.11096796241E+03 -0.14071443169E+04  0.21526373018E+04  0.46999998093E+01 0. -1.
       -5    1    3    3    0  502 -0.16252557478E+04 -0.11096796241E+03  0.92990334024E+03  0.18757698277E+04  0.46999998093E+01 0.  1.
</event>
<event>
 5   0  0.6736335E-09  0.4000798E+04  0.7818609E-02  0.8004385E-01
       -2   -1    0    0    0  501  0.00000000000E+00  0.00000000000E+00  0.16442501045E+04  0.16442501045E+04  0.25500000920E-02 0.  1.
        2   -1    0    0  501    0  0.00000000000E+00  0.00000000000E+00 -0.24336912665E+04  0.24336912665E+04  0.25500000920E-02 0. -1.
    10030    2    1    2    0    0  0.00000000000E+00  0.00000000000E+00 -0.78944116194E+03  0.40779413710E+04  0.40007984799E+04 0.  0.
        1    1    3    3  502    0 -0.17049108522E+04  0.81365527083E+03  0.27587177710E+03  0.19091519456E+04  0.50400001928E-02 0.  1.
       -1    1    3    3    0  502  0.17049108522E+04 -0.81365527083E+03 -0.10653129390E+04  0.21687894254E+04  0.50400001928E-02 0. -1.
</event>
<event>
 5   0  0.6538370E-09  0.3998643E+04  0.7818609E-02  0.8004820E-01
        2   -1    0    0  501    0  0.00000000000E+00  0.00000000000E+00  0.23394003617E+04  0.23394003617E+04  0.25500000920E-02 0.  1.
       -2   -1    0    0    0  501  0.00000000000E+00  0.00000000000E+00 -0.17086798011E+04  0.17086798011E+04  0.25500000920E-02 0. -1.
    10030    2    1    2    0    0  0.00000000000E+00  0.00000000000E+00  0.63072056069E+03  0.40480801628E+04  0.39986428421E+04 0.  0.
        4    1    3    3  502    0  0.19784195457E+04  0.15041157100E+02  0.60686894100E+03  0.20694592674E+04  0.12699999809E+01 0. -1.
       -4    1    3    3    0  502 -0.19784195457E+04 -0.15041157100E+02  0.23851619691E+02  0.19786208954E+04  0.12699999809E+01 0.  1.
</event>
<event>
 5   0  0.2078125E-09  0.3999673E+04  0.7818609E-02  0.8004613E-01
       -1   -1    0    0    0  501  0.00000000000E+00  0.00000000000E+00  0.24853439878E+04  0.24853439878E+04  0.50400001928E-02 0. -1.
        1   -1    0    0  501    0  0.00000000000E+00  0.00000000000E+00 -0.16091720436E+04  0.16091720436E+04  0.50400001928E-02 0.  1.
    10030    2    1    2    0    0  0.00000000000E+00  0.00000000000E+00  0.87617194414E+03  0.40945160314E+04  0.39996730186E+04 0.  0.
        2    1    3    3  502    0  0.32581126409E+03  0.44945684365E+03 -0.15287167262E+04  0.16263884109E+04  0.25500000920E-02 0.  1.
       -2    1    3    3    0  502 -0.32581126409E+03 -0.44945684365E+03  0.24048886704E+04  0.24681276205E+04  0.25500000920E-02 0. -1.
</event>
<event>
 5   0  0.2078125E-09  0.3995901E+04  0.7818609E-02  0.8005374E-01
        1   -1    0    0  501    0  0.00000000000E+00  0.00000000000E+00  0.25575333990E+04  0.25575333990E+04  0.50400001928E-02 0. -1.
       -1   -1    0    0    0  501  0.00000000000E+00  0.00000000000E+00 -0.15608031084E+04  0.15608031084E+04  0.50400001928E-02 0.  1.
    10030    2    1    2    0    0  0.00000000000E+00  0.00000000000E+00  0.99673029058E+03  0.41183365074E+04  0.39959009392E+04 0.  0.
        2    1    3    3  502    0 -0.10352841537E+04 -0.11662268676E+04  0.17855963713E+04  0.23707072335E+04  0.25500000920E-02 0. -1.
       -2    1    3    3    0  502  0.10352841537E+04  0.11662268676E+04 -0.78886608070E+03  0.17476292739E+04  0.25500000920E-02 0.  1.
</event>
<event>
 5   0  0.6547327E-09  0.3998635E+04  0.7818609E-02  0.8004822E-01
       -2   -1    0    0    0  501  0.00000000000E+00  0.00000000000E+00  0.18556865596E+04  0.18556865596E+04  0.25500000920E-02 0. -1.
        2   -1    0    0  501    0  0.00000000000E+00  0.00000000000E+00 -0.21540659201E+04  0.21540659201E+04  0.25500000920E-02 0.  1.
    10030    2    1    2    0    0  0.00000000000E+00  0.00000000000E+00 -0.29837936054E+03  0.40097524797E+04  0.39986353555E+04 0.  0.
        5    1    3    3  502    0  0.45782974489E+03  0.79245648923E+03  0.16332937762E+04  0.18722355653E+04  0.46999998093E+01 0. -1.
       -5    1    3    3    0  502 -0.45782974489E+03 -0.79245648923E+03 -0.19316731367E+04  0.21375169145E+04  0.46999998093E+01 0.  1.
</event>
<event>
 5   0  0.6645526E-09  0.3990625E+04  0.7818609E-02  0.8006440E-01
       -2   -1    0    0    0  501  0.00000000000E+00  0.00000000000E+00  0.17803942347E+04  0.17803942347E+04  0.25500000920E-02 0. -1.
        2   -1    0    0  501    0  0.00000000000E+00  0.00000000000E+00 -0.22361748447E+04  0.22361748447E+04  0.25500000920E-02 0.  1.
    10030    2    1    2    0    0  0.00000000000E+00  0.00000000000E+00 -0.45578061001E+03  0.40165690794E+04  0.39906254153E+04 0.  0.
        3    1    3    3  502    0 -0.13020853469E+04 -0.14511723222E+04  0.19906723655E+03  0.19598354866E+04  0.10100000352E+00 0.  1.
       -3    1    3    3    0  502  0.13020853469E+04  0.14511723222E+04 -0.65484784656E+03  0.20567335928E+04  0.10100000352E+00 0. -1.
</event>
<event>
 5   0  0.2078125E-09  0.3996257E+04  0.7818609E-02  0.8005302E-01
       -1   -1    0    0    0  501  0.00000000000E+00  0.00000000000E+00  0.21728223852E+04  0.21728223852E+04  0.50400001928E-02 0. -1.
        1   -1    0    0  501    0  0.00000000000E+00  0.00000000000E+00 -0.18374794744E+04  0.18374794744E+04  0.50400001928E-02 0.  1.
    10030    2    1    2    0    0  0.00000000000E+00  0.00000000000E+00  0.33534291082E+03  0.40103018596E+04  0.39962565154E+04 0.  0.
        2    1    3    3  502    0 -0.11926829446E+04  0.38454012978E+02  0.17759723890E+04  0.21396376431E+04  0.25500000920E-02 0. -1.
       -2    1    3    3    0  502  0.11926829446E+04 -0.38454012978E+02 -0.14406294782E+04  0.18706642165E+04  0.25500000920E-02 0.  1.
</event>
<event>
 5   0  0.6538370E-09  0.3998212E+04  0.7818609E-02  0.8004907E-01
        2   -1    0    0  501    0  0.00000000000E+00  0.00000000000E+00  0.18852196036E+04  0.18852196036E+04  0.25500000920E-02 0. -1.
       -2   -1    0    0    0  501  0.00000000000E+00  0.00000000000E+00 -0.21198727068E+04  0.21198727068E+04  0.25500000920E-02 0.  1.
    10030    2    1    2    0    0  0.00000000000E+00  0.00000000000E+00 -0.23465310319E+03  0.40050923104E+04  0.39982123925E+04 0.  0.
        4    1    3    3  502    0  0.73545978947E+03 -0.90153667692E+03  0.15111258873E+04  0.19071372636E+04  0.12699999809E+01 0. -1.
       -4    1    3    3    0  502 -0.73545978947E+03  0.90153667692E+03 -0.17457789905E+04  0.20979550468E+04  0.12699999809E+01 0.  1.
</event>
<event>
 5   0  0.2078125E-09  0.4000746E+04  0.7818609E-02  0.8004396E-01
        1   -1    0    0  501    0  0.00000000000E+00  0.00000000000E+00  0.13145551427E+04  0.13145551427E+04  0.50400001928E-02 0. -1.
       -1   -1    0    0    0  501  0.00000000000E+00  0.00000000000E+00 -0.30439892342E+04  0.30439892342E+04  0.50400001928E-02 0.  1.
    10030    2    1    2    0    0  0.00000000000E+00  0.00000000000E+00 -0.17294340915E+04  0.43585443769E+04  0.40007457816E+04 0.  0.
        4    1    3    3  502    0 -0.10477689937E+03 -0.60378945072E+03  0.12097733718E+04  0.13561316763E+04  0.12699999809E+01 0. -1.
       -4    1    3    3    0  502  0.10477689937E+03  0.60378945072E+03 -0.29392074633E+04  0.30024127006E+04  0.12699999809E+01 0.  1.
</event>
<event>
 5   0  0.2078125E-09  0.4000990E+04  0.7818609E-02  0.8004347E-01
        1   -1    0    0  501    0  0.00000000000E+00  0.00000000000E+00  0.31038382169E+04  0.31038382169E+04  0.50400001928E-02 0. -1.
       -1   -1    0    0    0  501  0.00000000000E+00  0.00000000000E+00 -0.12893651879E+04  0.12893651879E+04  0.50400001928E-02 0.  1.
    10030    2    1    2    0    0  0.00000000000E+00  0.00000000000E+00  0.18144730290E+04  0.43932034048E+04  0.40009903503E+04 0.  0.
        5    1    3    3  502    0 -0.18436627188E+04  0.14615507728E+03  0.17445549569E+04  0.25424294710E+04  0.46999998093E+01 0.  1.
       -5    1    3    3    0  502  0.18436627188E+04 -0.14615507728E+03  0.69918072149E+02  0.18507739338E+04  0.46999998093E+01 0. -1.
</event>
<event>
 5   0  0.6736335E-09  0.4000619E+04  0.7818609E-02  0.8004422E-01
        2   -1    0    0  501    0  0.00000000000E+00  0.00000000000E+00  0.29195914709E+04  0.29195914709E+04  0.25500000920E-02 0. -1.
       -2   -1    0    0    0  501  0.00000000000E+00  0.00000000000E+00 -0.13704788344E+04  0.13704788344E+04  0.25500000920E-02 0.  1.
    10030    2    1    2    0    0  0.00000000000E+00  0.00000000000E+00  0.15491126364E+04  0.42900703053E+04  0.40006191101E+04 0.  0.
        1    1    3    3  502    0  0.10962565033E+04  0.82066182065E+03 -0.78900960307E+03  0.15804430704E+04  0.50400001928E-02 0.  1.
       -1    1    3    3    0  502 -0.10962565033E+04 -0.82066182065E+03  0.23381222395E+04  0.27096272349E+04  0.50400001928E-02 0. -1.
</event>
<event>
 5   0  0.2078125E-09  0.4000163E+04  0.7818609E-02  0.8004514E-01
        1   -1    0    0  501    0  0.00000000000E+00  0.00000000000E+00  0.27549213179E+04  0.27549213179E+04  0.50400001928E-02 0. -1.
       -1   -1    0    0    0  501  0.00000000000E+00  0.00000000000E+00 -0.14520653384E+04  0.14520653384E+04  0.50400001928E-02 0.  1.
    10030    2    1    2    0    0  0.00000000000E+00  0.00000000000E+00  0.13028559795E+04  0.42069866564E+04  0.40001628746E+04 0.  0.
        2    1    3    3  502    0 -0.11896927253E+04  0.78406989948E+03  0.21276363673E+04  0.25606582942E+04  0.25500000920E-02 0. -1.
       -2    1    3    3    0  502  0.11896927253E+04 -0.78406989948E+03 -0.82478038780E+03  0.16463283622E+04  0.25500000920E-02 0.  1.
</event>
<event>
 5   0  0.6736335E-09  0.3999610E+04  0.7818609E-02  0.8004625E-01
        2   -1    0    0  501    0  0.00000000000E+00  0.00000000000E+00  0.25785504036E+04  0.25785504036E+04  0.25500000920E-02 0. -1.
       -2   -1    0    0    0  501  0.00000000000E+00  0.00000000000E+00 -0.15509563507E+04  0.15509563507E+04  0.25500000920E-02 0.  1.
    10030    2    1    2    0    0  0.00000000000E+00  0.00000000000E+00  0.10275940530E+04  0.41295067543E+04  0.39996095429E+04 0.  0.
        1    1    3    3  502    0 -0.14455434749E+04 -0.73049848374E+03 -0.69732816237E+03  0.17633747585E+04  0.50400001928E-02 0.  1.
       -1    1    3    3    0  502  0.14455434749E+04  0.73049848374E+03  0.17249222153E+04  0.23661319958E+04  0.50400001928E-02 0. -1.
</event>
<event>
 5   0  0.6645526E-09  0.4000379E+04  0.7818609E-02  0.8004470E-01
       -2   -1    0    0    0  501  0.00000000000E+00  0.00000000000E+00  0.18477057826E+04  0.18477057826E+04  0.25500000920E-02 0.  1.
        2   -1    0    0  501    0  0.00000000000E+00  0.00000000000E+00 -0.21652572420E+04  0.21652572420E+04  0.25500000920E-02 0. -1.
    10030    2    1    2    0    0  0.00000000000E+00  0.00000000000E+00 -0.31755145933E+03  0.40129630246E+04  0.40003791455E+04 0.  0.
        3    1    3    3  502    0 -0.16023395075E+04 -0.59056761985E+03 -0.12034431291E+04  0.20891475262E+04  0.10100000352E+00 0. -1.
       -3    1    3    3    0  502  0.16023395075E+04  0.59056761985E+03  0.88589166981E+03  0.19238154984E+04  0.10100000352E+00 0.  1.
</event>
<event>
 5   0  0.2078125E-09  0.4000806E+04  0.7818609E-02  0.8004384E-01
       -1   -1    0    0    0  501  0.00000000000E+00  0.00000000000E+00  0.21268425374E+04  0.21268425374E+04  0.50400001928E-02 0. -1.
        1   -1    0    0  501    0  0.00000000000E+00  0.00000000000E+00 -0.18814802220E+04  0.18814802221E+04  0.50400001928E-02 0.  1.
    10030    2    1    2    0    0  0.00000000000E+00  0.00000000000E+00  0.24536231536E+03  0.40083227595E+04  0.40008060036E+04 0.  0.
        3    1    3    3  502    0  0.49053592313E+03 -0.87141916781E+03 -0.16130909555E+04  0.18979091914E+04  0.10100000352E+00 0.  1.
       -3    1    3    3    0  502 -0.49053592313E+03  0.87141916781E+03  0.18584532709E+04  0.21104135680E+04  0.10100000352E+00 0. -1.
</event>
<event>
 5   0  0.2078125E-09  0.4000773E+04  0.7818609E-02  0.8004391E-01
       -1   -1    0    0    0  501  0.00000000000E+00  0.00000000000E+00  0.23546758019E+04  0.23546758019E+04  0.50400001928E-02 0.  1.
        1   -1    0    0  501    0  0.00000000000E+00  0.00000000000E+00 -0.16994047063E+04  0.16994047063E+04  0.50400001928E-02 0. -1.
    10030    2    1    2    0    0  0.00000000000E+00  0.00000000000E+00  0.65527109565E+03  0.40540805082E+04  0.40007734950E+04 0.  0.
        1    1    3    3  502    0  0.10114115864E+04 -0.14903464368E+04  0.12095543710E+04  0.21695869826E+04  0.50400001928E-02 0. -1.
       -1    1    3    3    0  502 -0.10114115864E+04  0.14903464368E+04 -0.55428327536E+03  0.18844935256E+04  0.50400001928E-02 0.  1.
</event>
<event>
 5   0  0.6736335E-09  0.3999792E+04  0.7818609E-02  0.8004589E-01
       -2   -1    0    0    0  501  0.00000000000E+00  0.00000000000E+00  0.36180517029E+04  0.36180517029E+04  0.25500000920E-02 0. -1.
        2   -1    0    0  501    0  0.00000000000E+00  0.00000000000E+00 -0.11054523450E+04  0.11054523450E+04  0.25500000920E-02 0.  1.
    10030    2    1    2    0    0  0.00000000000E+00  0.00000000000E+00  0.25125993579E+04  0.47235040479E+04  0.39997918642E+04 0.  0.
        1    1    3    3  502    0  0.13280124761E+04  0.90498408555E+03  0.26620470804E+04  0.31095189323E+04  0.50400001928E-02 0. -1.
       -1    1    3    3    0  502 -0.13280124761E+04 -0.90498408555E+03 -0.14944772244E+03  0.16139851157E+04  0.50400001928E-02 0.  1.
</event>
<event>
 5   0  0.2078125E-09  0.3999700E+04  0.7818609E-02  0.8004607E-01
       -1   -1    0    0    0  501  0.00000000000E+00  0.00000000000E+00  0.22806531921E+04  0.22806531921E+04  0.50400001928E-02 0. -1.
        1   -1    0    0  501    0  0.00000000000E+00  0.00000000000E+00 -0.17536203530E+04  0.17536203530E+04  0.50400001928E-02 0.  1.
    10030    2    1    2    0    0  0.00000000000E+00  0.00000000000E+00  0.52703283904E+03  0.40342735451E+04  0.39996999166E+04 0.  0.
        2    1    3    3  502    0  0.19346175494E+04 -0.15551479932E+03  0.74983552957E+03  0.20806689397E+04  0.25500000920E-02 0.  1.
       -2    1    3    3    0  502 -0.19346175494E+04  0.15551479932E+03 -0.22280269053E+03  0.19536046054E+04  0.25500000920E-02 0. -1.
</event>
<event>
 5   0  0.2078125E-09  0.4009953E+04  0.7818609E-02  0.8002542E-01
        1   -1    0    0  501    0  0.00000000000E+00  0.00000000000E+00  0.22464621771E+04  0.22464621771E+04  0.50400001928E-02 0. -1.
       -1   -1    0    0    0  501  0.00000000000E+00  0.00000000000E+00 -0.17894496903E+04  0.17894496903E+04  0.50400001928E-02 0.  1.
    10030    2    1    2    0    0  0.00000000000E+00  0.00000000000E+00  0.45701248676E+03  0.40359118674E+04  0.40099531404E+04 0.  0.
        1    1    3    3  502    0 -0.12203757589E+04  0.14969195058E+04 -0.31335247740E+03  0.19565977550E+04  0.50400001928E-02 0.  1.
       -1    1    3    3    0  502  0.12203757589E+04 -0.14969195058E+04  0.77036496416E+03  0.20793141124E+04  0.50400001928E-02 0. -1.
</event>
<event>
 5   0  0.6645526E-09  0.4000279E+04  0.7818609E-02  0.8004490E-01
       -2   -1    0    0    0  501  0.00000000000E+00  0.00000000000E+00  0.21143030806E+04  0.21143030806E+04  0.25500000920E-02 0.  1.
        2   -1    0    0  501    0  0.00000000000E+00  0.00000000000E+00 -0.18921403529E+04  0.18921403529E+04  0.25500000920E-02 0. -1.
    10030    2    1    2    0    0  0.00000000000E+00  0.00000000000E+00  0.22216272774E+03  0.40064434335E+04  0.40002790788E+04 0.  0.
        3    1    3    3  502    0  0.45016686179E+03 -0.12492162700E+03  0.20588925575E+04  0.21112304919E+04  0.10100000352E+00 0.  1.
       -3    1    3    3    0  502 -0.45016686179E+03  0.12492162700E+03 -0.18367298298E+04  0.18952129416E+04  0.10100000352E+00 0. -1.
</event>
<event>
 5   0  0.2078125E-09  0.3999795E+04  0.7818609E-02  0.8004588E-01
       -1   -1    0    0    0  501  0.00000000000E+00  0.00000000000E+00  0.16210272577E+04  0.16210272577E+04  0.50400001928E-02 0.  1.
        1   -1    0    0  501    0  0.00000000000E+00  0.00000000000E+00 -0.24673179985E+04  0.24673179985E+04  0.50400001928E-02 0. -1.
    10030    2    1    2    0    0  0.00000000000E+00  0.00000000000E+00 -0.84629074081E+03  0.40883452562E+04  0.39997948592E+04 0.  0.
        4    1    3    3  502    0 -0.17446659334E+04 -0.75816074870E+03  0.20770651409E+03  0.19135857830E+04  0.12699999809E+01 0.  1.
       -4    1    3    3    0  502  0.17446659334E+04  0.75816074870E+03 -0.10539972549E+04  0.21747594732E+04  0.12699999809E+01 0. -1.
</event>
<event>
 5   0  0.2078125E-09  0.4001629E+04  0.7818609E-02  0.8004218E-01
        1   -1    0    0  501    0  0.00000000000E+00  0.00000000000E+00  0.18359484039E+04  0.18359484039E+04  0.50400001928E-02 0.  1.
       -1   -1    0    0    0  501  0.00000000000E+00  0.00000000000E+00 -0.21804853373E+04  0.21804853373E+04  0.50400001928E-02 0. -1.
    10030    2    1    2    0    0  0.00000000000E+00  0.00000000000E+00 -0.34453693342E+03  0.40164337412E+04  0.40016289556E+04 0.  0.
        1    1    3    3  502    0  0.65273760327E+03 -0.18855622025E+04 -0.32062389358E+03  0.20209430668E+04  0.50400001928E-02 0. -1.
       -1    1    3    3    0  502 -0.65273760327E+03  0.18855622025E+04 -0.23913039844E+02  0.19954906744E+04  0.50400001928E-02 0.  1.
</event>
<event>
 5   0  0.2078125E-09  0.4007212E+04  0.7818609E-02  0.8003093E-01
       -1   -1    0    0    0  501  0.00000000000E+00  0.00000000000E+00  0.14913924337E+04  0.14913924337E+04  0.50400001928E-02 0. -1.
        1   -1    0    0  501    0  0.00000000000E+00  0.00000000000E+00 -0.26917373172E+04  0.26917373172E+04  0.50400001928E-02 0.  1.
    10030    2    1    2    0    0  0.00000000000E+00  0.00000000000E+00 -0.12003448835E+04  0.41831297510E+04  0.40072118329E+04 0.  0.
        1    1    3    3  502    0  0.60026685641E+03 -0.16307732111E+04  0.44095531370E+03  0.17928143110E+04  0.50400001928E-02 0. -1.
       -1    1    3    3    0  502 -0.60026685641E+03  0.16307732111E+04 -0.16413001972E+04  0.23903154399E+04  0.50400001928E-02 0.  1.
</event>
<event>
 5   0  0.6599276E-09  0.4000704E+04  0.7818609E-02  0.8004405E-01
       -2   -1    0    0    0  501  0.00000000000E+00  0.00000000000E+00  0.24188700785E+04  0.24188700785E+04  0.25500000920E-02 0. -1.
        2   -1    0    0  501    0  0.00000000000E+00  0.00000000000E+00 -0.16542466068E+04  0.16542466068E+04  0.25500000920E-02 0.  1.
    10030    2    1    2    0    0  0.00000000000E+00  0.00000000000E+00  0.76462347168E+03  0.40731166853E+04  0.40007037479E+04 0.  0.
        2    1    3    3  502    0  0.15039287570E+04  0.33793571153E+03  0.16803016075E+04  0.22802227398E+04  0.25500000920E-02 0. -1.
       -2    1    3    3    0  502 -0.15039287570E+04 -0.33793571153E+03 -0.91567813582E+03  0.17928939454E+04  0.25500000920E-02 0.  1.
</event>
<event>
 5   0  0.6538370E-09  0.3999185E+04  0.7818609E-02  0.8004711E-01
       -2   -1    0    0    0  501  0.00000000000E+00  0.00000000000E+00  0.21587759701E+04  0.21587759701E+04  0.25500000920E-02 0. -1.
        2   -1    0    0  501    0  0.00000000000E+00  0.00000000000E+00 -0.18521473119E+04  0.18521473119E+04  0.25500000920E-02 0.  1.
    10030    2    1    2    0    0  0.00000000000E+00  0.00000000000E+00  0.30662865826E+03  0.40109232820E+04  0.39991854721E+04 0.  0.
        4    1    3    3  502    0  0.11056794989E+04  0.13207334507E+04 -0.86529718748E+03  0.19275904227E+04  0.12699999809E+01 0.  1.
       -4    1    3    3    0  502 -0.11056794989E+04 -0.13207334507E+04  0.11719258457E+04  0.20833328594E+04  0.12699999809E+01 0. -1.
</event>
<event>
 5   0  0.6645526E-09  0.3996824E+04  0.7818609E-02  0.8005188E-01
        2   -1    0    0  501    0  0.00000000000E+00  0.00000000000E+00  0.21575149569E+04  0.21575149569E+04  0.25500000920E-02 0.  1.
       -2   -1    0    0    0  501  0.00000000000E+00  0.00000000000E+00 -0.18510418442E+04  0.18510418442E+04  0.25500000920E-02 0. -1.
    10030    2    1    2    0    0  0.00000000000E+00  0.00000000000E+00  0.30647311271E+03  0.40085568012E+04  0.39968239715E+04 0.  0.
        3    1    3    3  502    0 -0.72745130681E+03  0.12650745997E+04 -0.12160739852E+04  0.18995881381E+04  0.10100000352E+00 0. -1.
       -3    1    3    3    0  502  0.72745130681E+03 -0.12650745997E+04  0.15225470979E+04  0.21089686631E+04  0.10100000352E+00 0.  1.
</event>
<event>
 5   0  0.2078125E-09  0.3999201E+04  0.7818609E-02  0.8004708E-01
       -1   -1    0    0    0  501  0.00000000000E+00  0.00000000000E+00  0.20242136667E+04  0.20242136667E+04  0.50400001928E-02 0. -1.
        1   -1    0    0  501    0  0.00000000000E+00  0.00000000000E+00 -0.19752867598E+04  0.19752867598E+04  0.50400001928E-02 0.  1.
    10030    2    1    2    0    0  0.00000000000E+00  0.00000000000E+00  0.48926906964E+02  0.39995004265E+04  0.39992011477E+04 0.  0.
        5    1    3    3  502    0  0.12091682077E+04 -0.10461365298E+04 -0.11764140533E+04  0.19850595730E+04  0.46999998093E+01 0.  1.
       -5    1    3    3    0  502 -0.12091682077E+04  0.10461365298E+04  0.12253409603E+04  0.20144408535E+04  0.46999998093E+01 0. -1.
</event>
<event>
 5   0  0.6645526E-09  0.4000301E+04  0.7818609E-02  0.8004486E-01
       -2   -1    0    0    0  501  0.00000000000E+00  0.00000000000E+00  0.14846958932E+04  0.14846958932E+04  0.25500000920E-02 0.  1.
        2   -1    0    0  501    0  0.00000000000E+00  0.00000000000E+00 -0.26945603029E+04  0.26945603029E+04  0.25500000920E-02 0. -1.
    10030    2    1    2    0    0  0.00000000000E+00  0.00000000000E+00 -0.12098644097E+04  0.41792561962E+04  0.40003012966E+04 0.  0.
        3    1    3    3  502    0 -0.44808341846E+03 -0.19024435961E+04 -0.16103373037E+03  0.19611227037E+04  0.10100000352E+00 0.  1.
       -3    1    3    3    0  502  0.44808341846E+03  0.19024435961E+04 -0.10488306793E+04  0.22181334925E+04  0.10100000352E+00 0. -1.
</event>
<event>
 5   0  0.6599276E-09  0.3989000E+04  0.7818609E-02  0.8006769E-01
       -2   -1    0    0    0  501  0.00000000000E+00  0.00000000000E+00  0.23247270326E+04  0.23247270326E+04  0.25500000920E-02 0. -1.
        2   -1    0    0  501    0  0.00000000000E+00  0.00000000000E+00 -0.17111817632E+04  0.17111817632E+04  0.25500000920E-02 0.  1.
    10030    2    1    2    0    0  0.00000000000E+00  0.00000000000E+00  0.61354526935E+03  0.40359087958E+04  0.39890001266E+04 0.  0.
        2    1    3    3  502    0 -0.31321581360E+03 -0.42001061160E+03 -0.16403104799E+04  0.17219557283E+04  0.25500000920E-02 0.  1.
       -2    1    3    3    0  502  0.31321581360E+03  0.42001061160E+03  0.22538557493E+04  0.23139530674E+04  0.25500000920E-02 0. -1.
</event>
<event>
 5   0  0.2078125E-09  0.4000345E+04  0.7818609E-02  0.8004477E-01
       -1   -1    0    0    0  501  0.00000000000E+00  0.00000000000E+00  0.27435612292E+04  0.27435612292E+04  0.50400001928E-02 0. -1.
        1   -1    0    0  501    0  0.00000000000E+00  0.00000000000E+00 -0.14582103755E+04  0.14582103755E+04  0.50400001928E-02 0.  1.
    10030    2    1    2    0    0  0.00000000000E+00  0.00000000000E+00  0.12853508537E+04  0.42017716048E+04  0.40003447103E+04 0.  0.
        3    1    3    3  502    0 -0.11859354947E+04 -0.14097767083E+04  0.14608561630E+04  0.23511729209E+04  0.10100000352E+00 0.  1.
       -3    1    3    3    0  502  0.11859354947E+04  0.14097767083E+04 -0.17550530934E+03  0.18505986838E+04  0.10100000352E+00 0. -1.
</event>
<event>
 5   0  0.6547327E-09  0.3990979E+04  0.7818609E-02  0.8006369E-01
        2   -1    0    0  501    0  0.00000000000E+00  0.00000000000E+00  0.27087253253E+04  0.27087253253E+04  0.25500000920E-02 0. -1.
       -2   -1    0    0    0  501  0.00000000000E+00  0.00000000000E+00 -0.14700563180E+04  0.14700563180E+04  0.25500000920E-02 0.  1.
    10030    2    1    2    0    0  0.00000000000E+00  0.00000000000E+00  0.12386690073E+04  0.41787816434E+04  0.39909792174E+04 0.  0.
        5    1    3    3  502    0  0.13615750591E+04 -0.11637714388E+04  0.15403315094E+04  0.23623915535E+04  0.46999998093E+01 0. -1.
       -5    1    3    3    0  502 -0.13615750591E+04  0.11637714388E+04 -0.30166250210E+03  0.18163900898E+04  0.46999998093E+01 0.  1.
</event>
<event>
 5   0  0.6547327E-09  0.3997996E+04  0.7818609E-02  0.8004951E-01
        2   -1    0    0  501    0  0.00000000000E+00  0.00000000000E+00  0.12546452819E+04  0.12546452819E+04  0.25500000920E-02 0. -1.
       -2   -1    0    0    0  501  0.00000000000E+00  0.00000000000E+00 -0.31849580933E+04  0.31849580933E+04  0.25500000920E-02 0.  1.
    10030    2    1    2    0    0  0.00000000000E+00  0.00000000000E+00 -0.19303128114E+04  0.44396033753E+04  0.39979958204E+04 0.  0.
        5    1    3    3  502    0  0.33614002919E+02  0.60803847638E+03  0.11491290474E+04  0.13005231053E+04  0.46999998093E+01 0. -1.
       -5    1    3    3    0  502 -0.33614002919E+02 -0.60803847638E+03 -0.30794418588E+04  0.31390802700E+04  0.46999998093E+01 0.  1.
</event>
<event>
 5   0  0.6736335E-09  0.4002677E+04  0.7818609E-02  0.8004007E-01
       -2   -1    0    0    0  501  0.00000000000E+00  0.00000000000E+00  0.14541598747E+04  0.14541598747E+04  0.25500000920E-02 0.  1.
        2   -1    0    0  501    0  0.00000000000E+00  0.00000000000E+00 -0.27544127388E+04  0.27544127388E+04  0.25500000920E-02 0. -1.
    10030    2    1    2    0    0  0.00000000000E+00  0.00000000000E+00 -0.13002528641E+04  0.42085726134E+04  0.40026773455E+04 0.  0.
        1    1    3    3  502    0 -0.13457320573E+04  0.41339494482E+03 -0.21457842072E+04  0.25663748779E+04  0.50400001928E-02 0. -1.
       -1    1    3    3    0  502  0.13457320573E+04 -0.41339494482E+03  0.84553134303E+03  0.16421977355E+04  0.50400001928E-02 0.  1.
</event>
<event>
 5   0  0.6538370E-09  0.3999866E+04  0.7818609E-02  0.8004574E-01
       -2   -1    0    0    0  501  0.00000000000E+00  0.00000000000E+00  0.31775216490E+04  0.31775216490E+04  0.25500000920E-02 0.  1.
        2   -1    0    0  501    0  0.00000000000E+00  0.00000000000E+00 -0.12587586005E+04  0.12587586005E+04  0.25500000920E-02 0. -1.
    10030    2    1    2    0    0  0.00000000000E+00  0.00000000000E+00  0.19187630485E+04  0.44362802496E+04  0.39998663498E+04 0.  0.
        4    1    3    3  502    0  0.19951523223E+04 -0.13759661139E+03  0.97364873842E+03  0.22243109260E+04  0.12699999809E+01 0.  1.
       -4    1    3    3    0  502 -0.19951523223E+04  0.13759661139E+03  0.94511431010E+03  0.22119693236E+04  0.12699999809E+01 0. -1.
</event>
<event>
 5   0  0.2078125E-09  0.4000822E+04  0.7818609E-02  0.8004381E-01
        1   -1    0    0  501    0  0.00000000000E+00  0.00000000000E+00  0.21974996165E+04  0.21974996165E+04  0.50400001928E-02 0.  1.
       -1   -1    0    0    0  501  0.00000000000E+00  0.00000000000E+00 -0.18209985278E+04  0.18209985278E+04  0.50400001928E-02 0. -1.
    10030    2    1    2    0    0  0.00000000000E+00  0.00000000000E+00  0.37650108870E+03  0.40184981443E+04  0.40008216988E+04 0.  0.
        3    1    3    3  502    0 -0.96946554576E+03 -0.12481632401E+04  0.14199919094E+04  0.21246533720E+04  0.10100000352E+00 0.  1.
       -3    1    3    3    0  502  0.96946554576E+03  0.12481632401E+04 -0.10434908207E+04  0.18938447722E+04  0.10100000352E+00 0. -1.
</event>
<event>
 5   0  0.2078125E-09  0.3982348E+04  0.7818609E-02  0.8008117E-01
       -1   -1    0    0    0  501  0.00000000000E+00  0.00000000000E+00  0.16205134986E+04  0.16205134986E+04  0.50400001928E-02 0. -1.
        1   -1    0    0  501    0  0.00000000000E+00  0.00000000000E+00 -0.24466160283E+04  0.24466160283E+04  0.50400001928E-02 0.  1.
    10030    2    1    2    0    0  0.00000000000E+00  0.00000000000E+00 -0.82610252968E+03  0.40671295269E+04  0.39823482017E+04 0.  0.
        4    1    3    3  502    0  0.12295277893E+04 -0.50878258604E+02 -0.20117671774E+04  0.23582909004E+04  0.12699999809E+01 0.  1.
       -4    1    3    3    0  502 -0.12295277893E+04  0.50878258604E+02  0.11856646477E+04  0.17088386266E+04  0.12699999809E+01 0. -1.
</event>
<event>
 5   0  0.6736335E-09  0.3997762E+04  0.7818609E-02  0.8004998E-01
       -2   -1    0    0    0  501  0.00000000000E+00  0.00000000000E+00  0.20889413130E+04  0.20889413130E+04  0.25500000920E-02 0.  1.
        2   -1    0    0  501    0  0.00000000000E+00  0.00000000000E+00 -0.19127029828E+04  0.19127029828E+04  0.25500000920E-02 0. -1.
    10030    2    1    2    0    0  0.00000000000E+00  0.00000000000E+00  0.17623833019E+03  0.40016442957E+04  0.39977615137E+04 0.  0.
        1    1    3    3  502    0  0.18086372907E+04  0.24187707564E+02  0.93969240114E+03  0.20383266920E+04  0.50400001928E-02 0.  1.
       -1    1    3    3    0  502 -0.18086372907E+04 -0.24187707564E+02 -0.76345407095E+03  0.19633176037E+04  0.50400001928E-02 0. -1.
</event>
<event>
 5   0  0.2078125E-09  0.3999706E+04  0.7818609E-02  0.8004606E-01
        1   -1    0    0  501    0  0.00000000000E+00  0.00000000000E+00  0.17266990086E+04  0.17266990086E+04  0.50400001928E-02 0.  1.
       -1   -1    0    0    0  501  0.00000000000E+00  0.00000000000E+00 -0.23162180548E+04  0.23162180548E+04  0.50400001928E-02 0. -1.
    10030    2    1    2    0    0  0.00000000000E+00  0.00000000000E+00 -0.58951904620E+03  0.40429170633E+04  0.39997056986E+04 0.  0.
        1    1    3    3  502    0 -0.17260767981E+03  0.15089688110E+03  0.17133713071E+04  0.17286423910E+04  0.50400001928E-02 0.  1.
       -1    1    3    3    0  502  0.17260767981E+03 -0.15089688110E+03 -0.23028903533E+04  0.23142746724E+04  0.50400001928E-02 0. -1.
</event>
<event>
 5   0  0.6538370E-09  0.4002112E+04  0.7818609E-02  0.8004121E-01
        2   -1    0    0  501    0  0.00000000000E+00  0.00000000000E+00  0.20786153541E+04  0.20786153541E+04  0.25500000920E-02 0. -1.
       -2   -1    0    0    0  501  0.00000000000E+00  0.00000000000E+00 -0.19263904202E+04  0.19263904202E+04  0.25500000920E-02 0.  1.
    10030    2    1    2    0    0  0.00000000000E+00  0.00000000000E+00  0.15222493396E+03  0.40050057743E+04  0.40021117952E+04 0.  0.
        4    1    3    3  502    0 -0.30292401230E+03  0.19753408870E+04 -0.26375042845E+02  0.19986074734E+04  0.12699999809E+01 0. -1.
       -4    1    3    3    0  502  0.30292401230E+03 -0.19753408870E+04  0.17859997680E+03  0.20063983009E+04  0.12699999809E+01 0.  1.
</event>
<event>
 5   0  0.6547327E-09  0.3999822E+04  0.7818609E-02  0.8004583E-01
       -2   -1    0    0    0  501  0.00000000000E+00  0.00000000000E+00  0.12609307397E+04  0.12609307397E+04  0.25500000920E-02 0.  1.
        2   -1    0    0  501    0  0.00000000000E+00  0.00000000000E+00 -0.31719768895E+04  0.31719768895E+04  0.25500000920E-02 0. -1.
    10030    2    1    2    0    0  0.00000000000E+00  0.00000000000E+00 -0.19110461498E+04  0.44329076292E+04  0.39998215788E+04 0.  0.
        5    1    3    3  502    0  0.19049049067E+04 -0.53083053562E+03 -0.62456326577E+03  0.20737755723E+04  0.46999998093E+01 0. -1.
       -5    1    3    3    0  502 -0.19049049067E+04  0.53083053562E+03 -0.12864828840E+04  0.23591320569E+04  0.46999998093E+01 0.  1.
</event>
<event>
 5   0  0.6547327E-09  0.3999123E+04  0.7818609E-02  0.8004724E-01
        2   -1    0    0  501    0  0.00000000000E+00  0.00000000000E+00  0.11378125354E+04  0.11378125354E+04  0.25500000920E-02 0. -1.
       -2   -1    0    0    0  501  0.00000000000E+00  0.00000000000E+00 -0.35139757859E+04  0.35139757859E+04  0.25500000920E-02 0.  1.
    10030    2    1    2    0    0  0.00000000000E+00  0.00000000000E+00 -0.23761632504E+04  0.46517883213E+04  0.39991227530E+04 0.  0.
        5    1    3    3  502    0  0.87304121180E+03 -0.16027667853E+04 -0.21381844878E+04  0.28112127845E+04  0.46999998093E+01 0.  1.
       -5    1    3    3    0  502 -0.87304121180E+03  0.16027667853E+04 -0.23797876260E+03  0.18405755369E+04  0.46999998093E+01 0. -1.
</event>
<event>
 5   0  0.2078125E-09  0.4000730E+04  0.7818609E-02  0.8004399E-01
        1   -1    0    0  501    0  0.00000000000E+00  0.00000000000E+00  0.19331781469E+04  0.19331781469E+04  0.50400001928E-02 0.  1.
       -1   -1    0    0    0  501  0.00000000000E+00  0.00000000000E+00 -0.20698868367E+04  0.20698868367E+04  0.50400001928E-02 0. -1.
    10030    2    1    2    0    0  0.00000000000E+00  0.00000000000E+00 -0.13670868983E+03  0.40030649836E+04  0.40007299331E+04 0.  0.
        4    1    3    3  502    0  0.23736089077E+03 -0.17674416641E+04  0.83841305305E+03  0.19705654744E+04  0.12699999809E+01 0.  1.
       -4    1    3    3    0  502 -0.23736089077E+03  0.17674416641E+04 -0.97512174288E+03  0.20324995092E+04  0.12699999809E+01 0. -1.
</event>
<event>
 5   0  0.2078125E-09  0.3999413E+04  0.7818609E-02  0.8004665E-01
       -1   -1    0    0    0  501  0.00000000000E+00  0.00000000000E+00  0.22151807800E+04  0.22151807800E+04  0.50400001928E-02 0. -1.
        1   -1    0    0  501    0  0.00000000000E+00  0.00000000000E+00 -0.18051917616E+04  0.18051917616E+04  0.50400001928E-02 0.  1.
    10030    2    1    2    0    0  0.00000000000E+00  0.00000000000E+00  0.40998901838E+03  0.40203725417E+04  0.39994130043E+04 0.  0.
        4    1    3    3  502    0  0.18591335603E+03 -0.93268340707E+03 -0.15633041970E+04  0.18298589397E+04  0.12699999809E+01 0.  1.
       -4    1    3    3    0  502 -0.18591335603E+03  0.93268340707E+03  0.19732932154E+04  0.21905136020E+04  0.12699999809E+01 0. -1.
</event>
<event>
 5   0  0.2078125E-09  0.3999905E+04  0.7818609E-02  0.8004566E-01
       -1   -1    0    0    0  501  0.00000000000E+00  0.00000000000E+00  0.13431655274E+04  0.13431655274E+04  0.50400001928E-02 0.  1.
        1   -1    0    0  501    0  0.00000000000E+00  0.00000000000E+00 -0.29778982721E+04  0.29778982721E+04  0.50400001928E-02 0. -1.
    10030    2    1    2    0    0  0.00000000000E+00  0.00000000000E+00 -0.16347327447E+04  0.43210637995E+04  0.39999051505E+04 0.  0.
        1    1    3    3  502    0 -0.76171196128E+03  0.60058324072E+03  0.10720339171E+04  0.14457392782E+04  0.50400001928E-02 0.  1.
       -1    1    3    3    0  502  0.76171196128E+03 -0.60058324072E+03 -0.27067666618E+04  0.28753245213E+04  0.50400001928E-02 0. -1.
</event>
<event>
 5   0  0.6547327E-09  0.4009982E+04  0.7818609E-02  0.8002536E-01
        2   -1    0    0  501    0  0.00000000000E+00  0.00000000000E+00  0.20325459730E+04  0.20325459730E+04  0.25500000920E-02 0.  1.
       -2   -1    0    0    0  501  0.00000000000E+00  0.00000000000E+00 -0.19778098279E+04  0.19778098279E+04  0.25500000920E-02 0. -1.
    10030    2    1    2    0    0  0.00000000000E+00  0.00000000000E+00  0.54736145135E+02  0.40103558009E+04  0.40099822449E+04 0.  0.
        5    1    3    3  502    0 -0.33276136636E+03 -0.13920090124E+03 -0.19450885325E+04  0.19782564310E+04  0.46999998093E+01 0. -1.
       -5    1    3    3    0  502  0.33276136636E+03  0.13920090124E+03  0.19998246776E+04  0.20320993698E+04  0.46999998093E+01 0.  1.
</event>
<event>
 5   0  0.6538370E-09  0.3999854E+04  0.7818609E-02  0.8004576E-01
        2   -1    0    0  501    0  0.00000000000E+00  0.00000000000E+00  0.26551854378E+04  0.26551854378E+04  0.25500000920E-02 0. -1.
       -2   -1    0    0    0  501  0.00000000000E+00  0.00000000000E+00 -0.15063764261E+04  0.15063764261E+04  0.25500000920E-02 0.  1.
    10030    2    1    2    0    0  0.00000000000E+00  0.00000000000E+00  0.11488090118E+04  0.41615618639E+04  0.39998543726E+04 0.  0.
        4    1    3    3  502    0  0.14761201860E+04 -0.13328645102E+04  0.35554691975E+03  0.20203647768E+04  0.12699999809E+01 0.  1.
       -4    1    3    3    0  502 -0.14761201860E+04  0.13328645102E+04  0.79326209203E+03  0.21411970871E+04  0.12699999809E+01 0. -1.
</event>
<event>
 5   0  0.6736335E-09  0.3999997E+04  0.7818609E-02  0.8004547E-01
       -2   -1    0    0    0  501  0.00000000000E+00  0.00000000000E+00  0.18725248597E+04  0.18725248597E+04  0.25500000920E-02 0. -1.
        2   -1    0    0  501    0  0.00000000000E+00  0.00000000000E+00 -0.21361497113E+04  0.21361497113E+04  0.25500000920E-02 0.  1.
    10030    2    1    2    0    0  0.00000000000E+00  0.00000000000E+00 -0.26362485156E+03  0.40086745710E+04  0.39999967193E+04 0.  0.
        1    1    3    3  502    0  0.95083257155E+03 -0.53038438900E+03  0.15495051740E+04  0.18937677956E+04  0.50400001928E-02 0. -1.
       -1    1    3    3    0  502 -0.95083257155E+03  0.53038438900E+03 -0.18131300256E+04  0.21149067755E+04  0.50400001928E-02 0.  1.
</event>
<event>
 5   0  0.6736335E-09  0.3997119E+04  0.7818609E-02  0.8005128E-01
        2   -1    0    0  501    0  0.00000000000E+00  0.00000000000E+00  0.19942544788E+04  0.19942544788E+04  0.25500000920E-02 0. -1.
       -2   -1    0    0    0  501  0.00000000000E+00  0.00000000000E+00 -0.20028735393E+04  0.20028735393E+04  0.25500000920E-02 0.  1.
    10030    2    1    2    0    0  0.00000000000E+00  0.00000000000E+00 -0.86190604973E+01  0.39971280180E+04  0.39971187253E+04 0.  0.
        1    1    3    3  502    0  0.95070412866E+03 -0.84626749357E+03 -0.15451675882E+04  0.20018865818E+04  0.50400001928E-02 0.  1.
       -1    1    3    3    0  502 -0.95070412866E+03  0.84626749357E+03  0.15365485277E+04  0.19952414362E+04  0.50400001928E-02 0. -1.
</event>
<event>
 5   0  0.2078125E-09  0.3999127E+04  0.7818609E-02  0.8004723E-01
       -1   -1    0    0    0  501  0.00000000000E+00  0.00000000000E+00  0.18134922794E+04  0.18134922794E+04  0.50400001928E-02 0.  1.
        1   -1    0    0  501    0  0.00000000000E+00  0.00000000000E+00 -0.22047267488E+04  0.22047267488E+04  0.50400001928E-02 0. -1.
    10030    2    1    2    0    0  0.00000000000E+00  0.00000000000E+00 -0.39123446943E+03  0.40182190282E+04  0.39991273734E+04 0.  0.
        2    1    3    3  502    0 -0.15001434390E+02 -0.14986976490E+03  0.18077843549E+04  0.18140480323E+04  0.25500000920E-02 0.  1.
       -2    1    3    3    0  502  0.15001434390E+02  0.14986976490E+03 -0.21990188243E+04  0.22041709959E+04  0.25500000920E-02 0. -1.
</event>
<event>
 5   0  0.2078125E-09  0.4005257E+04  0.7818609E-02  0.8003487E-01
       -3   -1    0    0    0  501  0.00000000000E+00  0.00000000000E+00  0.14337163081E+04  0.14337163117E+04  0.10100000352E+00 0.  1.
        3   -1    0    0  501    0  0.00000000000E+00  0.00000000000E+00 -0.27972901179E+04  0.27972901197E+04  0.10100000352E+00 0. -1.
    10030    2    1    2    0    0  0.00000000000E+00  0.00000000000E+00 -0.13635738098E+04  0.42310064313E+04  0.40052567817E+04 0.  0.
        3    1    3    3  502    0  0.10736173267E+04 -0.36982372271E+03  0.10607633413E+04  0.15539120395E+04  0.10100000352E+00 0.  1.
       -3    1    3    3    0  502 -0.10736173267E+04  0.36982372271E+03 -0.24243371511E+04  0.26770943918E+04  0.10100000352E+00 0. -1.
</event>
<event>
 5   0  0.6547327E-09  0.3997049E+04  0.7818609E-02  0.8005142E-01
        2   -1    0    0  501    0  0.00000000000E+00  0.00000000000E+00  0.21951029200E+04  0.21951029200E+04  0.25500000920E-02 0.  1.
       -2   -1    0    0    0  501  0.00000000000E+00  0.00000000000E+00 -0.18195499816E+04  0.18195499816E+04  0.25500000920E-02 0. -1.
    10030    2    1    2    0    0  0.00000000000E+00  0.00000000000E+00  0.37555293843E+03  0.40146529016E+04  0.39970486500E+04 0.  0.
        5    1    3    3  502    0 -0.13269887010E+04  0.73096285285E+03 -0.11213718651E+04  0.18848614418E+04  0.46999998093E+01 0. -1.
       -5    1    3    3    0  502  0.13269887010E+04 -0.73096285285E+03  0.14969248035E+04  0.21297914598E+04  0.46999998093E+01 0.  1.
</event>
<event>
 5   0  0.2078125E-09  0.3999288E+04  0.7818609E-02  0.8004690E-01
        1   -1    0    0  501    0  0.00000000000E+00  0.00000000000E+00  0.19995498045E+04  0.19995498045E+04  0.50400001928E-02 0.  1.
       -1   -1    0    0    0  501  0.00000000000E+00  0.00000000000E+00 -0.19997385215E+04  0.19997385215E+04  0.50400001928E-02 0. -1.
    10030    2    1    2    0    0  0.00000000000E+00  0.00000000000E+00 -0.18871699555E+00  0.39992883260E+04  0.39992883216E+04 0.  0.
        4    1    3    3  502    0 -0.37261878348E+03 -0.14876332834E+04 -0.12833237288E+04  0.19997047156E+04  0.12699999809E+01 0. -1.
       -4    1    3    3    0  502  0.37261878348E+03  0.14876332834E+04  0.12831350118E+04  0.19995836104E+04  0.12699999809E+01 0.  1.
</event>
<event>
 5   0  0.6599276E-09  0.4001970E+04  0.7818609E-02  0.8004149E-01
       -2   -1    0    0    0  501  0.00000000000E+00  0.00000000000E+00  0.12517553056E+04  0.12517553056E+04  0.25500000920E-02 0. -1.
        2   -1    0    0  501    0  0.00000000000E+00  0.00000000000E+00 -0.31986616060E+04  0.31986616060E+04  0.25500000920E-02 0.  1.
    10030    2    1    2    0    0  0.00000000000E+00  0.00000000000E+00 -0.19469063004E+04  0.44504169117E+04  0.40019703329E+04 0.  0.
        2    1    3    3  502    0  0.14662600152E+04 -0.21541484612E+03 -0.24685879814E+04  0.28792791824E+04  0.25500000920E-02 0.  1.
       -2    1    3    3    0  502 -0.14662600152E+04  0.21541484612E+03  0.52168168102E+03  0.15711377293E+04  0.25500000920E-02 0. -1.
</event>
<event>
 5   0  0.2078125E-09  0.3997949E+04  0.7818609E-02  0.8004961E-01
       -1   -1    0    0    0  501  0.00000000000E+00  0.00000000000E+00  0.19059316165E+04  0.19059316165E+04  0.50400001928E-02 0. -1.
        1   -1    0    0  501    0  0.00000000000E+00  0.00000000000E+00 -0.20965590118E+04  0.20965590118E+04  0.50400001928E-02 0.  1.
    10030    2    1    2    0    0  0.00000000000E+00  0.00000000000E+00 -0.19062739529E+03  0.40024906283E+04  0.39979485272E+04 0.  0.
        1    1    3    3  502    0  0.62632653272E+03  0.20982367508E+03  0.17935166154E+04  0.19112856275E+04  0.50400001928E-02 0. -1.
       -1    1    3    3    0  502 -0.62632653272E+03 -0.20982367508E+03 -0.19841440107E+04  0.20912050008E+04  0.50400001928E-02 0.  1.
</event>
<event>
 5   0  0.6645526E-09  0.3993132E+04  0.7818609E-02  0.8005933E-01
        2   -1    0    0  501    0  0.00000000000E+00  0.00000000000E+00  0.22423381843E+04  0.22423381843E+04  0.25500000920E-02 0.  1.
       -2   -1    0    0    0  501  0.00000000000E+00  0.00000000000E+00 -0.17777321509E+04  0.17777321509E+04  0.25500000920E-02 0. -1.
    10030    2    1    2    0    0  0.00000000000E+00  0.00000000000E+00  0.46460603338E+03  0.40200703352E+04  0.39931324463E+04 0.  0.
        3    1    3    3  502    0 -0.88116918626E+03 -0.27010175117E+03 -0.15507640685E+04  0.18039632194E+04  0.10100000352E+00 0. -1.
       -3    1    3    3    0  502  0.88116918626E+03  0.27010175117E+03  0.20153701018E+04  0.22161071157E+04  0.10100000352E+00 0.  1.
</event>
<event>
 5   0  0.6547327E-09  0.3998866E+04  0.7818609E-02  0.8004775E-01
       -2   -1    0    0    0  501  0.00000000000E+00  0.00000000000E+00  0.20822222361E+04  0.20822222361E+04  0.25500000920E-02 0. -1.
        2   -1    0    0  501    0  0.00000000000E+00  0.00000000000E+00 -0.19199353261E+04  0.19199353261E+04  0.25500000920E-02 0.  1.
    10030    2    1    2    0    0  0.00000000000E+00  0.00000000000E+00  0.16228690993E+03  0.40021575622E+04  0.39988658532E+04 0.  0.
        5    1    3    3  502    0  0.32993878276E+03 -0.15071956563E+04 -0.11915996993E+04  0.19494692304E+04  0.46999998093E+01 0.  1.
       -5    1    3    3    0  502 -0.32993878276E+03  0.15071956563E+04  0.13538866092E+04  0.20526883318E+04  0.46999998093E+01 0. -1.
</event>
<event>
 5   0  0.2078125E-09  0.3999330E+04  0.7818609E-02  0.8004682E-01
        1   -1    0    0  501    0  0.00000000000E+00  0.00000000000E+00  0.22304674975E+04  0.22304674975E+04  0.50400001928E-02 0. -1.
       -1   -1    0    0    0  501  0.00000000000E+00  0.00000000000E+00 -0.17927454281E+04  0.17927454281E+04  0.50400001928E-02 0.  1.
    10030    2    1    2    0    0  0.00000000000E+00  0.00000000000E+00  0.43772206939E+03  0.40232129257E+04  0.39993301483E+04 0.  0.
        3    1    3    3  502    0 -0.97543448837E+03  0.16571062848E+04 -0.33322106891E+03  0.19515404098E+04  0.10100000352E+00 0.  1.
       -3    1    3    3    0  502  0.97543448837E+03 -0.16571062848E+04  0.77094313830E+03  0.20716725158E+04  0.10100000352E+00 0. -1.
</event>
<event>
 5   0  0.2078125E-09  0.3997429E+04  0.7818609E-02  0.8005065E-01
        1   -1    0    0  501    0  0.00000000000E+00  0.00000000000E+00  0.22047985275E+04  0.22047985275E+04  0.50400001928E-02 0.  1.
       -1   -1    0    0    0  501  0.00000000000E+00  0.00000000000E+00 -0.18118935796E+04  0.18118935796E+04  0.50400001928E-02 0. -1.
    10030    2    1    2    0    0  0.00000000000E+00  0.00000000000E+00  0.39290494797E+03  0.40166921071E+04  0.39974293221E+04 0.  0.
        4    1    3    3  502    0  0.16153322993E+04  0.11181448086E+04 -0.17316849473E+03  0.19721904550E+04  0.12699999809E+01 0. -1.
       -4    1    3    3    0  502 -0.16153322993E+04 -0.11181448086E+04  0.56607344269E+03  0.20445016522E+04  0.12699999809E+01 0.  1.
</event>
<event>
 5   0  0.2078125E-09  0.3999007E+04  0.7818609E-02  0.8004747E-01
        1   -1    0    0  501    0  0.00000000000E+00  0.00000000000E+00  0.19897408487E+04  0.19897408487E+04  0.50400001928E-02 0. -1.
       -1   -1    0    0    0  501  0.00000000000E+00  0.00000000000E+00 -0.20093142734E+04  0.20093142734E+04  0.50400001928E-02 0.  1.
    10030    2    1    2    0    0  0.00000000000E+00  0.00000000000E+00 -0.19573424722E+02  0.39990551221E+04  0.39990072207E+04 0.  0.
        5    1    3    3  502    0 -0.86290290134E+03  0.10295109936E+04 -0.14908508041E+04  0.20067766476E+04  0.46999998093E+01 0.  1.
       -5    1    3    3    0  502  0.86290290134E+03 -0.10295109936E+04  0.14712773794E+04  0.19922784746E+04  0.46999998093E+01 0. -1.
</event>
<event>
 5   0  0.6547327E-09  0.4001222E+04  0.7818609E-02  0.8004300E-01
        2   -1    0    0  501    0  0.00000000000E+00  0.00000000000E+00  0.27673226101E+04  0.27673226101E+04  0.25500000920E-02 0.  1.
       -2   -1    0    0    0  501  0.00000000000E+00  0.00000000000E+00 -0.14463233789E+04  0.14463233789E+04  0.25500000920E-02 0. -1.
    10030    2    1    2    0    0  0.00000000000E+00  0.00000000000E+00  0.13209992312E+04  0.42136459890E+04  0.40012215074E+04 0.  0.
        5    1    3    3  502    0 -0.24781805734E+03 -0.32956601134E+03  0.27220811358E+04  0.27531391801E+04  0.46999998093E+01 0.  1.
       -5    1    3    3    0  502  0.24781805734E+03  0.32956601134E+03 -0.14010819045E+04  0.14605068088E+04  0.46999998093E+01 0. -1.
</event>
<event>
 5   0  0.6547327E-09  0.3998608E+04  0.7818609E-02  0.8004827E-01
        2   -1    0    0  501    0  0.00000000000E+00  0.00000000000E+00  0.25424910395E+04  0.25424910395E+04  0.25500000920E-02 0.  1.
       -2   -1    0    0    0  501  0.00000000000E+00  0.00000000000E+00 -0.15721657799E+04  0.15721657799E+04  0.25500000920E-02 0. -1.
    10030    2    1    2    0    0  0.00000000000E+00  0.00000000000E+00  0.97032525966E+03  0.41146568194E+04  0.39986084620E+04 0.  0.
        5    1    3    3  502    0  0.14015502108E+03 -0.65048086107E+03  0.24251973821E+04  0.25148306529E+04  0.46999998093E+01 0.  1.
       -5    1    3    3    0  502 -0.14015502108E+03  0.65048086107E+03 -0.14548721224E+04  0.15998261666E+04  0.46999998093E+01 0. -1.
</event>
<event>
 5   0  0.6645526E-09  0.3999428E+04  0.7818609E-02  0.8004662E-01
        2   -1    0    0  501    0  0.00000000000E+00  0.00000000000E+00  0.18761869393E+04  0.18761869393E+04  0.25500000920E-02 0. -1.
       -2   -1    0    0    0  501  0.00000000000E+00  0.00000000000E+00 -0.21313737681E+04  0.21313737681E+04  0.25500000920E-02 0.  1.
    10030    2    1    2    0    0  0.00000000000E+00  0.00000000000E+00 -0.25518682884E+03  0.40075607073E+04  0.39994277723E+04 0.  0.
        3    1    3    3  502    0 -0.16273132033E+02  0.17458629637E+03 -0.21236558725E+04  0.21308823207E+04  0.10100000352E+00 0.  1.
       -3    1    3    3    0  502  0.16273132033E+02 -0.17458629637E+03  0.18684690436E+04  0.18766783867E+04  0.10100000352E+00 0. -1.
</event>
<event>
 5   0  0.6547327E-09  0.4001011E+04  0.7818609E-02  0.8004343E-01
       -2   -1    0    0    0  501  0.00000000000E+00  0.00000000000E+00  0.24377329947E+04  0.24377329947E+04  0.25500000920E-02 0.  1.
        2   -1    0    0  501    0  0.00000000000E+00  0.00000000000E+00 -0.16416980222E+04  0.16416980222E+04  0.25500000920E-02 0. -1.
    10030    2    1    2    0    0  0.00000000000E+00  0.00000000000E+00  0.79603497247E+03  0.40794310169E+04  0.40010105904E+04 0.  0.
        5    1    3    3  502    0  0.17236392400E+04 -0.52220644925E+03 -0.48989417721E+03  0.18664539106E+04  0.46999998093E+01 0. -1.
       -5    1    3    3    0  502 -0.17236392400E+04  0.52220644925E+03  0.12859291497E+04  0.22129771064E+04  0.46999998093E+01 0.  1.
</event>
<event>
 5   0  0.2078125E-09  0.3992366E+04  0.7818609E-02  0.8006088E-01
       -1   -1    0    0    0  501  0.00000000000E+00  0.00000000000E+00  0.18911662170E+04  0.18911662170E+04  0.50400001928E-02 0. -1.
        1   -1    0    0  501    0  0.00000000000E+00  0.00000000000E+00 -0.21070318596E+04  0.21070318597E+04  0.50400001928E-02 0.  1.
    10030    2    1    2    0    0  0.00000000000E+00  0.00000000000E+00 -0.21586564263E+03  0.39981980767E+04  0.39923664517E+04 0.  0.
        2    1    3    3  502    0 -0.17314599349E+03 -0.10160681913E+04 -0.18199249321E+04  0.20915307463E+04  0.25500000920E-02 0.  1.
       -2    1    3    3    0  502  0.17314599349E+03  0.10160681913E+04  0.16040592895E+04  0.19066673303E+04  0.25500000920E-02 0. -1.
</event>
<event>
 5   0  0.6645526E-09  0.3999699E+04  0.7818609E-02  0.8004607E-01
        2   -1    0    0  501    0  0.00000000000E+00  0.00000000000E+00  0.14713567874E+04  0.14713567874E+04  0.25500000920E-02 0. -1.
       -2   -1    0    0    0  501  0.00000000000E+00  0.00000000000E+00 -0.27181700854E+04  0.27181700854E+04  0.25500000920E-02 0.  1.
    10030    2    1    2    0    0  0.00000000000E+00  0.00000000000E+00 -0.12468132980E+04  0.41895268728E+04  0.39996989909E+04 0.  0.
        3    1    3    3  502    0 -0.10679698176E+04  0.38627494836E+03  0.11008133504E+04  0.15816314076E+04  0.10100000352E+00 0. -1.
       -3    1    3    3    0  502  0.10679698176E+04 -0.38627494836E+03 -0.23476266484E+04  0.26078954652E+04  0.10100000352E+00 0.  1.
</event>
<event>
 5   0  0.6599276E-09  0.4000674E+04  0.7818609E-02  0.8004411E-01
        2   -1    0    0  501    0  0.00000000000E+00  0.00000000000E+00  0.23566074144E+04  0.23566074144E+04  0.25500000920E-02 0. -1.
       -2   -1    0    0    0  501  0.00000000000E+00  0.00000000000E+00 -0.16979269681E+04  0.16979269681E+04  0.25500000920E-02 0.  1.
    10030    2    1    2    0    0  0.00000000000E+00  0.00000000000E+00  0.65868044633E+03  0.40545343825E+04  0.40006735843E+04 0.  0.
        2    1    3    3  502    0 -0.48283722864E+02 -0.37984288672E+03 -0.16604401922E+04  0.17040168921E+04  0.25500000920E-02 0.  1.
       -2    1    3    3    0  502  0.48283722864E+02  0.37984288672E+03  0.23191206386E+04  0.23505174904E+04  0.25500000920E-02 0. -1.
</event>
<event>
 5   0  0.6645526E-09  0.3999990E+04  0.7818609E-02  0.8004549E-01
        2   -1    0    0  501    0  0.00000000000E+00  0.00000000000E+00  0.16374784093E+04  0.16374784093E+04  0.25500000920E-02 0.  1.
       -2   -1    0    0    0  501  0.00000000000E+00  0.00000000000E+00 -0.24427674921E+04  0.24427674921E+04  0.25500000920E-02 0. -1.
    10030    2    1    2    0    0  0.00000000000E+00  0.00000000000E+00 -0.80528908280E+03  0.40802459013E+04  0.39999895135E+04 0.  0.
        3    1    3    3  502    0 -0.11254733494E+04  0.49306364576E+03  0.12070467445E+04  0.17224296423E+04  0.10100000352E+00 0.  1.
       -3    1    3    3    0  502  0.11254733494E+04 -0.49306364576E+03 -0.20123358273E+04  0.23578162590E+04  0.10100000352E+00 0. -1.
</event>
<event>
 5   0  0.2078125E-09  0.4000110E+04  0.7818609E-02  0.8004524E-01
        1   -1    0    0  501    0  0.00000000000E+00  0.00000000000E+00  0.14166596956E+04  0.14166596956E+04  0.50400001928E-02 0.  1.
       -1   -1    0    0    0  501  0.00000000000E+00  0.00000000000E+00 -0.28236985279E+04  0.28236985279E+04  0.50400001928E-02 0. -1.
    10030    2    1    2    0    0  0.00000000000E+00  0.00000000000E+00 -0.14070388323E+04  0.42403582235E+04  0.40001099470E+04 0.  0.
        2    1    3    3  502    0  0.12679693630E+04 -0.62480454334E+03  0.79641658323E+03  0.16224692283E+04  0.25500000920E-02 0.  1.
       -2    1    3    3    0  502 -0.12679693630E+04  0.62480454334E+03 -0.22034554155E+04  0.26178889951E+04  0.25500000920E-02 0. -1.
</event>
<event>
 5   0  0.6599276E-09  0.4003764E+04  0.7818609E-02  0.8003788E-01
        2   -1    0    0  501    0  0.00000000000E+00  0.00000000000E+00  0.13059945767E+04  0.13059945768E+04  0.25500000920E-02 0.  1.
       -2   -1    0    0    0  501  0.00000000000E+00  0.00000000000E+00 -0.30685671125E+04  0.30685671125E+04  0.25500000920E-02 0. -1.
    10030    2    1    2    0    0  0.00000000000E+00  0.00000000000E+00 -0.17625725357E+04  0.43745616892E+04  0.40037642325E+04 0.  0.
        2    1    3    3  502    0 -0.27540689873E+03  0.17078779478E+04  0.21940107963E+03  0.17437984052E+04  0.25500000920E-02 0.  1.
       -2    1    3    3    0  502  0.27540689873E+03 -0.17078779478E+04 -0.19819736154E+04  0.26307632840E+04  0.25500000920E-02 0. -1.
</event>
<event>
 5   0  0.2078125E-09  0.3995396E+04  0.7818609E-02  0.8005476E-01
       -1   -1    0    0    0  501  0.00000000000E+00  0.00000000000E+00  0.18725208324E+04  0.18725208324E+04  0.50400001928E-02 0.  1.
        1   -1    0    0  501    0  0.00000000000E+00  0.00000000000E+00 -0.21312433073E+04  0.21312433073E+04  0.50400001928E-02 0. -1.
    10030    2    1    2    0    0  0.00000000000E+00  0.00000000000E+00 -0.25872247496E+03  0.40037641397E+04  0.39953960964E+04 0.  0.
        4    1    3    3  502    0 -0.10800424872E+04 -0.15151413395E+04 -0.85796783932E+03  0.20489644895E+04  0.12699999809E+01 0. -1.
       -4    1    3    3    0  502  0.10800424872E+04  0.15151413395E+04  0.59924536436E+03  0.19547996502E+04  0.12699999809E+01 0.  1.
</event>
<event>
 5   0  0.2078125E-09  0.3999190E+04  0.7818609E-02  0.8004710E-01
        1   -1    0    0  501    0  0.00000000000E+00  0.00000000000E+00  0.20878646620E+04  0.20878646620E+04  0.50400001928E-02 0.  1.
       -1   -1    0    0    0  501  0.00000000000E+00  0.00000000000E+00 -0.19150573205E+04  0.19150573205E+04  0.50400001928E-02 0. -1.
    10030    2    1    2    0    0  0.00000000000E+00  0.00000000000E+00  0.17280734153E+03  0.40029219825E+04  0.39991901706E+04 0.  0.
        4    1    3    3  502    0 -0.72418337062E+03  0.17462026472E+04 -0.56590504368E+03  0.19733006286E+04  0.12699999809E+01 0.  1.
       -4    1    3    3    0  502  0.72418337062E+03 -0.17462026472E+04  0.73871238521E+03  0.20296213539E+04  0.12699999809E+01 0. -1.
</event>
<event>
 5   0  0.6538370E-09  0.3998975E+04  0.7818609E-02  0.8004753E-01
       -2   -1    0    0    0  501  0.00000000000E+00  0.00000000000E+00  0.15562178484E+04  0.15562178484E+04  0.25500000920E-02 0.  1.
        2   -1    0    0  501    0  0.00000000000E+00  0.00000000000E+00 -0.25690168924E+04  0.25690168924E+04  0.25500000920E-02 0. -1.
    10030    2    1    2    0    0  0.00000000000E+00  0.00000000000E+00 -0.10127990439E+04  0.41252347408E+04  0.39989748390E+04 0.  0.
        4    1    3    3  502    0 -0.28980155693E+03 -0.16699612343E+04  0.58784272706E+03  0.17939665970E+04  0.12699999809E+01 0.  1.
       -4    1    3    3    0  502  0.28980155693E+03  0.16699612343E+04 -0.16006417710E+04  0.23312681438E+04  0.12699999809E+01 0. -1.
</event>
<event>
 5   0  0.2078125E-09  0.3999959E+04  0.7818609E-02  0.8004555E-01
        1   -1    0    0  501    0  0.00000000000E+00  0.00000000000E+00  0.15592300887E+04  0.15592300887E+04  0.50400001928E-02 0.  1.
       -1   -1    0    0    0  501  0.00000000000E+00  0.00000000000E+00 -0.25653160168E+04  0.25653160168E+04  0.50400001928E-02 0. -1.
    10030    2    1    2    0    0  0.00000000000E+00  0.00000000000E+00 -0.10060859281E+04  0.41245461055E+04  0.39999589600E+04 0.  0.
        5    1    3    3  502    0 -0.17696062194E+04  0.82102222726E+03 -0.95758140495E+03  0.21731470053E+04  0.46999998093E+01 0. -1.
       -5    1    3    3    0  502  0.17696062194E+04 -0.82102222726E+03 -0.48504523122E+02  0.19513991002E+04  0.46999998093E+01 0.  1.
</event>
<event>
 5   0  0.2078125E-09  0.3999729E+04  0.7818609E-02  0.8004601E-01
       -1   -1    0    0    0  501  0.00000000000E+00  0.00000000000E+00  0.15424264830E+04  0.15424264830E+04  0.50400001928E-02 0. -1.
        1   -1    0    0  501    0  0.00000000000E+00  0.00000000000E+00 -0.25929646168E+04  0.25929646168E+04  0.50400001928E-02 0.  1.
    10030    2    1    2    0    0  0.00000000000E+00  0.00000000000E+00 -0.10505381338E+04  0.41353910998E+04  0.39997286380E+04 0.  0.
        2    1    3    3  502    0  0.78849383148E+03  0.12806118809E+04  0.83768731278E+03  0.17214555893E+04  0.25500000920E-02 0. -1.
       -2    1    3    3    0  502 -0.78849383148E+03 -0.12806118809E+04 -0.18882254466E+04  0.24139355105E+04  0.25500000920E-02 0.  1.
</event>
<event>
 5   0  0.6736335E-09  0.3999400E+04  0.7818609E-02  0.8004668E-01
        2   -1    0    0  501    0  0.00000000000E+00  0.00000000000E+00  0.22570129579E+04  0.22570129579E+04  0.25500000920E-02 0.  1.
       -2   -1    0    0    0  501  0.00000000000E+00  0.00000000000E+00 -0.17717223812E+04  0.17717223812E+04  0.25500000920E-02 0. -1.
    10030    2    1    2    0    0  0.00000000000E+00  0.00000000000E+00  0.48529057665E+03  0.40287353391E+04  0.39994001411E+04 0.  0.
        1    1    3    3  502    0  0.10807593727E+04 -0.14074055361E+04 -0.68605477832E+03  0.19024989681E+04  0.50400001928E-02 0. -1.
       -1    1    3    3    0  502 -0.10807593727E+04  0.14074055361E+04  0.11713453550E+04  0.21262363710E+04  0.50400001928E-02 0.  1.
</event>
<event>
 5   0  0.6645526E-09  0.4000820E+04  0.7818609E-02  0.8004381E-01
       -2   -1    0    0    0  501  0.00000000000E+00  0.00000000000E+00  0.25533821750E+04  0.25533821750E+04  0.25500000920E-02 0. -1.
        2   -1    0    0  501    0  0.00000000000E+00  0.00000000000E+00 -0.15671919033E+04  0.15671919033E+04  0.25500000920E-02 0.  1.
    10030    2    1    2    0    0  0.00000000000E+00  0.00000000000E+00  0.98619027171E+03  0.41205740782E+04  0.40008198513E+04 0.  0.
        3    1    3    3  502    0  0.15926387879E+04 -0.87983800754E+03 -0.36306720764E+03  0.18553789467E+04  0.10100000352E+00 0. -1.
       -3    1    3    3    0  502 -0.15926387879E+04  0.87983800754E+03  0.13492574794E+04  0.22651951316E+04  0.10100000352E+00 0.  1.
</event>
<event>
 5   0  0.6599276E-09  0.3997109E+04  0.7818609E-02  0.8005130E-01
       -2   -1    0    0    0  501  0.00000000000E+00  0.00000000000E+00  0.23924818854E+04  0.23924818854E+04  0.25500000920E-02 0. -1.
        2   -1    0    0  501    0  0.00000000000E+00  0.00000000000E+00 -0.16694877402E+04  0.16694877402E+04  0.25500000920E-02 0.  1.
    10030    2    1    2    0    0  0.00000000000E+00  0.00000000000E+00  0.72299414521E+03  0.40619696255E+04  0.39971085430E+04 0.  0.
        2    1    3    3  502    0  0.22967583326E+03  0.12042232799E+04  0.19654994431E+04  0.23164828420E+04  0.25500000920E-02 0. -1.
       -2    1    3    3    0  502 -0.22967583326E+03 -0.12042232799E+04 -0.12425052979E+04  0.17454867836E+04  0.25500000920E-02 0.  1.
</event>
<event>
 5   0  0.2078125E-09  0.4001343E+04  0.7818609E-02  0.8004276E-01
        1   -1    0    0  501    0  0.00000000000E+00  0.00000000000E+00  0.18599472244E+04  0.18599472244E+04  0.50400001928E-02 0. -1.
       -1   -1    0    0    0  501  0.00000000000E+00  0.00000000000E+00 -0.21520434683E+04  0.21520434683E+04  0.50400001928E-02 0.  1.
    10030    2    1    2    0    0  0.00000000000E+00  0.00000000000E+00 -0.29209624395E+03  0.40119906927E+04  0.40013434123E+04 0.  0.
        1    1    3    3  502    0 -0.15257742323E+04  0.12026243503E+04 -0.62522662860E+03  0.20408823271E+04  0.50400001928E-02 0.  1.
       -1    1    3    3    0  502  0.15257742323E+04 -0.12026243503E+04  0.33313038465E+03  0.19711083656E+04  0.50400001928E-02 0. -1.
</event>
<event>
 5   0  0.6538370E-09  0.3997878E+04  0.7818609E-02  0.8004975E-01
       -2   -1    0    0    0  501  0.00000000000E+00  0.00000000000E+00  0.25651006607E+04  0.25651006607E+04  0.25500000920E-02 0. -1.
        2   -1    0    0  501    0  0.00000000000E+00  0.00000000000E+00 -0.15577385542E+04  0.15577385542E+04  0.25500000920E-02 0.  1.
    10030    2    1    2    0    0  0.00000000000E+00  0.00000000000E+00  0.10073621065E+04  0.41228392149E+04  0.39978775342E+04 0.  0.
        4    1    3    3  502    0 -0.19698078462E+04 -0.27499421313E+03  0.70990619065E+03  0.21118080359E+04  0.12699999809E+01 0. -1.
       -4    1    3    3    0  502  0.19698078462E+04  0.27499421313E+03  0.29745591582E+03  0.20110311790E+04  0.12699999809E+01 0.  1.
</event>
<event>
 5   0  0.2078125E-09  0.3998957E+04  0.7818609E-02  0.8004757E-01
       -1   -1    0    0    0  501  0.00000000000E+00  0.00000000000E+00  0.20006146973E+04  0.20006146973E+04  0.50400001928E-02 0. -1.
        1   -1    0    0  501    0  0.00000000000E+00  0.00000000000E+00 -0.19983433582E+04  0.19983433582E+04  0.50400001928E-02 0.  1.
    10030    2    1    2    0    0  0.00000000000E+00  0.00000000000E+00  0.22713391448E+01  0.39989580555E+04  0.39989574105E+04 0.  0.
        3    1    3    3  502    0 -0.76546938291E+03 -0.10731260621E+03  0.18451684263E+04  0.20005264065E+04  0.10100000352E+00 0. -1.
       -3    1    3    3    0  502  0.76546938291E+03  0.10731260621E+03 -0.18428970872E+04  0.19984316490E+04  0.10100000352E+00 0.  1.
</event>
<event>
 5   0  0.6645526E-09  0.3999447E+04  0.7818609E-02  0.8004658E-01
        2   -1    0    0  501    0  0.00000000000E+00  0.00000000000E+00  0.20278567408E+04  0.20278567408E+04  0.25500000920E-02 0.  1.
       -2   -1    0    0    0  501  0.00000000000E+00  0.00000000000E+00 -0.19719806486E+04  0.19719806486E+04  0.25500000920E-02 0. -1.
    10030    2    1    2    0    0  0.00000000000E+00  0.00000000000E+00  0.55876092167E+02  0.39998373894E+04  0.39994470873E+04 0.  0.
        3    1    3    3  502    0  0.10813709926E+04 -0.60034981109E+03  0.15994319409E+04  0.20218718216E+04  0.10100000352E+00 0.  1.
       -3    1    3    3    0  502 -0.10813709926E+04  0.60034981109E+03 -0.15435558487E+04  0.19779655678E+04  0.10100000352E+00 0. -1.
</event>
<event>
 5   0  0.6645526E-09  0.4001044E+04  0.7818609E-02  0.8004336E-01
       -2   -1    0    0    0  501  0.00000000000E+00  0.00000000000E+00  0.12993067493E+04  0.12993067493E+04  0.25500000920E-02 0.  1.
        2   -1    0    0  501    0  0.00000000000E+00  0.00000000000E+00 -0.30801724124E+04  0.30801724124E+04  0.25500000920E-02 0. -1.
    10030    2    1    2    0    0  0.00000000000E+00  0.00000000000E+00 -0.17808656631E+04  0.43794791618E+04  0.40010442660E+04 0.  0.
        3    1    3    3  502    0  0.79269899329E+03 -0.10041105958E+04 -0.25739155304E+04  0.28743087778E+04  0.10100000352E+00 0. -1.
       -3    1    3    3    0  502 -0.79269899329E+03  0.10041105958E+04  0.79304986726E+03  0.15051703840E+04  0.10100000352E+00 0.  1.
</event>
<event>
 5   0  0.2078125E-09  0.4001174E+04  0.7818609E-02  0.8004310E-01
       -1   -1    0    0    0  501  0.00000000000E+00  0.00000000000E+00  0.21921567905E+04  0.21921567905E+04  0.50400001928E-02 0. -1.
        1   -1    0    0  501    0  0.00000000000E+00  0.00000000000E+00 -0.18257579291E+04  0.18257579291E+04  0.50400001928E-02 0.  1.
    10030    2    1    2    0    0  0.00000000000E+00  0.00000000000E+00  0.36639886140E+03  0.40179147195E+04  0.40011736488E+04 0.  0.
        1    1    3    3  502    0  0.17327902327E+04  0.89024495187E+03  0.64035092240E+03  0.20506455980E+04  0.50400001928E-02 0. -1.
       -1    1    3    3    0  502 -0.17327902327E+04 -0.89024495187E+03 -0.27395206100E+03  0.19672691215E+04  0.50400001928E-02 0.  1.
</event>
<event>
 5   0  0.2078125E-09  0.3999674E+04  0.7818609E-02  0.8004612E-01
        1   -1    0    0  501    0  0.00000000000E+00  0.00000000000E+00  0.17794642831E+04  0.17794642831E+04  0.50400001928E-02 0. -1.
       -1   -1    0    0    0  501  0.00000000000E+00  0.00000000000E+00 -0.22475009986E+04  0.22475009986E+04  0.50400001928E-02 0.  1.
    10030    2    1    2    0    0  0.00000000000E+00  0.00000000000E+00 -0.46803671549E+03  0.40269652816E+04  0.39996738633E+04 0.  0.
        1    1    3    3  502    0 -0.15251881910E+04 -0.80744191280E+03  0.78341458130E+03  0.18952308215E+04  0.50400001928E-02 0. -1.
       -1    1    3    3    0  502  0.15251881910E+04  0.80744191280E+03 -0.12514512968E+04  0.21317344602E+04  0.50400001928E-02 0.  1.
</event>
<event>
 5   0  0.6736335E-09  0.4000191E+04  0.7818609E-02  0.8004508E-01
        2   -1    0    0  501    0  0.00000000000E+00  0.00000000000E+00  0.16587063876E+04  0.16587063876E+04  0.25500000920E-02 0.  1.
       -2   -1    0    0    0  501  0.00000000000E+00  0.00000000000E+00 -0.24117483433E+04  0.24117483433E+04  0.25500000920E-02 0. -1.
    10030    2    1    2    0    0  0.00000000000E+00  0.00000000000E+00 -0.75304195567E+03  0.40704547309E+04  0.40001911866E+04 0.  0.
        1    1    3    3  502    0 -0.14809702911E+04 -0.86945040960E+03 -0.14197933385E+04  0.22282347591E+04  0.50400001928E-02 0. -1.
       -1    1    3    3    0  502  0.14809702911E+04  0.86945040960E+03  0.66675138281E+03  0.18422199717E+04  0.50400001928E-02 0.  1.
</event>
<event>
 5   0  0.2078125E-09  0.3998588E+04  0.7818609E-02  0.8004831E-01
        1   -1    0    0  501    0  0.00000000000E+00  0.00000000000E+00  0.30308828957E+04  0.30308828957E+04  0.50400001928E-02 0. -1.
       -1   -1    0    0    0  501  0.00000000000E+00  0.00000000000E+00 -0.13188158266E+04  0.13188158266E+04  0.50400001928E-02 0.  1.
    10030    2    1    2    0    0  0.00000000000E+00  0.00000000000E+00  0.17120670691E+04  0.43496987223E+04  0.39985879165E+04 0.  0.
        4    1    3    3  502    0 -0.11647499560E+04  0.56876980508E+03 -0.79980754619E+03  0.15231005466E+04  0.12699999809E+01 0.  1.
       -4    1    3    3    0  502  0.11647499560E+04 -0.56876980508E+03  0.25118746153E+04  0.28265981757E+04  0.12699999809E+01 0. -1.
</event>
<event>
 5   0  0.6547327E-09  0.3999472E+04  0.7818609E-02  0.8004653E-01
        2   -1    0    0  501    0  0.00000000000E+00  0.00000000000E+00  0.20795024383E+04  0.20795024383E+04  0.25500000920E-02 0. -1.
       -2   -1    0    0    0  501  0.00000000000E+00  0.00000000000E+00 -0.19230288297E+04  0.19230288297E+04  0.25500000920E-02 0.  1.
    10030    2    1    2    0    0  0.00000000000E+00  0.00000000000E+00  0.15647360858E+03  0.40025312679E+04  0.39994715352E+04 0.  0.
        5    1    3    3  502    0  0.11607785860E+04 -0.12927794620E+04  0.10690626154E+04  0.20400006443E+04  0.46999998093E+01 0. -1.
       -5    1    3    3    0  502 -0.11607785860E+04  0.12927794620E+04 -0.91258900680E+03  0.19625306236E+04  0.46999998093E+01 0.  1.
</event>
<event>
 5   0  0.2078125E-09  0.3999350E+04  0.7818609E-02  0.8004678E-01
       -1   -1    0    0    0  501  0.00000000000E+00  0.00000000000E+00  0.15526229691E+04  0.15526229691E+04  0.50400001928E-02 0. -1.
        1   -1    0    0  501    0  0.00000000000E+00  0.00000000000E+00 -0.25754479250E+04  0.25754479250E+04  0.50400001928E-02 0.  1.
    10030    2    1    2    0    0  0.00000000000E+00  0.00000000000E+00 -0.10228249559E+04  0.41280708942E+04  0.39993497493E+04 0.  0.
        2    1    3    3  502    0  0.15170118870E+03 -0.18846842256E+04  0.16042194221E+03  0.18975729447E+04  0.25500000920E-02 0. -1.
       -2    1    3    3    0  502 -0.15170118870E+03  0.18846842256E+04 -0.11832468981E+04  0.22304979495E+04  0.25500000920E-02 0.  1.
</event>
<event>
 5   0  0.2078125E-09  0.4001878E+04  0.7818609E-02  0.8004168E-01
       -1   -1    0    0    0  501  0.00000000000E+00  0.00000000000E+00  0.31533579178E+04  0.31533579178E+04  0.50400001928E-02 0.  1.
        1   -1    0    0  501    0  0.00000000000E+00  0.00000000000E+00 -0.12696803969E+04  0.12696803969E+04  0.50400001928E-02 0. -1.
    10030    2    1    2    0    0  0.00000000000E+00  0.00000000000E+00  0.18836775209E+04  0.44230383147E+04  0.40018779256E+04 0.  0.
        5    1    3    3  502    0 -0.15927766621E+04  0.28386768577E+03  0.22431235787E+04  0.27657085598E+04  0.46999998093E+01 0. -1.
       -5    1    3    3    0  502  0.15927766621E+04 -0.28386768577E+03 -0.35944605777E+03  0.16573297550E+04  0.46999998093E+01 0.  1.
</event>
<event>
 5   0  0.2078125E-09  0.4002887E+04  0.7818609E-02  0.8003964E-01
       -1   -1    0    0    0  501  0.00000000000E+00  0.00000000000E+00  0.18721378026E+04  0.18721378026E+04  0.50400001928E-02 0.  1.
        1   -1    0    0  501    0  0.00000000000E+00  0.00000000000E+00 -0.21396796986E+04  0.21396796986E+04  0.50400001928E-02 0. -1.
    10030    2    1    2    0    0  0.00000000000E+00  0.00000000000E+00 -0.26754189604E+03  0.40118175012E+04  0.40028865831E+04 0.  0.
        3    1    3    3  502    0 -0.16797297223E+04  0.68945019787E+03  0.71009439682E+03  0.19496326777E+04  0.10100000352E+00 0.  1.
       -3    1    3    3    0  502  0.16797297223E+04 -0.68945019787E+03 -0.97763629286E+03  0.20621848236E+04  0.10100000352E+00 0. -1.
</event>
<event>
 5   0  0.6547327E-09  0.4000835E+04  0.7818609E-02  0.8004378E-01
        2   -1    0    0  501    0  0.00000000000E+00  0.00000000000E+00  0.13724507522E+04  0.13724507522E+04  0.25500000920E-02 0.  1.
       -2   -1    0    0    0  501  0.00000000000E+00  0.00000000000E+00 -0.29157117164E+04  0.29157117164E+04  0.25500000920E-02 0. -1.
    10030    2    1    2    0    0  0.00000000000E+00  0.00000000000E+00 -0.15432609642E+04  0.42881624686E+04  0.40008352820E+04 0.  0.
        5    1    3    3  502    0  0.11817890356E+04 -0.14071722335E+04 -0.16189012413E+04  0.24490043566E+04  0.46999998093E+01 0. -1.
       -5    1    3    3    0  502 -0.11817890356E+04  0.14071722335E+04  0.75640277078E+02  0.18391581120E+04  0.46999998093E+01 0.  1.
</event>
<event>
 5   0  0.2078125E-09  0.3981501E+04  0.7818609E-02  0.8008289E-01
       -1   -1    0    0    0  501  0.00000000000E+00  0.00000000000E+00  0.17246818847E+04  0.17246818847E+04  0.50400001928E-02 0.  1.
        1   -1    0    0  501    0  0.00000000000E+00  0.00000000000E+00 -0.22978659850E+04  0.22978659850E+04  0.50400001928E-02 0. -1.
    10030    2    1    2    0    0  0.00000000000E+00  0.00000000000E+00 -0.57318410028E+03  0.40225478697E+04  0.39815011430E+04 0.  0.
        2    1    3    3  502    0  0.48853233578E+03  0.16291747837E+04  0.75858434467E+03  0.18623438262E+04  0.25500000920E-02 0.  1.
       -2    1    3    3    0  502 -0.48853233578E+03 -0.16291747837E+04 -0.13317684449E+04  0.21602040436E+04  0.25500000920E-02 0. -1.
</event>
<event>
 5   0  0.2078125E-09  0.3999301E+04  0.7818609E-02  0.8004688E-01
        1   -1    0    0  501    0  0.00000000000E+00  0.00000000000E+00  0.23991039392E+04  0.23991039392E+04  0.50400001928E-02 0. -1.
       -1   -1    0    0    0  501  0.00000000000E+00  0.00000000000E+00 -0.16667067640E+04  0.16667067640E+04  0.50400001928E-02 0.  1.
    10030    2    1    2    0    0  0.00000000000E+00  0.00000000000E+00  0.73239717524E+03  0.40658107032E+04  0.39993013205E+04 0.  0.
        3    1    3    3  502    0  0.86860427595E+03 -0.16443078198E+04 -0.38113263551E+03  0.18982844072E+04  0.10100000352E+00 0.  1.
       -3    1    3    3    0  502 -0.86860427595E+03  0.16443078198E+04  0.11135298108E+04  0.21675262960E+04  0.10100000352E+00 0. -1.
</event>
<event>
 5   0  0.6645526E-09  0.3999608E+04  0.7818609E-02  0.8004626E-01
       -2   -1    0    0    0  501  0.00000000000E+00  0.00000000000E+00  0.13938444042E+04  0.13938444042E+04  0.25500000920E-02 0. -1.
        2   -1    0    0  501    0  0.00000000000E+00  0.00000000000E+00 -0.28691976253E+04  0.28691976253E+04  0.25500000920E-02 0.  1.
    10030    2    1    2    0    0  0.00000000000E+00  0.00000000000E+00 -0.14753532211E+04  0.42630420296E+04  0.39996075081E+04 0.  0.
        3    1    3    3  502    0  0.61061597399E+03  0.23340442052E+03 -0.27521011673E+04  0.28286728931E+04  0.10100000352E+00 0.  1.
       -3    1    3    3    0  502 -0.61061597399E+03 -0.23340442052E+03  0.12767479462E+04  0.14343691364E+04  0.10100000352E+00 0. -1.
</event>
<event>
 5   0  0.6547327E-09  0.4000935E+04  0.7818609E-02  0.8004358E-01
       -2   -1    0    0    0  501  0.00000000000E+00  0.00000000000E+00  0.26542669917E+04  0.26542669917E+04  0.25500000920E-02 0.  1.
        2   -1    0    0  501    0  0.00000000000E+00  0.00000000000E+00 -0.15077119476E+04  0.15077119476E+04  0.25500000920E-02 0. -1.
    10030    2    1    2    0    0  0.00000000000E+00  0.00000000000E+00  0.11465550441E+04  0.41619789393E+04  0.40009349184E+04 0.  0.
        5    1    3    3  502    0  0.21304993991E+03  0.38179983632E+03  0.26039505770E+04  0.26404056676E+04  0.46999998093E+01 0.  1.
       -5    1    3    3    0  502 -0.21304993991E+03 -0.38179983632E+03 -0.14573955329E+04  0.15215732717E+04  0.46999998093E+01 0. -1.
</event>
<event>
 5   0  0.6736335E-09  0.3996510E+04  0.7818609E-02  0.8005251E-01
        2   -1    0    0  501    0  0.00000000000E+00  0.00000000000E+00  0.23200986587E+04  0.23200986587E+04  0.25500000920E-02 0.  1.
       -2   -1    0    0    0  501  0.00000000000E+00  0.00000000000E+00 -0.17210571519E+04  0.17210571519E+04  0.25500000920E-02 0. -1.
    10030    2    1    2    0    0  0.00000000000E+00  0.00000000000E+00  0.59904150679E+03  0.40411558106E+04  0.39965096721E+04 0.  0.
        1    1    3    3  502    0  0.19231653832E+04 -0.54131196744E+03  0.33787404607E+03  0.20262632130E+04  0.50400001928E-02 0.  1.
       -1    1    3    3    0  502 -0.19231653832E+04  0.54131196744E+03  0.26116746072E+03  0.20148925976E+04  0.50400001928E-02 0. -1.
</event>
<event>
 5   0  0.2078125E-09  0.4000525E+04  0.7818609E-02  0.8004441E-01
       -1   -1    0    0    0  501  0.00000000000E+00  0.00000000000E+00  0.23876378432E+04  0.23876378433E+04  0.50400001928E-02 0. -1.
        1   -1    0    0  501    0  0.00000000000E+00  0.00000000000E+00 -0.16757355070E+04  0.16757355070E+04  0.50400001928E-02 0.  1.
    10030    2    1    2    0    0  0.00000000000E+00  0.00000000000E+00  0.71190233626E+03  0.40633733502E+04  0.40005247215E+04 0.  0.
        4    1    3    3  502    0  0.13411583450E+04  0.14788259173E+04  0.48206334157E+03  0.20537815070E+04  0.12699999809E+01 0. -1.
       -4    1    3    3    0  502 -0.13411583450E+04 -0.14788259173E+04  0.22983899469E+03  0.20095918433E+04  0.12699999809E+01 0.  1.
</event>
<event>
 5   0  0.2078125E-09  0.4005835E+04  0.7818609E-02  0.8003370E-01
       -1   -1    0    0    0  501  0.00000000000E+00  0.00000000000E+00  0.23964566286E+04  0.23964566286E+04  0.50400001928E-02 0.  1.
        1   -1    0    0  501    0  0.00000000000E+00  0.00000000000E+00 -0.16740044939E+04  0.16740044939E+04  0.50400001928E-02 0. -1.
    10030    2    1    2    0    0  0.00000000000E+00  0.00000000000E+00  0.72245213469E+03  0.40704611225E+04  0.40058353265E+04 0.  0.
        5    1    3    3  502    0  0.19260515960E+04 -0.18228985888E+03  0.88800325999E+03  0.21287264321E+04  0.46999998093E+01 0.  1.
       -5    1    3    3    0  502 -0.19260515960E+04  0.18228985888E+03 -0.16555112530E+03  0.19417346904E+04  0.46999998093E+01 0. -1.
</event>
<event>
 5   0  0.2078125E-09  0.3998884E+04  0.7818609E-02  0.8004772E-01
       -1   -1    0    0    0  501  0.00000000000E+00  0.00000000000E+00  0.22481042877E+04  0.22481042878E+04  0.50400001928E-02 0.  1.
        1   -1    0    0  501    0  0.00000000000E+00  0.00000000000E+00 -0.17782844314E+04  0.17782844314E+04  0.50400001928E-02 0. -1.
    10030    2    1    2    0    0  0.00000000000E+00  0.00000000000E+00  0.46981985638E+03  0.40263887191E+04  0.39988842719E+04 0.  0.
        3    1    3    3  502    0  0.97449656817E+03  0.10147605048E+04 -0.11955609494E+04  0.18462796205E+04  0.10100000352E+00 0. -1.
       -3    1    3    3    0  502 -0.97449656817E+03 -0.10147605048E+04  0.16653808057E+04  0.21801090986E+04  0.10100000352E+00 0.  1.
</event>
<event>
 5   0  0.6599276E-09  0.3996450E+04  0.7818609E-02  0.8005263E-01
       -2   -1    0    0    0  501  0.00000000000E+00  0.00000000000E+00  0.14840574323E+04  0.14840574324E+04  0.25500000920E-02 0. -1.
        2   -1    0    0  501    0  0.00000000000E+00  0.00000000000E+00 -0.26905311709E+04  0.26905311709E+04  0.25500000920E-02 0.  1.
    10030    2    1    2    0    0  0.00000000000E+00  0.00000000000E+00 -0.12064737386E+04  0.41745886033E+04  0.39964498151E+04 0.  0.
        2    1    3    3  502    0 -0.19897677940E+04  0.16630716938E+03 -0.52186170027E+03  0.20637765341E+04  0.25500000920E-02 0.  1.
       -2    1    3    3    0  502  0.19897677940E+04 -0.16630716938E+03 -0.68461203833E+03  0.21108120692E+04  0.25500000920E-02 0. -1.
</event>
<event>
 5   0  0.2078125E-09  0.4000614E+04  0.7818609E-02  0.8004423E-01
        1   -1    0    0  501    0  0.00000000000E+00  0.00000000000E+00  0.27655336957E+04  0.27655336957E+04  0.50400001928E-02 0. -1.
       -1   -1    0    0    0  501  0.00000000000E+00  0.00000000000E+00 -0.14468193807E+04  0.14468193807E+04  0.50400001928E-02 0.  1.
    10030    2    1    2    0    0  0.00000000000E+00  0.00000000000E+00  0.13187143150E+04  0.42123530764E+04  0.40006138274E+04 0.  0.
        3    1    3    3  502    0 -0.14549192537E+04 -0.12875197452E+04  0.11607212338E+04  0.22631329881E+04  0.10100000352E+00 0.  1.
       -3    1    3    3    0  502  0.14549192537E+04  0.12875197452E+04  0.15799308126E+03  0.19492200884E+04  0.10100000352E+00 0. -1.
</event>
<event>
 5   0  0.2078125E-09  0.4010050E+04  0.7818609E-02  0.8002522E-01
        1   -1    0    0  501    0  0.00000000000E+00  0.00000000000E+00  0.29086361289E+04  0.29086361289E+04  0.50400001928E-02 0.  1.
       -1   -1    0    0    0  501  0.00000000000E+00  0.00000000000E+00 -0.13821342461E+04  0.13821342461E+04  0.50400001928E-02 0. -1.
    10030    2    1    2    0    0  0.00000000000E+00  0.00000000000E+00  0.15265018828E+04  0.42907703749E+04  0.40100501758E+04 0.  0.
        2    1    3    3  502    0  0.18386284897E+04  0.35151226672E+03 -0.53740980607E+01  0.18719360239E+04  0.25500000920E-02 0. -1.
       -2    1    3    3    0  502 -0.18386284897E+04 -0.35151226672E+03  0.15318759808E+04  0.24188343510E+04  0.25500000920E-02 0.  1.
</event>
<event>
 5   0  0.2078125E-09  0.3999737E+04  0.7818609E-02  0.8004600E-01
        1   -1    0    0  501    0  0.00000000000E+00  0.00000000000E+00  0.16364242163E+04  0.16364242163E+04  0.50400001928E-02 0. -1.
       -1   -1    0    0    0  501  0.00000000000E+00  0.00000000000E+00 -0.24440321130E+04  0.24440321130E+04  0.50400001928E-02 0.  1.
    10030    2    1    2    0    0  0.00000000000E+00  0.00000000000E+00 -0.80760789672E+03  0.40804563294E+04  0.39997366590E+04 0.  0.
        4    1    3    3  502    0 -0.87749579935E+02  0.19765551384E+04 -0.10636990300E+03  0.19813597283E+04  0.12699999809E+01 0. -1.
       -4    1    3    3    0  502  0.87749579935E+02 -0.19765551384E+04 -0.70123799372E+03  0.20990966011E+04  0.12699999809E+01 0.  1.
</event>
<event>
 5   0  0.6736335E-09  0.3998888E+04  0.7818609E-02  0.8004771E-01
       -2   -1    0    0    0  501  0.00000000000E+00  0.00000000000E+00  0.11608313254E+04  0.11608313254E+04  0.25500000920E-02 0. -1.
        2   -1    0    0  501    0  0.00000000000E+00  0.00000000000E+00 -0.34438906643E+04  0.34438906643E+04  0.25500000920E-02 0.  1.
    10030    2    1    2    0    0  0.00000000000E+00  0.00000000000E+00 -0.22830593389E+04  0.46047219897E+04  0.39988879276E+04 0.  0.
        1    1    3    3  502    0  0.16542202282E+04 -0.11228990052E+04 -0.11653917241E+04  0.23141919994E+04  0.50400001928E-02 0.  1.
       -1    1    3    3    0  502 -0.16542202282E+04  0.11228990052E+04 -0.11176676149E+04  0.22905299903E+04  0.50400001928E-02 0. -1.
</event>
<event>
 5   0  0.6645526E-09  0.3997981E+04  0.7818609E-02  0.8004954E-01
       -2   -1    0    0    0  501  0.00000000000E+00  0.00000000000E+00  0.17689445816E+04  0.17689445816E+04  0.25500000920E-02 0. -1.
        2   -1    0    0  501    0  0.00000000000E+00  0.00000000000E+00 -0.22589527902E+04  0.22589527902E+04  0.25500000920E-02 0.  1.
    10030    2    1    2    0    0  0.00000000000E+00  0.00000000000E+00 -0.49000820861E+03  0.40278973717E+04  0.39979806394E+04 0.  0.
        3    1    3    3  502    0  0.17858360850E+04  0.37143381366E+03  0.57891043939E+03  0.19137165170E+04  0.10100000352E+00 0. -1.
       -3    1    3    3    0  502 -0.17858360850E+04 -0.37143381366E+03 -0.10689186480E+04  0.21141808547E+04  0.10100000352E+00 0.  1.
</event>
<event>
 5   0  0.2078125E-09  0.4000327E+04  0.7818609E-02  0.8004481E-01
        1   -1    0    0  501    0  0.00000000000E+00  0.00000000000E+00  0.11765712361E+04  0.11765712361E+04  0.50400001928E-02 0.  1.
       -1   -1    0    0    0  501  0.00000000000E+00  0.00000000000E+00 -0.34002641926E+04  0.34002641926E+04  0.50400001928E-02 0. -1.
    10030    2    1    2    0    0  0.00000000000E+00  0.00000000000E+00 -0.22236929565E+04  0.45768354288E+04  0.40003265088E+04 0.  0.
        2    1    3    3  502    0 -0.10703821797E+04  0.54134589240E+03  0.71941019013E+03  0.13986866724E+04  0.25500000920E-02 0.  1.
       -2    1    3    3    0  502  0.10703821797E+04 -0.54134589240E+03 -0.29431031467E+04  0.31781487564E+04  0.25500000920E-02 0. -1.
</event>
<event>
 5   0  0.2078125E-09  0.3999293E+04  0.7818609E-02  0.8004689E-01
       -3   -1    0    0    0  501  0.00000000000E+00  0.00000000000E+00  0.19970659807E+04  0.19970659833E+04  0.10100000352E+00 0.  1.
        3   -1    0    0  501    0  0.00000000000E+00  0.00000000000E+00 -0.20022305027E+04  0.20022305052E+04  0.10100000352E+00 0. -1.
    10030    2    1    2    0    0  0.00000000000E+00  0.00000000000E+00 -0.51645219379E+01  0.39992964885E+04  0.39992931539E+04 0.  0.
        4    1    3    3  502    0  0.83446243679E+03 -0.16189392183E+04 -0.82798774020E+03  0.20007141379E+04  0.12699999809E+01 0. -1.
       -4    1    3    3    0  502 -0.83446243679E+03  0.16189392183E+04  0.82282321826E+03  0.19985823506E+04  0.12699999809E+01 0.  1.
</event>
<event>
 5   0  0.6547327E-09  0.4000216E+04  0.7818609E-02  0.8004503E-01
       -2   -1    0    0    0  501  0.00000000000E+00  0.00000000000E+00  0.18032931929E+04  0.18032931929E+04  0.25500000920E-02 0.  1.
        2   -1    0    0  501    0  0.00000000000E+00  0.00000000000E+00 -0.22184030164E+04  0.22184030164E+04  0.25500000920E-02 0. -1.
    10030    2    1    2    0    0  0.00000000000E+00  0.00000000000E+00 -0.41510982353E+03  0.40216962093E+04  0.40002155235E+04 0.  0.
        5    1    3    3  502    0  0.15295953137E+03 -0.86544622958E+03  0.15987607799E+04  0.18244045373E+04  0.46999998093E+01 0.  1.
       -5    1    3    3    0  502 -0.15295953137E+03  0.86544622958E+03 -0.20138706034E+04  0.21972916720E+04  0.46999998093E+01 0. -1.
</event>
<event>
 5   0  0.6736335E-09  0.4000383E+04  0.7818609E-02  0.8004469E-01
       -2   -1    0    0    0  501  0.00000000000E+00  0.00000000000E+00  0.27585086406E+04  0.27585086406E+04  0.25500000920E-02 0. -1.
        2   -1    0    0  501    0  0.00000000000E+00  0.00000000000E+00 -0.14503365280E+04  0.14503365280E+04  0.25500000920E-02 0.  1.
    10030    2    1    2    0    0  0.00000000000E+00  0.00000000000E+00  0.13081721126E+04  0.42088451686E+04  0.40003829038E+04 0.  0.
        1    1    3    3  502    0 -0.14521911760E+04 -0.10079242194E+04  0.16388050161E+04  0.24104879848E+04  0.50400001928E-02 0. -1.
       -1    1    3    3    0  502  0.14521911760E+04  0.10079242194E+04 -0.33063290350E+03  0.17983571839E+04  0.50400001928E-02 0.  1.
</event>
<event>
 5   0  0.2078125E-09  0.4001632E+04  0.7818609E-02  0.8004217E-01
        1   -1    0    0  501    0  0.00000000000E+00  0.00000000000E+00  0.20427753119E+04  0.20427753119E+04  0.50400001928E-02 0. -1.
       -1   -1    0    0    0  501  0.00000000000E+00  0.00000000000E+00 -0.19597188328E+04  0.19597188328E+04  0.50400001928E-02 0.  1.
    10030    2    1    2    0    0  0.00000000000E+00  0.00000000000E+00  0.83056479096E+02  0.40024941447E+04  0.40016322919E+04 0.  0.
        4    1    3    3  502    0  0.11411949583E+04  0.26933075267E+03  0.16631110947E+04  0.20348968311E+04  0.12699999809E+01 0. -1.
       -4    1    3    3    0  502 -0.11411949583E+04 -0.26933075267E+03 -0.15800546156E+04  0.19675973136E+04  0.12699999809E+01 0.  1.
</event>
<event>
 5   0  0.6538370E-09  0.3999494E+04  0.7818609E-02  0.8004649E-01
        2   -1    0    0  501    0  0.00000000000E+00  0.00000000000E+00  0.31319137530E+04  0.31319137530E+04  0.25500000920E-02 0.  1.
       -2   -1    0    0    0  501  0.00000000000E+00  0.00000000000E+00 -0.12768515233E+04  0.12768515233E+04  0.25500000920E-02 0. -1.
    10030    2    1    2    0    0  0.00000000000E+00  0.00000000000E+00  0.18550622297E+04  0.44087652763E+04  0.39994943912E+04 0.  0.
        4    1    3    3  502    0  0.90824797896E+03 -0.17106892942E+04  0.14760610627E+04  0.24351858504E+04  0.12699999809E+01 0.  1.
       -4    1    3    3    0  502 -0.90824797896E+03  0.17106892942E+04  0.37900116700E+03  0.19735794258E+04  0.12699999809E+01 0. -1.
</event>
<event>
 5   0  0.6736335E-09  0.4000960E+04  0.7818609E-02  0.8004353E-01
       -2   -1    0    0    0  501  0.00000000000E+00  0.00000000000E+00  0.20081681573E+04  0.20081681573E+04  0.25500000920E-02 0.  1.
        2   -1    0    0  501    0  0.00000000000E+00  0.00000000000E+00 -0.19928216559E+04  0.19928216559E+04  0.25500000920E-02 0. -1.
    10030    2    1    2    0    0  0.00000000000E+00  0.00000000000E+00  0.15346501341E+02  0.40009898132E+04  0.40009603810E+04 0.  0.
        1    1    3    3  502    0 -0.13793835308E+04  0.64208680837E+03 -0.12911613875E+04  0.19955129975E+04  0.50400001928E-02 0. -1.
       -1    1    3    3    0  502  0.13793835308E+04 -0.64208680837E+03  0.13065078889E+04  0.20054768157E+04  0.50400001928E-02 0.  1.
</event>
<event>
 5   0  0.6547327E-09  0.3998032E+04  0.7818609E-02  0.8004944E-01
       -2   -1    0    0    0  501  0.00000000000E+00  0.00000000000E+00  0.16738946945E+04  0.16738946945E+04  0.25500000920E-02 0. -1.
        2   -1    0    0  501    0  0.00000000000E+00  0.00000000000E+00 -0.23872855516E+04  0.23872855516E+04  0.25500000920E-02 0.  1.
    10030    2    1    2    0    0  0.00000000000E+00  0.00000000000E+00 -0.71339085707E+03  0.40611802461E+04  0.39980318254E+04 0.  0.
        5    1    3    3  502    0 -0.19094551165E+01 -0.13281542579E+04 -0.18742960855E+04  0.22971733249E+04  0.46999998093E+01 0.  1.
       -5    1    3    3    0  502  0.19094551165E+01  0.13281542579E+04  0.11609052284E+04  0.17640069212E+04  0.46999998093E+01 0. -1.
</event>
<event>
 5   0  0.6547327E-09  0.3999727E+04  0.7818609E-02  0.8004602E-01
       -2   -1    0    0    0  501  0.00000000000E+00  0.00000000000E+00  0.16989286641E+04  0.16989286641E+04  0.25500000920E-02 0.  1.
        2   -1    0    0  501    0  0.00000000000E+00  0.00000000000E+00 -0.23541034713E+04  0.23541034713E+04  0.25500000920E-02 0. -1.
    10030    2    1    2    0    0  0.00000000000E+00  0.00000000000E+00 -0.65517480721E+03  0.40530321354E+04  0.39997269235E+04 0.  0.
        5    1    3    3  502    0  0.16509102384E+04  0.11007620165E+04 -0.74762480653E+02  0.19856467840E+04  0.46999998093E+01 0. -1.
       -5    1    3    3    0  502 -0.16509102384E+04 -0.11007620165E+04 -0.58041232656E+03  0.20673853514E+04  0.46999998093E+01 0.  1.
</event>
<event>
 5   0  0.6547327E-09  0.3999794E+04  0.7818609E-02  0.8004588E-01
       -2   -1    0    0    0  501  0.00000000000E+00  0.00000000000E+00  0.13729471705E+04  0.13729471705E+04  0.25500000920E-02 0. -1.
        2   -1    0    0  501    0  0.00000000000E+00  0.00000000000E+00 -0.29131405855E+04  0.29131405855E+04  0.25500000920E-02 0.  1.
    10030    2    1    2    0    0  0.00000000000E+00  0.00000000000E+00 -0.15401934150E+04  0.42860877560E+04  0.39997940568E+04 0.  0.
        5    1    3    3  502    0 -0.18373651561E+04 -0.70493156004E+03 -0.11515643316E+04  0.22801231811E+04  0.46999998093E+01 0.  1.
       -5    1    3    3    0  502  0.18373651561E+04  0.70493156004E+03 -0.38862908346E+03  0.20059645749E+04  0.46999998093E+01 0. -1.
</event>
<event>
 5   0  0.2078125E-09  0.4003242E+04  0.7818609E-02  0.8003893E-01
       -1   -1    0    0    0  501  0.00000000000E+00  0.00000000000E+00  0.21081221699E+04  0.21081221699E+04  0.50400001928E-02 0. -1.
        1   -1    0    0  501    0  0.00000000000E+00  0.00000000000E+00 -0.19005001105E+04  0.19005001105E+04  0.50400001928E-02 0.  1.
    10030    2    1    2    0    0  0.00000000000E+00  0.00000000000E+00  0.20762205932E+03  0.40086222804E+04  0.40032418947E+04 0.  0.
        5    1    3    3  502    0 -0.18102600583E+04 -0.22182118428E+02  0.95873295301E+03  0.20485908547E+04  0.46999998093E+01 0.  1.
       -5    1    3    3    0  502  0.18102600583E+04  0.22182118428E+02 -0.75111089369E+03  0.19600314257E+04  0.46999998093E+01 0. -1.
</event>
<event>
 5   0  0.6736335E-09  0.3999154E+04  0.7818609E-02  0.8004717E-01
       -2   -1    0    0    0  501  0.00000000000E+00  0.00000000000E+00  0.22187387745E+04  0.22187387745E+04  0.25500000920E-02 0.  1.
        2   -1    0    0  501    0  0.00000000000E+00  0.00000000000E+00 -0.18020637416E+04  0.18020637416E+04  0.25500000920E-02 0. -1.
    10030    2    1    2    0    0  0.00000000000E+00  0.00000000000E+00  0.41667503290E+03  0.40208025162E+04  0.39991542595E+04 0.  0.
        1    1    3    3  502    0  0.88474123799E+03  0.49312866962E+03  0.19417252186E+04  0.21900319102E+04  0.50400001928E-02 0.  1.
       -1    1    3    3    0  502 -0.88474123799E+03 -0.49312866962E+03 -0.15250501857E+04  0.18307706060E+04  0.50400001928E-02 0. -1.
</event>
<event>
 5   0  0.2078125E-09  0.4001421E+04  0.7818609E-02  0.8004260E-01
        1   -1    0    0  501    0  0.00000000000E+00  0.00000000000E+00  0.12449806697E+04  0.12449806697E+04  0.50400001928E-02 0.  1.
       -1   -1    0    0    0  501  0.00000000000E+00  0.00000000000E+00 -0.32151844056E+04  0.32151844056E+04  0.50400001928E-02 0. -1.
    10030    2    1    2    0    0  0.00000000000E+00  0.00000000000E+00 -0.19702037359E+04  0.44601650754E+04  0.40014209649E+04 0.  0.
        2    1    3    3  502    0 -0.13179301180E+04  0.14835808948E+04 -0.70116171947E+03  0.21046566999E+04  0.25500000920E-02 0.  1.
       -2    1    3    3    0  502  0.13179301180E+04 -0.14835808948E+04 -0.12690420165E+04  0.23555083755E+04  0.25500000920E-02 0. -1.
</event>
<event>
 5   0  0.2078125E-09  0.4000385E+04  0.7818609E-02  0.8004469E-01
        1   -1    0    0  501    0  0.00000000000E+00  0.00000000000E+00  0.18023080503E+04  0.18023080503E+04  0.50400001928E-02 0.  1.
       -1   -1    0    0    0  501  0.00000000000E+00  0.00000000000E+00 -0.22198041294E+04  0.22198041294E+04  0.50400001928E-02 0. -1.
    10030    2    1    2    0    0  0.00000000000E+00  0.00000000000E+00 -0.41749607911E+03  0.40221121796E+04  0.40003854076E+04 0.  0.
        4    1    3    3  502    0 -0.43432858686E+03  0.16017712295E+04 -0.13312599777E+04  0.21275730620E+04  0.12699999809E+01 0. -1.
       -4    1    3    3    0  502  0.43432858686E+03 -0.16017712295E+04  0.91376389863E+03  0.18945391176E+04  0.12699999809E+01 0.  1.
</event>
<event>
 5   0  0.2078125E-09  0.4000675E+04  0.7818609E-02  0.8004410E-01
        1   -1    0    0  501    0  0.00000000000E+00  0.00000000000E+00  0.19915516127E+04  0.19915516127E+04  0.50400001928E-02 0.  1.
       -1   -1    0    0    0  501  0.00000000000E+00  0.00000000000E+00 -0.20091619097E+04  0.20091619097E+04  0.50400001928E-02 0. -1.
    10030    2    1    2    0    0  0.00000000000E+00  0.00000000000E+00 -0.17610297001E+02  0.40007135223E+04  0.40006747638E+04 0.  0.
        3    1    3    3  502    0  0.15095154458E+03 -0.23866623938E+03 -0.19891277671E+04  0.20090737236E+04  0.10100000352E+00 0. -1.
       -3    1    3    3    0  502 -0.15095154458E+03  0.23866623938E+03  0.19715174701E+04  0.19916397987E+04  0.10100000352E+00 0.  1.
</event>
<event>
 5   0  0.6736335E-09  0.3999782E+04  0.7818609E-02  0.8004591E-01
        2   -1    0    0  501    0  0.00000000000E+00  0.00000000000E+00  0.21794917744E+04  0.21794917744E+04  0.25500000920E-02 0. -1.
       -2   -1    0    0    0  501  0.00000000000E+00  0.00000000000E+00 -0.18350899520E+04  0.18350899520E+04  0.25500000920E-02 0.  1.
    10030    2    1    2    0    0  0.00000000000E+00  0.00000000000E+00  0.34440182239E+03  0.40145817265E+04  0.39997817219E+04 0.  0.
        1    1    3    3  502    0 -0.13506351709E+04  0.74422522018E+03  0.14502849071E+04  0.21169347782E+04  0.50400001928E-02 0. -1.
       -1    1    3    3    0  502  0.13506351709E+04 -0.74422522018E+03 -0.11058830847E+04  0.18976469483E+04  0.50400001928E-02 0.  1.
</event>
<event>
 5   0  0.2078125E-09  0.3998844E+04  0.7818609E-02  0.8004780E-01
       -1   -1    0    0    0  501  0.00000000000E+00  0.00000000000E+00  0.27723972515E+04  0.27723972515E+04  0.50400001928E-02 0. -1.
        1   -1    0    0  501    0  0.00000000000E+00  0.00000000000E+00 -0.14419608703E+04  0.14419608703E+04  0.50400001928E-02 0.  1.
    10030    2    1    2    0    0  0.00000000000E+00  0.00000000000E+00  0.13304363811E+04  0.42143581218E+04  0.39988440098E+04 0.  0.
        4    1    3    3  502    0 -0.72749402385E+03 -0.17383907006E+04 -0.38951040936E+02  0.18848789296E+04  0.12699999809E+01 0.  1.
       -4    1    3    3    0  502  0.72749402385E+03  0.17383907006E+04  0.13693874221E+04  0.23294791923E+04  0.12699999809E+01 0. -1.
</event>
<event>
 5   0  0.2078125E-09  0.4000283E+04  0.7818609E-02  0.8004489E-01
        1   -1    0    0  501    0  0.00000000000E+00  0.00000000000E+00  0.18360475873E+04  0.18360475873E+04  0.50400001928E-02 0. -1.
       -1   -1    0    0    0  501  0.00000000000E+00  0.00000000000E+00 -0.21789013340E+04  0.21789013341E+04  0.50400001928E-02 0.  1.
    10030    2    1    2    0    0  0.00000000000E+00  0.00000000000E+00 -0.34285374672E+03  0.40149489214E+04  0.40002832587E+04 0.  0.
        4    1    3    3  502    0 -0.59141903295E+03 -0.17315215135E+04 -0.98223862593E+03  0.20767131615E+04  0.12699999809E+01 0.  1.
       -4    1    3    3    0  502  0.59141903295E+03  0.17315215135E+04  0.63938487921E+03  0.19382357599E+04  0.12699999809E+01 0. -1.
</event>
<event>
 5   0  0.2078125E-09  0.3998635E+04  0.7818609E-02  0.8004822E-01
        1   -1    0    0  501    0  0.00000000000E+00  0.00000000000E+00  0.18313944489E+04  0.18313944489E+04  0.50400001928E-02 0.  1.
       -1   -1    0    0    0  501  0.00000000000E+00  0.00000000000E+00 -0.21826380963E+04  0.21826380963E+04  0.50400001928E-02 0. -1.
    10030    2    1    2    0    0  0.00000000000E+00  0.00000000000E+00 -0.35124364739E+03  0.40140325452E+04  0.39986354140E+04 0.  0.
        5    1    3    3  502    0 -0.10137510724E+04  0.16979295886E+04 -0.47102194687E+03  0.20328649461E+04  0.46999998093E+01 0. -1.
       -5    1    3    3    0  502  0.10137510724E+04 -0.16979295886E+04  0.11977829948E+03  0.19811675991E+04  0.46999998093E+01 0.  1.
</event>
<event>
 5   0  0.6599276E-09  0.4003004E+04  0.7818609E-02  0.8003941E-01
        2   -1    0    0  501    0  0.00000000000E+00  0.00000000000E+00  0.30214232173E+04  0.30214232173E+04  0.25500000920E-02 0. -1.
       -2   -1    0    0    0  501  0.00000000000E+00  0.00000000000E+00 -0.13258688793E+04  0.13258688793E+04  0.25500000920E-02 0.  1.
    10030    2    1    2    0    0  0.00000000000E+00  0.00000000000E+00  0.16955543379E+04  0.43472920966E+04  0.40030043792E+04 0.  0.
        2    1    3    3  502    0  0.33132763039E+03  0.19039300564E+04  0.28213167510E+03  0.19530299384E+04  0.25500000920E-02 0.  1.
       -2    1    3    3    0  502 -0.33132763039E+03 -0.19039300564E+04  0.14134226628E+04  0.23942621582E+04  0.25500000920E-02 0. -1.
</event>
<event>
 5   0  0.6538370E-09  0.4003138E+04  0.7818609E-02  0.8003914E-01
       -2   -1    0    0    0  501  0.00000000000E+00  0.00000000000E+00  0.17808521953E+04  0.17808521953E+04  0.25500000920E-02 0. -1.
        2   -1    0    0  501    0  0.00000000000E+00  0.00000000000E+00 -0.22496411839E+04  0.22496411839E+04  0.25500000920E-02 0.  1.
    10030    2    1    2    0    0  0.00000000000E+00  0.00000000000E+00 -0.46878898855E+03  0.40304933792E+04  0.40031379896E+04 0.  0.
        4    1    3    3  502    0  0.14539156882E+04  0.40340971487E+03  0.10897605865E+04  0.18612334553E+04  0.12699999809E+01 0. -1.
       -4    1    3    3    0  502 -0.14539156882E+04 -0.40340971487E+03 -0.15585495750E+04  0.21692599239E+04  0.12699999809E+01 0.  1.
</event>
<event>
 5   0  0.6547327E-09  0.4004570E+04  0.7818609E-02  0.8003625E-01
        2   -1    0    0  501    0  0.00000000000E+00  0.00000000000E+00  0.19281222123E+04  0.19281222123E+04  0.25500000920E-02 0.  1.
       -2   -1    0    0    0  501  0.00000000000E+00  0.00000000000E+00 -0.20793007198E+04  0.20793007198E+04  0.25500000920E-02 0. -1.
    10030    2    1    2    0    0  0.00000000000E+00  0.00000000000E+00 -0.15117850751E+03  0.40074229320E+04  0.40045703409E+04 0.  0.
        5    1    3    3  502    0  0.15453003240E+03  0.21499134929E+03 -0.20617002276E+04  0.20786367479E+04  0.46999998093E+01 0. -1.
       -5    1    3    3    0  502 -0.15453003240E+03 -0.21499134929E+03  0.19105217201E+04  0.19287861841E+04  0.46999998093E+01 0.  1.
</event>
<event>
 5   0  0.6645526E-09  0.3998457E+04  0.7818609E-02  0.8004858E-01
        2   -1    0    0  501    0  0.00000000000E+00  0.00000000000E+00  0.21703793824E+04  0.21703793824E+04  0.25500000920E-02 0.  1.
       -2   -1    0    0    0  501  0.00000000000E+00  0.00000000000E+00 -0.18415741282E+04  0.18415741282E+04  0.25500000920E-02 0. -1.
    10030    2    1    2    0    0  0.00000000000E+00  0.00000000000E+00  0.32880525417E+03  0.40119535106E+04  0.39984569619E+04 0.  0.
        3    1    3    3  502    0 -0.37748613314E+03  0.32994986035E+03 -0.17774728217E+04  0.18468276403E+04  0.10100000352E+00 0. -1.
       -3    1    3    3    0  502  0.37748613314E+03 -0.32994986035E+03  0.21062780759E+04  0.21651258703E+04  0.10100000352E+00 0.  1.
</event>
<event>
 5   0  0.6547327E-09  0.4031004E+04  0.7818609E-02  0.7998321E-01
       -2   -1    0    0    0  501  0.00000000000E+00  0.00000000000E+00  0.17355054096E+04  0.17355054096E+04  0.25500000920E-02 0.  1.
        2   -1    0    0  501    0  0.00000000000E+00  0.00000000000E+00 -0.23406712217E+04  0.23406712217E+04  0.25500000920E-02 0. -1.
    10030    2    1    2    0    0  0.00000000000E+00  0.00000000000E+00 -0.60516581215E+03  0.40761766313E+04  0.40310036305E+04 0.  0.
        5    1    3    3  502    0 -0.82391043284E+03  0.12565169495E+04 -0.16609768520E+04  0.22397610226E+04  0.46999998093E+01 0. -1.
       -5    1    3    3    0  502  0.82391043284E+03 -0.12565169495E+04  0.10558110399E+04  0.18364156086E+04  0.46999998093E+01 0.  1.
</event>
<event>
 5   0  0.6599276E-09  0.3999870E+04  0.7818609E-02  0.8004573E-01
        2   -1    0    0  501    0  0.00000000000E+00  0.00000000000E+00  0.19139314310E+04  0.19139314310E+04  0.25500000920E-02 0.  1.
       -2   -1    0    0    0  501  0.00000000000E+00  0.00000000000E+00 -0.20898033477E+04  0.20898033477E+04  0.25500000920E-02 0. -1.
    10030    2    1    2    0    0  0.00000000000E+00  0.00000000000E+00 -0.17587191673E+03  0.40037347786E+04  0.39998701537E+04 0.  0.
        2    1    3    3  502    0  0.31997421995E+03 -0.96183636823E+03 -0.18136166486E+04  0.20776713043E+04  0.25500000920E-02 0. -1.
       -2    1    3    3    0  502 -0.31997421995E+03  0.96183636823E+03  0.16377447318E+04  0.19260634744E+04  0.25500000920E-02 0.  1.
</event>
<event>
 5   0  0.2078125E-09  0.4000236E+04  0.7818609E-02  0.8004499E-01
       -1   -1    0    0    0  501  0.00000000000E+00  0.00000000000E+00  0.19160035379E+04  0.19160035379E+04  0.50400001928E-02 0.  1.
        1   -1    0    0  501    0  0.00000000000E+00  0.00000000000E+00 -0.20879253452E+04  0.20879253452E+04  0.50400001928E-02 0. -1.
    10030    2    1    2    0    0  0.00000000000E+00  0.00000000000E+00 -0.17192180734E+03  0.40039288831E+04  0.40002361672E+04 0.  0.
        1    1    3    3  502    0  0.13875537782E+04  0.79411799694E+03 -0.12889620199E+04  0.20536192367E+04  0.50400001928E-02 0. -1.
       -1    1    3    3    0  502 -0.13875537782E+04 -0.79411799694E+03  0.11170402126E+04  0.19503096464E+04  0.50400001928E-02 0.  1.
</event>
<event>
 5   0  0.2078125E-09  0.4000080E+04  0.7818609E-02  0.8004530E-01
        1   -1    0    0  501    0  0.00000000000E+00  0.00000000000E+00  0.20231424935E+04  0.20231424935E+04  0.50400001928E-02 0. -1.
       -1   -1    0    0    0  501  0.00000000000E+00  0.00000000000E+00 -0.19772009141E+04  0.19772009141E+04  0.50400001928E-02 0.  1.
    10030    2    1    2    0    0  0.00000000000E+00  0.00000000000E+00  0.45941579451E+02  0.40003434076E+04  0.40000795930E+04 0.  0.
        4    1    3    3  502    0  0.15852806549E+04 -0.10625418552E+04 -0.57543948401E+03  0.19932993155E+04  0.12699999809E+01 0.  1.
       -4    1    3    3    0  502 -0.15852806549E+04  0.10625418552E+04  0.62138106346E+03  0.20070440921E+04  0.12699999809E+01 0. -1.
</event>
<event>
 5   0  0.6538370E-09  0.3997607E+04  0.7818609E-02  0.8005029E-01
       -2   -1    0    0    0  501  0.00000000000E+00  0.00000000000E+00  0.28985267811E+04  0.28985267811E+04  0.25500000920E-02 0.  1.
        2   -1    0    0  501    0  0.00000000000E+00  0.00000000000E+00 -0.13783607087E+04  0.13783607087E+04  0.25500000920E-02 0. -1.
    10030    2    1    2    0    0  0.00000000000E+00  0.00000000000E+00  0.15201660723E+04  0.42768874898E+04  0.39976069983E+04 0.  0.
        4    1    3    3  502    0  0.17834091735E+04  0.40458221308E+02  0.17247572248E+04  0.24813250987E+04  0.12699999809E+01 0.  1.
       -4    1    3    3    0  502 -0.17834091735E+04 -0.40458221308E+02 -0.20459115248E+03  0.17955623911E+04  0.12699999809E+01 0. -1.
</event>
<event>
 5   0  0.6538370E-09  0.3999793E+04  0.7818609E-02  0.8004588E-01
        2   -1    0    0  501    0  0.00000000000E+00  0.00000000000E+00  0.16629908271E+04  0.16629908271E+04  0.25500000920E-02 0. -1.
       -2   -1    0    0    0  501  0.00000000000E+00  0.00000000000E+00 -0.24050561246E+04  0.24050561246E+04  0.25500000920E-02 0.  1.
    10030    2    1    2    0    0  0.00000000000E+00  0.00000000000E+00 -0.74206529751E+03  0.40680469518E+04  0.39997931316E+04 0.  0.
        4    1    3    3  502    0 -0.48603726439E+03  0.61386572389E+03  0.15006203436E+04  0.16926093400E+04  0.12699999809E+01 0. -1.
       -4    1    3    3    0  502  0.48603726439E+03 -0.61386572389E+03 -0.22426856411E+04  0.23754376117E+04  0.12699999809E+01 0.  1.
</event>
<event>
 5   0  0.2078125E-09  0.3999524E+04  0.7818609E-02  0.8004643E-01
        1   -1    0    0  501    0  0.00000000000E+00  0.00000000000E+00  0.28124058075E+04  0.28124058075E+04  0.50400001928E-02 0.  1.
       -1   -1    0    0    0  501  0.00000000000E+00  0.00000000000E+00 -0.14219312867E+04  0.14219312867E+04  0.50400001928E-02 0. -1.
    10030    2    1    2    0    0  0.00000000000E+00  0.00000000000E+00  0.13904745208E+04  0.42343370942E+04  0.39995238760E+04 0.  0.
        2    1    3    3  502    0  0.64348085580E+03 -0.12851390693E+04 -0.77686419461E+03  0.16337588611E+04  0.25500000920E-02 0. -1.
       -2    1    3    3    0  502 -0.64348085580E+03  0.12851390693E+04  0.21673387154E+04  0.26005782331E+04  0.25500000920E-02 0.  1.
</event>
<event>
 5   0  0.2078125E-09  0.3999454E+04  0.7818609E-02  0.8004657E-01
        1   -1    0    0  501    0  0.00000000000E+00  0.00000000000E+00  0.31030352034E+04  0.31030352034E+04  0.50400001928E-02 0. -1.
       -1   -1    0    0    0  501  0.00000000000E+00  0.00000000000E+00 -0.12887087685E+04  0.12887087685E+04  0.50400001928E-02 0.  1.
    10030    2    1    2    0    0  0.00000000000E+00  0.00000000000E+00  0.18143264349E+04  0.43917439720E+04  0.39994543007E+04 0.  0.
        2    1    3    3  502    0  0.12902544714E+04  0.60333641958E+03 -0.63412733089E+03  0.15591308181E+04  0.25500000920E-02 0.  1.
       -2    1    3    3    0  502 -0.12902544714E+04 -0.60333641958E+03  0.24484537658E+04  0.28326131539E+04  0.25500000920E-02 0. -1.
</event>
<event>
 5   0  0.6599276E-09  0.3998369E+04  0.7818609E-02  0.8004876E-01
        2   -1    0    0  501    0  0.00000000000E+00  0.00000000000E+00  0.13744263780E+04  0.13744263780E+04  0.25500000920E-02 0. -1.
       -2   -1    0    0    0  501  0.00000000000E+00  0.00000000000E+00 -0.29079318258E+04  0.29079318258E+04  0.25500000920E-02 0.  1.
    10030    2    1    2    0    0  0.00000000000E+00  0.00000000000E+00 -0.15335054477E+04  0.42823582038E+04  0.39983687708E+04 0.  0.
        2    1    3    3  502    0 -0.94397228162E+03  0.64849812000E+03 -0.25217674278E+04  0.27696469883E+04  0.25500000920E-02 0.  1.
       -2    1    3    3    0  502  0.94397228162E+03 -0.64849812000E+03  0.98826198008E+03  0.15127112155E+04  0.25500000920E-02 0. -1.
</event>
<event>
 5   0  0.6645526E-09  0.3999628E+04  0.7818609E-02  0.8004622E-01
       -2   -1    0    0    0  501  0.00000000000E+00  0.00000000000E+00  0.27273286021E+04  0.27273286021E+04  0.25500000920E-02 0. -1.
        2   -1    0    0  501    0  0.00000000000E+00  0.00000000000E+00 -0.14663634826E+04  0.14663634826E+04  0.25500000920E-02 0.  1.
    10030    2    1    2    0    0  0.00000000000E+00  0.00000000000E+00  0.12609651195E+04  0.41936920847E+04  0.39996275162E+04 0.  0.
        3    1    3    3  502    0 -0.10128810385E+04  0.14365979783E+04 -0.36947489230E+03  0.17961774566E+04  0.10100000352E+00 0.  1.
       -3    1    3    3    0  502  0.10128810385E+04 -0.14365979783E+04  0.16304400118E+04  0.23975146281E+04  0.10100000352E+00 0. -1.
</event>
<event>
 5   0  0.6599276E-09  0.4000560E+04  0.7818609E-02  0.8004434E-01
        2   -1    0    0  501    0  0.00000000000E+00  0.00000000000E+00  0.20054980650E+04  0.20054980650E+04  0.25500000920E-02 0.  1.
       -2   -1    0    0    0  501  0.00000000000E+00  0.00000000000E+00 -0.19950751084E+04  0.19950751084E+04  0.25500000920E-02 0. -1.
    10030    2    1    2    0    0  0.00000000000E+00  0.00000000000E+00  0.10422956582E+02  0.40005731734E+04  0.40005595956E+04 0.  0.
        2    1    3    3  502    0  0.11579341722E+04 -0.12062909791E+04 -0.10925945049E+04  0.19974264005E+04  0.25500000920E-02 0. -1.
       -2    1    3    3    0  502 -0.11579341722E+04  0.12062909791E+04  0.11030174615E+04  0.20031467729E+04  0.25500000920E-02 0.  1.
</event>
<event>
 5   0  0.6736335E-09  0.3999988E+04  0.7818609E-02  0.8004549E-01
       -2   -1    0    0    0  501  0.00000000000E+00  0.00000000000E+00  0.25633307215E+04  0.25633307215E+04  0.25500000920E-02 0. -1.
        2   -1    0    0  501    0  0.00000000000E+00  0.00000000000E+00 -0.15604600003E+04  0.15604600003E+04  0.25500000920E-02 0.  1.
    10030    2    1    2    0    0  0.00000000000E+00  0.00000000000E+00  0.10028707212E+04  0.41237907218E+04  0.39999875292E+04 0.  0.
        1    1    3    3  502    0 -0.52086647377E+03 -0.17037309456E+04 -0.43552491573E+03  0.18340346154E+04  0.50400001928E-02 0.  1.
       -1    1    3    3    0  502  0.52086647377E+03  0.17037309456E+04  0.14383956370E+04  0.22897561064E+04  0.50400001928E-02 0. -1.
</event>
<event>
 5   0  0.2078125E-09  0.4001002E+04  0.7818609E-02  0.8004344E-01
        1   -1    0    0  501    0  0.00000000000E+00  0.00000000000E+00  0.17941127607E+04  0.17941127607E+04  0.50400001928E-02 0.  1.
       -1   -1    0    0    0  501  0.00000000000E+00  0.00000000000E+00 -0.22306314033E+04  0.22306314033E+04  0.50400001928E-02 0. -1.
    10030    2    1    2    0    0  0.00000000000E+00  0.00000000000E+00 -0.43651864257E+03  0.40247441640E+04  0.40010020071E+04 0.  0.
        5    1    3    3  502    0  0.66209374165E+03 -0.13135722939E+04  0.11455668661E+04  0.18644532251E+04  0.46999998093E+01 0. -1.
       -5    1    3    3    0  502 -0.66209374165E+03  0.13135722939E+04 -0.15820855087E+04  0.21602909389E+04  0.46999998093E+01 0.  1.
</event>
<event>
 5   0  0.6547327E-09  0.4004777E+04  0.7818609E-02  0.8003584E-01
        2   -1    0    0  501    0  0.00000000000E+00  0.00000000000E+00  0.14420129498E+04  0.14420129498E+04  0.25500000920E-02 0. -1.
       -2   -1    0    0    0  501  0.00000000000E+00  0.00000000000E+00 -0.27805293549E+04  0.27805293549E+04  0.25500000920E-02 0.  1.
    10030    2    1    2    0    0  0.00000000000E+00  0.00000000000E+00 -0.13385164051E+04  0.42225423047E+04  0.40047768162E+04 0.  0.
        5    1    3    3  502    0 -0.36284093539E+03 -0.14484733332E+04  0.73737982653E+03  0.16653767261E+04  0.46999998093E+01 0. -1.
       -5    1    3    3    0  502  0.36284093539E+03  0.14484733332E+04 -0.20758962317E+04  0.25571655785E+04  0.46999998093E+01 0.  1.
</event>
<event>
 5   0  0.6538370E-09  0.3999871E+04  0.7818609E-02  0.8004572E-01
        2   -1    0    0  501    0  0.00000000000E+00  0.00000000000E+00  0.18411568968E+04  0.18411568968E+04  0.25500000920E-02 0.  1.
       -2   -1    0    0    0  501  0.00000000000E+00  0.00000000000E+00 -0.21724074523E+04  0.21724074523E+04  0.25500000920E-02 0. -1.
    10030    2    1    2    0    0  0.00000000000E+00  0.00000000000E+00 -0.33125055546E+03  0.40135643491E+04  0.39998714797E+04 0.  0.
        4    1    3    3  502    0 -0.11090163084E+04  0.26078553049E+03  0.14837216062E+04  0.18706570190E+04  0.12699999809E+01 0.  1.
       -4    1    3    3    0  502  0.11090163084E+04 -0.26078553049E+03 -0.18149721616E+04  0.21429073301E+04  0.12699999809E+01 0. -1.
</event>
<event>
 5   0  0.6599276E-09  0.3999069E+04  0.7818609E-02  0.8004734E-01
        2   -1    0    0  501    0  0.00000000000E+00  0.00000000000E+00  0.22396481539E+04  0.22396481539E+04  0.25500000920E-02 0.  1.
       -2   -1    0    0    0  501  0.00000000000E+00  0.00000000000E+00 -0.17851633272E+04  0.17851633272E+04  0.25500000920E-02 0. -1.
    10030    2    1    2    0    0  0.00000000000E+00  0.00000000000E+00  0.45448482664E+03  0.40248114811E+04  0.39990687667E+04 0.  0.
        2    1    3    3  502    0  0.41777683013E+03  0.17268877367E+04 -0.69597323024E+03  0.19081555157E+04  0.25500000920E-02 0. -1.
       -2    1    3    3    0  502 -0.41777683013E+03 -0.17268877367E+04  0.11504580569E+04  0.21166559653E+04  0.25500000920E-02 0.  1.
</event>
<event>
 5   0  0.2078125E-09  0.3997485E+04  0.7818609E-02  0.8005054E-01
       -1   -1    0    0    0  501  0.00000000000E+00  0.00000000000E+00  0.18526676449E+04  0.18526676449E+04  0.50400001928E-02 0.  1.
        1   -1    0    0  501    0  0.00000000000E+00  0.00000000000E+00 -0.21563350066E+04  0.21563350066E+04  0.50400001928E-02 0. -1.
    10030    2    1    2    0    0  0.00000000000E+00  0.00000000000E+00 -0.30366736170E+03  0.40090026516E+04  0.39974852587E+04 0.  0.
        5    1    3    3  502    0 -0.16830268581E+03 -0.73828599421E+03 -0.20069084817E+04  0.21450164912E+04  0.46999998093E+01 0. -1.
       -5    1    3    3    0  502  0.16830268581E+03  0.73828599421E+03  0.17032411200E+04  0.18639861604E+04  0.46999998093E+01 0.  1.
</event>
<event>
 5   0  0.2078125E-09  0.3992893E+04  0.7818609E-02  0.8005982E-01
        1   -1    0    0  501    0  0.00000000000E+00  0.00000000000E+00  0.20340139057E+04  0.20340139057E+04  0.50400001928E-02 0.  1.
       -1   -1    0    0    0  501  0.00000000000E+00  0.00000000000E+00 -0.19595728543E+04  0.19595728544E+04  0.50400001928E-02 0. -1.
    10030    2    1    2    0    0  0.00000000000E+00  0.00000000000E+00  0.74441051322E+02  0.39935867600E+04  0.39928929036E+04 0.  0.
        5    1    3    3  502    0 -0.57504700763E+03 -0.19073107071E+04  0.16863266633E+03  0.19992429219E+04  0.46999998093E+01 0.  1.
       -5    1    3    3    0  502  0.57504700763E+03  0.19073107071E+04 -0.94191615007E+02  0.19943438382E+04  0.46999998093E+01 0. -1.
</event>
<event>
 5   0  0.6736335E-09  0.4005292E+04  0.7818609E-02  0.8003480E-01
       -2   -1    0    0    0  501  0.00000000000E+00  0.00000000000E+00  0.13557376535E+04  0.13557376535E+04  0.25500000920E-02 0. -1.
        2   -1    0    0  501    0  0.00000000000E+00  0.00000000000E+00 -0.29582353796E+04  0.29582353796E+04  0.25500000920E-02 0.  1.
    10030    2    1    2    0    0  0.00000000000E+00  0.00000000000E+00 -0.16024977261E+04  0.43139730331E+04  0.40052920452E+04 0.  0.
        1    1    3    3  502    0  0.65787913755E+03 -0.13590044073E+04 -0.22182766544E+04  0.26833652853E+04  0.50400001928E-02 0.  1.
       -1    1    3    3    0  502 -0.65787913755E+03  0.13590044073E+04  0.61577892826E+03  0.16306077478E+04  0.50400001928E-02 0. -1.
</event>
<event>
 5   0  0.6547327E-09  0.3999688E+04  0.7818609E-02  0.8004609E-01
        2   -1    0    0  501    0  0.00000000000E+00  0.00000000000E+00  0.23508585978E+04  0.23508585978E+04  0.25500000920E-02 0. -1.
       -2   -1    0    0    0  501  0.00000000000E+00  0.00000000000E+00 -0.17012408360E+04  0.17012408360E+04  0.25500000920E-02 0.  1.
    10030    2    1    2    0    0  0.00000000000E+00  0.00000000000E+00  0.64961776176E+03  0.40520994337E+04  0.39996883109E+04 0.  0.
        5    1    3    3  502    0 -0.75149450979E+03 -0.18512710334E+04  0.41199538868E+03  0.20400271389E+04  0.46999998093E+01 0.  1.
       -5    1    3    3    0  502  0.75149450979E+03  0.18512710334E+04  0.23762237308E+03  0.20120722948E+04  0.46999998093E+01 0. -1.
</event>
<event>
 5   0  0.6547327E-09  0.4000249E+04  0.7818609E-02  0.8004496E-01
       -2   -1    0    0    0  501  0.00000000000E+00  0.00000000000E+00  0.16617971039E+04  0.16617971040E+04  0.25500000920E-02 0.  1.
        2   -1    0    0  501    0  0.00000000000E+00  0.00000000000E+00 -0.24073321036E+04  0.24073321036E+04  0.25500000920E-02 0. -1.
    10030    2    1    2    0    0  0.00000000000E+00  0.00000000000E+00 -0.74553499961E+03  0.40691292075E+04  0.40002487512E+04 0.  0.
        5    1    3    3  502    0 -0.98849034438E+03 -0.16834439861E+04 -0.81543735373E+03  0.21156693936E+04  0.46999998093E+01 0. -1.
       -5    1    3    3    0  502  0.98849034438E+03  0.16834439861E+04  0.69902354127E+02  0.19534598139E+04  0.46999998093E+01 0.  1.
</event>
<event>
 5   0  0.2078125E-09  0.3984067E+04  0.7818609E-02  0.8007768E-01
       -1   -1    0    0    0  501  0.00000000000E+00  0.00000000000E+00  0.20637715598E+04  0.20637715598E+04  0.50400001928E-02 0.  1.
        1   -1    0    0  501    0  0.00000000000E+00  0.00000000000E+00 -0.19227890515E+04  0.19227890515E+04  0.50400001928E-02 0. -1.
    10030    2    1    2    0    0  0.00000000000E+00  0.00000000000E+00  0.14098250836E+03  0.39865606113E+04  0.39840669472E+04 0.  0.
        4    1    3    3  502    0  0.15779161053E+04 -0.11623053234E+04  0.42767805006E+03  0.20059120189E+04  0.12699999809E+01 0.  1.
       -4    1    3    3    0  502 -0.15779161053E+04  0.11623053234E+04 -0.28669554170E+03  0.19806485924E+04  0.12699999809E+01 0. -1.
</event>
<event>
 5   0  0.2078125E-09  0.3999966E+04  0.7818609E-02  0.8004553E-01
        1   -1    0    0  501    0  0.00000000000E+00  0.00000000000E+00  0.27737180145E+04  0.27737180145E+04  0.50400001928E-02 0.  1.
       -1   -1    0    0    0  501  0.00000000000E+00  0.00000000000E+00 -0.14420833058E+04  0.14420833058E+04  0.50400001928E-02 0. -1.
    10030    2    1    2    0    0  0.00000000000E+00  0.00000000000E+00  0.13316347087E+04  0.42158013203E+04  0.39999662217E+04 0.  0.
        4    1    3    3  502    0  0.15106037961E+04  0.19475379535E+03 -0.70030163792E+03  0.16763880417E+04  0.12699999809E+01 0. -1.
       -4    1    3    3    0  502 -0.15106037961E+04 -0.19475379535E+03  0.20319363467E+04  0.25394132785E+04  0.12699999809E+01 0.  1.
</event>
<event>
 5   0  0.2078125E-09  0.3998042E+04  0.7818609E-02  0.8004942E-01
       -1   -1    0    0    0  501  0.00000000000E+00  0.00000000000E+00  0.18157906469E+04  0.18157906469E+04  0.50400001928E-02 0. -1.
        1   -1    0    0  501    0  0.00000000000E+00  0.00000000000E+00 -0.22007410863E+04  0.22007410863E+04  0.50400001928E-02 0.  1.
    10030    2    1    2    0    0  0.00000000000E+00  0.00000000000E+00 -0.38495043941E+03  0.40165317332E+04  0.39980420612E+04 0.  0.
        2    1    3    3  502    0 -0.12800223987E+04  0.10527011089E+04 -0.13154317804E+04  0.21158917115E+04  0.25500000920E-02 0.  1.
       -2    1    3    3    0  502  0.12800223987E+04 -0.10527011089E+04  0.93048134099E+03  0.19006400217E+04  0.25500000920E-02 0. -1.
</event>
<event>
 5   0  0.6736335E-09  0.3998844E+04  0.7818609E-02  0.8004780E-01
        2   -1    0    0  501    0  0.00000000000E+00  0.00000000000E+00  0.21568394494E+04  0.21568394494E+04  0.25500000920E-02 0.  1.
       -2   -1    0    0    0  501  0.00000000000E+00  0.00000000000E+00 -0.18534937393E+04  0.18534937393E+04  0.25500000920E-02 0. -1.
    10030    2    1    2    0    0  0.00000000000E+00  0.00000000000E+00  0.30334571018E+03  0.40103331887E+04  0.39988440410E+04 0.  0.
        1    1    3    3  502    0 -0.41889120960E+03 -0.17196622791E+04 -0.78104239395E+03  0.19346150575E+04  0.50400001928E-02 0. -1.
       -1    1    3    3    0  502  0.41889120960E+03  0.17196622791E+04  0.10843881041E+04  0.20757181312E+04  0.50400001928E-02 0.  1.
</event>
<event>
 5   0  0.6547327E-09  0.4000138E+04  0.7818609E-02  0.8004519E-01
        2   -1    0    0  501    0  0.00000000000E+00  0.00000000000E+00  0.17527827937E+04  0.17527827937E+04  0.25500000920E-02 0. -1.
       -2   -1    0    0    0  501  0.00000000000E+00  0.00000000000E+00 -0.22822429833E+04  0.22822429833E+04  0.25500000920E-02 0.  1.
    10030    2    1    2    0    0  0.00000000000E+00  0.00000000000E+00 -0.52946018964E+03  0.40350257770E+04  0.40001381136E+04 0.  0.
        5    1    3    3  502    0 -0.10309294715E+04  0.79854733060E+03  0.12649924017E+04  0.18167887276E+04  0.46999998093E+01 0. -1.
       -5    1    3    3    0  502  0.10309294715E+04 -0.79854733060E+03 -0.17944525913E+04  0.22182370493E+04  0.46999998093E+01 0.  1.
</event>
<event>
 5   0  0.6645526E-09  0.3998657E+04  0.7818609E-02  0.8004818E-01
       -2   -1    0    0    0  501  0.00000000000E+00  0.00000000000E+00  0.16858961474E+04  0.16858961474E+04  0.25500000920E-02 0.  1.
        2   -1    0    0  501    0  0.00000000000E+00  0.00000000000E+00 -0.23710323301E+04  0.23710323301E+04  0.25500000920E-02 0. -1.
    10030    2    1    2    0    0  0.00000000000E+00  0.00000000000E+00 -0.68513618274E+03  0.40569284775E+04  0.39986569099E+04 0.  0.
        3    1    3    3  502    0  0.16666410878E+04 -0.10833630650E+04 -0.12509372407E+03  0.19917370550E+04  0.10100000352E+00 0. -1.
       -3    1    3    3    0  502 -0.16666410878E+04  0.10833630650E+04 -0.56004245867E+03  0.20651914226E+04  0.10100000352E+00 0.  1.
</event>
<event>
 5   0  0.2078125E-09  0.3999134E+04  0.7818609E-02  0.8004721E-01
        1   -1    0    0  501    0  0.00000000000E+00  0.00000000000E+00  0.16409845285E+04  0.16409845285E+04  0.50400001928E-02 0.  1.
       -1   -1    0    0    0  501  0.00000000000E+00  0.00000000000E+00 -0.24365052353E+04  0.24365052353E+04  0.50400001928E-02 0. -1.
    10030    2    1    2    0    0  0.00000000000E+00  0.00000000000E+00 -0.79552070683E+03  0.40774897638E+04  0.39991336035E+04 0.  0.
        1    1    3    3  502    0 -0.19889472830E+04 -0.20190379230E+03 -0.43842869359E+03  0.20466792996E+04  0.50400001928E-02 0. -1.
       -1    1    3    3    0  502  0.19889472830E+04  0.20190379230E+03 -0.35709201324E+03  0.20308104643E+04  0.50400001928E-02 0.  1.
</event>
<event>
 5   0  0.6736335E-09  0.4001741E+04  0.7818609E-02  0.8004195E-01
       -2   -1    0    0    0  501  0.00000000000E+00  0.00000000000E+00  0.27195863935E+04  0.27195863935E+04  0.25500000920E-02 0. -1.
        2   -1    0    0  501    0  0.00000000000E+00  0.00000000000E+00 -0.14720925458E+04  0.14720925458E+04  0.25500000920E-02 0.  1.
    10030    2    1    2    0    0  0.00000000000E+00  0.00000000000E+00  0.12474938476E+04  0.41916789393E+04  0.40017410499E+04 0.  0.
        1    1    3    3  502    0  0.92771188211E+03  0.16095056773E+04  0.14022070591E+04  0.23275185280E+04  0.50400001928E-02 0. -1.
       -1    1    3    3    0  502 -0.92771188211E+03 -0.16095056773E+04 -0.15471321146E+03  0.18641604114E+04  0.50400001928E-02 0.  1.
</event>
<event>
 5   0  0.2078125E-09  0.4001023E+04  0.7818609E-02  0.8004340E-01
       -1   -1    0    0    0  501  0.00000000000E+00  0.00000000000E+00  0.22235722737E+04  0.22235722737E+04  0.50400001928E-02 0.  1.
        1   -1    0    0  501    0  0.00000000000E+00  0.00000000000E+00 -0.17998272008E+04  0.17998272008E+04  0.50400001928E-02 0. -1.
    10030    2    1    2    0    0  0.00000000000E+00  0.00000000000E+00  0.42374507292E+03  0.40233994746E+04  0.40010227999E+04 0.  0.
        4    1    3    3  502    0 -0.17471070411E+04 -0.39149339523E+03 -0.68552766173E+03  0.19171854056E+04  0.12699999809E+01 0. -1.
       -4    1    3    3    0  502  0.17471070411E+04  0.39149339523E+03  0.11092727346E+04  0.21062140690E+04  0.12699999809E+01 0.  1.
</event>
<event>
 5   0  0.6645526E-09  0.4000560E+04  0.7818609E-02  0.8004434E-01
        2   -1    0    0  501    0  0.00000000000E+00  0.00000000000E+00  0.28438599305E+04  0.28438599305E+04  0.25500000920E-02 0. -1.
       -2   -1    0    0    0  501  0.00000000000E+00  0.00000000000E+00 -0.14069328092E+04  0.14069328092E+04  0.25500000920E-02 0.  1.
    10030    2    1    2    0    0  0.00000000000E+00  0.00000000000E+00  0.14369271214E+04  0.42507927397E+04  0.40005598813E+04 0.  0.
        3    1    3    3  502    0  0.13292548741E+04 -0.14212755839E+04  0.12102036271E+04  0.22916229260E+04  0.10100000352E+00 0. -1.
       -3    1    3    3    0  502 -0.13292548741E+04  0.14212755839E+04  0.22672349429E+03  0.19591698137E+04  0.10100000352E+00 0.  1.
</event>
<event>
 5   0  0.6538370E-09  0.3996485E+04  0.7818609E-02  0.8005256E-01
        2   -1    0    0  501    0  0.00000000000E+00  0.00000000000E+00  0.23611697282E+04  0.23611697282E+04  0.25500000920E-02 0. -1.
       -2   -1    0    0    0  501  0.00000000000E+00  0.00000000000E+00 -0.16910993748E+04  0.16910993748E+04  0.25500000920E-02 0.  1.
    10030    2    1    2    0    0  0.00000000000E+00  0.00000000000E+00  0.67007035335E+03  0.40522691030E+04  0.39964847809E+04 0.  0.
        4    1    3    3  502    0  0.66054264341E+03  0.15012404996E+03  0.22412006117E+04  0.23413320159E+04  0.12699999809E+01 0. -1.
       -4    1    3    3    0  502 -0.66054264341E+03 -0.15012404996E+03 -0.15711302583E+04  0.17109370870E+04  0.12699999809E+01 0.  1.
</event>
<event>
 5   0  0.2078125E-09  0.4000266E+04  0.7818609E-02  0.8004493E-01
        1   -1    0    0  501    0  0.00000000000E+00  0.00000000000E+00  0.14963009367E+04  0.14963009367E+04  0.50400001928E-02 0.  1.
       -1   -1    0    0    0  501  0.00000000000E+00  0.00000000000E+00 -0.26736142423E+04  0.26736142423E+04  0.50400001928E-02 0. -1.
    10030    2    1    2    0    0  0.00000000000E+00  0.00000000000E+00 -0.11773133056E+04  0.41699151791E+04  0.40002657388E+04 0.  0.
        3    1    3    3  502    0  0.11289496291E+04 -0.16447728293E+04 -0.73872945534E+03  0.21273284052E+04  0.10100000352E+00 0.  1.
       -3    1    3    3    0  502 -0.11289496291E+04  0.16447728293E+04 -0.43858385027E+03  0.20425867739E+04  0.10100000352E+00 0. -1.
</event>
<event>
 5   0  0.6736335E-09  0.3999426E+04  0.7818609E-02  0.8004662E-01
       -2   -1    0    0    0  501  0.00000000000E+00  0.00000000000E+00  0.24628129933E+04  0.24628129933E+04  0.25500000920E-02 0.  1.
        2   -1    0    0  501    0  0.00000000000E+00  0.00000000000E+00 -0.16236929253E+04  0.16236929253E+04  0.25500000920E-02 0. -1.
    10030    2    1    2    0    0  0.00000000000E+00  0.00000000000E+00  0.83912006802E+03  0.40865059186E+04  0.39994259756E+04 0.  0.
        1    1    3    3  502    0  0.14398265615E+04 -0.11891506319E+04  0.11504473321E+04  0.21933328103E+04  0.50400001928E-02 0. -1.
       -1    1    3    3    0  502 -0.14398265615E+04  0.11891506319E+04 -0.31132726404E+03  0.18931731083E+04  0.50400001928E-02 0.  1.
</event>
<event>
 5   0  0.2078125E-09  0.4000849E+04  0.7818609E-02  0.8004375E-01
        1   -1    0    0  501    0  0.00000000000E+00  0.00000000000E+00  0.21944456157E+04  0.21944456157E+04  0.50400001928E-02 0. -1.
       -1   -1    0    0    0  501  0.00000000000E+00  0.00000000000E+00 -0.18235577593E+04  0.18235577593E+04  0.50400001928E-02 0.  1.
    10030    2    1    2    0    0  0.00000000000E+00  0.00000000000E+00  0.37088785636E+03  0.40180033750E+04  0.40008490749E+04 0.  0.
        5    1    3    3  502    0 -0.10689436667E+04  0.94887222371E+03 -0.12200842614E+04  0.18792622900E+04  0.46999998093E+01 0.  1.
       -5    1    3    3    0  502  0.10689436667E+04 -0.94887222371E+03  0.15909721178E+04  0.21387410851E+04  0.46999998093E+01 0. -1.
</event>
<event>
 5   0  0.2078125E-09  0.4000496E+04  0.7818609E-02  0.8004446E-01
        1   -1    0    0  501    0  0.00000000000E+00  0.00000000000E+00  0.23483563814E+04  0.23483563814E+04  0.50400001928E-02 0. -1.
       -1   -1    0    0    0  501  0.00000000000E+00  0.00000000000E+00 -0.17037416056E+04  0.17037416056E+04  0.50400001928E-02 0.  1.
    10030    2    1    2    0    0  0.00000000000E+00  0.00000000000E+00  0.64461477577E+03  0.40520979870E+04  0.40004962051E+04 0.  0.
        5    1    3    3  502    0 -0.12106780643E+04  0.52166532090E+03 -0.12014555334E+04  0.17836461451E+04  0.46999998093E+01 0.  1.
       -5    1    3    3    0  502  0.12106780643E+04 -0.52166532090E+03  0.18460703092E+04  0.22684518418E+04  0.46999998093E+01 0. -1.
</event>
<event>
 5   0  0.2078125E-09  0.4001510E+04  0.7818609E-02  0.8004242E-01
        1   -1    0    0  501    0  0.00000000000E+00  0.00000000000E+00  0.15162461867E+04  0.15162461867E+04  0.50400001928E-02 0. -1.
       -1   -1    0    0    0  501  0.00000000000E+00  0.00000000000E+00 -0.26400862321E+04  0.26400862321E+04  0.50400001928E-02 0.  1.
    10030    2    1    2    0    0  0.00000000000E+00  0.00000000000E+00 -0.11238400455E+04  0.41563324188E+04  0.40015100559E+04 0.  0.
        1    1    3    3  502    0 -0.33481515288E+03  0.27828556134E+03 -0.25902887556E+04  0.26266213808E+04  0.50400001928E-02 0.  1.
       -1    1    3    3    0  502  0.33481515288E+03 -0.27828556134E+03  0.14664487102E+04  0.15297110380E+04  0.50400001928E-02 0. -1.
</event>
<event>
 5   0  0.2078125E-09  0.4000414E+04  0.7818609E-02  0.8004463E-01
       -1   -1    0    0    0  501  0.00000000000E+00  0.00000000000E+00  0.20005030185E+04  0.20005030185E+04  0.50400001928E-02 0.  1.
        1   -1    0    0  501    0  0.00000000000E+00  0.00000000000E+00 -0.19999111799E+04  0.19999111799E+04  0.50400001928E-02 0. -1.
    10030    2    1    2    0    0  0.00000000000E+00  0.00000000000E+00  0.59183858350E+00  0.40004141983E+04  0.40004141546E+04 0.  0.
        3    1    3    3  502    0 -0.11293970810E+03  0.45876106949E+03 -0.19433118930E+04  0.19999195534E+04  0.10100000352E+00 0. -1.
       -3    1    3    3    0  502  0.11293970810E+03 -0.45876106949E+03  0.19439037316E+04  0.20004946449E+04  0.10100000352E+00 0.  1.
</event>
<event>
 5   0  0.2078125E-09  0.4000847E+04  0.7818609E-02  0.8004376E-01
        1   -1    0    0  501    0  0.00000000000E+00  0.00000000000E+00  0.21123832952E+04  0.21123832952E+04  0.50400001928E-02 0. -1.
       -1   -1    0    0    0  501  0.00000000000E+00  0.00000000000E+00 -0.18943976296E+04  0.18943976296E+04  0.50400001928E-02 0.  1.
    10030    2    1    2    0    0  0.00000000000E+00  0.00000000000E+00  0.21798566561E+03  0.40067809247E+04  0.40008468639E+04 0.  0.
        3    1    3    3  502    0  0.18930435587E+04 -0.11918076876E+03  0.74544775901E+03  0.20380162763E+04  0.10100000352E+00 0. -1.
       -3    1    3    3    0  502 -0.18930435587E+04  0.11918076876E+03 -0.52746209340E+03  0.19687646484E+04  0.10100000352E+00 0.  1.
</event>
<event>
 5   0  0.2078125E-09  0.3997842E+04  0.7818609E-02  0.8004982E-01
        1   -1    0    0  501    0  0.00000000000E+00  0.00000000000E+00  0.23981055171E+04  0.23981055171E+04  0.50400001928E-02 0. -1.
       -1   -1    0    0    0  501  0.00000000000E+00  0.00000000000E+00 -0.16661838063E+04  0.16661838063E+04  0.50400001928E-02 0.  1.
    10030    2    1    2    0    0  0.00000000000E+00  0.00000000000E+00  0.73192171079E+03  0.40642893234E+04  0.39978417069E+04 0.  0.
        4    1    3    3  502    0 -0.17842783408E+04 -0.66767577818E+03 -0.24927775646E+03  0.19213487853E+04  0.12699999809E+01 0.  1.
       -4    1    3    3    0  502  0.17842783408E+04  0.66767577818E+03  0.98119946725E+03  0.21429405380E+04  0.12699999809E+01 0. -1.
</event>
<event>
 5   0  0.2078125E-09  0.4002370E+04  0.7818609E-02  0.8004069E-01
       -1   -1    0    0    0  501  0.00000000000E+00  0.00000000000E+00  0.14484590952E+04  0.14484590952E+04  0.50400001928E-02 0. -1.
        1   -1    0    0  501    0  0.00000000000E+00  0.00000000000E+00 -0.27648294694E+04  0.27648294694E+04  0.50400001928E-02 0.  1.
    10030    2    1    2    0    0  0.00000000000E+00  0.00000000000E+00 -0.13163703743E+04  0.42132885646E+04  0.40023704934E+04 0.  0.
        3    1    3    3  502    0  0.17628505671E+04 -0.93439188982E+03 -0.49506091440E+03  0.20556788769E+04  0.10100000352E+00 0.  1.
       -3    1    3    3    0  502 -0.17628505671E+04  0.93439188982E+03 -0.82130945987E+03  0.21576096878E+04  0.10100000352E+00 0. -1.
</event>
<event>
 5   0  0.2078125E-09  0.3999829E+04  0.7818609E-02  0.8004581E-01
        1   -1    0    0  501    0  0.00000000000E+00  0.00000000000E+00  0.13703544021E+04  0.13703544021E+04  0.50400001928E-02 0.  1.
       -1   -1    0    0    0  501  0.00000000000E+00  0.00000000000E+00 -0.29187033538E+04  0.29187033538E+04  0.50400001928E-02 0. -1.
    10030    2    1    2    0    0  0.00000000000E+00  0.00000000000E+00 -0.15483489517E+04  0.42890577558E+04  0.39998289909E+04 0.  0.
        3    1    3    3  502    0  0.19173825634E+04  0.29198060654E+03 -0.12973579595E+04  0.23333980060E+04  0.10100000352E+00 0.  1.
       -3    1    3    3    0  502 -0.19173825634E+04 -0.29198060654E+03 -0.25099099216E+03  0.19556597499E+04  0.10100000352E+00 0. -1.
</event>
<event>
 5   0  0.2078125E-09  0.3999221E+04  0.7818609E-02  0.8004704E-01
       -1   -1    0    0    0  501  0.00000000000E+00  0.00000000000E+00  0.13881095594E+04  0.13881095594E+04  0.50400001928E-02 0.  1.
        1   -1    0    0  501    0  0.00000000000E+00  0.00000000000E+00 -0.28804939859E+04  0.28804939859E+04  0.50400001928E-02 0. -1.
    10030    2    1    2    0    0  0.00000000000E+00  0.00000000000E+00 -0.14923844265E+04  0.42686035454E+04  0.39992205429E+04 0.  0.
        5    1    3    3  502    0  0.19824435437E+04  0.26028128081E+03 -0.72025740082E+03  0.21252344724E+04  0.46999998093E+01 0.  1.
       -5    1    3    3    0  502 -0.19824435437E+04 -0.26028128081E+03 -0.77212702571E+03  0.21433690730E+04  0.46999998093E+01 0. -1.
</event>
<event>
 5   0  0.6645526E-09  0.3999177E+04  0.7818609E-02  0.8004713E-01
       -2   -1    0    0    0  501  0.00000000000E+00  0.00000000000E+00  0.16643714060E+04  0.16643714060E+04  0.25500000920E-02 0.  1.
        2   -1    0    0  501    0  0.00000000000E+00  0.00000000000E+00 -0.24023203646E+04  0.24023203646E+04  0.25500000920E-02 0. -1.
    10030    2    1    2    0    0  0.00000000000E+00  0.00000000000E+00 -0.73794895863E+03  0.40666917706E+04  0.39991765767E+04 0.  0.
        3    1    3    3  502    0  0.14570480288E+04  0.61770555986E+03  0.87387207983E+03  0.18078167880E+04  0.10100000352E+00 0.  1.
       -3    1    3    3    0  502 -0.14570480288E+04 -0.61770555986E+03 -0.16118210385E+04  0.22588749826E+04  0.10100000352E+00 0. -1.
</event>
<event>
 5   0  0.6599276E-09  0.3979828E+04  0.7818609E-02  0.8008628E-01
       -2   -1    0    0    0  501  0.00000000000E+00  0.00000000000E+00  0.30620304820E+04  0.30620304820E+04  0.25500000920E-02 0.  1.
        2   -1    0    0  501    0  0.00000000000E+00  0.00000000000E+00 -0.12931805863E+04  0.12931805863E+04  0.25500000920E-02 0. -1.
    10030    2    1    2    0    0  0.00000000000E+00  0.00000000000E+00  0.17688498958E+04  0.43552110683E+04  0.39798283250E+04 0.  0.
        2    1    3    3  502    0 -0.36930044636E+03 -0.15603053585E+04  0.21740643051E+04  0.27013869094E+04  0.25500000920E-02 0.  1.
       -2    1    3    3    0  502  0.36930044636E+03  0.15603053585E+04 -0.40521440935E+03  0.16538241590E+04  0.25500000920E-02 0. -1.
</event>
<event>
 5   0  0.2078125E-09  0.3997345E+04  0.7818609E-02  0.8005082E-01
       -3   -1    0    0    0  501  0.00000000000E+00  0.00000000000E+00  0.20683302298E+04  0.20683302323E+04  0.10100000352E+00 0. -1.
        3   -1    0    0  501    0  0.00000000000E+00  0.00000000000E+00 -0.19313604151E+04  0.19313604177E+04  0.10100000352E+00 0.  1.
    10030    2    1    2    0    0  0.00000000000E+00  0.00000000000E+00  0.13696981472E+03  0.39996906500E+04  0.39973446893E+04 0.  0.
        4    1    3    3  502    0 -0.82428109072E+02 -0.19010628861E+04 -0.54331079624E+03  0.19788943187E+04  0.12699999809E+01 0. -1.
       -4    1    3    3    0  502  0.82428109072E+02  0.19010628861E+04  0.68028061097E+03  0.20207963313E+04  0.12699999809E+01 0.  1.
</event>
<event>
 5   0  0.6645526E-09  0.4002129E+04  0.7818609E-02  0.8004117E-01
       -2   -1    0    0    0  501  0.00000000000E+00  0.00000000000E+00  0.24653202565E+04  0.24653202565E+04  0.25500000920E-02 0. -1.
        2   -1    0    0  501    0  0.00000000000E+00  0.00000000000E+00 -0.16242352144E+04  0.16242352144E+04  0.25500000920E-02 0.  1.
    10030    2    1    2    0    0  0.00000000000E+00  0.00000000000E+00  0.84108504205E+03  0.40895554709E+04  0.40021294209E+04 0.  0.
        3    1    3    3  502    0 -0.16138551666E+04 -0.45114889307E+03  0.15381419558E+04  0.22746306313E+04  0.10100000352E+00 0. -1.
       -3    1    3    3    0  502  0.16138551666E+04  0.45114889307E+03 -0.69705691370E+03  0.18149248397E+04  0.10100000352E+00 0.  1.
</event>
<event>
 5   0  0.6736335E-09  0.3997937E+04  0.7818609E-02  0.8004963E-01
        2   -1    0    0  501    0  0.00000000000E+00  0.00000000000E+00  0.24547264424E+04  0.24547264424E+04  0.25500000920E-02 0.  1.
       -2   -1    0    0    0  501  0.00000000000E+00  0.00000000000E+00 -0.16278290650E+04  0.16278290650E+04  0.25500000920E-02 0. -1.
    10030    2    1    2    0    0  0.00000000000E+00  0.00000000000E+00  0.82689737740E+03  0.40825555075E+04  0.39979369929E+04 0.  0.
        1    1    3    3  502    0  0.13462923545E+04  0.13240158936E+04  0.10833471866E+04  0.21769617169E+04  0.50400001928E-02 0. -1.
       -1    1    3    3    0  502 -0.13462923545E+04 -0.13240158936E+04 -0.25644980922E+03  0.19055937906E+04  0.50400001928E-02 0.  1.
</event>
<event>
 5   0  0.6538370E-09  0.4000880E+04  0.7818609E-02  0.8004369E-01
        2   -1    0    0  501    0  0.00000000000E+00  0.00000000000E+00  0.14269133389E+04  0.14269133389E+04  0.25500000920E-02 0. -1.
       -2   -1    0    0    0  501  0.00000000000E+00  0.00000000000E+00 -0.28044867013E+04  0.28044867013E+04  0.25500000920E-02 0.  1.
    10030    2    1    2    0    0  0.00000000000E+00  0.00000000000E+00 -0.13775733624E+04  0.42314000403E+04  0.40008796448E+04 0.  0.
        4    1    3    3  502    0 -0.22935668235E+03  0.19101037281E+04 -0.12687016950E+04  0.23044969828E+04  0.12699999809E+01 0. -1.
       -4    1    3    3    0  502  0.22935668235E+03 -0.19101037281E+04 -0.10887166734E+03  0.19269030574E+04  0.12699999809E+01 0.  1.
</event>
<event>
 5   0  0.6599276E-09  0.4000143E+04  0.7818609E-02  0.8004518E-01
        2   -1    0    0  501    0  0.00000000000E+00  0.00000000000E+00  0.25452563784E+04  0.25452563784E+04  0.25500000920E-02 0. -1.
       -2   -1    0    0    0  501  0.00000000000E+00  0.00000000000E+00 -0.15716633520E+04  0.15716633521E+04  0.25500000920E-02 0.  1.
    10030    2    1    2    0    0  0.00000000000E+00  0.00000000000E+00  0.97359302636E+03  0.41169197305E+04  0.40001430832E+04 0.  0.
        2    1    3    3  502    0 -0.11799793697E+04  0.15316386865E+04 -0.40023500170E+02  0.19338744167E+04  0.25500000920E-02 0. -1.
       -2    1    3    3    0  502  0.11799793697E+04 -0.15316386865E+04  0.10136165265E+04  0.21830453138E+04  0.25500000920E-02 0.  1.
</event>
<event>
 5   0  0.2078125E-09  0.3998396E+04  0.7818609E-02  0.8004870E-01
        1   -1    0    0  501    0  0.00000000000E+00  0.00000000000E+00  0.23555171995E+04  0.23555171995E+04  0.50400001928E-02 0. -1.
       -1   -1    0    0    0  501  0.00000000000E+00  0.00000000000E+00 -0.16967788533E+04  0.16967788533E+04  0.50400001928E-02 0.  1.
    10030    2    1    2    0    0  0.00000000000E+00  0.00000000000E+00  0.65873834616E+03  0.40522960528E+04  0.39983955645E+04 0.  0.
        5    1    3    3  502    0 -0.29384123803E+03  0.59947369336E+03  0.22391974129E+04  0.23366083382E+04  0.46999998093E+01 0. -1.
       -5    1    3    3    0  502  0.29384123803E+03 -0.59947369336E+03 -0.15804590668E+04  0.17156877146E+04  0.46999998093E+01 0.  1.
</event>
<event>
 5   0  0.6599276E-09  0.4001110E+04  0.7818609E-02  0.8004323E-01
        2   -1    0    0  501    0  0.00000000000E+00  0.00000000000E+00  0.28336036703E+04  0.28336036703E+04  0.25500000920E-02 0. -1.
       -2   -1    0    0    0  501  0.00000000000E+00  0.00000000000E+00 -0.14124133080E+04  0.14124133080E+04  0.25500000920E-02 0.  1.
    10030    2    1    2    0    0  0.00000000000E+00  0.00000000000E+00  0.14211903623E+04  0.42460169782E+04  0.40011096128E+04 0.  0.
        2    1    3    3  502    0  0.12652793786E+04  0.12841996964E+04 -0.20973674923E+03  0.18149628840E+04  0.25500000920E-02 0. -1.
       -2    1    3    3    0  502 -0.12652793786E+04 -0.12841996964E+04  0.16309271116E+04  0.24310540943E+04  0.25500000920E-02 0.  1.
</event>
<event>
 5   0  0.2078125E-09  0.4000351E+04  0.7818609E-02  0.8004476E-01
        1   -1    0    0  501    0  0.00000000000E+00  0.00000000000E+00  0.20287390597E+04  0.20287390597E+04  0.50400001928E-02 0. -1.
       -1   -1    0    0    0  501  0.00000000000E+00  0.00000000000E+00 -0.19720142630E+04  0.19720142630E+04  0.50400001928E-02 0.  1.
    10030    2    1    2    0    0  0.00000000000E+00  0.00000000000E+00  0.56724796667E+02  0.40007533227E+04  0.40003511654E+04 0.  0.
        5    1    3    3  502    0 -0.68184770885E+03 -0.10515535154E+04 -0.15306397763E+04  0.19782723039E+04  0.46999998093E+01 0.  1.
       -5    1    3    3    0  502  0.68184770885E+03  0.10515535154E+04  0.15873645730E+04  0.20224810188E+04  0.46999998093E+01 0. -1.
</event>
<event>
 5   0  0.2078125E-09  0.3999408E+04  0.7818609E-02  0.8004666E-01
        1   -1    0    0  501    0  0.00000000000E+00  0.00000000000E+00  0.15037390528E+04  0.15037390528E+04  0.50400001928E-02 0.  1.
       -1   -1    0    0    0  501  0.00000000000E+00  0.00000000000E+00 -0.26592489704E+04  0.26592489704E+04  0.50400001928E-02 0. -1.
    10030    2    1    2    0    0  0.00000000000E+00  0.00000000000E+00 -0.11555099176E+04  0.41629880232E+04  0.39994082202E+04 0.  0.
        4    1    3    3  502    0 -0.11019424743E+04 -0.15875137302E+04 -0.42588228247E+02  0.19329491536E+04  0.12699999809E+01 0.  1.
       -4    1    3    3    0  502  0.11019424743E+04  0.15875137302E+04 -0.11129216894E+04  0.22300388696E+04  0.12699999809E+01 0. -1.
</event>
<event>
 5   0  0.2078125E-09  0.3994156E+04  0.7818609E-02  0.8005726E-01
        1   -1    0    0  501    0  0.00000000000E+00  0.00000000000E+00  0.15241704470E+04  0.15241704470E+04  0.50400001928E-02 0.  1.
       -1   -1    0    0    0  501  0.00000000000E+00  0.00000000000E+00 -0.26167156589E+04  0.26167156590E+04  0.50400001928E-02 0. -1.
    10030    2    1    2    0    0  0.00000000000E+00  0.00000000000E+00 -0.10925452120E+04  0.41408861059E+04  0.39941560688E+04 0.  0.
        2    1    3    3  502    0 -0.13051888250E+04 -0.71027260023E+03 -0.19295738211E+04  0.24354178629E+04  0.25500000920E-02 0. -1.
       -2    1    3    3    0  502  0.13051888250E+04  0.71027260023E+03  0.83702860913E+03  0.17054682431E+04  0.25500000920E-02 0.  1.
</event>
<event>
 5   0  0.2078125E-09  0.3999576E+04  0.7818609E-02  0.8004632E-01
       -1   -1    0    0    0  501  0.00000000000E+00  0.00000000000E+00  0.18910288956E+04  0.18910288956E+04  0.50400001928E-02 0.  1.
        1   -1    0    0  501    0  0.00000000000E+00  0.00000000000E+00 -0.21148021937E+04  0.21148021938E+04  0.50400001928E-02 0. -1.
    10030    2    1    2    0    0  0.00000000000E+00  0.00000000000E+00 -0.22377329815E+03  0.40058310894E+04  0.39995760060E+04 0.  0.
        4    1    3    3  502    0  0.10284826523E+04  0.13372602476E+04 -0.11873951368E+04  0.20629954822E+04  0.12699999809E+01 0. -1.
       -4    1    3    3    0  502 -0.10284826523E+04 -0.13372602476E+04  0.96362183860E+03  0.19428356072E+04  0.12699999809E+01 0.  1.
</event>
<event>
 5   0  0.6736335E-09  0.3999338E+04  0.7818609E-02  0.8004680E-01
        2   -1    0    0  501    0  0.00000000000E+00  0.00000000000E+00  0.23504417431E+04  0.23504417431E+04  0.25500000920E-02 0. -1.
       -2   -1    0    0    0  501  0.00000000000E+00  0.00000000000E+00 -0.17012447199E+04  0.17012447199E+04  0.25500000920E-02 0.  1.
    10030    2    1    2    0    0  0.00000000000E+00  0.00000000000E+00  0.64919702320E+03  0.40516864630E+04  0.39993382477E+04 0.  0.
        1    1    3    3  502    0  0.19370064979E+04 -0.35148077306E+03  0.68011012271E+03  0.20828064446E+04  0.50400001928E-02 0.  1.
       -1    1    3    3    0  502 -0.19370064979E+04  0.35148077306E+03 -0.30913099515E+02  0.19688800183E+04  0.50400001928E-02 0. -1.
</event>
<event>
 5   0  0.6538370E-09  0.4000464E+04  0.7818609E-02  0.8004453E-01
        2   -1    0    0  501    0  0.00000000000E+00  0.00000000000E+00  0.26857020204E+04  0.26857020204E+04  0.25500000920E-02 0. -1.
       -2   -1    0    0    0  501  0.00000000000E+00  0.00000000000E+00 -0.14897141243E+04  0.14897141243E+04  0.25500000920E-02 0.  1.
    10030    2    1    2    0    0  0.00000000000E+00  0.00000000000E+00  0.11959878961E+04  0.41754161447E+04  0.40004640899E+04 0.  0.
        4    1    3    3  502    0  0.14260641930E+04 -0.37850116986E+03 -0.81162695412E+03  0.16839424407E+04  0.12699999809E+01 0.  1.
       -4    1    3    3    0  502 -0.14260641930E+04  0.37850116986E+03  0.20076148502E+04  0.24914737040E+04  0.12699999809E+01 0. -1.
</event>
<event>
 5   0  0.2078125E-09  0.4003010E+04  0.7818609E-02  0.8003940E-01
        1   -1    0    0  501    0  0.00000000000E+00  0.00000000000E+00  0.31470095510E+04  0.31470095510E+04  0.50400001928E-02 0. -1.
       -1   -1    0    0    0  501  0.00000000000E+00  0.00000000000E+00 -0.12729614866E+04  0.12729614866E+04  0.50400001928E-02 0.  1.
    10030    2    1    2    0    0  0.00000000000E+00  0.00000000000E+00  0.18740480644E+04  0.44199710375E+04  0.40030098457E+04 0.  0.
        3    1    3    3  502    0  0.19181283372E+04 -0.51511880720E+03  0.12107543069E+04  0.23260459380E+04  0.10100000352E+00 0. -1.
       -3    1    3    3    0  502 -0.19181283372E+04  0.51511880720E+03  0.66329375748E+03  0.20939250996E+04  0.10100000352E+00 0.  1.
</event>
<event>
 5   0  0.6645526E-09  0.3999924E+04  0.7818609E-02  0.8004562E-01
       -2   -1    0    0    0  501  0.00000000000E+00  0.00000000000E+00  0.21818606385E+04  0.21818606385E+04  0.25500000920E-02 0.  1.
        2   -1    0    0  501    0  0.00000000000E+00  0.00000000000E+00 -0.18332281783E+04  0.18332281783E+04  0.25500000920E-02 0. -1.
    10030    2    1    2    0    0  0.00000000000E+00  0.00000000000E+00  0.34863246018E+03  0.40150888168E+04  0.39999242011E+04 0.  0.
        3    1    3    3  502    0 -0.11054156672E+04 -0.14337249880E+04  0.10274426712E+04  0.20816218656E+04  0.10100000352E+00 0. -1.
       -3    1    3    3    0  502  0.11054156672E+04  0.14337249880E+04 -0.67881021105E+03  0.19334669512E+04  0.10100000352E+00 0.  1.
</event>
<event>
 5   0  0.2078125E-09  0.4001344E+04  0.7818609E-02  0.8004276E-01
        1   -1    0    0  501    0  0.00000000000E+00  0.00000000000E+00  0.22830112875E+04  0.22830112875E+04  0.50400001928E-02 0. -1.
       -1   -1    0    0    0  501  0.00000000000E+00  0.00000000000E+00 -0.17532492974E+04  0.17532492974E+04  0.50400001928E-02 0.  1.
    10030    2    1    2    0    0  0.00000000000E+00  0.00000000000E+00  0.52976199013E+03  0.40362605849E+04  0.40013437422E+04 0.  0.
        3    1    3    3  502    0 -0.17431436981E+04  0.91678805343E+03  0.61957078399E+03  0.20646835723E+04  0.10100000352E+00 0. -1.
       -3    1    3    3    0  502  0.17431436981E+04 -0.91678805343E+03 -0.89808793863E+02  0.19715770126E+04  0.10100000352E+00 0.  1.
</event>
<event>
 5   0  0.2078125E-09  0.3997680E+04  0.7818609E-02  0.8005015E-01
       -1   -1    0    0    0  501  0.00000000000E+00  0.00000000000E+00  0.14395299512E+04  0.14395299512E+04  0.50400001928E-02 0. -1.
        1   -1    0    0  501    0  0.00000000000E+00  0.00000000000E+00 -0.27754631566E+04  0.27754631566E+04  0.50400001928E-02 0.  1.
    10030    2    1    2    0    0  0.00000000000E+00  0.00000000000E+00 -0.13359332054E+04  0.42149931078E+04  0.39976804987E+04 0.  0.
        2    1    3    3  502    0  0.51196813800E+03 -0.19309379508E+04 -0.74047710541E+03  0.21304786053E+04  0.25500000920E-02 0. -1.
       -2    1    3    3    0  502 -0.51196813800E+03  0.19309379508E+04 -0.59545610001E+03  0.20845145025E+04  0.25500000920E-02 0.  1.
</event>
<event>
 5   0  0.6599276E-09  0.3999580E+04  0.7818609E-02  0.8004631E-01
       -2   -1    0    0    0  501  0.00000000000E+00  0.00000000000E+00  0.23723010524E+04  0.23723010524E+04  0.25500000920E-02 0. -1.
        2   -1    0    0  501    0  0.00000000000E+00  0.00000000000E+00 -0.16857725607E+04  0.16857725607E+04  0.25500000920E-02 0.  1.
    10030    2    1    2    0    0  0.00000000000E+00  0.00000000000E+00  0.68652849174E+03  0.40580736131E+04  0.39995799878E+04 0.  0.
        2    1    3    3  502    0  0.63514243120E+03 -0.74412073426E+02  0.22657621762E+04  0.23542772359E+04  0.25500000920E-02 0. -1.
       -2    1    3    3    0  502 -0.63514243120E+03  0.74412073426E+02 -0.15792336845E+04  0.17037963771E+04  0.25500000920E-02 0.  1.
</event>
<event>
 5   0  0.2078125E-09  0.4001915E+04  0.7818609E-02  0.8004160E-01
        1   -1    0    0  501    0  0.00000000000E+00  0.00000000000E+00  0.27941756590E+04  0.27941756590E+04  0.50400001928E-02 0.  1.
       -1   -1    0    0    0  501  0.00000000000E+00  0.00000000000E+00 -0.14329202129E+04  0.14329202129E+04  0.50400001928E-02 0. -1.
    10030    2    1    2    0    0  0.00000000000E+00  0.00000000000E+00  0.13612554461E+04  0.42270958719E+04  0.40019149317E+04 0.  0.
        1    1    3    3  502    0  0.55877063529E+03  0.17380095826E+04  0.15458196892E+04  0.23921664749E+04  0.50400001928E-02 0.  1.
       -1    1    3    3    0  502 -0.55877063529E+03 -0.17380095826E+04 -0.18456424304E+03  0.18349293970E+04  0.50400001928E-02 0. -1.
</event>
<event>
 5   0  0.6538370E-09  0.4000089E+04  0.7818609E-02  0.8004529E-01
       -2   -1    0    0    0  501  0.00000000000E+00  0.00000000000E+00  0.13645596358E+04  0.13645596358E+04  0.25500000920E-02 0.  1.
        2   -1    0    0  501    0  0.00000000000E+00  0.00000000000E+00 -0.29314790383E+04  0.29314790383E+04  0.25500000920E-02 0. -1.
    10030    2    1    2    0    0  0.00000000000E+00  0.00000000000E+00 -0.15669194025E+04  0.42960386741E+04  0.40000889834E+04 0.  0.
        4    1    3    3  502    0  0.80417207394E+03  0.51976030929E+03 -0.26693166007E+04  0.28358589936E+04  0.12699999809E+01 0. -1.
       -4    1    3    3    0  502 -0.80417207394E+03 -0.51976030929E+03  0.11023971983E+04  0.14601796805E+04  0.12699999809E+01 0.  1.
</event>
<event>
 5   0  0.2078125E-09  0.3999413E+04  0.7818609E-02  0.8004665E-01
       -1   -1    0    0    0  501  0.00000000000E+00  0.00000000000E+00  0.24523096424E+04  0.24523096424E+04  0.50400001928E-02 0.  1.
        1   -1    0    0  501    0  0.00000000000E+00  0.00000000000E+00 -0.16306366089E+04  0.16306366089E+04  0.50400001928E-02 0. -1.
    10030    2    1    2    0    0  0.00000000000E+00  0.00000000000E+00  0.82167303354E+03  0.40829462513E+04  0.39994128965E+04 0.  0.
        1    1    3    3  502    0 -0.14695164917E+04  0.12698770220E+04  0.89697519269E+03  0.21393061648E+04  0.50400001928E-02 0.  1.
       -1    1    3    3    0  502  0.14695164917E+04 -0.12698770220E+04 -0.75302159145E+02  0.19436400865E+04  0.50400001928E-02 0. -1.
</event>
<event>
 5   0  0.6538370E-09  0.3995783E+04  0.7818609E-02  0.8005398E-01
        2   -1    0    0  501    0  0.00000000000E+00  0.00000000000E+00  0.29269896415E+04  0.29269896415E+04  0.25500000920E-02 0.  1.
       -2   -1    0    0    0  501  0.00000000000E+00  0.00000000000E+00 -0.13637118841E+04  0.13637118841E+04  0.25500000920E-02 0. -1.
    10030    2    1    2    0    0  0.00000000000E+00  0.00000000000E+00  0.15632777574E+04  0.42907015255E+04  0.39957830565E+04 0.  0.
        4    1    3    3  502    0  0.14912461045E+04 -0.71682736468E+03  0.19840694929E+04  0.25834453314E+04  0.12699999809E+01 0.  1.
       -4    1    3    3    0  502 -0.14912461045E+04  0.71682736468E+03 -0.42079173546E+03  0.17072561941E+04  0.12699999809E+01 0. -1.
</event>
<event>
 5   0  0.6547327E-09  0.3999550E+04  0.7818609E-02  0.8004637E-01
       -2   -1    0    0    0  501  0.00000000000E+00  0.00000000000E+00  0.14042523589E+04  0.14042523589E+04  0.25500000920E-02 0.  1.
        2   -1    0    0  501    0  0.00000000000E+00  0.00000000000E+00 -0.28478503760E+04  0.28478503760E+04  0.25500000920E-02 0. -1.
    10030    2    1    2    0    0  0.00000000000E+00  0.00000000000E+00 -0.14435980171E+04  0.42521027350E+04  0.39995502789E+04 0.  0.
        5    1    3    3  502    0  0.42469316608E+01  0.44549498311E+02 -0.28473120875E+04  0.28476676259E+04  0.46999998093E+01 0. -1.
       -5    1    3    3    0  502 -0.42469316608E+01 -0.44549498311E+02  0.14037140704E+04  0.14044351091E+04  0.46999998093E+01 0.  1.
</event>
<event>
 5   0  0.2078125E-09  0.3999923E+04  0.7818609E-02  0.8004562E-01
       -1   -1    0    0    0  501  0.00000000000E+00  0.00000000000E+00  0.32773589827E+04  0.32773589827E+04  0.50400001928E-02 0.  1.
        1   -1    0    0  501    0  0.00000000000E+00  0.00000000000E+00 -0.12204479762E+04  0.12204479762E+04  0.50400001928E-02 0. -1.
    10030    2    1    2    0    0  0.00000000000E+00  0.00000000000E+00  0.20569110065E+04  0.44978069589E+04  0.39999230681E+04 0.  0.
        4    1    3    3  502    0 -0.64072115318E+02 -0.13357670837E+04  0.27006595356E+04  0.30136261345E+04  0.12699999809E+01 0.  1.
       -4    1    3    3    0  502  0.64072115318E+02  0.13357670837E+04 -0.64374852916E+03  0.14841808244E+04  0.12699999809E+01 0. -1.
</event>
<event>
 5   0  0.6547327E-09  0.3994806E+04  0.7818609E-02  0.8005595E-01
        2   -1    0    0  501    0  0.00000000000E+00  0.00000000000E+00  0.19591348729E+04  0.19591348729E+04  0.25500000920E-02 0.  1.
       -2   -1    0    0    0  501  0.00000000000E+00  0.00000000000E+00 -0.20364189840E+04  0.20364189840E+04  0.25500000920E-02 0. -1.
    10030    2    1    2    0    0  0.00000000000E+00  0.00000000000E+00 -0.77284111024E+02  0.39955538569E+04  0.39948063520E+04 0.  0.
        5    1    3    3  502    0  0.13290350508E+04  0.11927769936E+04  0.85625785947E+03  0.19804673021E+04  0.46999998093E+01 0.  1.
       -5    1    3    3    0  502 -0.13290350508E+04 -0.11927769936E+04 -0.93354197049E+03  0.20150865548E+04  0.46999998093E+01 0. -1.
</event>
<event>
 5   0  0.2078125E-09  0.3998833E+04  0.7818609E-02  0.8004782E-01
       -1   -1    0    0    0  501  0.00000000000E+00  0.00000000000E+00  0.18468788574E+04  0.18468788574E+04  0.50400001928E-02 0.  1.
        1   -1    0    0  501    0  0.00000000000E+00  0.00000000000E+00 -0.21645528555E+04  0.21645528555E+04  0.50400001928E-02 0. -1.
    10030    2    1    2    0    0  0.00000000000E+00  0.00000000000E+00 -0.31767399814E+03  0.40114317129E+04  0.39988332821E+04 0.  0.
        2    1    3    3  502    0  0.15898483450E+04  0.15629126450E+03 -0.13649652993E+04  0.21012317787E+04  0.25500000920E-02 0. -1.
       -2    1    3    3    0  502 -0.15898483450E+04 -0.15629126450E+03  0.10472913011E+04  0.19101999343E+04  0.25500000920E-02 0.  1.
</event>
<event>
 5   0  0.6599276E-09  0.3999948E+04  0.7818609E-02  0.8004557E-01
       -2   -1    0    0    0  501  0.00000000000E+00  0.00000000000E+00  0.20266917689E+04  0.20266917689E+04  0.25500000920E-02 0. -1.
        2   -1    0    0  501    0  0.00000000000E+00  0.00000000000E+00 -0.19736083564E+04  0.19736083564E+04  0.25500000920E-02 0.  1.
    10030    2    1    2    0    0  0.00000000000E+00  0.00000000000E+00  0.53083412518E+02  0.40003001253E+04  0.39999479052E+04 0.  0.
        2    1    3    3  502    0  0.14902560128E+04  0.63705801181E+03  0.11984767570E+04  0.20157014738E+04  0.25500000920E-02 0. -1.
       -2    1    3    3    0  502 -0.14902560128E+04 -0.63705801181E+03 -0.11453933445E+04  0.19845986516E+04  0.25500000920E-02 0.  1.
</event>
<event>
 5   0  0.2078125E-09  0.3996503E+04  0.7818609E-02  0.8005252E-01
       -1   -1    0    0    0  501  0.00000000000E+00  0.00000000000E+00  0.16067234910E+04  0.16067234910E+04  0.50400001928E-02 0. -1.
        1   -1    0    0  501    0  0.00000000000E+00  0.00000000000E+00 -0.24851868422E+04  0.24851868422E+04  0.50400001928E-02 0.  1.
    10030    2    1    2    0    0  0.00000000000E+00  0.00000000000E+00 -0.87846335121E+03  0.40919103332E+04  0.39965025104E+04 0.  0.
        5    1    3    3  502    0 -0.15146190363E+04 -0.25229084578E+03 -0.17485342496E+04  0.23270400959E+04  0.46999998093E+01 0.  1.
       -5    1    3    3    0  502  0.15146190363E+04  0.25229084578E+03  0.87007089839E+03  0.17648702373E+04  0.46999998093E+01 0. -1.
</event>
</LesHouchesEvents>
