<LesHouchesEvents version="3.0">
<header>
<!--
#*********************************************************************
#                                                                    *
#                        MadGraph5_aMC@NLO                           *
#                                                                    *
#                           Going Beyond                             *
#                                                                    *
#                   http://madgraph.hep.uiuc.edu                     *
#                   http://madgraph.phys.ucl.ac.be                   *
#                   http://amcatnlo.cern.ch                          *
#                                                                    *
#                     The MadGraph5_aMC@NLO team                     *
#                                                                    *
#....................................................................*
#                                                                    *
# This file contains all the information necessary to reproduce      *
# the events generated:                                              *
#                                                                    *
# 1. software version                                                *
# 2. proc_card          : code generation info including model       *
# 3. param_card         : model primary parameters in the LH format  *
# 4. run_card           : running parameters (collider and cuts)     *
# 5. pythia_card        : present only if pythia has been run        *
# 6. pgs_card           : present only if pgs has been run           *
# 7. delphes_cards      : present only if delphes has been run       *
#                                                                    *
#                                                                    *
#*********************************************************************
-->
<MGVersion>
#5.2.2.3
</MGVersion>
<MG5ProcCard>
#************************************************************
#*                     MadGraph5_aMC@NLO                    *
#*                                                          *
#*                *                       *                 *
#*                  *        * *        *                   *
#*                    * * * * 5 * * * *                     *
#*                  *        * *        *                   *
#*                *                       *                 *
#*                                                          *
#*                                                          *
#*         VERSION 2.2.3                 2015-02-10         *
#*                                                          *
#*    The MadGraph5_aMC@NLO Development Team - Find us at   *
#*    https://server06.fynu.ucl.ac.be/projects/madgraph     *
#*                                                          *
#************************************************************
#*                                                          *
#*               Command File for MadGraph5_aMC@NLO         *
#*                                                          *
#*     run as ./bin/mg5_aMC  filename                       *
#*                                                          *
#************************************************************
set group_subprocesses Auto
set ignore_six_quark_processes False
set loop_optimized_output True
set gauge unitary
set complex_mass_scheme False
import model sm
define p = g u c d s u~ c~ d~ s~
define j = g u c d s u~ c~ d~ s~
define l+ = e+ mu+
define l- = e- mu-
define vl = ve vm vt
define vl~ = ve~ vm~ vt~
import model Zprime_UFO
generate p p > zph, zph > j j
add process p p > zph, zph > b b~
output Dijet_signal
</MG5ProcCard>
<MGProcCard>
#*********************************************************************
#                        MadGraph/MadEvent                           *
#                   http://madgraph.hep.uiuc.edu                     *
#                                                                    *
#                          proc_card.dat                             *
#*********************************************************************
#                                                                    *
#            This Files is generated by MADGRAPH 5                   *
#                                                                    *
# WARNING: This Files is generated for MADEVENT (compatibility issue)*
#          This files is NOT a valid MG4 proc_card.dat               *
#          Running this in MG4 will NEVER reproduce the result of MG5*
#                                                                    *
#*********************************************************************
#*********************************************************************
# Process(es) requested : mg2 input                                  *
#*********************************************************************
# Begin PROCESS # This is TAG. Do not modify this line
p p > zph , zph > j j           #Process
# Be carefull the coupling are here in MG5 convention
          
end_coup           # End the couplings input

done               # this tells MG there are no more procs
# End PROCESS  # This is TAG. Do not modify this line
#*********************************************************************
# Model information                                                  *
#*********************************************************************
# Begin MODEL  # This is TAG. Do not modify this line
Zprime_UFO
# End   MODEL  # This is TAG. Do not modify this line
#*********************************************************************
# Start multiparticle definitions                                    *
#*********************************************************************
# Begin MULTIPARTICLES # This is TAG. Do not modify this line

# End  MULTIPARTICLES # This is TAG. Do not modify this line
</MGProcCard>
<MGRunCard>
#*********************************************************************
#                       MadGraph5_aMC@NLO                            *
#                                                                    *
#                     run_card.dat MadEvent                          *
#                                                                    *
#  This file is used to set the parameters of the run.               *
#                                                                    *
#  Some notation/conventions:                                        *
#                                                                    *
#   Lines starting with a '# ' are info or comments                  *
#                                                                    *
#   mind the format:   value    = variable     ! comment             *
#*********************************************************************
#
#*******************                                                 
# Running parameters
#*******************                                                 
#                                                                    
#*********************************************************************
# Tag name for the run (one word)                                    *
#*********************************************************************
  tag_1     = run_tag ! name of the run 
#*********************************************************************
# Run to generate the grid pack                                      *
#*********************************************************************
  .false.     = gridpack  !True = setting up the grid pack
#*********************************************************************
# Number of events and rnd seed                                      *
# Warning: Do not generate more than 1M events in a single run       *
# If you want to run Pythia, avoid more than 50k events in a run.    *
#*********************************************************************
  2000 = nevents ! Number of unweighted events requested 
 1011 = iseed   ! rnd seed (0=assigned automatically=default))
#*********************************************************************
# Collider type and energy                                           *
# lpp: 0=No PDF, 1=proton, -1=antiproton, 2=photon from proton,      *
#                                         3=photon from electron     *
#*********************************************************************
        1     = lpp1    ! beam 1 type 
        1     = lpp2    ! beam 2 type
     4000     = ebeam1  ! beam 1 total energy in GeV
     4000     = ebeam2  ! beam 2 total energy in GeV
#*********************************************************************
# Beam polarization from -100 (left-handed) to 100 (right-handed)    *
#*********************************************************************
        0     = polbeam1 ! beam polarization for beam 1
        0     = polbeam2 ! beam polarization for beam 2
#*********************************************************************
# PDF CHOICE: this automatically fixes also alpha_s and its evol.    *
#*********************************************************************
 'nn23lo1'    = pdlabel     ! PDF set                                     
 230000    = lhaid     ! if pdlabel=lhapdf, this is the lhapdf number
#*********************************************************************
# Renormalization and factorization scales                           *
#*********************************************************************
 F        = fixed_ren_scale  ! if .true. use fixed ren scale
 F        = fixed_fac_scale  ! if .true. use fixed fac scale
 91.1880  = scale            ! fixed ren scale
 91.1880  = dsqrt_q2fact1    ! fixed fact scale for pdf1
 91.1880  = dsqrt_q2fact2    ! fixed fact scale for pdf2
 1        = scalefact        ! scale factor for event-by-event scales
#*********************************************************************
# Matching - Warning! ickkw > 1 is still beta
#*********************************************************************
 0        = ickkw            ! 0 no matching, 1 MLM, 2 CKKW matching
 1        = highestmult      ! for ickkw=2, highest mult group
 1        = ktscheme         ! for ickkw=1, 1 Durham kT, 2 Pythia pTE
 1        = alpsfact         ! scale factor for QCD emission vx
 F        = chcluster        ! cluster only according to channel diag
 T        = pdfwgt           ! for ickkw=1, perform pdf reweighting
 5        = asrwgtflavor     ! highest quark flavor for a_s reweight
 T        = clusinfo         ! include clustering tag in output
 3.0      = lhe_version       ! Change the way clustering information pass to shower.        
#*********************************************************************
#**********************************************************
#
#**********************************************************
# Automatic ptj and mjj cuts if xqcut > 0
# (turn off for VBF and single top processes)
#**********************************************************
   T  = auto_ptj_mjj  ! Automatic setting of ptj and mjj
#**********************************************************
#                                                                    
#**********************************
# BW cutoff (M+/-bwcutoff*Gamma)
#**********************************
  15  = bwcutoff      ! (M+/-bwcutoff*Gamma)
#**********************************************************
# Apply pt/E/eta/dr/mij cuts on decay products or not
# (note that etmiss/ptll/ptheavy/ht/sorted cuts always apply)
#**********************************************************
   T  = cut_decays    ! Cut decay products 
#*************************************************************
# Number of helicities to sum per event (0 = all helicities)
# 0 gives more stable result, but longer run time (needed for
# long decay chains e.g.).
# Use >=2 if most helicities contribute, e.g. pure QCD.
#*************************************************************
   0  = nhel          ! Number of helicities used per event
#*******************                                                 
# Standard Cuts
#*******************                                                 
#                                                                    
#*********************************************************************
# Minimum and maximum pt's (for max, -1 means no cut)                *
#*********************************************************************
 20  = ptj       ! minimum pt for the jets 
  0  = ptb       ! minimum pt for the b 
 10  = pta       ! minimum pt for the photons 
 10  = ptl       ! minimum pt for the charged leptons 
  0  = misset    ! minimum missing Et (sum of neutrino's momenta)
  0  = ptheavy   ! minimum pt for one heavy final state
 1.0 = ptonium   ! minimum pt for the quarkonium states
 -1  = ptjmax    ! maximum pt for the jets
 -1  = ptbmax    ! maximum pt for the b
 -1  = ptamax    ! maximum pt for the photons
 -1  = ptlmax    ! maximum pt for the charged leptons
 -1  = missetmax ! maximum missing Et (sum of neutrino's momenta)
#*********************************************************************
# Minimum and maximum E's (in the center of mass frame)              *
#*********************************************************************
  0  = ej     ! minimum E for the jets 
  0  = eb     ! minimum E for the b 
  0  = ea     ! minimum E for the photons 
  0  = el     ! minimum E for the charged leptons 
 -1   = ejmax ! maximum E for the jets
 -1   = ebmax ! maximum E for the b
 -1   = eamax ! maximum E for the photons
 -1   = elmax ! maximum E for the charged leptons
#*********************************************************************
# Maximum and minimum absolute rapidity (for max, -1 means no cut)   *
#*********************************************************************
   5  = etaj    ! max rap for the jets 
  -1  = etab    ! max rap for the b
 2.5  = etaa    ! max rap for the photons 
 2.5  = etal    ! max rap for the charged leptons 
 0.6  = etaonium ! max rap for the quarkonium states
   0  = etajmin ! min rap for the jets
   0  = etabmin ! min rap for the b
   0  = etaamin ! min rap for the photons
   0  = etalmin ! main rap for the charged leptons
#*********************************************************************
# Minimum and maximum DeltaR distance                                *
#*********************************************************************
 0.4 = drjj    ! min distance between jets 
 0   = drbb    ! min distance between b's 
 0.4 = drll    ! min distance between leptons 
 0.4 = draa    ! min distance between gammas 
 0   = drbj    ! min distance between b and jet 
 0.4 = draj    ! min distance between gamma and jet 
 0.4 = drjl    ! min distance between jet and lepton 
 0   = drab    ! min distance between gamma and b 
 0   = drbl    ! min distance between b and lepton 
 0.4 = dral    ! min distance between gamma and lepton 
 -1  = drjjmax ! max distance between jets
 -1  = drbbmax ! max distance between b's
 -1  = drllmax ! max distance between leptons
 -1  = draamax ! max distance between gammas
 -1  = drbjmax ! max distance between b and jet
 -1  = drajmax ! max distance between gamma and jet
 -1  = drjlmax ! max distance between jet and lepton
 -1  = drabmax ! max distance between gamma and b
 -1  = drblmax ! max distance between b and lepton
 -1  = dralmax ! maxdistance between gamma and lepton
#*********************************************************************
# Minimum and maximum invariant mass for pairs                       *
# WARNING: for four lepton final state mmll cut require to have      *
#          different lepton masses for each flavor!                  *           
#*********************************************************************
 0   = mmjj    ! min invariant mass of a jet pair 
 0   = mmbb    ! min invariant mass of a b pair 
 0   = mmaa    ! min invariant mass of gamma gamma pair
 0   = mmll    ! min invariant mass of l+l- (same flavour) lepton pair
 -1  = mmjjmax ! max invariant mass of a jet pair
 -1  = mmbbmax ! max invariant mass of a b pair
 -1  = mmaamax ! max invariant mass of gamma gamma pair
 -1  = mmllmax ! max invariant mass of l+l- (same flavour) lepton pair
#*********************************************************************
# Minimum and maximum invariant mass for all letpons                 *
#*********************************************************************
 0   = mmnl    ! min invariant mass for all letpons (l+- and vl) 
 -1  = mmnlmax ! max invariant mass for all letpons (l+- and vl) 
#*********************************************************************
# Minimum and maximum pt for 4-momenta sum of leptons                *
#*********************************************************************
 0   = ptllmin  ! Minimum pt for 4-momenta sum of leptons(l and vl)
 -1  = ptllmax  ! Maximum pt for 4-momenta sum of leptons(l and vl)
#*********************************************************************
# Inclusive cuts                                                     *
#*********************************************************************
 0  = xptj ! minimum pt for at least one jet  
 0  = xptb ! minimum pt for at least one b 
 0  = xpta ! minimum pt for at least one photon 
 0  = xptl ! minimum pt for at least one charged lepton 
#*********************************************************************
# Control the pt's of the jets sorted by pt                          *
#*********************************************************************
 0   = ptj1min ! minimum pt for the leading jet in pt
 0   = ptj2min ! minimum pt for the second jet in pt
 0   = ptj3min ! minimum pt for the third jet in pt
 0   = ptj4min ! minimum pt for the fourth jet in pt
 -1  = ptj1max ! maximum pt for the leading jet in pt 
 -1  = ptj2max ! maximum pt for the second jet in pt
 -1  = ptj3max ! maximum pt for the third jet in pt
 -1  = ptj4max ! maximum pt for the fourth jet in pt
 0   = cutuse  ! reject event if fails any (0) / all (1) jet pt cuts
#*********************************************************************
# Control the pt's of leptons sorted by pt                           *
#*********************************************************************
 0   = ptl1min ! minimum pt for the leading lepton in pt
 0   = ptl2min ! minimum pt for the second lepton in pt
 0   = ptl3min ! minimum pt for the third lepton in pt
 0   = ptl4min ! minimum pt for the fourth lepton in pt
 -1  = ptl1max ! maximum pt for the leading lepton in pt 
 -1  = ptl2max ! maximum pt for the second lepton in pt
 -1  = ptl3max ! maximum pt for the third lepton in pt
 -1  = ptl4max ! maximum pt for the fourth lepton in pt
#*********************************************************************
# Control the Ht(k)=Sum of k leading jets                            *
#*********************************************************************
 0   = htjmin ! minimum jet HT=Sum(jet pt)
 -1  = htjmax ! maximum jet HT=Sum(jet pt)
 0   = ihtmin  !inclusive Ht for all partons (including b)
 -1  = ihtmax  !inclusive Ht for all partons (including b)
 0   = ht2min ! minimum Ht for the two leading jets
 0   = ht3min ! minimum Ht for the three leading jets
 0   = ht4min ! minimum Ht for the four leading jets
 -1  = ht2max ! maximum Ht for the two leading jets
 -1  = ht3max ! maximum Ht for the three leading jets
 -1  = ht4max ! maximum Ht for the four leading jets
#***********************************************************************
# Photon-isolation cuts, according to hep-ph/9801442                   *
# When ptgmin=0, all the other parameters are ignored                  *
# When ptgmin>0, pta and draj are not going to be used                 *
#***********************************************************************
   0 = ptgmin ! Min photon transverse momentum
 0.4 = R0gamma ! Radius of isolation code
 1.0 = xn ! n parameter of eq.(3.4) in hep-ph/9801442
 1.0 = epsgamma ! epsilon_gamma parameter of eq.(3.4) in hep-ph/9801442
 .true. = isoEM ! isolate photons from EM energy (photons and leptons)
#*********************************************************************
# WBF cuts                                                           *
#*********************************************************************
 0   = xetamin ! minimum rapidity for two jets in the WBF case  
 0   = deltaeta ! minimum rapidity for two jets in the WBF case 
#*********************************************************************
# KT DURHAM CUT                                                      *
#*********************************************************************
 -1    =  ktdurham        
 0.4  =  dparameter 
#*********************************************************************
# maximal pdg code for quark to be considered as a light jet         *
# (otherwise b cuts are applied)                                     *
#*********************************************************************
 4 = maxjetflavor    ! Maximum jet pdg code
#*********************************************************************
# Jet measure cuts                                                   *
#*********************************************************************
 0   = xqcut   ! minimum kt jet measure between partons
#*********************************************************************
#
#*********************************************************************
# Store info for systematics studies                                 *
# WARNING: If use_syst is T, matched Pythia output is                *
#          meaningful ONLY if plotted taking matchscale              *
#          reweighting into account!                                 *
#*********************************************************************
   F  = use_syst      ! Enable systematics studies
#
#**************************************
# Parameter of the systematics study
#  will be used by SysCalc (if installed)
#**************************************                                  
#
0.5 1 2 = sys_scalefact  # factorization/renormalization scale factor
0.5 1 2 = sys_alpsfact  # \alpha_s emission scale factors
30 50 = sys_matchscale # variation of merging scale
# PDF sets and number of members (0 or none for all members).
CT10nlo.LHgrid = sys_pdf # matching scales
# MSTW2008nlo68cl.LHgrid 1  = sys_pdf
</MGRunCard>
<slha>
######################################################################
## PARAM_CARD AUTOMATICALY GENERATED BY MG5 FOLLOWING UFO MODEL   ####
######################################################################
##                                                                  ##
##  Width set on Auto will be computed following the information    ##
##        present in the decay.py files of the model.               ##
##        See  arXiv:1402.1178 for more details.                    ##
##                                                                  ##
######################################################################

###################################
## INFORMATION FOR CKMBLOCK
###################################
Block ckmblock 
    1 2.277360e-01 # cabi 

###################################
## INFORMATION FOR FRBLOCK
###################################
Block frblock 
    1 4.000000e-01 # gz 

###################################
## INFORMATION FOR MASS
###################################
Block mass 
    1 5.040000e-03 # MD 
    2 2.550000e-03 # MU 
    3 1.010000e-01 # MS 
    4 1.270000e+00 # MC 
    5 4.700000e+00 # MB 
    6 1.720000e+02 # MT 
   11 5.110000e-04 # Me 
   13 1.056600e-01 # MM 
   15 1.777000e+00 # MTA 
   23 9.118760e+01 # MZ 
   25 1.200000e+02 # MH 
  10030 2.600000e+03 # MZph 
  10031 3.000000e+02 # MZpl 
## Dependent parameters, given by model restrictions.
## Those values should be edited following the 
## analytical expression. MG5 ignores those values 
## but they are important for interfacing the output of MG5
## to external program such as Pythia.
  12 0.000000 # ve : 0.0 
  14 0.000000 # vm : 0.0 
  16 0.000000 # vt : 0.0 
  21 0.000000 # g : 0.0 
  22 0.000000 # a : 0.0 
  24 79.824360 # w+ : cmath.sqrt(MZ__exp__2/2. + cmath.sqrt(MZ__exp__4/4. - (aEW*cmath.pi*MZ__exp__2)/(Gf*sqrt__2))) 

###################################
## INFORMATION FOR SMINPUTS
###################################
Block sminputs 
    1 1.279000e+02 # aEWM1 
    2 1.166370e-05 # Gf 
    3 1.184000e-01 # aS 

###################################
## INFORMATION FOR YUKAWA
###################################
Block yukawa 
    1 5.040000e-03 # ymdo 
    2 2.550000e-03 # ymup 
    3 1.010000e-01 # yms 
    4 1.270000e+00 # ymc 
    5 4.700000e+00 # ymb 
    6 1.720000e+02 # ymt 
   11 5.110000e-04 # yme 
   13 1.056600e-01 # ymm 
   15 1.777000e+00 # ymtau 

###################################
## INFORMATION FOR DECAY
###################################
DECAY   6 1.508336e+00 # WT 
DECAY  23 2.495200e+00 # WZ 
DECAY  24 2.085000e+00 # WW 
DECAY  25 5.753088e-03 # WH 
## Dependent parameters, given by model restrictions.
## Those values should be edited following the 
## analytical expression. MG5 ignores those values 
## but they are important for interfacing the output of MG5
## to external program such as Pythia.
DECAY  1 0.000000 # d : 0.0 
DECAY  2 0.000000 # u : 0.0 
DECAY  3 0.000000 # s : 0.0 
DECAY  4 0.000000 # c : 0.0 
DECAY  5 0.000000 # b : 0.0 
DECAY  11 0.000000 # e- : 0.0 
DECAY  12 0.000000 # ve : 0.0 
DECAY  13 0.000000 # mu- : 0.0 
DECAY  14 0.000000 # vm : 0.0 
DECAY  15 0.000000 # ta- : 0.0 
DECAY  16 0.000000 # vt : 0.0 
DECAY  21 0.000000 # g : 0.0 
DECAY  22 0.000000 # a : 0.0 
DECAY  10030 0.308725 # zph : (gz__exp__2*MZph*(5 + cmath.sqrt(1 - (4*MT__exp__2)/MZph__exp__2)))/(144.*cmath.pi) 
DECAY  10031 0.132629 # zpl : (5*gz__exp__2*MZpl)/(144.*cmath.pi) 
#===========================================================
# QUANTUM NUMBERS OF NEW STATE(S) (NON SM PDG CODE)
#===========================================================

Block QNUMBERS 10030  # zph 
        1 0  # 3 times electric charge
        2 3  # number of spin states (2S+1)
        3 1  # colour rep (1: singlet, 3: triplet, 8: octet)
        4 0  # Particle/Antiparticle distinction (0=own anti)
Block QNUMBERS 10031  # zpl 
        1 0  # 3 times electric charge
        2 3  # number of spin states (2S+1)
        3 1  # colour rep (1: singlet, 3: triplet, 8: octet)
        4 0  # Particle/Antiparticle distinction (0=own anti)
</slha>
## END BANNER##
<MGGenerationInfo>
#  Number of Events        :         3963
#  Integrated weight (pb)  :  0.73576E-03
#  Max wgt                 :  0.28200E-06
#  Average wgt             :  0.18566E-06
</MGGenerationInfo>
</header>
<init>
     2212     2212  0.40000000000E+04  0.40000000000E+04 0 0  247000  247000 2   1
  0.73635398820E-03  0.17170851060E-05  0.28200280000E-06   0
</init>
<event>
 5   0  0.2586775E-06  0.2600718E+04  0.7818609E-02  0.8367957E-01
        2   -1    0    0  501    0  0.00000000000E+00  0.00000000000E+00  0.14465120082E+04  0.14465120082E+04  0.25500000920E-02 0.  1.
       -2   -1    0    0    0  501  0.00000000000E+00  0.00000000000E+00 -0.11689730566E+04  0.11689730566E+04  0.25500000920E-02 0. -1.
    10030    2    1    2    0    0  0.00000000000E+00  0.00000000000E+00  0.27753895160E+03  0.26154850649E+04  0.26007180268E+04 0.  0.
        1    1    3    3  502    0 -0.12095161869E+04 -0.46671225193E+03  0.37281504681E+02  0.12969732623E+04  0.50400001928E-02 0.  1.
       -1    1    3    3    0  502  0.12095161869E+04  0.46671225193E+03  0.24025744692E+03  0.13185118025E+04  0.50400001928E-02 0. -1.
</event>
<event>
 5   0  0.2586775E-06  0.2602058E+04  0.7818609E-02  0.8367502E-01
        2   -1    0    0  501    0  0.00000000000E+00  0.00000000000E+00  0.14557731167E+04  0.14557731167E+04  0.25500000920E-02 0. -1.
       -2   -1    0    0    0  501  0.00000000000E+00  0.00000000000E+00 -0.11627338974E+04  0.11627338974E+04  0.25500000920E-02 0.  1.
    10030    2    1    2    0    0  0.00000000000E+00  0.00000000000E+00  0.29303921935E+03  0.26185070141E+04  0.26020582236E+04 0.  0.
        1    1    3    3  502    0  0.77748032019E+02 -0.36095488981E+03 -0.11089016188E+04  0.11687583108E+04  0.50400001928E-02 0.  1.
       -1    1    3    3    0  502 -0.77748032019E+02  0.36095488981E+03  0.14019408382E+04  0.14497487033E+04  0.50400001928E-02 0. -1.
</event>
<event>
 5   0  0.2820028E-06  0.2602699E+04  0.7818609E-02  0.8367285E-01
       -2   -1    0    0    0  501  0.00000000000E+00  0.00000000000E+00  0.18304441047E+04  0.18304441047E+04  0.25500000920E-02 0. -1.
        2   -1    0    0  501    0  0.00000000000E+00  0.00000000000E+00 -0.92519110589E+03  0.92519110589E+03  0.25500000920E-02 0.  1.
    10030    2    1    2    0    0  0.00000000000E+00  0.00000000000E+00  0.90525299885E+03  0.27556352106E+04  0.26026990649E+04 0.  0.
        3    1    3    3  502    0  0.56472067885E+03 -0.24201751144E+03  0.16672185808E+04  0.17768229308E+04  0.10100000352E+00 0. -1.
       -3    1    3    3    0  502 -0.56472067885E+03  0.24201751144E+03 -0.76196558194E+03  0.97881227987E+03  0.10100000352E+00 0.  1.
</event>
<event>
 5   0  0.2586775E-06  0.2596043E+04  0.7818609E-02  0.8369546E-01
        2   -1    0    0  501    0  0.00000000000E+00  0.00000000000E+00  0.15511062198E+04  0.15511062198E+04  0.25500000920E-02 0.  1.
       -2   -1    0    0    0  501  0.00000000000E+00  0.00000000000E+00 -0.10862313014E+04  0.10862313014E+04  0.25500000920E-02 0. -1.
    10030    2    1    2    0    0  0.00000000000E+00  0.00000000000E+00  0.46487491846E+03  0.26373375212E+04  0.25960432414E+04 0.  0.
        1    1    3    3  502    0 -0.27314879932E+03 -0.19378374644E+03 -0.10415830523E+04  0.10941013032E+04  0.50400001928E-02 0. -1.
       -1    1    3    3    0  502  0.27314879932E+03  0.19378374644E+03  0.15064579707E+04  0.15432362180E+04  0.50400001928E-02 0.  1.
</event>
<event>
 5   0  0.2820028E-06  0.2606217E+04  0.7818609E-02  0.8366093E-01
        2   -1    0    0  501    0  0.00000000000E+00  0.00000000000E+00  0.19063013803E+04  0.19063013803E+04  0.25500000920E-02 0. -1.
       -2   -1    0    0    0  501  0.00000000000E+00  0.00000000000E+00 -0.89077796955E+03  0.89077796956E+03  0.25500000920E-02 0.  1.
    10030    2    1    2    0    0  0.00000000000E+00  0.00000000000E+00  0.10155234107E+04  0.27970793498E+04  0.26062166241E+04 0.  0.
        3    1    3    3  502    0  0.17568673407E+03  0.76630761325E+03 -0.60757441521E+03  0.99359944992E+03  0.10100000352E+00 0.  1.
       -3    1    3    3    0  502 -0.17568673407E+03 -0.76630761325E+03  0.16230978259E+04  0.18034798999E+04  0.10100000352E+00 0. -1.
</event>
<event>
 5   0  0.1032076E-06  0.2599574E+04  0.7818609E-02  0.8368346E-01
       -1   -1    0    0    0  501  0.00000000000E+00  0.00000000000E+00  0.22072648116E+04  0.22072648116E+04  0.50400001928E-02 0. -1.
        1   -1    0    0  501    0  0.00000000000E+00  0.00000000000E+00 -0.76540232171E+03  0.76540232172E+03  0.50400001928E-02 0.  1.
    10030    2    1    2    0    0  0.00000000000E+00  0.00000000000E+00  0.14418624898E+04  0.29726671333E+04  0.25995735123E+04 0.  0.
        1    1    3    3  502    0  0.78331077396E+03 -0.20841703629E+03  0.18828478144E+04  0.20499095887E+04  0.50400001928E-02 0. -1.
       -1    1    3    3    0  502 -0.78331077396E+03  0.20841703629E+03 -0.44098532454E+03  0.92275754459E+03  0.50400001928E-02 0.  1.
</event>
<event>
 5   0  0.1055179E-06  0.2601506E+04  0.7818609E-02  0.8367690E-01
       -1   -1    0    0    0  501  0.00000000000E+00  0.00000000000E+00  0.17999028012E+04  0.17999028012E+04  0.50400001928E-02 0. -1.
        1   -1    0    0  501    0  0.00000000000E+00  0.00000000000E+00 -0.94002758769E+03  0.94002758770E+03  0.50400001928E-02 0.  1.
    10030    2    1    2    0    0  0.00000000000E+00  0.00000000000E+00  0.85987521354E+03  0.27399303889E+04  0.26015059395E+04 0.  0.
        3    1    3    3  502    0  0.11352190376E+04 -0.21453345397E+03 -0.19953577488E+03  0.11724169061E+04  0.10100000352E+00 0.  1.
       -3    1    3    3    0  502 -0.11352190376E+04  0.21453345397E+03  0.10594109884E+04  0.15675134828E+04  0.10100000352E+00 0. -1.
</event>
<event>
 5   0  0.2586775E-06  0.2597018E+04  0.7818609E-02  0.8369215E-01
       -2   -1    0    0    0  501  0.00000000000E+00  0.00000000000E+00  0.11570217876E+04  0.11570217876E+04  0.25500000920E-02 0. -1.
        2   -1    0    0  501    0  0.00000000000E+00  0.00000000000E+00 -0.14572980737E+04  0.14572980737E+04  0.25500000920E-02 0.  1.
    10030    2    1    2    0    0  0.00000000000E+00  0.00000000000E+00 -0.30027628609E+03  0.26143198613E+04  0.25970179994E+04 0.  0.
        1    1    3    3  502    0  0.44454695113E+03 -0.12131421504E+04 -0.19699605613E+02  0.12921779844E+04  0.50400001928E-02 0. -1.
       -1    1    3    3    0  502 -0.44454695113E+03  0.12131421504E+04 -0.28057668048E+03  0.13221418769E+04  0.50400001928E-02 0.  1.
</event>
<event>
 5   0  0.1122628E-06  0.2596877E+04  0.7818609E-02  0.8369263E-01
       -1   -1    0    0    0  501  0.00000000000E+00  0.00000000000E+00  0.11732857415E+04  0.11732857415E+04  0.50400001928E-02 0.  1.
        1   -1    0    0  501    0  0.00000000000E+00  0.00000000000E+00 -0.14369416137E+04  0.14369416138E+04  0.50400001928E-02 0. -1.
    10030    2    1    2    0    0  0.00000000000E+00  0.00000000000E+00 -0.26365587224E+03  0.26102273553E+04  0.25968774379E+04 0.  0.
        2    1    3    3  502    0  0.59709260621E+03  0.36863893613E+03  0.96627574212E+03  0.11941955683E+04  0.25500000920E-02 0.  1.
       -2    1    3    3    0  502 -0.59709260621E+03 -0.36863893613E+03 -0.12299316144E+04  0.14160317869E+04  0.25500000920E-02 0. -1.
</event>
<event>
 5   0  0.2586775E-06  0.2600218E+04  0.7818609E-02  0.8368127E-01
        2   -1    0    0  501    0  0.00000000000E+00  0.00000000000E+00  0.17687325952E+04  0.17687325952E+04  0.25500000920E-02 0. -1.
       -2   -1    0    0    0  501  0.00000000000E+00  0.00000000000E+00 -0.95564691738E+03  0.95564691738E+03  0.25500000920E-02 0.  1.
    10030    2    1    2    0    0  0.00000000000E+00  0.00000000000E+00  0.81308567784E+03  0.27243795126E+04  0.26002183387E+04 0.  0.
        1    1    3    3  502    0 -0.21714215188E+03  0.94744677547E+03  0.13111814717E+04  0.16321773672E+04  0.50400001928E-02 0. -1.
       -1    1    3    3    0  502  0.21714215188E+03 -0.94744677547E+03 -0.49809579383E+03  0.10922021454E+04  0.50400001928E-02 0.  1.
</event>
<event>
 5   0  0.9197000E-07  0.2593811E+04  0.7818609E-02  0.8370307E-01
        4   -1    0    0  501    0  0.00000000000E+00  0.00000000000E+00  0.17115268846E+04  0.17115273558E+04  0.12699999809E+01 0. -1.
       -4   -1    0    0    0  501  0.00000000000E+00  0.00000000000E+00 -0.98272584652E+03  0.98272666715E+03  0.12699999809E+01 0.  1.
    10030    2    1    2    0    0  0.00000000000E+00  0.00000000000E+00  0.72880103812E+03  0.26942540230E+04  0.25938106691E+04 0.  0.
        4    1    3    3  502    0 -0.12742399840E+04  0.11795887481E+03  0.58317468696E+03  0.14063058563E+04  0.12699999809E+01 0.  1.
       -4    1    3    3    0  502  0.12742399840E+04 -0.11795887481E+03  0.14562635116E+03  0.12879481667E+04  0.12699999809E+01 0. -1.
</event>
<event>
 5   0  0.2623368E-06  0.2598512E+04  0.7818609E-02  0.8368707E-01
       -2   -1    0    0    0  501  0.00000000000E+00  0.00000000000E+00  0.27295189412E+04  0.27295189412E+04  0.25500000920E-02 0.  1.
        2   -1    0    0  501    0  0.00000000000E+00  0.00000000000E+00 -0.61844835940E+03  0.61844835941E+03  0.25500000920E-02 0. -1.
    10030    2    1    2    0    0  0.00000000000E+00  0.00000000000E+00  0.21110705818E+04  0.33479673006E+04  0.25985122752E+04 0.  0.
        5    1    3    3  502    0 -0.11985946666E+04 -0.56957868884E+02  0.16973829945E+04  0.20787025987E+04  0.46999998093E+01 0.  1.
       -5    1    3    3    0  502  0.11985946666E+04  0.56957868884E+02  0.41368758725E+03  0.12692647019E+04  0.46999998093E+01 0. -1.
</event>
<event>
 5   0  0.1088757E-06  0.2600871E+04  0.7818609E-02  0.8367905E-01
       -1   -1    0    0    0  501  0.00000000000E+00  0.00000000000E+00  0.10738117111E+04  0.10738117111E+04  0.50400001928E-02 0.  1.
        1   -1    0    0  501    0  0.00000000000E+00  0.00000000000E+00 -0.15748873811E+04  0.15748873811E+04  0.50400001928E-02 0. -1.
    10030    2    1    2    0    0  0.00000000000E+00  0.00000000000E+00 -0.50107566994E+03  0.26486990922E+04  0.26008710183E+04 0.  0.
        5    1    3    3  502    0 -0.10016998192E+04  0.53721957199E+03  0.39282551675E+03  0.12026393362E+04  0.46999998093E+01 0.  1.
       -5    1    3    3    0  502  0.10016998192E+04 -0.53721957199E+03 -0.89390118669E+03  0.14460597560E+04  0.46999998093E+01 0. -1.
</event>
<event>
 5   0  0.1032076E-06  0.2521895E+04  0.7818609E-02  0.8395227E-01
        1   -1    0    0  501    0  0.00000000000E+00  0.00000000000E+00  0.13068946129E+04  0.13068946129E+04  0.50400001928E-02 0.  1.
       -1   -1    0    0    0  501  0.00000000000E+00  0.00000000000E+00 -0.12166158134E+04  0.12166158134E+04  0.50400001928E-02 0. -1.
    10030    2    1    2    0    0  0.00000000000E+00  0.00000000000E+00  0.90278799507E+02  0.25235104264E+04  0.25218950435E+04 0.  0.
        1    1    3    3  502    0  0.43820965407E+03  0.56066438033E+03 -0.99649635965E+03  0.12244906056E+04  0.50400001928E-02 0. -1.
       -1    1    3    3    0  502 -0.43820965407E+03 -0.56066438033E+03  0.10867751592E+04  0.12990198208E+04  0.50400001928E-02 0.  1.
</event>
<event>
 5   0  0.1055179E-06  0.2598402E+04  0.7818609E-02  0.8368744E-01
        1   -1    0    0  501    0  0.00000000000E+00  0.00000000000E+00  0.20038823286E+04  0.20038823286E+04  0.50400001928E-02 0.  1.
       -1   -1    0    0    0  501  0.00000000000E+00  0.00000000000E+00 -0.84232672120E+03  0.84232672121E+03  0.50400001928E-02 0. -1.
    10030    2    1    2    0    0  0.00000000000E+00  0.00000000000E+00  0.11615556074E+04  0.28462090498E+04  0.25984023026E+04 0.  0.
        3    1    3    3  502    0  0.22723343754E+03  0.82846270753E+03 -0.48682096103E+03  0.98741083203E+03  0.10100000352E+00 0. -1.
       -3    1    3    3    0  502 -0.22723343754E+03 -0.82846270753E+03  0.16483765684E+04  0.18587982178E+04  0.10100000352E+00 0.  1.
</event>
<event>
 5   0  0.1055179E-06  0.2596902E+04  0.7818609E-02  0.8369254E-01
       -1   -1    0    0    0  501  0.00000000000E+00  0.00000000000E+00  0.11262297361E+04  0.11262297361E+04  0.50400001928E-02 0. -1.
        1   -1    0    0  501    0  0.00000000000E+00  0.00000000000E+00 -0.14970083958E+04  0.14970083958E+04  0.50400001928E-02 0.  1.
    10030    2    1    2    0    0  0.00000000000E+00  0.00000000000E+00 -0.37077865970E+03  0.26232381318E+04  0.25969022858E+04 0.  0.
        3    1    3    3  502    0  0.50244452548E+03 -0.10788503337E+04  0.33911314561E+03  0.12374838502E+04  0.10100000352E+00 0. -1.
       -3    1    3    3    0  502 -0.50244452548E+03  0.10788503337E+04 -0.70989180530E+03  0.13857542817E+04  0.10100000352E+00 0.  1.
</event>
<event>
 5   0  0.2586775E-06  0.2593711E+04  0.7818609E-02  0.8370341E-01
        2   -1    0    0  501    0  0.00000000000E+00  0.00000000000E+00  0.15588509857E+04  0.15588509858E+04  0.25500000920E-02 0.  1.
       -2   -1    0    0    0  501  0.00000000000E+00  0.00000000000E+00 -0.10788930861E+04  0.10788930861E+04  0.25500000920E-02 0. -1.
    10030    2    1    2    0    0  0.00000000000E+00  0.00000000000E+00  0.47995789966E+03  0.26377440718E+04  0.25937105087E+04 0.  0.
        1    1    3    3  502    0 -0.10145111748E+04 -0.47397934416E+03  0.90525935263E+03  0.14399249418E+04  0.50400001928E-02 0.  1.
       -1    1    3    3    0  502  0.10145111748E+04  0.47397934416E+03 -0.42530145296E+03  0.11978191301E+04  0.50400001928E-02 0. -1.
</event>
<event>
 5   0  0.1100104E-06  0.2600682E+04  0.7818609E-02  0.8367970E-01
       -1   -1    0    0    0  501  0.00000000000E+00  0.00000000000E+00  0.17675706248E+04  0.17675706248E+04  0.50400001928E-02 0.  1.
        1   -1    0    0  501    0  0.00000000000E+00  0.00000000000E+00 -0.95661593240E+03  0.95661593241E+03  0.50400001928E-02 0. -1.
    10030    2    1    2    0    0  0.00000000000E+00  0.00000000000E+00  0.81095469242E+03  0.27241865572E+04  0.26006816194E+04 0.  0.
        4    1    3    3  502    0  0.11634529535E+04  0.51806656624E+03  0.68036872832E+03  0.14439248462E+04  0.12699999809E+01 0. -1.
       -4    1    3    3    0  502 -0.11634529535E+04 -0.51806656624E+03  0.13058596410E+03  0.12802617111E+04  0.12699999809E+01 0.  1.
</event>
<event>
 5   0  0.1032076E-06  0.2594408E+04  0.7818609E-02  0.8370103E-01
       -1   -1    0    0    0  501  0.00000000000E+00  0.00000000000E+00  0.94974563153E+03  0.94974563155E+03  0.50400001928E-02 0.  1.
        1   -1    0    0  501    0  0.00000000000E+00  0.00000000000E+00 -0.17717774898E+04  0.17717774898E+04  0.50400001928E-02 0. -1.
    10030    2    1    2    0    0  0.00000000000E+00  0.00000000000E+00 -0.82203185830E+03  0.27215231214E+04  0.25944077791E+04 0.  0.
        1    1    3    3  502    0  0.37912878924E+03 -0.21249368235E+03  0.87109813757E+03  0.97350098571E+03  0.50400001928E-02 0.  1.
       -1    1    3    3    0  502 -0.37912878924E+03  0.21249368235E+03 -0.16931299959E+04  0.17480221357E+04  0.50400001928E-02 0. -1.
</event>
<event>
 5   0  0.2746631E-06  0.2596358E+04  0.7818609E-02  0.8369439E-01
       -2   -1    0    0    0  501  0.00000000000E+00  0.00000000000E+00  0.94635526891E+03  0.94635526891E+03  0.25500000920E-02 0. -1.
        2   -1    0    0  501    0  0.00000000000E+00  0.00000000000E+00 -0.17807993665E+04  0.17807993665E+04  0.25500000920E-02 0.  1.
    10030    2    1    2    0    0  0.00000000000E+00  0.00000000000E+00 -0.83444409763E+03  0.27271546355E+04  0.25963581135E+04 0.  0.
        2    1    3    3  502    0 -0.30842121407E+02 -0.10459698729E+04 -0.12242128012E+04  0.16104971885E+04  0.25500000920E-02 0.  1.
       -2    1    3    3    0  502  0.30842121407E+02  0.10459698729E+04  0.38976870361E+03  0.11166574469E+04  0.25500000920E-02 0. -1.
</event>
<event>
 5   0  0.1055179E-06  0.2602631E+04  0.7818609E-02  0.8367308E-01
       -1   -1    0    0    0  501  0.00000000000E+00  0.00000000000E+00  0.12914732093E+04  0.12914732093E+04  0.50400001928E-02 0. -1.
        1   -1    0    0  501    0  0.00000000000E+00  0.00000000000E+00 -0.13112324856E+04  0.13112324856E+04  0.50400001928E-02 0.  1.
    10030    2    1    2    0    0  0.00000000000E+00  0.00000000000E+00 -0.19759276340E+02  0.26027056950E+04  0.26026306894E+04 0.  0.
        3    1    3    3  502    0  0.68579371696E+02  0.30489332144E+03  0.12533901377E+04  0.12917623292E+04  0.10100000352E+00 0. -1.
       -3    1    3    3    0  502 -0.68579371696E+02 -0.30489332144E+03 -0.12731494140E+04  0.13109433658E+04  0.10100000352E+00 0.  1.
</event>
<event>
 5   0  0.2820028E-06  0.2598465E+04  0.7818609E-02  0.8368723E-01
        2   -1    0    0  501    0  0.00000000000E+00  0.00000000000E+00  0.11382262941E+04  0.11382262941E+04  0.25500000920E-02 0.  1.
       -2   -1    0    0    0  501  0.00000000000E+00  0.00000000000E+00 -0.14830141227E+04  0.14830141227E+04  0.25500000920E-02 0. -1.
    10030    2    1    2    0    0  0.00000000000E+00  0.00000000000E+00 -0.34478782863E+03  0.26212404168E+04  0.25984654463E+04 0.  0.
        3    1    3    3  502    0 -0.10221143696E+04  0.20006524732E+03 -0.95590079003E+03  0.14136796732E+04  0.10100000352E+00 0. -1.
       -3    1    3    3    0  502  0.10221143696E+04 -0.20006524732E+03  0.61111296140E+03  0.12075607436E+04  0.10100000352E+00 0.  1.
</event>
<event>
 5   0  0.1032076E-06  0.2594877E+04  0.7818609E-02  0.8369943E-01
       -1   -1    0    0    0  501  0.00000000000E+00  0.00000000000E+00  0.85017169058E+03  0.85017169059E+03  0.50400001928E-02 0.  1.
        1   -1    0    0  501    0  0.00000000000E+00  0.00000000000E+00 -0.19800078042E+04  0.19800078042E+04  0.50400001928E-02 0. -1.
    10030    2    1    2    0    0  0.00000000000E+00  0.00000000000E+00 -0.11298361137E+04  0.28301794948E+04  0.25948769391E+04 0.  0.
        1    1    3    3  502    0  0.88084649036E+03  0.95099172689E+03 -0.62535763598E+03  0.14392178352E+04  0.50400001928E-02 0. -1.
       -1    1    3    3    0  502 -0.88084649036E+03 -0.95099172689E+03 -0.50447847768E+03  0.13909616597E+04  0.50400001928E-02 0.  1.
</event>
<event>
 5   0  0.2746631E-06  0.2594318E+04  0.7818609E-02  0.8370134E-01
        2   -1    0    0  501    0  0.00000000000E+00  0.00000000000E+00  0.68017534572E+03  0.68017534573E+03  0.25500000920E-02 0.  1.
       -2   -1    0    0    0  501  0.00000000000E+00  0.00000000000E+00 -0.24738060564E+04  0.24738060564E+04  0.25500000920E-02 0. -1.
    10030    2    1    2    0    0  0.00000000000E+00  0.00000000000E+00 -0.17936307107E+04  0.31539814022E+04  0.25943183226E+04 0.  0.
        2    1    3    3  502    0 -0.18004438520E+03  0.26130165506E+03  0.63226086059E+03  0.70742372834E+03  0.25500000920E-02 0.  1.
       -2    1    3    3    0  502  0.18004438520E+03 -0.26130165506E+03 -0.24258915713E+04  0.24465576738E+04  0.25500000920E-02 0. -1.
</event>
<event>
 5   0  0.1122628E-06  0.2598343E+04  0.7818609E-02  0.8368764E-01
       -1   -1    0    0    0  501  0.00000000000E+00  0.00000000000E+00  0.11904727826E+04  0.11904727826E+04  0.50400001928E-02 0.  1.
        1   -1    0    0  501    0  0.00000000000E+00  0.00000000000E+00 -0.14177954288E+04  0.14177954288E+04  0.50400001928E-02 0. -1.
    10030    2    1    2    0    0  0.00000000000E+00  0.00000000000E+00 -0.22732264624E+03  0.26082682115E+04  0.25983432178E+04 0.  0.
        2    1    3    3  502    0  0.21561746930E+03  0.12552146680E+03 -0.13935217822E+04  0.14156798682E+04  0.25500000920E-02 0. -1.
       -2    1    3    3    0  502 -0.21561746930E+03 -0.12552146680E+03  0.11661991360E+04  0.11925883433E+04  0.25500000920E-02 0.  1.
</event>
<event>
 5   0  0.2820028E-06  0.2610924E+04  0.7818609E-02  0.8364500E-01
       -2   -1    0    0    0  501  0.00000000000E+00  0.00000000000E+00  0.89754314316E+03  0.89754314316E+03  0.25500000920E-02 0.  1.
        2   -1    0    0  501    0  0.00000000000E+00  0.00000000000E+00 -0.18987736121E+04  0.18987736122E+04  0.25500000920E-02 0. -1.
    10030    2    1    2    0    0  0.00000000000E+00  0.00000000000E+00 -0.10012304690E+04  0.27963167553E+04  0.26109241552E+04 0.  0.
        3    1    3    3  502    0 -0.11362881984E+04 -0.39477919935E+03  0.42575931036E+02  0.12036669831E+04  0.10100000352E+00 0. -1.
       -3    1    3    3    0  502  0.11362881984E+04  0.39477919935E+03 -0.10438064000E+04  0.15926497722E+04  0.10100000352E+00 0.  1.
</event>
<event>
 5   0  0.2623368E-06  0.2597611E+04  0.7818609E-02  0.8369013E-01
       -2   -1    0    0    0  501  0.00000000000E+00  0.00000000000E+00  0.75703290366E+03  0.75703290366E+03  0.25500000920E-02 0. -1.
        2   -1    0    0  501    0  0.00000000000E+00  0.00000000000E+00 -0.22282998289E+04  0.22282998289E+04  0.25500000920E-02 0.  1.
    10030    2    1    2    0    0  0.00000000000E+00  0.00000000000E+00 -0.14712669253E+04  0.29853327326E+04  0.25976114334E+04 0.  0.
        5    1    3    3  502    0  0.11044489863E+04  0.10218490946E+03 -0.15122351709E+04  0.18754003895E+04  0.46999998093E+01 0.  1.
       -5    1    3    3    0  502 -0.11044489863E+04 -0.10218490946E+03  0.40968245644E+02  0.11099323430E+04  0.46999998093E+01 0. -1.
</event>
<event>
 5   0  0.1122628E-06  0.2598436E+04  0.7818609E-02  0.8368733E-01
        1   -1    0    0  501    0  0.00000000000E+00  0.00000000000E+00  0.13614026935E+04  0.13614026935E+04  0.50400001928E-02 0. -1.
       -1   -1    0    0    0  501  0.00000000000E+00  0.00000000000E+00 -0.12398737184E+04  0.12398737184E+04  0.50400001928E-02 0.  1.
    10030    2    1    2    0    0  0.00000000000E+00  0.00000000000E+00  0.12152897503E+03  0.26012764119E+04  0.25984360064E+04 0.  0.
        2    1    3    3  502    0  0.90782856918E+03 -0.78987034047E+03 -0.42958677744E+03  0.12777294961E+04  0.25500000920E-02 0.  1.
       -2    1    3    3    0  502 -0.90782856918E+03  0.78987034047E+03  0.55111575246E+03  0.13235469158E+04  0.25500000920E-02 0. -1.
</event>
<event>
 5   0  0.2820028E-06  0.2603128E+04  0.7818609E-02  0.8367139E-01
       -2   -1    0    0    0  501  0.00000000000E+00  0.00000000000E+00  0.88182883949E+03  0.88182883950E+03  0.25500000920E-02 0. -1.
        2   -1    0    0  501    0  0.00000000000E+00  0.00000000000E+00 -0.19210860086E+04  0.19210860086E+04  0.25500000920E-02 0.  1.
    10030    2    1    2    0    0  0.00000000000E+00  0.00000000000E+00 -0.10392571691E+04  0.28029148481E+04  0.26031281533E+04 0.  0.
        3    1    3    3  502    0  0.78935860732E+03 -0.76095018677E+03  0.23558366836E+03  0.11214418722E+04  0.10100000352E+00 0. -1.
       -3    1    3    3    0  502 -0.78935860732E+03  0.76095018677E+03 -0.12748408375E+04  0.16814729759E+04  0.10100000352E+00 0.  1.
</event>
<event>
 5   0  0.2586775E-06  0.2602574E+04  0.7818609E-02  0.8367328E-01
        2   -1    0    0  501    0  0.00000000000E+00  0.00000000000E+00  0.18416037119E+04  0.18416037119E+04  0.25500000920E-02 0. -1.
       -2   -1    0    0    0  501  0.00000000000E+00  0.00000000000E+00 -0.91949601294E+03  0.91949601294E+03  0.25500000920E-02 0.  1.
    10030    2    1    2    0    0  0.00000000000E+00  0.00000000000E+00  0.92210769893E+03  0.27610997248E+04  0.26025735498E+04 0.  0.
        1    1    3    3  502    0 -0.51463264303E+03  0.60103063906E+03 -0.63495672291E+03  0.10145218708E+04  0.50400001928E-02 0.  1.
       -1    1    3    3    0  502  0.51463264303E+03 -0.60103063906E+03  0.15570644218E+04  0.17465778540E+04  0.50400001928E-02 0. -1.
</event>
<event>
 5   0  0.1088757E-06  0.2603831E+04  0.7818609E-02  0.8366901E-01
       -1   -1    0    0    0  501  0.00000000000E+00  0.00000000000E+00  0.52543707132E+03  0.52543707134E+03  0.50400001928E-02 0.  1.
        1   -1    0    0  501    0  0.00000000000E+00  0.00000000000E+00 -0.32258545153E+04  0.32258545153E+04  0.50400001928E-02 0. -1.
    10030    2    1    2    0    0  0.00000000000E+00  0.00000000000E+00 -0.27004174440E+04  0.37512915866E+04  0.26038306773E+04 0.  0.
        5    1    3    3  502    0 -0.11761400149E+04  0.30103176857E+03 -0.67287984930E+03  0.13880615411E+04  0.46999998093E+01 0.  1.
       -5    1    3    3    0  502  0.11761400149E+04 -0.30103176857E+03 -0.20275375947E+04  0.23632300455E+04  0.46999998093E+01 0. -1.
</event>
<event>
 5   0  0.2820028E-06  0.2612994E+04  0.7818609E-02  0.8363801E-01
       -2   -1    0    0    0  501  0.00000000000E+00  0.00000000000E+00  0.88295930815E+03  0.88295930816E+03  0.25500000920E-02 0. -1.
        2   -1    0    0  501    0  0.00000000000E+00  0.00000000000E+00 -0.19331978799E+04  0.19331978799E+04  0.25500000920E-02 0.  1.
    10030    2    1    2    0    0  0.00000000000E+00  0.00000000000E+00 -0.10502385717E+04  0.28161571880E+04  0.26129944987E+04 0.  0.
        3    1    3    3  502    0 -0.40012805777E+03  0.79916824262E+02 -0.18627665961E+04  0.19069317143E+04  0.10100000352E+00 0.  1.
       -3    1    3    3    0  502  0.40012805777E+03 -0.79916824262E+02  0.81252802438E+03  0.90922547369E+03  0.10100000352E+00 0. -1.
</event>
<event>
 5   0  0.1100104E-06  0.2594604E+04  0.7818609E-02  0.8370036E-01
        1   -1    0    0  501    0  0.00000000000E+00  0.00000000000E+00  0.15744858156E+04  0.15744858156E+04  0.50400001928E-02 0.  1.
       -1   -1    0    0    0  501  0.00000000000E+00  0.00000000000E+00 -0.10689157175E+04  0.10689157175E+04  0.50400001928E-02 0. -1.
    10030    2    1    2    0    0  0.00000000000E+00  0.00000000000E+00  0.50557009806E+03  0.26434015331E+04  0.25946041203E+04 0.  0.
        4    1    3    3  502    0  0.57074657908E+03  0.89504147254E+02  0.14361937736E+04  0.15480364395E+04  0.12699999809E+01 0.  1.
       -4    1    3    3    0  502 -0.57074657908E+03 -0.89504147254E+02 -0.93062367552E+03  0.10953650936E+04  0.12699999809E+01 0. -1.
</event>
<event>
 5   0  0.1032076E-06  0.2629341E+04  0.7818609E-02  0.8358302E-01
       -1   -1    0    0    0  501  0.00000000000E+00  0.00000000000E+00  0.10643010421E+04  0.10643010421E+04  0.50400001928E-02 0.  1.
        1   -1    0    0  501    0  0.00000000000E+00  0.00000000000E+00 -0.16239381887E+04  0.16239381887E+04  0.50400001928E-02 0. -1.
    10030    2    1    2    0    0  0.00000000000E+00  0.00000000000E+00 -0.55963714659E+03  0.26882392307E+04  0.26293414434E+04 0.  0.
        1    1    3    3  502    0  0.27755397559E+03  0.33000379007E+03 -0.15495805198E+04  0.16084584229E+04  0.50400001928E-02 0. -1.
       -1    1    3    3    0  502 -0.27755397559E+03 -0.33000379007E+03  0.98994337320E+03  0.10797808079E+04  0.50400001928E-02 0.  1.
</event>
<event>
 5   0  0.1055179E-06  0.2600311E+04  0.7818609E-02  0.8368096E-01
       -1   -1    0    0    0  501  0.00000000000E+00  0.00000000000E+00  0.98200999216E+03  0.98200999218E+03  0.50400001928E-02 0.  1.
        1   -1    0    0  501    0  0.00000000000E+00  0.00000000000E+00 -0.17213719503E+04  0.17213719503E+04  0.50400001928E-02 0. -1.
    10030    2    1    2    0    0  0.00000000000E+00  0.00000000000E+00 -0.73936195814E+03  0.27033819425E+04  0.26003111010E+04 0.  0.
        3    1    3    3  502    0  0.32363064043E+03 -0.10497358375E+04 -0.10927506817E+04  0.15494470570E+04  0.10100000352E+00 0. -1.
       -3    1    3    3    0  502 -0.32363064043E+03  0.10497358375E+04  0.35338872353E+03  0.11539348855E+04  0.10100000352E+00 0.  1.
</event>
<event>
 5   0  0.2705807E-06  0.2616140E+04  0.7818609E-02  0.8362739E-01
        2   -1    0    0  501    0  0.00000000000E+00  0.00000000000E+00  0.13244927788E+04  0.13244927788E+04  0.25500000920E-02 0.  1.
       -2   -1    0    0    0  501  0.00000000000E+00  0.00000000000E+00 -0.12918506273E+04  0.12918506273E+04  0.25500000920E-02 0. -1.
    10030    2    1    2    0    0  0.00000000000E+00  0.00000000000E+00  0.32642151497E+02  0.26163434060E+04  0.26161397723E+04 0.  0.
        4    1    3    3  502    0 -0.88755737487E+03 -0.69329775687E+03  0.68167380110E+03  0.13164728092E+04  0.12699999809E+01 0.  1.
       -4    1    3    3    0  502  0.88755737487E+03  0.69329775687E+03 -0.64903164960E+03  0.12998705968E+04  0.12699999809E+01 0. -1.
</event>
<event>
 5   0  0.2705807E-06  0.2602908E+04  0.7818609E-02  0.8367214E-01
        2   -1    0    0  501    0  0.00000000000E+00  0.00000000000E+00  0.62414576200E+03  0.62414576201E+03  0.25500000920E-02 0. -1.
       -2   -1    0    0    0  501  0.00000000000E+00  0.00000000000E+00 -0.27137615186E+04  0.27137615186E+04  0.25500000920E-02 0.  1.
    10030    2    1    2    0    0  0.00000000000E+00  0.00000000000E+00 -0.20896157565E+04  0.33379072806E+04  0.26029081819E+04 0.  0.
        4    1    3    3  502    0  0.18297127071E+03  0.12763406629E+04 -0.12715280743E+04  0.18108863107E+04  0.12699999809E+01 0. -1.
       -4    1    3    3    0  502 -0.18297127071E+03 -0.12763406629E+04 -0.81808768222E+03  0.15270209698E+04  0.12699999809E+01 0.  1.
</event>
<event>
 5   0  0.1122628E-06  0.2611173E+04  0.7818609E-02  0.8364416E-01
        1   -1    0    0  501    0  0.00000000000E+00  0.00000000000E+00  0.12811225161E+04  0.12811225161E+04  0.50400001928E-02 0. -1.
       -1   -1    0    0    0  501  0.00000000000E+00  0.00000000000E+00 -0.13305179779E+04  0.13305179779E+04  0.50400001928E-02 0.  1.
    10030    2    1    2    0    0  0.00000000000E+00  0.00000000000E+00 -0.49395461766E+02  0.26116404940E+04  0.26111733298E+04 0.  0.
        2    1    3    3  502    0  0.12139610156E+04  0.26724174471E+03 -0.42406485120E+03  0.13133737075E+04  0.25500000920E-02 0.  1.
       -2    1    3    3    0  502 -0.12139610156E+04 -0.26724174471E+03  0.37466938943E+03  0.12982667865E+04  0.25500000920E-02 0. -1.
</event>
<event>
 5   0  0.1055179E-06  0.2602850E+04  0.7818609E-02  0.8367234E-01
        1   -1    0    0  501    0  0.00000000000E+00  0.00000000000E+00  0.16214146259E+04  0.16214146260E+04  0.50400001928E-02 0. -1.
       -1   -1    0    0    0  501  0.00000000000E+00  0.00000000000E+00 -0.10445863294E+04  0.10445863294E+04  0.50400001928E-02 0.  1.
    10030    2    1    2    0    0  0.00000000000E+00  0.00000000000E+00  0.57682829652E+03  0.26660009554E+04  0.26028504011E+04 0.  0.
        3    1    3    3  502    0 -0.11530247643E+04  0.48662187979E+03 -0.77235336034E+02  0.12538868642E+04  0.10100000352E+00 0.  1.
       -3    1    3    3    0  502  0.11530247643E+04 -0.48662187979E+03  0.65406363255E+03  0.14121140912E+04  0.10100000352E+00 0. -1.
</event>
<event>
 5   0  0.1088757E-06  0.2603022E+04  0.7818609E-02  0.8367175E-01
        1   -1    0    0  501    0  0.00000000000E+00  0.00000000000E+00  0.14790181810E+04  0.14790181810E+04  0.50400001928E-02 0.  1.
       -1   -1    0    0    0  501  0.00000000000E+00  0.00000000000E+00 -0.11453076740E+04  0.11453076740E+04  0.50400001928E-02 0. -1.
    10030    2    1    2    0    0  0.00000000000E+00  0.00000000000E+00  0.33371050698E+03  0.26243258550E+04  0.26030219920E+04 0.  0.
        5    1    3    3  502    0  0.10253028753E+04 -0.71398999153E+02  0.97186687252E+03  0.14145285827E+04  0.46999998093E+01 0.  1.
       -5    1    3    3    0  502 -0.10253028753E+04  0.71398999153E+02 -0.63815636554E+03  0.12097972723E+04  0.46999998093E+01 0. -1.
</event>
<event>
 5   0  0.2746631E-06  0.2599936E+04  0.7818609E-02  0.8368223E-01
       -2   -1    0    0    0  501  0.00000000000E+00  0.00000000000E+00  0.10901890617E+04  0.10901890617E+04  0.25500000920E-02 0.  1.
        2   -1    0    0  501    0  0.00000000000E+00  0.00000000000E+00 -0.15501132760E+04  0.15501132760E+04  0.25500000920E-02 0. -1.
    10030    2    1    2    0    0  0.00000000000E+00  0.00000000000E+00 -0.45992421431E+03  0.26403023378E+04  0.25999357977E+04 0.  0.
        2    1    3    3  502    0  0.11862590677E+04 -0.53160184849E+03 -0.24038977767E+03  0.13219676041E+04  0.25500000920E-02 0. -1.
       -2    1    3    3    0  502 -0.11862590677E+04  0.53160184849E+03 -0.21953443664E+03  0.13183347337E+04  0.25500000920E-02 0.  1.
</event>
<event>
 5   0  0.2820028E-06  0.2603986E+04  0.7818609E-02  0.8366848E-01
       -2   -1    0    0    0  501  0.00000000000E+00  0.00000000000E+00  0.69859970698E+03  0.69859970698E+03  0.25500000920E-02 0.  1.
        2   -1    0    0  501    0  0.00000000000E+00  0.00000000000E+00 -0.24265489909E+04  0.24265489909E+04  0.25500000920E-02 0. -1.
    10030    2    1    2    0    0  0.00000000000E+00  0.00000000000E+00 -0.17279492840E+04  0.31251486979E+04  0.26039864931E+04 0.  0.
        3    1    3    3  502    0 -0.66681936436E+03  0.81591490666E+02 -0.22024839805E+04  0.23026595342E+04  0.10100000352E+00 0. -1.
       -3    1    3    3    0  502  0.66681936436E+03 -0.81591490666E+02  0.47453469651E+03  0.82248916371E+03  0.10100000352E+00 0.  1.
</event>
<event>
 5   0  0.2586775E-06  0.2598096E+04  0.7818609E-02  0.8368848E-01
       -2   -1    0    0    0  501  0.00000000000E+00  0.00000000000E+00  0.15788715761E+04  0.15788715761E+04  0.25500000920E-02 0. -1.
        2   -1    0    0  501    0  0.00000000000E+00  0.00000000000E+00 -0.10688176295E+04  0.10688176295E+04  0.25500000920E-02 0.  1.
    10030    2    1    2    0    0  0.00000000000E+00  0.00000000000E+00  0.51005394657E+03  0.26476892055E+04  0.25980960530E+04 0.  0.
        1    1    3    3  502    0  0.10047089703E+04  0.12249465069E+03 -0.57481424436E+03  0.11639830196E+04  0.50400001928E-02 0.  1.
       -1    1    3    3    0  502 -0.10047089703E+04 -0.12249465069E+03  0.10848681909E+04  0.14837061859E+04  0.50400001928E-02 0. -1.
</event>
<event>
 5   0  0.2746631E-06  0.2605233E+04  0.7818609E-02  0.8366426E-01
       -2   -1    0    0    0  501  0.00000000000E+00  0.00000000000E+00  0.68470663931E+03  0.68470663932E+03  0.25500000920E-02 0. -1.
        2   -1    0    0  501    0  0.00000000000E+00  0.00000000000E+00 -0.24781554122E+04  0.24781554122E+04  0.25500000920E-02 0.  1.
    10030    2    1    2    0    0  0.00000000000E+00  0.00000000000E+00 -0.17934487729E+04  0.31628620515E+04  0.26052327835E+04 0.  0.
        2    1    3    3  502    0 -0.88269027549E+03 -0.95569190895E+03 -0.81692647802E+03  0.15361829376E+04  0.25500000920E-02 0.  1.
       -2    1    3    3    0  502  0.88269027549E+03  0.95569190895E+03 -0.97652229487E+03  0.16266791139E+04  0.25500000920E-02 0. -1.
</event>
<event>
 5   0  0.2820028E-06  0.2598653E+04  0.7818609E-02  0.8368659E-01
        2   -1    0    0  501    0  0.00000000000E+00  0.00000000000E+00  0.12719581217E+04  0.12719581217E+04  0.25500000920E-02 0. -1.
       -2   -1    0    0    0  501  0.00000000000E+00  0.00000000000E+00 -0.13272834479E+04  0.13272834479E+04  0.25500000920E-02 0.  1.
    10030    2    1    2    0    0  0.00000000000E+00  0.00000000000E+00 -0.55325326176E+02  0.25992415696E+04  0.25986526981E+04 0.  0.
        3    1    3    3  502    0  0.36559896692E+03  0.70709161423E+03  0.99951103772E+03  0.12777572071E+04  0.10100000352E+00 0. -1.
       -3    1    3    3    0  502 -0.36559896692E+03 -0.70709161423E+03 -0.10548363639E+04  0.13214843625E+04  0.10100000352E+00 0.  1.
</event>
<event>
 5   0  0.1055179E-06  0.2604109E+04  0.7818609E-02  0.8366807E-01
       -1   -1    0    0    0  501  0.00000000000E+00  0.00000000000E+00  0.94192296877E+03  0.94192296878E+03  0.50400001928E-02 0. -1.
        1   -1    0    0  501    0  0.00000000000E+00  0.00000000000E+00 -0.17998770071E+04  0.17998770071E+04  0.50400001928E-02 0.  1.
    10030    2    1    2    0    0  0.00000000000E+00  0.00000000000E+00 -0.85795403833E+03  0.27417999759E+04  0.26041086721E+04 0.  0.
        3    1    3    3  502    0  0.75327915191E+03 -0.17011500057E+02 -0.15470221197E+04  0.17207545789E+04  0.10100000352E+00 0.  1.
       -3    1    3    3    0  502 -0.75327915191E+03  0.17011500057E+02  0.68906808132E+03  0.10210453970E+04  0.10100000352E+00 0. -1.
</event>
<event>
 5   0  0.2623368E-06  0.2599340E+04  0.7818609E-02  0.8368425E-01
        2   -1    0    0  501    0  0.00000000000E+00  0.00000000000E+00  0.14656070915E+04  0.14656070915E+04  0.25500000920E-02 0.  1.
       -2   -1    0    0    0  501  0.00000000000E+00  0.00000000000E+00 -0.11525203420E+04  0.11525203420E+04  0.25500000920E-02 0. -1.
    10030    2    1    2    0    0  0.00000000000E+00  0.00000000000E+00  0.31308674952E+03  0.26181274335E+04  0.25993399057E+04 0.  0.
        5    1    3    3  502    0 -0.52440035931E+03 -0.93644496998E+02 -0.10375016635E+04  0.11662747620E+04  0.46999998093E+01 0. -1.
       -5    1    3    3    0  502  0.52440035931E+03  0.93644496998E+02  0.13505884130E+04  0.14518526716E+04  0.46999998093E+01 0.  1.
</event>
<event>
 5   0  0.1088757E-06  0.2604211E+04  0.7818609E-02  0.8366772E-01
        1   -1    0    0  501    0  0.00000000000E+00  0.00000000000E+00  0.20040241870E+04  0.20040241870E+04  0.50400001928E-02 0. -1.
       -1   -1    0    0    0  501  0.00000000000E+00  0.00000000000E+00 -0.84603704186E+03  0.84603704187E+03  0.50400001928E-02 0.  1.
    10030    2    1    2    0    0  0.00000000000E+00  0.00000000000E+00  0.11579871451E+04  0.28500612289E+04  0.26042109707E+04 0.  0.
        5    1    3    3  502    0 -0.40795550345E+03 -0.11842416423E+04  0.96839360640E+03  0.15832448412E+04  0.46999998093E+01 0. -1.
       -5    1    3    3    0  502  0.40795550345E+03  0.11842416423E+04  0.18959353874E+03  0.12668163877E+04  0.46999998093E+01 0.  1.
</event>
<event>
 5   0  0.1055179E-06  0.2602148E+04  0.7818609E-02  0.8367472E-01
        1   -1    0    0  501    0  0.00000000000E+00  0.00000000000E+00  0.24820220993E+04  0.24820220993E+04  0.50400001928E-02 0. -1.
       -1   -1    0    0    0  501  0.00000000000E+00  0.00000000000E+00 -0.68202206813E+03  0.68202206815E+03  0.50400001928E-02 0.  1.
    10030    2    1    2    0    0  0.00000000000E+00  0.00000000000E+00  0.18000000312E+04  0.31640441675E+04  0.26021482243E+04 0.  0.
        3    1    3    3  502    0 -0.43841068534E+02  0.34642477851E+03  0.24239807510E+04  0.24490028293E+04  0.10100000352E+00 0. -1.
       -3    1    3    3    0  502  0.43841068534E+02 -0.34642477851E+03 -0.62398071979E+03  0.71504133820E+03  0.10100000352E+00 0.  1.
</event>
<event>
 5   0  0.2820028E-06  0.2608588E+04  0.7818609E-02  0.8365290E-01
       -2   -1    0    0    0  501  0.00000000000E+00  0.00000000000E+00  0.73026858602E+03  0.73026858602E+03  0.25500000920E-02 0. -1.
        2   -1    0    0  501    0  0.00000000000E+00  0.00000000000E+00 -0.23295297560E+04  0.23295297560E+04  0.25500000920E-02 0.  1.
    10030    2    1    2    0    0  0.00000000000E+00  0.00000000000E+00 -0.15992611700E+04  0.30597983420E+04  0.26085876646E+04 0.  0.
        3    1    3    3  502    0 -0.40044241466E+03  0.70924060173E+03  0.39530766751E+03  0.90534221198E+03  0.10100000352E+00 0. -1.
       -3    1    3    3    0  502  0.40044241466E+03 -0.70924060173E+03 -0.19945688375E+04  0.21544561301E+04  0.10100000352E+00 0.  1.
</event>
<event>
 5   0  0.1032076E-06  0.2583987E+04  0.7818609E-02  0.8373661E-01
       -1   -1    0    0    0  501  0.00000000000E+00  0.00000000000E+00  0.95522819348E+03  0.95522819350E+03  0.50400001928E-02 0. -1.
        1   -1    0    0  501    0  0.00000000000E+00  0.00000000000E+00 -0.17474857276E+04  0.17474857277E+04  0.50400001928E-02 0.  1.
    10030    2    1    2    0    0  0.00000000000E+00  0.00000000000E+00 -0.79225753416E+03  0.27027139212E+04  0.25839873334E+04 0.  0.
        1    1    3    3  502    0  0.14918929786E+03  0.33840477943E+03  0.89868118273E+03  0.97180404895E+03  0.50400001928E-02 0. -1.
       -1    1    3    3    0  502 -0.14918929786E+03 -0.33840477943E+03 -0.16909387169E+04  0.17309098722E+04  0.50400001928E-02 0.  1.
</event>
<event>
 5   0  0.1055179E-06  0.2618567E+04  0.7818609E-02  0.8361922E-01
        1   -1    0    0  501    0  0.00000000000E+00  0.00000000000E+00  0.16506905172E+04  0.16506905172E+04  0.50400001928E-02 0. -1.
       -1   -1    0    0    0  501  0.00000000000E+00  0.00000000000E+00 -0.10384884680E+04  0.10384884680E+04  0.50400001928E-02 0.  1.
    10030    2    1    2    0    0  0.00000000000E+00  0.00000000000E+00  0.61220204920E+03  0.26891789853E+04  0.26185668343E+04 0.  0.
        3    1    3    3  502    0  0.85868628946E+03  0.46038939993E+03 -0.59208184408E+03  0.11401146712E+04  0.10100000352E+00 0.  1.
       -3    1    3    3    0  502 -0.85868628946E+03 -0.46038939993E+03  0.12042838933E+04  0.15490643141E+04  0.10100000352E+00 0. -1.
</event>
<event>
 5   0  0.1122628E-06  0.2605140E+04  0.7818609E-02  0.8366457E-01
        1   -1    0    0  501    0  0.00000000000E+00  0.00000000000E+00  0.12090647303E+04  0.12090647303E+04  0.50400001928E-02 0. -1.
       -1   -1    0    0    0  501  0.00000000000E+00  0.00000000000E+00 -0.14033066789E+04  0.14033066789E+04  0.50400001928E-02 0.  1.
    10030    2    1    2    0    0  0.00000000000E+00  0.00000000000E+00 -0.19424194858E+03  0.26123714093E+04  0.26051400050E+04 0.  0.
        2    1    3    3  502    0 -0.59807999346E+03  0.46038347276E+02  0.10623192038E+04  0.12199759419E+04  0.25500000920E-02 0. -1.
       -2    1    3    3    0  502  0.59807999346E+03 -0.46038347276E+02 -0.12565611524E+04  0.13923954674E+04  0.25500000920E-02 0.  1.
</event>
<event>
 5   0  0.1088757E-06  0.2577105E+04  0.7818609E-02  0.8376020E-01
       -1   -1    0    0    0  501  0.00000000000E+00  0.00000000000E+00  0.16922546920E+04  0.16922546920E+04  0.50400001928E-02 0.  1.
        1   -1    0    0  501    0  0.00000000000E+00  0.00000000000E+00 -0.98115737568E+03  0.98115737569E+03  0.50400001928E-02 0. -1.
    10030    2    1    2    0    0  0.00000000000E+00  0.00000000000E+00  0.71109731632E+03  0.26734120677E+04  0.25771054869E+04 0.  0.
        5    1    3    3  502    0  0.85528049857E+03 -0.94287064273E+03  0.14849961919E+03  0.12816333357E+04  0.46999998093E+01 0.  1.
       -5    1    3    3    0  502 -0.85528049857E+03  0.94287064273E+03  0.56259769713E+03  0.13917787320E+04  0.46999998093E+01 0. -1.
</event>
<event>
 5   0  0.2705807E-06  0.2599925E+04  0.7818609E-02  0.8368227E-01
       -2   -1    0    0    0  501  0.00000000000E+00  0.00000000000E+00  0.14445168640E+04  0.14445168640E+04  0.25500000920E-02 0.  1.
        2   -1    0    0  501    0  0.00000000000E+00  0.00000000000E+00 -0.11698736950E+04  0.11698736950E+04  0.25500000920E-02 0. -1.
    10030    2    1    2    0    0  0.00000000000E+00  0.00000000000E+00  0.27464316900E+03  0.26143905591E+04  0.25999248307E+04 0.  0.
        4    1    3    3  502    0 -0.45026466682E+03 -0.62357506116E+03 -0.91651540210E+03  0.11964891233E+04  0.12699999809E+01 0. -1.
       -4    1    3    3    0  502  0.45026466682E+03  0.62357506116E+03  0.11911585711E+04  0.14179014357E+04  0.12699999809E+01 0.  1.
</event>
<event>
 5   0  0.2586775E-06  0.2599937E+04  0.7818609E-02  0.8368223E-01
       -2   -1    0    0    0  501  0.00000000000E+00  0.00000000000E+00  0.17235038156E+04  0.17235038156E+04  0.25500000920E-02 0. -1.
        2   -1    0    0  501    0  0.00000000000E+00  0.00000000000E+00 -0.98051284106E+03  0.98051284107E+03  0.25500000920E-02 0.  1.
    10030    2    1    2    0    0  0.00000000000E+00  0.00000000000E+00  0.74299097451E+03  0.27040166566E+04  0.25999366322E+04 0.  0.
        1    1    3    3  502    0  0.42030373323E+03 -0.47854570662E+03  0.15501118577E+04  0.16758603740E+04  0.50400001928E-02 0. -1.
       -1    1    3    3    0  502 -0.42030373323E+03  0.47854570662E+03 -0.80712088321E+03  0.10281562827E+04  0.50400001928E-02 0.  1.
</event>
<event>
 5   0  0.1100104E-06  0.2601683E+04  0.7818609E-02  0.8367630E-01
       -1   -1    0    0    0  501  0.00000000000E+00  0.00000000000E+00  0.76733445647E+03  0.76733445648E+03  0.50400001928E-02 0. -1.
        1   -1    0    0  501    0  0.00000000000E+00  0.00000000000E+00 -0.22052813629E+04  0.22052813629E+04  0.50400001928E-02 0.  1.
    10030    2    1    2    0    0  0.00000000000E+00  0.00000000000E+00 -0.14379469064E+04  0.29726158194E+04  0.26016828215E+04 0.  0.
        4    1    3    3  502    0  0.31994410428E+03 -0.30289168828E+02 -0.21592086321E+04  0.21829945473E+04  0.12699999809E+01 0.  1.
       -4    1    3    3    0  502 -0.31994410428E+03  0.30289168828E+02  0.72126172565E+03  0.78962127213E+03  0.12699999809E+01 0. -1.
</event>
<event>
 5   0  0.2746631E-06  0.2609523E+04  0.7818609E-02  0.8364974E-01
       -2   -1    0    0    0  501  0.00000000000E+00  0.00000000000E+00  0.10736242978E+04  0.10736242978E+04  0.25500000920E-02 0. -1.
        2   -1    0    0  501    0  0.00000000000E+00  0.00000000000E+00 -0.15856599184E+04  0.15856599184E+04  0.25500000920E-02 0.  1.
    10030    2    1    2    0    0  0.00000000000E+00  0.00000000000E+00 -0.51203562055E+03  0.26592842162E+04  0.26095233407E+04 0.  0.
        2    1    3    3  502    0 -0.75834793460E+03  0.91265724707E+03  0.29688525604E+03  0.12231826093E+04  0.25500000920E-02 0. -1.
       -2    1    3    3    0  502  0.75834793460E+03 -0.91265724707E+03 -0.80892087659E+03  0.14361016068E+04  0.25500000920E-02 0.  1.
</event>
<event>
 5   0  0.1088757E-06  0.2609819E+04  0.7818609E-02  0.8364874E-01
       -1   -1    0    0    0  501  0.00000000000E+00  0.00000000000E+00  0.11965681169E+04  0.11965681169E+04  0.50400001928E-02 0. -1.
        1   -1    0    0  501    0  0.00000000000E+00  0.00000000000E+00 -0.14230601509E+04  0.14230601509E+04  0.50400001928E-02 0.  1.
    10030    2    1    2    0    0  0.00000000000E+00  0.00000000000E+00 -0.22649203402E+03  0.26196282678E+04  0.26098186948E+04 0.  0.
        5    1    3    3  502    0  0.75331458091E+03 -0.83823308485E+03  0.54698672567E+03  0.12527306695E+04  0.46999998093E+01 0.  1.
       -5    1    3    3    0  502 -0.75331458091E+03  0.83823308485E+03 -0.77347875969E+03  0.13668975982E+04  0.46999998093E+01 0. -1.
</event>
<event>
 5   0  0.2746631E-06  0.2623001E+04  0.7818609E-02  0.8360430E-01
       -2   -1    0    0    0  501  0.00000000000E+00  0.00000000000E+00  0.65045657267E+03  0.65045657267E+03  0.25500000920E-02 0. -1.
        2   -1    0    0  501    0  0.00000000000E+00  0.00000000000E+00 -0.26443484765E+04  0.26443484765E+04  0.25500000920E-02 0.  1.
    10030    2    1    2    0    0  0.00000000000E+00  0.00000000000E+00 -0.19938919038E+04  0.32948050491E+04  0.26230012177E+04 0.  0.
        2    1    3    3  502    0  0.29422743726E+03  0.27173813089E+03 -0.25656498282E+04  0.25967230190E+04  0.25500000920E-02 0.  1.
       -2    1    3    3    0  502 -0.29422743726E+03 -0.27173813089E+03  0.57175792441E+03  0.69808203010E+03  0.25500000920E-02 0. -1.
</event>
<event>
 5   0  0.1100104E-06  0.2589517E+04  0.7818609E-02  0.8371771E-01
       -1   -1    0    0    0  501  0.00000000000E+00  0.00000000000E+00  0.14216268836E+04  0.14216268836E+04  0.50400001928E-02 0. -1.
        1   -1    0    0  501    0  0.00000000000E+00  0.00000000000E+00 -0.11792117167E+04  0.11792117167E+04  0.50400001928E-02 0.  1.
    10030    2    1    2    0    0  0.00000000000E+00  0.00000000000E+00  0.24241516694E+03  0.26008386003E+04  0.25895166174E+04 0.  0.
        4    1    3    3  502    0 -0.76892651650E+03  0.71244108637E+03  0.88451540253E+03  0.13715645809E+04  0.12699999809E+01 0. -1.
       -4    1    3    3    0  502  0.76892651650E+03 -0.71244108637E+03 -0.64210023559E+03  0.12292740194E+04  0.12699999809E+01 0.  1.
</event>
<event>
 5   0  0.1100104E-06  0.2602166E+04  0.7818609E-02  0.8367466E-01
        1   -1    0    0  501    0  0.00000000000E+00  0.00000000000E+00  0.12930530414E+04  0.12930530414E+04  0.50400001928E-02 0. -1.
       -1   -1    0    0    0  501  0.00000000000E+00  0.00000000000E+00 -0.13091632779E+04  0.13091632779E+04  0.50400001928E-02 0.  1.
    10030    2    1    2    0    0  0.00000000000E+00  0.00000000000E+00 -0.16110236500E+02  0.26022163194E+04  0.26021664499E+04 0.  0.
        4    1    3    3  502    0 -0.12250164105E+04  0.40797235966E+03 -0.16839936860E+03  0.13021008457E+04  0.12699999809E+01 0. -1.
       -4    1    3    3    0  502  0.12250164105E+04 -0.40797235966E+03  0.15228913210E+03  0.13001154737E+04  0.12699999809E+01 0.  1.
</event>
<event>
 5   0  0.1122628E-06  0.2598056E+04  0.7818609E-02  0.8368862E-01
       -1   -1    0    0    0  501  0.00000000000E+00  0.00000000000E+00  0.19977213185E+04  0.19977213185E+04  0.50400001928E-02 0. -1.
        1   -1    0    0  501    0  0.00000000000E+00  0.00000000000E+00 -0.84469901625E+03  0.84469901626E+03  0.50400001928E-02 0.  1.
    10030    2    1    2    0    0  0.00000000000E+00  0.00000000000E+00  0.11530223022E+04  0.28424203347E+04  0.25980556056E+04 0.  0.
        2    1    3    3  502    0 -0.23543157179E+02  0.98687425644E+03 -0.34730183374E+03  0.10464672197E+04  0.25500000920E-02 0.  1.
       -2    1    3    3    0  502  0.23543157179E+02 -0.98687425644E+03  0.15003241360E+04  0.17959531150E+04  0.25500000920E-02 0. -1.
</event>
<event>
 5   0  0.2746631E-06  0.2595396E+04  0.7818609E-02  0.8369767E-01
       -2   -1    0    0    0  501  0.00000000000E+00  0.00000000000E+00  0.72066064490E+03  0.72066064490E+03  0.25500000920E-02 0. -1.
        2   -1    0    0  501    0  0.00000000000E+00  0.00000000000E+00 -0.23367725359E+04  0.23367725360E+04  0.25500000920E-02 0.  1.
    10030    2    1    2    0    0  0.00000000000E+00  0.00000000000E+00 -0.16161118911E+04  0.30574331809E+04  0.25953959257E+04 0.  0.
        2    1    3    3  502    0 -0.89360189894E+03 -0.92855766385E+03 -0.98778175910E+03  0.16237168757E+04  0.25500000920E-02 0. -1.
       -2    1    3    3    0  502  0.89360189894E+03  0.92855766385E+03 -0.62833013195E+03  0.14337163051E+04  0.25500000920E-02 0.  1.
</event>
<event>
 5   0  0.1088757E-06  0.2598555E+04  0.7818609E-02  0.8368692E-01
        1   -1    0    0  501    0  0.00000000000E+00  0.00000000000E+00  0.99493731175E+03  0.99493731177E+03  0.50400001928E-02 0. -1.
       -1   -1    0    0    0  501  0.00000000000E+00  0.00000000000E+00 -0.16967115693E+04  0.16967115693E+04  0.50400001928E-02 0.  1.
    10030    2    1    2    0    0  0.00000000000E+00  0.00000000000E+00 -0.70177425752E+03  0.26916488810E+04  0.25985547118E+04 0.  0.
        5    1    3    3  502    0 -0.21730323782E+03  0.96835146244E+03 -0.12194835545E+04  0.15722873406E+04  0.46999998093E+01 0.  1.
       -5    1    3    3    0  502  0.21730323782E+03 -0.96835146244E+03  0.51770929694E+03  0.11193615404E+04  0.46999998093E+01 0. -1.
</event>
<event>
 5   0  0.2623368E-06  0.2598310E+04  0.7818609E-02  0.8368776E-01
        2   -1    0    0  501    0  0.00000000000E+00  0.00000000000E+00  0.19953454301E+04  0.19953454301E+04  0.25500000920E-02 0.  1.
       -2   -1    0    0    0  501  0.00000000000E+00  0.00000000000E+00 -0.84587022638E+03  0.84587022639E+03  0.25500000920E-02 0. -1.
    10030    2    1    2    0    0  0.00000000000E+00  0.00000000000E+00  0.11494752037E+04  0.28412156565E+04  0.25983096741E+04 0.  0.
        5    1    3    3  502    0 -0.87043482204E+03  0.96328085444E+03  0.62619442457E+03  0.14414257981E+04  0.46999998093E+01 0. -1.
       -5    1    3    3    0  502  0.87043482204E+03 -0.96328085444E+03  0.52328077916E+03  0.13997898584E+04  0.46999998093E+01 0.  1.
</event>
<event>
 5   0  0.2623368E-06  0.2601094E+04  0.7818609E-02  0.8367830E-01
        2   -1    0    0  501    0  0.00000000000E+00  0.00000000000E+00  0.21329215564E+04  0.21329215564E+04  0.25500000920E-02 0.  1.
       -2   -1    0    0    0  501  0.00000000000E+00  0.00000000000E+00 -0.79300751386E+03  0.79300751386E+03  0.25500000920E-02 0. -1.
    10030    2    1    2    0    0  0.00000000000E+00  0.00000000000E+00  0.13399140425E+04  0.29259290702E+04  0.26010942472E+04 0.  0.
        5    1    3    3  502    0 -0.14242975419E+03 -0.56483166594E+03  0.19779603495E+04  0.20619578754E+04  0.46999998093E+01 0.  1.
       -5    1    3    3    0  502  0.14242975419E+03  0.56483166594E+03 -0.63804630696E+03  0.86397119486E+03  0.46999998093E+01 0. -1.
</event>
<event>
 5   0  0.2705807E-06  0.2598642E+04  0.7818609E-02  0.8368663E-01
        2   -1    0    0  501    0  0.00000000000E+00  0.00000000000E+00  0.19719532153E+04  0.19719532153E+04  0.25500000920E-02 0.  1.
       -2   -1    0    0    0  501  0.00000000000E+00  0.00000000000E+00 -0.85612329711E+03  0.85612329711E+03  0.25500000920E-02 0. -1.
    10030    2    1    2    0    0  0.00000000000E+00  0.00000000000E+00  0.11158299182E+04  0.28280765124E+04  0.25986420211E+04 0.  0.
        4    1    3    3  502    0 -0.77749266612E+03 -0.67519337300E+03 -0.30441510077E+03  0.10738021714E+04  0.12699999809E+01 0. -1.
       -4    1    3    3    0  502  0.77749266612E+03  0.67519337300E+03  0.14202450190E+04  0.17542743411E+04  0.12699999809E+01 0.  1.
</event>
<event>
 5   0  0.1100104E-06  0.2598661E+04  0.7818609E-02  0.8368656E-01
        1   -1    0    0  501    0  0.00000000000E+00  0.00000000000E+00  0.17692382196E+04  0.17692382196E+04  0.50400001928E-02 0. -1.
       -1   -1    0    0    0  501  0.00000000000E+00  0.00000000000E+00 -0.95422981515E+03  0.95422981516E+03  0.50400001928E-02 0.  1.
    10030    2    1    2    0    0  0.00000000000E+00  0.00000000000E+00  0.81500840446E+03  0.27234680348E+04  0.25986610855E+04 0.  0.
        4    1    3    3  502    0  0.36943508741E+03  0.77661007556E+03 -0.61326198364E+03  0.10562657652E+04  0.12699999809E+01 0.  1.
       -4    1    3    3    0  502 -0.36943508741E+03 -0.77661007556E+03  0.14282703881E+04  0.16672022696E+04  0.12699999809E+01 0. -1.
</event>
<event>
 5   0  0.1122628E-06  0.2599922E+04  0.7818609E-02  0.8368228E-01
        1   -1    0    0  501    0  0.00000000000E+00  0.00000000000E+00  0.13659356678E+04  0.13659356678E+04  0.50400001928E-02 0. -1.
       -1   -1    0    0    0  501  0.00000000000E+00  0.00000000000E+00 -0.12371729747E+04  0.12371729747E+04  0.50400001928E-02 0.  1.
    10030    2    1    2    0    0  0.00000000000E+00  0.00000000000E+00  0.12876269309E+03  0.26031086425E+04  0.25999220707E+04 0.  0.
        2    1    3    3  502    0 -0.44764545439E+03 -0.65898686577E+03  0.10928933051E+04  0.13524296353E+04  0.25500000920E-02 0. -1.
       -2    1    3    3    0  502  0.44764545439E+03  0.65898686577E+03 -0.96413061199E+03  0.12506790072E+04  0.25500000920E-02 0.  1.
</event>
<event>
 5   0  0.2746631E-06  0.2595883E+04  0.7818609E-02  0.8369601E-01
       -2   -1    0    0    0  501  0.00000000000E+00  0.00000000000E+00  0.11809915080E+04  0.11809915080E+04  0.25500000920E-02 0.  1.
        2   -1    0    0  501    0  0.00000000000E+00  0.00000000000E+00 -0.14264728934E+04  0.14264728934E+04  0.25500000920E-02 0. -1.
    10030    2    1    2    0    0  0.00000000000E+00  0.00000000000E+00 -0.24548138538E+03  0.26074644014E+04  0.25958831818E+04 0.  0.
        2    1    3    3  502    0 -0.10941007949E+03  0.34156571003E+03  0.11302276181E+04  0.11857707065E+04  0.25500000920E-02 0.  1.
       -2    1    3    3    0  502  0.10941007949E+03 -0.34156571003E+03 -0.13757090035E+04  0.14216936948E+04  0.25500000920E-02 0. -1.
</event>
<event>
 5   0  0.1122628E-06  0.2601011E+04  0.7818609E-02  0.8367858E-01
        1   -1    0    0  501    0  0.00000000000E+00  0.00000000000E+00  0.19638393421E+04  0.19638393421E+04  0.50400001928E-02 0. -1.
       -1   -1    0    0    0  501  0.00000000000E+00  0.00000000000E+00 -0.86122839680E+03  0.86122839682E+03  0.50400001928E-02 0.  1.
    10030    2    1    2    0    0  0.00000000000E+00  0.00000000000E+00  0.11026109452E+04  0.28250677389E+04  0.26010107329E+04 0.  0.
        2    1    3    3  502    0  0.30462484701E+03 -0.46606170158E+03  0.18278366292E+04  0.19107581087E+04  0.25500000920E-02 0. -1.
       -2    1    3    3    0  502 -0.30462484701E+03  0.46606170158E+03 -0.72522568395E+03  0.91430963013E+03  0.25500000920E-02 0.  1.
</event>
<event>
 5   0  0.2820028E-06  0.2602315E+04  0.7818609E-02  0.8367415E-01
        2   -1    0    0  501    0  0.00000000000E+00  0.00000000000E+00  0.11214515540E+04  0.11214515540E+04  0.25500000920E-02 0. -1.
       -2   -1    0    0    0  501  0.00000000000E+00  0.00000000000E+00 -0.15096605752E+04  0.15096605752E+04  0.25500000920E-02 0.  1.
    10030    2    1    2    0    0  0.00000000000E+00  0.00000000000E+00 -0.38820902123E+03  0.26311121292E+04  0.26023152753E+04 0.  0.
        3    1    3    3  502    0 -0.22026106923E+03  0.82817558559E+03  0.79582214046E+03  0.11694967416E+04  0.10100000352E+00 0. -1.
       -3    1    3    3    0  502  0.22026106923E+03 -0.82817558559E+03 -0.11840311617E+04  0.14616153876E+04  0.10100000352E+00 0.  1.
</event>
<event>
 5   0  0.2623368E-06  0.2600640E+04  0.7818609E-02  0.8367984E-01
       -2   -1    0    0    0  501  0.00000000000E+00  0.00000000000E+00  0.11401499497E+04  0.11401499497E+04  0.25500000920E-02 0.  1.
        2   -1    0    0  501    0  0.00000000000E+00  0.00000000000E+00 -0.14829909359E+04  0.14829909359E+04  0.25500000920E-02 0. -1.
    10030    2    1    2    0    0  0.00000000000E+00  0.00000000000E+00 -0.34284098621E+03  0.26231408855E+04  0.26006399527E+04 0.  0.
        5    1    3    3  502    0 -0.81246870468E+03  0.64009814891E+03 -0.96626067376E+03  0.14154549855E+04  0.46999998093E+01 0. -1.
       -5    1    3    3    0  502  0.81246870468E+03 -0.64009814891E+03  0.62341968755E+03  0.12076859000E+04  0.46999998093E+01 0.  1.
</event>
<event>
 5   0  0.1088757E-06  0.2578972E+04  0.7818609E-02  0.8375379E-01
        1   -1    0    0  501    0  0.00000000000E+00  0.00000000000E+00  0.12904886019E+04  0.12904886019E+04  0.50400001928E-02 0. -1.
       -1   -1    0    0    0  501  0.00000000000E+00  0.00000000000E+00 -0.12884844377E+04  0.12884844378E+04  0.50400001928E-02 0.  1.
    10030    2    1    2    0    0  0.00000000000E+00  0.00000000000E+00  0.20041641316E+01  0.25789730396E+04  0.25789722609E+04 0.  0.
        5    1    3    3  502    0  0.47767362408E+03  0.24084843387E+03  0.11742766291E+04  0.12903982916E+04  0.46999998093E+01 0. -1.
       -5    1    3    3    0  502 -0.47767362408E+03 -0.24084843387E+03 -0.11722724650E+04  0.12885747481E+04  0.46999998093E+01 0.  1.
</event>
<event>
 5   0  0.1055179E-06  0.2550082E+04  0.7818609E-02  0.8385358E-01
        1   -1    0    0  501    0  0.00000000000E+00  0.00000000000E+00  0.10280493888E+04  0.10280493888E+04  0.50400001928E-02 0. -1.
       -1   -1    0    0    0  501  0.00000000000E+00  0.00000000000E+00 -0.15813731344E+04  0.15813731344E+04  0.50400001928E-02 0.  1.
    10030    2    1    2    0    0  0.00000000000E+00  0.00000000000E+00 -0.55332374564E+03  0.26094225232E+04  0.25500821040E+04 0.  0.
        3    1    3    3  502    0  0.16800124127E+03 -0.11584897722E+04 -0.79379979962E+03  0.14143695067E+04  0.10100000352E+00 0.  1.
       -3    1    3    3    0  502 -0.16800124127E+03  0.11584897722E+04  0.24047605398E+03  0.11950530165E+04  0.10100000352E+00 0. -1.
</event>
<event>
 5   0  0.2820028E-06  0.2601542E+04  0.7818609E-02  0.8367678E-01
       -2   -1    0    0    0  501  0.00000000000E+00  0.00000000000E+00  0.13148640144E+04  0.13148640144E+04  0.25500000920E-02 0.  1.
        2   -1    0    0  501    0  0.00000000000E+00  0.00000000000E+00 -0.12868286111E+04  0.12868286111E+04  0.25500000920E-02 0. -1.
    10030    2    1    2    0    0  0.00000000000E+00  0.00000000000E+00  0.28035403299E+02  0.26016926254E+04  0.26015415686E+04 0.  0.
        3    1    3    3  502    0  0.92082354711E+03  0.83131349565E+03  0.40520085459E+03  0.13050616367E+04  0.10100000352E+00 0.  1.
       -3    1    3    3    0  502 -0.92082354711E+03 -0.83131349565E+03 -0.37716545129E+03  0.12966309887E+04  0.10100000352E+00 0. -1.
</event>
<event>
 5   0  0.2586775E-06  0.2600666E+04  0.7818609E-02  0.8367975E-01
        2   -1    0    0  501    0  0.00000000000E+00  0.00000000000E+00  0.16756542446E+04  0.16756542446E+04  0.25500000920E-02 0. -1.
       -2   -1    0    0    0  501  0.00000000000E+00  0.00000000000E+00 -0.10090778601E+04  0.10090778601E+04  0.25500000920E-02 0.  1.
    10030    2    1    2    0    0  0.00000000000E+00  0.00000000000E+00  0.66657638453E+03  0.26847321048E+04  0.26006657605E+04 0.  0.
        1    1    3    3  502    0  0.24280385585E+03  0.23602883939E+03 -0.96276370208E+03  0.10205769307E+04  0.50400001928E-02 0.  1.
       -1    1    3    3    0  502 -0.24280385585E+03 -0.23602883939E+03  0.16293400866E+04  0.16641551740E+04  0.50400001928E-02 0. -1.
</event>
<event>
 5   0  0.2586775E-06  0.2602392E+04  0.7818609E-02  0.8367389E-01
        2   -1    0    0  501    0  0.00000000000E+00  0.00000000000E+00  0.14090791035E+04  0.14090791035E+04  0.25500000920E-02 0.  1.
       -2   -1    0    0    0  501  0.00000000000E+00  0.00000000000E+00 -0.12015724343E+04  0.12015724343E+04  0.25500000920E-02 0. -1.
    10030    2    1    2    0    0  0.00000000000E+00  0.00000000000E+00  0.20750666921E+03  0.26106515377E+04  0.26023916757E+04 0.  0.
        1    1    3    3  502    0 -0.13245345068E+03 -0.11315386015E+04 -0.52688100836E+03  0.12552000320E+04  0.50400001928E-02 0. -1.
       -1    1    3    3    0  502  0.13245345068E+03  0.11315386015E+04  0.73438767757E+03  0.13554515057E+04  0.50400001928E-02 0.  1.
</event>
<event>
 5   0  0.2746631E-06  0.2597831E+04  0.7818609E-02  0.8368938E-01
       -2   -1    0    0    0  501  0.00000000000E+00  0.00000000000E+00  0.92173936754E+03  0.92173936754E+03  0.25500000920E-02 0. -1.
        2   -1    0    0  501    0  0.00000000000E+00  0.00000000000E+00 -0.18304319424E+04  0.18304319424E+04  0.25500000920E-02 0.  1.
    10030    2    1    2    0    0  0.00000000000E+00  0.00000000000E+00 -0.90869257491E+03  0.27521713100E+04  0.25978307727E+04 0.  0.
        2    1    3    3  502    0  0.44831960417E+03  0.91229045706E+03  0.40234798940E+03  0.10932283614E+04  0.25500000920E-02 0. -1.
       -2    1    3    3    0  502 -0.44831960417E+03 -0.91229045706E+03 -0.13110405643E+04  0.16589429486E+04  0.25500000920E-02 0.  1.
</event>
<event>
 5   0  0.1032076E-06  0.2603622E+04  0.7818609E-02  0.8366972E-01
       -1   -1    0    0    0  501  0.00000000000E+00  0.00000000000E+00  0.11680886208E+04  0.11680886208E+04  0.50400001928E-02 0. -1.
        1   -1    0    0  501    0  0.00000000000E+00  0.00000000000E+00 -0.14508418093E+04  0.14508418093E+04  0.50400001928E-02 0.  1.
    10030    2    1    2    0    0  0.00000000000E+00  0.00000000000E+00 -0.28275318855E+03  0.26189304301E+04  0.26036219449E+04 0.  0.
        1    1    3    3  502    0 -0.11535276146E+04 -0.24439477725E+03 -0.69630597177E+03  0.13693782426E+04  0.50400001928E-02 0.  1.
       -1    1    3    3    0  502  0.11535276146E+04  0.24439477725E+03  0.41355278322E+03  0.12495521875E+04  0.50400001928E-02 0. -1.
</event>
<event>
 5   0  0.2586775E-06  0.2612437E+04  0.7818609E-02  0.8363989E-01
        2   -1    0    0  501    0  0.00000000000E+00  0.00000000000E+00  0.10066695314E+04  0.10066695314E+04  0.25500000920E-02 0. -1.
       -2   -1    0    0    0  501  0.00000000000E+00  0.00000000000E+00 -0.16949023576E+04  0.16949023576E+04  0.25500000920E-02 0.  1.
    10030    2    1    2    0    0  0.00000000000E+00  0.00000000000E+00 -0.68823282619E+03  0.27015718890E+04  0.26124368410E+04 0.  0.
        1    1    3    3  502    0 -0.12521327026E+04  0.36086130841E+03 -0.25076243425E+03  0.13270037631E+04  0.50400001928E-02 0.  1.
       -1    1    3    3    0  502  0.12521327026E+04 -0.36086130841E+03 -0.43747039195E+03  0.13745681259E+04  0.50400001928E-02 0. -1.
</event>
<event>
 5   0  0.2705807E-06  0.2600867E+04  0.7818609E-02  0.8367907E-01
        2   -1    0    0  501    0  0.00000000000E+00  0.00000000000E+00  0.22619349314E+04  0.22619349314E+04  0.25500000920E-02 0.  1.
       -2   -1    0    0    0  501  0.00000000000E+00  0.00000000000E+00 -0.74764614638E+03  0.74764614638E+03  0.25500000920E-02 0. -1.
    10030    2    1    2    0    0  0.00000000000E+00  0.00000000000E+00  0.15142887850E+04  0.30095810778E+04  0.26008667285E+04 0.  0.
        4    1    3    3  502    0 -0.88209658945E+02 -0.28243396228E+03 -0.70817617679E+03  0.76750569851E+03  0.12699999809E+01 0. -1.
       -4    1    3    3    0  502  0.88209658945E+02  0.28243396228E+03  0.22224649618E+04  0.22420753793E+04  0.12699999809E+01 0.  1.
</event>
<event>
 5   0  0.2820028E-06  0.2586046E+04  0.7818609E-02  0.8372956E-01
        2   -1    0    0  501    0  0.00000000000E+00  0.00000000000E+00  0.18015635788E+04  0.18015635788E+04  0.25500000920E-02 0. -1.
       -2   -1    0    0    0  501  0.00000000000E+00  0.00000000000E+00 -0.92803214388E+03  0.92803214388E+03  0.25500000920E-02 0.  1.
    10030    2    1    2    0    0  0.00000000000E+00  0.00000000000E+00  0.87353143492E+03  0.27295957227E+04  0.25860463340E+04 0.  0.
        3    1    3    3  502    0  0.66196639729E+03 -0.49754959056E+03  0.14849420568E+04  0.17002376388E+04  0.10100000352E+00 0. -1.
       -3    1    3    3    0  502 -0.66196639729E+03  0.49754959056E+03 -0.61141062183E+03  0.10293580839E+04  0.10100000352E+00 0.  1.
</event>
<event>
 5   0  0.1055179E-06  0.2544573E+04  0.7818609E-02  0.8387276E-01
       -1   -1    0    0    0  501  0.00000000000E+00  0.00000000000E+00  0.84910579123E+03  0.84910579124E+03  0.50400001928E-02 0.  1.
        1   -1    0    0  501    0  0.00000000000E+00  0.00000000000E+00 -0.19063744288E+04  0.19063744288E+04  0.50400001928E-02 0. -1.
    10030    2    1    2    0    0  0.00000000000E+00  0.00000000000E+00 -0.10572686376E+04  0.27554802200E+04  0.25445734949E+04 0.  0.
        3    1    3    3  502    0 -0.47024792786E+03 -0.16285255833E+03  0.73933997210E+03  0.89122257263E+03  0.10100000352E+00 0.  1.
       -3    1    3    3    0  502  0.47024792786E+03  0.16285255833E+03 -0.17966086097E+04  0.18642576474E+04  0.10100000352E+00 0. -1.
</event>
<event>
 5   0  0.1122628E-06  0.2605707E+04  0.7818609E-02  0.8366265E-01
       -1   -1    0    0    0  501  0.00000000000E+00  0.00000000000E+00  0.29728886534E+04  0.29728886534E+04  0.50400001928E-02 0.  1.
        1   -1    0    0  501    0  0.00000000000E+00  0.00000000000E+00 -0.57096909163E+03  0.57096909165E+03  0.50400001928E-02 0. -1.
    10030    2    1    2    0    0  0.00000000000E+00  0.00000000000E+00  0.24019195618E+04  0.35438577451E+04  0.26057072238E+04 0.  0.
        2    1    3    3  502    0 -0.84284672853E+03  0.10392497887E+03  0.25447398323E+04  0.26827023359E+04  0.25500000920E-02 0.  1.
       -2    1    3    3    0  502  0.84284672853E+03 -0.10392497887E+03 -0.14282027052E+03  0.86115540915E+03  0.25500000920E-02 0. -1.
</event>
<event>
 5   0  0.2586775E-06  0.2599803E+04  0.7818609E-02  0.8368268E-01
        2   -1    0    0  501    0  0.00000000000E+00  0.00000000000E+00  0.14913705033E+04  0.14913705033E+04  0.25500000920E-02 0. -1.
       -2   -1    0    0    0  501  0.00000000000E+00  0.00000000000E+00 -0.11330142789E+04  0.11330142789E+04  0.25500000920E-02 0.  1.
    10030    2    1    2    0    0  0.00000000000E+00  0.00000000000E+00  0.35835622439E+03  0.26243847822E+04  0.25998031275E+04 0.  0.
        1    1    3    3  502    0  0.34751864933E+03 -0.96030261608E+03  0.99101719711E+03  0.14230479300E+04  0.50400001928E-02 0. -1.
       -1    1    3    3    0  502 -0.34751864933E+03  0.96030261608E+03 -0.63266097272E+03  0.12013368522E+04  0.50400001928E-02 0.  1.
</event>
<event>
 5   0  0.2705807E-06  0.2603316E+04  0.7818609E-02  0.8367076E-01
        2   -1    0    0  501    0  0.00000000000E+00  0.00000000000E+00  0.17172565143E+04  0.17172565143E+04  0.25500000920E-02 0.  1.
       -2   -1    0    0    0  501  0.00000000000E+00  0.00000000000E+00 -0.98664007764E+03  0.98664007764E+03  0.25500000920E-02 0. -1.
    10030    2    1    2    0    0  0.00000000000E+00  0.00000000000E+00  0.73061643667E+03  0.27038965919E+04  0.26033164238E+04 0.  0.
        4    1    3    3  502    0 -0.57134062879E+03 -0.34077793854E+03 -0.79673532172E+03  0.10379539986E+04  0.12699999809E+01 0. -1.
       -4    1    3    3    0  502  0.57134062879E+03  0.34077793854E+03  0.15273517584E+04  0.16659425933E+04  0.12699999809E+01 0.  1.
</event>
<event>
 5   0  0.2820028E-06  0.2600851E+04  0.7818609E-02  0.8367912E-01
       -2   -1    0    0    0  501  0.00000000000E+00  0.00000000000E+00  0.11444448223E+04  0.11444448223E+04  0.25500000920E-02 0. -1.
        2   -1    0    0  501    0  0.00000000000E+00  0.00000000000E+00 -0.14776659126E+04  0.14776659126E+04  0.25500000920E-02 0.  1.
    10030    2    1    2    0    0  0.00000000000E+00  0.00000000000E+00 -0.33322109025E+03  0.26221107349E+04  0.26008514781E+04 0.  0.
        3    1    3    3  502    0 -0.10849405861E+04 -0.59112318667E+02 -0.88695542624E+03  0.14025976900E+04  0.10100000352E+00 0.  1.
       -3    1    3    3    0  502  0.10849405861E+04  0.59112318667E+02  0.55373433599E+03  0.12195130449E+04  0.10100000352E+00 0. -1.
</event>
<event>
 5   0  0.1032076E-06  0.2597695E+04  0.7818609E-02  0.8368985E-01
        1   -1    0    0  501    0  0.00000000000E+00  0.00000000000E+00  0.10552884889E+04  0.10552884889E+04  0.50400001928E-02 0. -1.
       -1   -1    0    0    0  501  0.00000000000E+00  0.00000000000E+00 -0.15986193578E+04  0.15986193578E+04  0.50400001928E-02 0.  1.
    10030    2    1    2    0    0  0.00000000000E+00  0.00000000000E+00 -0.54333086892E+03  0.26539078467E+04  0.25976948292E+04 0.  0.
        1    1    3    3  502    0 -0.30456154455E+03 -0.12493423827E+04 -0.45835027684E+03  0.13651736519E+04  0.50400001928E-02 0.  1.
       -1    1    3    3    0  502  0.30456154455E+03  0.12493423827E+04 -0.84980592072E+02  0.12887341947E+04  0.50400001928E-02 0. -1.
</event>
<event>
 5   0  0.2746631E-06  0.2599894E+04  0.7818609E-02  0.8368237E-01
        2   -1    0    0  501    0  0.00000000000E+00  0.00000000000E+00  0.88536674496E+03  0.88536674496E+03  0.25500000920E-02 0.  1.
       -2   -1    0    0    0  501  0.00000000000E+00  0.00000000000E+00 -0.19086584003E+04  0.19086584003E+04  0.25500000920E-02 0. -1.
    10030    2    1    2    0    0  0.00000000000E+00  0.00000000000E+00 -0.10232916553E+04  0.27940251453E+04  0.25998943633E+04 0.  0.
        2    1    3    3  502    0 -0.11015460005E+04  0.14575236136E+02  0.22998977988E+03  0.11253938545E+04  0.25500000920E-02 0. -1.
       -2    1    3    3    0  502  0.11015460005E+04 -0.14575236136E+02 -0.12532814352E+04  0.16686312908E+04  0.25500000920E-02 0.  1.
</event>
<event>
 5   0  0.1032076E-06  0.2656695E+04  0.7818609E-02  0.8349194E-01
        1   -1    0    0  501    0  0.00000000000E+00  0.00000000000E+00  0.18903260428E+04  0.18903260428E+04  0.50400001928E-02 0. -1.
       -1   -1    0    0    0  501  0.00000000000E+00  0.00000000000E+00 -0.93344050093E+03  0.93344050094E+03  0.50400001928E-02 0.  1.
    10030    2    1    2    0    0  0.00000000000E+00  0.00000000000E+00  0.95688554187E+03  0.28237665437E+04  0.26566948551E+04 0.  0.
        1    1    3    3  502    0 -0.95097987914E+03  0.13364745406E+03  0.14539174630E+04  0.17424409206E+04  0.50400001928E-02 0. -1.
       -1    1    3    3    0  502  0.95097987914E+03 -0.13364745406E+03 -0.49703192118E+03  0.10813256231E+04  0.50400001928E-02 0.  1.
</event>
<event>
 5   0  0.1122628E-06  0.2600300E+04  0.7818609E-02  0.8368099E-01
       -1   -1    0    0    0  501  0.00000000000E+00  0.00000000000E+00  0.90943590067E+03  0.90943590068E+03  0.50400001928E-02 0.  1.
        1   -1    0    0  501    0  0.00000000000E+00  0.00000000000E+00 -0.18587233194E+04  0.18587233194E+04  0.50400001928E-02 0. -1.
    10030    2    1    2    0    0  0.00000000000E+00  0.00000000000E+00 -0.94928741871E+03  0.27681592201E+04  0.26002997643E+04 0.  0.
        2    1    3    3  502    0 -0.24181354519E+03 -0.11756526480E+04 -0.10066616654E+04  0.15665250230E+04  0.25500000920E-02 0. -1.
       -2    1    3    3    0  502  0.24181354519E+03  0.11756526480E+04  0.57374246663E+02  0.12016341970E+04  0.25500000920E-02 0.  1.
</event>
<event>
 5   0  0.2623368E-06  0.2599175E+04  0.7818609E-02  0.8368482E-01
        2   -1    0    0  501    0  0.00000000000E+00  0.00000000000E+00  0.17967017611E+04  0.17967017611E+04  0.25500000920E-02 0. -1.
       -2   -1    0    0    0  501  0.00000000000E+00  0.00000000000E+00 -0.94001537596E+03  0.94001537596E+03  0.25500000920E-02 0.  1.
    10030    2    1    2    0    0  0.00000000000E+00  0.00000000000E+00  0.85668638513E+03  0.27367171370E+04  0.25991747009E+04 0.  0.
        5    1    3    3  502    0 -0.64785507620E+03  0.70667480110E+03 -0.49546820094E+03  0.10791738981E+04  0.46999998093E+01 0.  1.
       -5    1    3    3    0  502  0.64785507620E+03 -0.70667480110E+03  0.13521545861E+04  0.16575432389E+04  0.46999998093E+01 0. -1.
</event>
<event>
 5   0  0.1032076E-06  0.2612535E+04  0.7818609E-02  0.8363956E-01
        1   -1    0    0  501    0  0.00000000000E+00  0.00000000000E+00  0.16599749042E+04  0.16599749042E+04  0.50400001928E-02 0. -1.
       -1   -1    0    0    0  501  0.00000000000E+00  0.00000000000E+00 -0.10279283154E+04  0.10279283154E+04  0.50400001928E-02 0.  1.
    10030    2    1    2    0    0  0.00000000000E+00  0.00000000000E+00  0.63204658883E+03  0.26879032196E+04  0.26125353256E+04 0.  0.
        1    1    3    3  502    0  0.68021546880E+03  0.19960229986E+03 -0.81280741038E+03  0.10785128875E+04  0.50400001928E-02 0.  1.
       -1    1    3    3    0  502 -0.68021546880E+03 -0.19960229986E+03  0.14448539992E+04  0.16093903321E+04  0.50400001928E-02 0. -1.
</event>
<event>
 5   0  0.2705807E-06  0.2600192E+04  0.7818609E-02  0.8368136E-01
        2   -1    0    0  501    0  0.00000000000E+00  0.00000000000E+00  0.17627883700E+04  0.17627883700E+04  0.25500000920E-02 0. -1.
       -2   -1    0    0    0  501  0.00000000000E+00  0.00000000000E+00 -0.95884994044E+03  0.95884994044E+03  0.25500000920E-02 0.  1.
    10030    2    1    2    0    0  0.00000000000E+00  0.00000000000E+00  0.80393842958E+03  0.27216383105E+04  0.26001919342E+04 0.  0.
        4    1    3    3  502    0  0.13406598614E+03  0.12931499764E+04  0.39557138639E+03  0.13589293155E+04  0.12699999809E+01 0.  1.
       -4    1    3    3    0  502 -0.13406598614E+03 -0.12931499764E+04  0.40836704320E+03  0.13627089949E+04  0.12699999809E+01 0. -1.
</event>
<event>
 5   0  0.1088757E-06  0.2600045E+04  0.7818609E-02  0.8368186E-01
        1   -1    0    0  501    0  0.00000000000E+00  0.00000000000E+00  0.21330265659E+04  0.21330265660E+04  0.50400001928E-02 0. -1.
       -1   -1    0    0    0  501  0.00000000000E+00  0.00000000000E+00 -0.79232890667E+03  0.79232890669E+03  0.50400001928E-02 0.  1.
    10030    2    1    2    0    0  0.00000000000E+00  0.00000000000E+00  0.13406976593E+04  0.29253554726E+04  0.26000450819E+04 0.  0.
        5    1    3    3  502    0 -0.34500005690E+03  0.30750023425E+03  0.20374727689E+04  0.20892340241E+04  0.46999998093E+01 0. -1.
       -5    1    3    3    0  502  0.34500005690E+03 -0.30750023425E+03 -0.69677510964E+03  0.83612144856E+03  0.46999998093E+01 0.  1.
</event>
<event>
 5   0  0.2820028E-06  0.2602998E+04  0.7818609E-02  0.8367183E-01
        2   -1    0    0  501    0  0.00000000000E+00  0.00000000000E+00  0.20986561055E+04  0.20986561055E+04  0.25500000920E-02 0. -1.
       -2   -1    0    0    0  501  0.00000000000E+00  0.00000000000E+00 -0.80713553960E+03  0.80713553960E+03  0.25500000920E-02 0.  1.
    10030    2    1    2    0    0  0.00000000000E+00  0.00000000000E+00  0.12915205659E+04  0.29057916451E+04  0.26029982160E+04 0.  0.
        3    1    3    3  502    0  0.96623526387E+03 -0.69374783091E+03  0.56108990726E+02  0.11908168907E+04  0.10100000352E+00 0. -1.
       -3    1    3    3    0  502 -0.96623526387E+03  0.69374783091E+03  0.12354115751E+04  0.17149747544E+04  0.10100000352E+00 0.  1.
</event>
<event>
 5   0  0.2820028E-06  0.2605437E+04  0.7818609E-02  0.8366357E-01
       -2   -1    0    0    0  501  0.00000000000E+00  0.00000000000E+00  0.12831394456E+04  0.12831394456E+04  0.25500000920E-02 0.  1.
        2   -1    0    0  501    0  0.00000000000E+00  0.00000000000E+00 -0.13225959810E+04  0.13225959810E+04  0.25500000920E-02 0. -1.
    10030    2    1    2    0    0  0.00000000000E+00  0.00000000000E+00 -0.39456535465E+02  0.26057354266E+04  0.26054366804E+04 0.  0.
        3    1    3    3  502    0  0.35868972076E+03 -0.11337945000E+04 -0.55169787733E+03  0.13109228971E+04  0.10100000352E+00 0. -1.
       -3    1    3    3    0  502 -0.35868972076E+03  0.11337945000E+04  0.51224134187E+03  0.12948125295E+04  0.10100000352E+00 0.  1.
</event>
<event>
 5   0  0.1055179E-06  0.2594004E+04  0.7818609E-02  0.8370241E-01
        1   -1    0    0  501    0  0.00000000000E+00  0.00000000000E+00  0.16733811031E+04  0.16733811031E+04  0.50400001928E-02 0.  1.
       -1   -1    0    0    0  501  0.00000000000E+00  0.00000000000E+00 -0.10052788656E+04  0.10052788656E+04  0.50400001928E-02 0. -1.
    10030    2    1    2    0    0  0.00000000000E+00  0.00000000000E+00  0.66810223752E+03  0.26786599687E+04  0.25940043617E+04 0.  0.
        3    1    3    3  502    0  0.64062864077E+03  0.12640781002E+03  0.14912617792E+04  0.16279575222E+04  0.10100000352E+00 0.  1.
       -3    1    3    3    0  502 -0.64062864077E+03 -0.12640781002E+03 -0.82315954170E+03  0.10507024465E+04  0.10100000352E+00 0. -1.
</event>
<event>
 5   0  0.2746631E-06  0.2597999E+04  0.7818609E-02  0.8368881E-01
       -2   -1    0    0    0  501  0.00000000000E+00  0.00000000000E+00  0.11238373243E+04  0.11238373244E+04  0.25500000920E-02 0. -1.
        2   -1    0    0  501    0  0.00000000000E+00  0.00000000000E+00 -0.15014622988E+04  0.15014622988E+04  0.25500000920E-02 0.  1.
    10030    2    1    2    0    0  0.00000000000E+00  0.00000000000E+00 -0.37762497450E+03  0.26252996232E+04  0.25979987472E+04 0.  0.
        2    1    3    3  502    0 -0.20768534609E+03 -0.11357075570E+04 -0.79041264606E+03  0.13991844085E+04  0.25500000920E-02 0.  1.
       -2    1    3    3    0  502  0.20768534609E+03  0.11357075570E+04  0.41278767156E+03  0.12261152147E+04  0.25500000920E-02 0. -1.
</event>
<event>
 5   0  0.2705807E-06  0.2596648E+04  0.7818609E-02  0.8369341E-01
        2   -1    0    0  501    0  0.00000000000E+00  0.00000000000E+00  0.12841427644E+04  0.12841427644E+04  0.25500000920E-02 0. -1.
       -2   -1    0    0    0  501  0.00000000000E+00  0.00000000000E+00 -0.13126623185E+04  0.13126623185E+04  0.25500000920E-02 0.  1.
    10030    2    1    2    0    0  0.00000000000E+00  0.00000000000E+00 -0.28519554110E+02  0.25968050829E+04  0.25966484694E+04 0.  0.
        4    1    3    3  502    0 -0.10645989188E+04 -0.44589457642E+03 -0.60881340086E+03  0.13049322592E+04  0.12699999809E+01 0.  1.
       -4    1    3    3    0  502  0.10645989188E+04  0.44589457642E+03  0.58029384675E+03  0.12918728237E+04  0.12699999809E+01 0. -1.
</event>
<event>
 5   0  0.2705807E-06  0.2600295E+04  0.7818609E-02  0.8368101E-01
        2   -1    0    0  501    0  0.00000000000E+00  0.00000000000E+00  0.17256086615E+04  0.17256086615E+04  0.25500000920E-02 0. -1.
       -2   -1    0    0    0  501  0.00000000000E+00  0.00000000000E+00 -0.97958646396E+03  0.97958646396E+03  0.25500000920E-02 0.  1.
    10030    2    1    2    0    0  0.00000000000E+00  0.00000000000E+00  0.74602219755E+03  0.27051951255E+04  0.26002945117E+04 0.  0.
        4    1    3    3  502    0  0.45260765236E+03  0.67960770157E+03  0.14255887071E+04  0.16428709900E+04  0.12699999809E+01 0. -1.
       -4    1    3    3    0  502 -0.45260765236E+03 -0.67960770157E+03 -0.67956650955E+03  0.10623241355E+04  0.12699999809E+01 0.  1.
</event>
<event>
 5   0  0.1100104E-06  0.2602760E+04  0.7818609E-02  0.8367264E-01
       -1   -1    0    0    0  501  0.00000000000E+00  0.00000000000E+00  0.75829876468E+03  0.75829876470E+03  0.50400001928E-02 0.  1.
        1   -1    0    0  501    0  0.00000000000E+00  0.00000000000E+00 -0.22334069646E+04  0.22334069646E+04  0.50400001928E-02 0. -1.
    10030    2    1    2    0    0  0.00000000000E+00  0.00000000000E+00 -0.14751082000E+04  0.29917057293E+04  0.26027598755E+04 0.  0.
        4    1    3    3  502    0 -0.22671555503E+03 -0.97392458919E+03  0.21976739052E+03  0.10238302433E+04  0.12699999809E+01 0.  1.
       -4    1    3    3    0  502  0.22671555503E+03  0.97392458919E+03 -0.16948755905E+04  0.19678754860E+04  0.12699999809E+01 0. -1.
</event>
<event>
 5   0  0.1055179E-06  0.2600275E+04  0.7818609E-02  0.8368108E-01
        1   -1    0    0  501    0  0.00000000000E+00  0.00000000000E+00  0.15681538415E+04  0.15681538415E+04  0.50400001928E-02 0.  1.
       -1   -1    0    0    0  501  0.00000000000E+00  0.00000000000E+00 -0.10779286302E+04  0.10779286302E+04  0.50400001928E-02 0. -1.
    10030    2    1    2    0    0  0.00000000000E+00  0.00000000000E+00  0.49022521135E+03  0.26460824717E+04  0.26002753103E+04 0.  0.
        3    1    3    3  502    0 -0.96131799633E+03 -0.12519152499E+02 -0.64555971783E+03  0.11580312512E+04  0.10100000352E+00 0. -1.
       -3    1    3    3    0  502  0.96131799633E+03  0.12519152499E+02  0.11357849292E+04  0.14880512205E+04  0.10100000352E+00 0.  1.
</event>
<event>
 5   0  0.1032076E-06  0.2604093E+04  0.7818609E-02  0.8366812E-01
        1   -1    0    0  501    0  0.00000000000E+00  0.00000000000E+00  0.23963818975E+04  0.23963818975E+04  0.50400001928E-02 0.  1.
       -1   -1    0    0    0  501  0.00000000000E+00  0.00000000000E+00 -0.70745200559E+03  0.70745200560E+03  0.50400001928E-02 0. -1.
    10030    2    1    2    0    0  0.00000000000E+00  0.00000000000E+00  0.16889298919E+04  0.31038339031E+04  0.26040930702E+04 0.  0.
        1    1    3    3  502    0 -0.11086366592E+04 -0.60275302176E+03  0.12268768284E+04  0.17600037498E+04  0.50400001928E-02 0. -1.
       -1    1    3    3    0  502  0.11086366592E+04  0.60275302176E+03  0.46205306350E+03  0.13438301533E+04  0.50400001928E-02 0.  1.
</event>
<event>
 5   0  0.1100104E-06  0.2660883E+04  0.7818609E-02  0.8347810E-01
        1   -1    0    0  501    0  0.00000000000E+00  0.00000000000E+00  0.92486824186E+03  0.92486824187E+03  0.50400001928E-02 0.  1.
       -1   -1    0    0    0  501  0.00000000000E+00  0.00000000000E+00 -0.19138665321E+04  0.19138665321E+04  0.50400001928E-02 0. -1.
    10030    2    1    2    0    0  0.00000000000E+00  0.00000000000E+00 -0.98899829026E+03  0.28387347740E+04  0.26608828420E+04 0.  0.
        4    1    3    3  502    0  0.12641909748E+04  0.29395162282E+03 -0.18257604432E+03  0.13106952362E+04  0.12699999809E+01 0.  1.
       -4    1    3    3    0  502 -0.12641909748E+04 -0.29395162282E+03 -0.80642224595E+03  0.15280395378E+04  0.12699999809E+01 0. -1.
</event>
<event>
 5   0  0.1032076E-06  0.2597145E+04  0.7818609E-02  0.8369172E-01
        1   -1    0    0  501    0  0.00000000000E+00  0.00000000000E+00  0.16696373281E+04  0.16696373281E+04  0.50400001928E-02 0. -1.
       -1   -1    0    0    0  501  0.00000000000E+00  0.00000000000E+00 -0.10099741701E+04  0.10099741701E+04  0.50400001928E-02 0.  1.
    10030    2    1    2    0    0  0.00000000000E+00  0.00000000000E+00  0.65966315807E+03  0.26796114982E+04  0.25971450285E+04 0.  0.
        1    1    3    3  502    0 -0.10722220613E+04  0.73226224465E+03  0.30862583527E+03  0.13345853476E+04  0.50400001928E-02 0. -1.
       -1    1    3    3    0  502  0.10722220613E+04 -0.73226224465E+03  0.35103732280E+03  0.13450261506E+04  0.50400001928E-02 0.  1.
</event>
<event>
 5   0  0.2746631E-06  0.2601440E+04  0.7818609E-02  0.8367712E-01
       -2   -1    0    0    0  501  0.00000000000E+00  0.00000000000E+00  0.10558959586E+04  0.10558959586E+04  0.25500000920E-02 0. -1.
        2   -1    0    0  501    0  0.00000000000E+00  0.00000000000E+00 -0.16023100666E+04  0.16023100666E+04  0.25500000920E-02 0.  1.
    10030    2    1    2    0    0  0.00000000000E+00  0.00000000000E+00 -0.54641410798E+03  0.26582060252E+04  0.26014401578E+04 0.  0.
        2    1    3    3  502    0  0.11776484631E+04  0.33822920139E+03 -0.71933204964E+03  0.14208073385E+04  0.25500000920E-02 0.  1.
       -2    1    3    3    0  502 -0.11776484631E+04 -0.33822920139E+03  0.17291794166E+03  0.12373986867E+04  0.25500000920E-02 0. -1.
</event>
<event>
 5   0  0.1100104E-06  0.2599877E+04  0.7818609E-02  0.8368243E-01
        1   -1    0    0  501    0  0.00000000000E+00  0.00000000000E+00  0.20201207612E+04  0.20201207612E+04  0.50400001928E-02 0. -1.
       -1   -1    0    0    0  501  0.00000000000E+00  0.00000000000E+00 -0.83650441855E+03  0.83650441857E+03  0.50400001928E-02 0.  1.
    10030    2    1    2    0    0  0.00000000000E+00  0.00000000000E+00  0.11836163427E+04  0.28566251798E+04  0.25998768761E+04 0.  0.
        4    1    3    3  502    0 -0.55803264769E+03  0.98662868431E+03  0.12910524468E+04  0.17180380176E+04  0.12699999809E+01 0. -1.
       -4    1    3    3    0  502  0.55803264769E+03 -0.98662868431E+03 -0.10743610411E+03  0.11385871622E+04  0.12699999809E+01 0.  1.
</event>
<event>
 5   0  0.2746631E-06  0.2592070E+04  0.7818609E-02  0.8370900E-01
       -2   -1    0    0    0  501  0.00000000000E+00  0.00000000000E+00  0.10567434542E+04  0.10567434543E+04  0.25500000920E-02 0. -1.
        2   -1    0    0  501    0  0.00000000000E+00  0.00000000000E+00 -0.15895117290E+04  0.15895117290E+04  0.25500000920E-02 0.  1.
    10030    2    1    2    0    0  0.00000000000E+00  0.00000000000E+00 -0.53276827479E+03  0.26462551833E+04  0.25920695323E+04 0.  0.
        2    1    3    3  502    0  0.11117963476E+04 -0.21673153627E+02  0.41322331717E+03  0.11863028087E+04  0.25500000920E-02 0. -1.
       -2    1    3    3    0  502 -0.11117963476E+04  0.21673153627E+02 -0.94599159197E+03  0.14599523746E+04  0.25500000920E-02 0.  1.
</event>
<event>
 5   0  0.1032076E-06  0.2604030E+04  0.7818609E-02  0.8366834E-01
       -1   -1    0    0    0  501  0.00000000000E+00  0.00000000000E+00  0.10730761712E+04  0.10730761713E+04  0.50400001928E-02 0. -1.
        1   -1    0    0  501    0  0.00000000000E+00  0.00000000000E+00 -0.15797974403E+04  0.15797974403E+04  0.50400001928E-02 0.  1.
    10030    2    1    2    0    0  0.00000000000E+00  0.00000000000E+00 -0.50672126904E+03  0.26528736115E+04  0.26040299450E+04 0.  0.
        1    1    3    3  502    0 -0.11937508349E+04 -0.48747341603E+03 -0.43722185590E+03  0.13615558522E+04  0.50400001928E-02 0.  1.
       -1    1    3    3    0  502  0.11937508349E+04  0.48747341603E+03 -0.69499413136E+02  0.12913177594E+04  0.50400001928E-02 0. -1.
</event>
<event>
 5   0  0.1055179E-06  0.2600269E+04  0.7818609E-02  0.8368110E-01
        1   -1    0    0  501    0  0.00000000000E+00  0.00000000000E+00  0.11786209662E+04  0.11786209663E+04  0.50400001928E-02 0. -1.
       -1   -1    0    0    0  501  0.00000000000E+00  0.00000000000E+00 -0.14341763219E+04  0.14341763219E+04  0.50400001928E-02 0.  1.
    10030    2    1    2    0    0  0.00000000000E+00  0.00000000000E+00 -0.25555535569E+03  0.26127972882E+04  0.26002694340E+04 0.  0.
        3    1    3    3  502    0  0.68639043768E+03 -0.31898893302E+03  0.93441727455E+03  0.12025063100E+04  0.10100000352E+00 0. -1.
       -3    1    3    3    0  502 -0.68639043768E+03  0.31898893302E+03 -0.11899726302E+04  0.14102909782E+04  0.10100000352E+00 0.  1.
</event>
<event>
 5   0  0.2746631E-06  0.2588289E+04  0.7818609E-02  0.8372190E-01
        2   -1    0    0  501    0  0.00000000000E+00  0.00000000000E+00  0.18776801943E+04  0.18776801943E+04  0.25500000920E-02 0. -1.
       -2   -1    0    0    0  501  0.00000000000E+00  0.00000000000E+00 -0.89195712010E+03  0.89195712011E+03  0.25500000920E-02 0.  1.
    10030    2    1    2    0    0  0.00000000000E+00  0.00000000000E+00  0.98572307418E+03  0.27696373144E+04  0.25882891790E+04 0.  0.
        2    1    3    3  502    0 -0.88175310923E+03  0.72219060830E+03  0.11488055380E+04  0.16182712951E+04  0.25500000920E-02 0.  1.
       -2    1    3    3    0  502  0.88175310923E+03 -0.72219060830E+03 -0.16308246386E+03  0.11513660193E+04  0.25500000920E-02 0. -1.
</event>
<event>
 5   0  0.2586775E-06  0.2600895E+04  0.7818609E-02  0.8367897E-01
       -2   -1    0    0    0  501  0.00000000000E+00  0.00000000000E+00  0.92224893645E+03  0.92224893645E+03  0.25500000920E-02 0.  1.
        2   -1    0    0  501    0  0.00000000000E+00  0.00000000000E+00 -0.18337395232E+04  0.18337395232E+04  0.25500000920E-02 0. -1.
    10030    2    1    2    0    0  0.00000000000E+00  0.00000000000E+00 -0.91149058675E+03  0.27559884597E+04  0.26008954804E+04 0.  0.
        1    1    3    3  502    0  0.78637548563E+03  0.82182852982E+03  0.21222199667E+03  0.11570767964E+04  0.50400001928E-02 0.  1.
       -1    1    3    3    0  502 -0.78637548563E+03 -0.82182852982E+03 -0.11237125834E+04  0.15989116633E+04  0.50400001928E-02 0. -1.
</event>
<event>
 5   0  0.2623368E-06  0.2596941E+04  0.7818609E-02  0.8369241E-01
        2   -1    0    0  501    0  0.00000000000E+00  0.00000000000E+00  0.14846767425E+04  0.14846767425E+04  0.25500000920E-02 0.  1.
       -2   -1    0    0    0  501  0.00000000000E+00  0.00000000000E+00 -0.11356181294E+04  0.11356181294E+04  0.25500000920E-02 0. -1.
    10030    2    1    2    0    0  0.00000000000E+00  0.00000000000E+00  0.34905861306E+03  0.26202948719E+04  0.25969411430E+04 0.  0.
        5    1    3    3  502    0  0.21367592313E+03 -0.20878426782E+03 -0.11004621232E+04  0.11403013835E+04  0.46999998093E+01 0. -1.
       -5    1    3    3    0  502 -0.21367592313E+03  0.20878426782E+03  0.14495207363E+04  0.14799934883E+04  0.46999998093E+01 0.  1.
</event>
<event>
 5   0  0.1100104E-06  0.2602181E+04  0.7818609E-02  0.8367461E-01
       -1   -1    0    0    0  501  0.00000000000E+00  0.00000000000E+00  0.91453171983E+03  0.91453171985E+03  0.50400001928E-02 0.  1.
        1   -1    0    0  501    0  0.00000000000E+00  0.00000000000E+00 -0.18510425399E+04  0.18510425399E+04  0.50400001928E-02 0. -1.
    10030    2    1    2    0    0  0.00000000000E+00  0.00000000000E+00 -0.93651082009E+03  0.27655742598E+04  0.26021814829E+04 0.  0.
        4    1    3    3  502    0  0.12859012266E+04  0.48571516079E+02 -0.67250583120E+03  0.14519527756E+04  0.12699999809E+01 0.  1.
       -4    1    3    3    0  502 -0.12859012266E+04 -0.48571516079E+02 -0.26400498889E+03  0.13136214842E+04  0.12699999809E+01 0. -1.
</event>
<event>
 5   0  0.1032076E-06  0.2590307E+04  0.7818609E-02  0.8371501E-01
       -1   -1    0    0    0  501  0.00000000000E+00  0.00000000000E+00  0.12046967745E+04  0.12046967745E+04  0.50400001928E-02 0.  1.
        1   -1    0    0  501    0  0.00000000000E+00  0.00000000000E+00 -0.13924022329E+04  0.13924022329E+04  0.50400001928E-02 0. -1.
    10030    2    1    2    0    0  0.00000000000E+00  0.00000000000E+00 -0.18770545843E+03  0.25970990074E+04  0.25903069152E+04 0.  0.
        1    1    3    3  502    0  0.10506618040E+04 -0.51210851613E+03  0.46553235409E+03  0.12581199193E+04  0.50400001928E-02 0. -1.
       -1    1    3    3    0  502 -0.10506618040E+04  0.51210851613E+03 -0.65323781251E+03  0.13389790881E+04  0.50400001928E-02 0.  1.
</event>
<event>
 5   0  0.1055179E-06  0.2594861E+04  0.7818609E-02  0.8369949E-01
        1   -1    0    0  501    0  0.00000000000E+00  0.00000000000E+00  0.99857495103E+03  0.99857495104E+03  0.50400001928E-02 0.  1.
       -1   -1    0    0    0  501  0.00000000000E+00  0.00000000000E+00 -0.16857284569E+04  0.16857284569E+04  0.50400001928E-02 0. -1.
    10030    2    1    2    0    0  0.00000000000E+00  0.00000000000E+00 -0.68715350591E+03  0.26843034080E+04  0.25948612382E+04 0.  0.
        3    1    3    3  502    0 -0.92704218976E+03 -0.55148217361E+03 -0.10893896974E+04  0.15330719919E+04  0.10100000352E+00 0. -1.
       -3    1    3    3    0  502  0.92704218976E+03  0.55148217361E+03  0.40223619147E+03  0.11512314161E+04  0.10100000352E+00 0.  1.
</event>
<event>
 5   0  0.2820028E-06  0.2604140E+04  0.7818609E-02  0.8366796E-01
       -2   -1    0    0    0  501  0.00000000000E+00  0.00000000000E+00  0.13769108719E+04  0.13769108719E+04  0.25500000920E-02 0. -1.
        2   -1    0    0  501    0  0.00000000000E+00  0.00000000000E+00 -0.12312973115E+04  0.12312973115E+04  0.25500000920E-02 0.  1.
    10030    2    1    2    0    0  0.00000000000E+00  0.00000000000E+00  0.14561356042E+03  0.26082081834E+04  0.26041402840E+04 0.  0.
        3    1    3    3  502    0  0.61028944266E+02 -0.13006339868E+04  0.69148019238E+02  0.13038998269E+04  0.10100000352E+00 0.  1.
       -3    1    3    3    0  502 -0.61028944266E+02  0.13006339868E+04  0.76465541180E+02  0.13043083565E+04  0.10100000352E+00 0. -1.
</event>
<event>
 5   0  0.2746631E-06  0.2592003E+04  0.7818609E-02  0.8370923E-01
       -2   -1    0    0    0  501  0.00000000000E+00  0.00000000000E+00  0.16276258314E+04  0.16276258314E+04  0.25500000920E-02 0. -1.
        2   -1    0    0  501    0  0.00000000000E+00  0.00000000000E+00 -0.10319448221E+04  0.10319448221E+04  0.25500000920E-02 0.  1.
    10030    2    1    2    0    0  0.00000000000E+00  0.00000000000E+00  0.59568100924E+03  0.26595706535E+04  0.25920031243E+04 0.  0.
        2    1    3    3  502    0  0.36808754784E+02 -0.42823501186E+03 -0.95668405667E+03  0.10488014560E+04  0.25500000920E-02 0.  1.
       -2    1    3    3    0  502 -0.36808754784E+02  0.42823501186E+03  0.15523650659E+04  0.16107691975E+04  0.25500000920E-02 0. -1.
</event>
<event>
 5   0  0.1122628E-06  0.2603447E+04  0.7818609E-02  0.8367031E-01
        1   -1    0    0  501    0  0.00000000000E+00  0.00000000000E+00  0.11017404440E+04  0.11017404440E+04  0.50400001928E-02 0.  1.
       -1   -1    0    0    0  501  0.00000000000E+00  0.00000000000E+00 -0.15380065211E+04  0.15380065211E+04  0.50400001928E-02 0. -1.
    10030    2    1    2    0    0  0.00000000000E+00  0.00000000000E+00 -0.43626607709E+03  0.26397469652E+04  0.26034469363E+04 0.  0.
        2    1    3    3  502    0  0.26934282000E+03  0.12335121597E+04  0.10312244049E+03  0.12667801864E+04  0.25500000920E-02 0.  1.
       -2    1    3    3    0  502 -0.26934282000E+03 -0.12335121597E+04 -0.53938851759E+03  0.13729667788E+04  0.25500000920E-02 0. -1.
</event>
<event>
 5   0  0.1122628E-06  0.2600944E+04  0.7818609E-02  0.8367881E-01
        1   -1    0    0  501    0  0.00000000000E+00  0.00000000000E+00  0.17853534211E+04  0.17853534211E+04  0.50400001928E-02 0.  1.
       -1   -1    0    0    0  501  0.00000000000E+00  0.00000000000E+00 -0.94727868499E+03  0.94727868501E+03  0.50400001928E-02 0. -1.
    10030    2    1    2    0    0  0.00000000000E+00  0.00000000000E+00  0.83807473606E+03  0.27326321061E+04  0.26009438602E+04 0.  0.
        2    1    3    3  502    0 -0.53407059939E+03  0.71564937925E+03 -0.57426282280E+03  0.10616794379E+04  0.25500000920E-02 0. -1.
       -2    1    3    3    0  502  0.53407059939E+03 -0.71564937925E+03  0.14123375589E+04  0.16709526682E+04  0.25500000920E-02 0.  1.
</event>
<event>
 5   0  0.2705807E-06  0.2600406E+04  0.7818609E-02  0.8368063E-01
        2   -1    0    0  501    0  0.00000000000E+00  0.00000000000E+00  0.15470419401E+04  0.15470419401E+04  0.25500000920E-02 0.  1.
       -2   -1    0    0    0  501  0.00000000000E+00  0.00000000000E+00 -0.10927489036E+04  0.10927489036E+04  0.25500000920E-02 0. -1.
    10030    2    1    2    0    0  0.00000000000E+00  0.00000000000E+00  0.45429303656E+03  0.26397908437E+04  0.26004064173E+04 0.  0.
        4    1    3    3  502    0  0.50175359186E+03 -0.83740329425E+03 -0.64465356377E+03  0.11698635708E+04  0.12699999809E+01 0. -1.
       -4    1    3    3    0  502 -0.50175359186E+03  0.83740329425E+03  0.10989466003E+04  0.14699272728E+04  0.12699999809E+01 0.  1.
</event>
<event>
 5   0  0.1055179E-06  0.2597748E+04  0.7818609E-02  0.8368966E-01
       -1   -1    0    0    0  501  0.00000000000E+00  0.00000000000E+00  0.16512152885E+04  0.16512152885E+04  0.50400001928E-02 0. -1.
        1   -1    0    0  501    0  0.00000000000E+00  0.00000000000E+00 -0.10217165347E+04  0.10217165347E+04  0.50400001928E-02 0.  1.
    10030    2    1    2    0    0  0.00000000000E+00  0.00000000000E+00  0.62949875382E+03  0.26729318232E+04  0.25977482269E+04 0.  0.
        3    1    3    3  502    0  0.38823455113E+03  0.10976499340E+04  0.90718448086E+03  0.14759895449E+04  0.10100000352E+00 0.  1.
       -3    1    3    3    0  502 -0.38823455113E+03 -0.10976499340E+04 -0.27768572704E+03  0.11969422783E+04  0.10100000352E+00 0. -1.
</event>
<event>
 5   0  0.2586775E-06  0.2596061E+04  0.7818609E-02  0.8369540E-01
       -2   -1    0    0    0  501  0.00000000000E+00  0.00000000000E+00  0.77196747631E+03  0.77196747631E+03  0.25500000920E-02 0. -1.
        2   -1    0    0  501    0  0.00000000000E+00  0.00000000000E+00 -0.21825829181E+04  0.21825829181E+04  0.25500000920E-02 0.  1.
    10030    2    1    2    0    0  0.00000000000E+00  0.00000000000E+00 -0.14106154417E+04  0.29545503944E+04  0.25960608830E+04 0.  0.
        1    1    3    3  502    0  0.60444517616E+03 -0.55551288967E+03 -0.18496028108E+04  0.20236054702E+04  0.50400001928E-02 0.  1.
       -1    1    3    3    0  502 -0.60444517616E+03  0.55551288967E+03  0.43898736902E+03  0.93094492413E+03  0.50400001928E-02 0. -1.
</event>
<event>
 5   0  0.1122628E-06  0.2597449E+04  0.7818609E-02  0.8369068E-01
       -1   -1    0    0    0  501  0.00000000000E+00  0.00000000000E+00  0.80090403054E+03  0.80090403055E+03  0.50400001928E-02 0.  1.
        1   -1    0    0  501    0  0.00000000000E+00  0.00000000000E+00 -0.21059767480E+04  0.21059767480E+04  0.50400001928E-02 0. -1.
    10030    2    1    2    0    0  0.00000000000E+00  0.00000000000E+00 -0.13050727174E+04  0.29068807785E+04  0.25974489529E+04 0.  0.
        2    1    3    3  502    0 -0.72407145370E+03 -0.39558670689E+03  0.46989880208E+03  0.94951208362E+03  0.25500000920E-02 0.  1.
       -2    1    3    3    0  502  0.72407145370E+03  0.39558670689E+03 -0.17749715195E+04  0.19573686949E+04  0.25500000920E-02 0. -1.
</event>
<event>
 5   0  0.1100104E-06  0.2602379E+04  0.7818609E-02  0.8367393E-01
       -1   -1    0    0    0  501  0.00000000000E+00  0.00000000000E+00  0.99487064531E+03  0.99487064533E+03  0.50400001928E-02 0. -1.
        1   -1    0    0  501    0  0.00000000000E+00  0.00000000000E+00 -0.17018236181E+04  0.17018236181E+04  0.50400001928E-02 0.  1.
    10030    2    1    2    0    0  0.00000000000E+00  0.00000000000E+00 -0.70695297278E+03  0.26966942634E+04  0.26023791893E+04 0.  0.
        4    1    3    3  502    0 -0.47723401730E+03  0.11762294546E+04 -0.57059304263E+02  0.12706397657E+04  0.12699999809E+01 0. -1.
       -4    1    3    3    0  502  0.47723401730E+03 -0.11762294546E+04 -0.64989366852E+03  0.14260544977E+04  0.12699999809E+01 0.  1.
</event>
<event>
 5   0  0.2705807E-06  0.2598383E+04  0.7818609E-02  0.8368751E-01
       -2   -1    0    0    0  501  0.00000000000E+00  0.00000000000E+00  0.83184784584E+03  0.83184784585E+03  0.25500000920E-02 0.  1.
        2   -1    0    0  501    0  0.00000000000E+00  0.00000000000E+00 -0.20290957976E+04  0.20290957976E+04  0.25500000920E-02 0. -1.
    10030    2    1    2    0    0  0.00000000000E+00  0.00000000000E+00 -0.11972479518E+04  0.28609436435E+04  0.25983833191E+04 0.  0.
        4    1    3    3  502    0  0.81277394004E+03 -0.10135081137E+04 -0.58776978778E+03  0.14259295601E+04  0.12699999809E+01 0. -1.
       -4    1    3    3    0  502 -0.81277394004E+03  0.10135081137E+04 -0.60947816400E+03  0.14350140833E+04  0.12699999809E+01 0.  1.
</event>
<event>
 5   0  0.2746631E-06  0.2596408E+04  0.7818609E-02  0.8369422E-01
       -2   -1    0    0    0  501  0.00000000000E+00  0.00000000000E+00  0.92633200694E+03  0.92633200694E+03  0.25500000920E-02 0. -1.
        2   -1    0    0  501    0  0.00000000000E+00  0.00000000000E+00 -0.18193619733E+04  0.18193619733E+04  0.25500000920E-02 0.  1.
    10030    2    1    2    0    0  0.00000000000E+00  0.00000000000E+00 -0.89302996639E+03  0.27456939803E+04  0.25964076938E+04 0.  0.
        2    1    3    3  502    0 -0.10517233630E+03 -0.68462588111E+02 -0.18129327363E+04  0.18172708804E+04  0.25500000920E-02 0.  1.
       -2    1    3    3    0  502  0.10517233630E+03  0.68462588111E+02  0.91990276992E+03  0.92842309989E+03  0.25500000920E-02 0. -1.
</event>
<event>
 5   0  0.1088757E-06  0.2596939E+04  0.7818609E-02  0.8369242E-01
       -1   -1    0    0    0  501  0.00000000000E+00  0.00000000000E+00  0.16516923031E+04  0.16516923031E+04  0.50400001928E-02 0.  1.
        1   -1    0    0  501    0  0.00000000000E+00  0.00000000000E+00 -0.10207854653E+04  0.10207854653E+04  0.50400001928E-02 0. -1.
    10030    2    1    2    0    0  0.00000000000E+00  0.00000000000E+00  0.63090683779E+03  0.26724777684E+04  0.25969393494E+04 0.  0.
        5    1    3    3  502    0  0.10634975710E+04  0.73458140611E+03  0.18789438153E+03  0.13061253058E+04  0.46999998093E+01 0. -1.
       -5    1    3    3    0  502 -0.10634975710E+04 -0.73458140611E+03  0.44301245626E+03  0.13663524626E+04  0.46999998093E+01 0.  1.
</event>
<event>
 5   0  0.2623368E-06  0.2598868E+04  0.7818609E-02  0.8368586E-01
       -2   -1    0    0    0  501  0.00000000000E+00  0.00000000000E+00  0.79763232211E+03  0.79763232212E+03  0.25500000920E-02 0. -1.
        2   -1    0    0  501    0  0.00000000000E+00  0.00000000000E+00 -0.21169255335E+04  0.21169255336E+04  0.25500000920E-02 0.  1.
    10030    2    1    2    0    0  0.00000000000E+00  0.00000000000E+00 -0.13192932114E+04  0.29145578557E+04  0.25988676219E+04 0.  0.
        5    1    3    3  502    0 -0.47476901955E+03 -0.72016070788E+03 -0.17495359152E+04  0.19506242785E+04  0.46999998093E+01 0.  1.
       -5    1    3    3    0  502  0.47476901955E+03  0.72016070788E+03  0.43024270378E+03  0.96393357720E+03  0.46999998093E+01 0. -1.
</event>
<event>
 5   0  0.2746631E-06  0.2608956E+04  0.7818609E-02  0.8365166E-01
        2   -1    0    0  501    0  0.00000000000E+00  0.00000000000E+00  0.11486412111E+04  0.11486412111E+04  0.25500000920E-02 0.  1.
       -2   -1    0    0    0  501  0.00000000000E+00  0.00000000000E+00 -0.14814568083E+04  0.14814568083E+04  0.25500000920E-02 0. -1.
    10030    2    1    2    0    0  0.00000000000E+00  0.00000000000E+00 -0.33281559723E+03  0.26300980194E+04  0.26089556090E+04 0.  0.
        2    1    3    3  502    0  0.27767131740E+03 -0.21186175083E+03  0.11006289082E+04  0.11547167426E+04  0.25500000920E-02 0.  1.
       -2    1    3    3    0  502 -0.27767131740E+03  0.21186175083E+03 -0.14334445054E+04  0.14753812769E+04  0.25500000920E-02 0. -1.
</event>
<event>
 5   0  0.2623368E-06  0.2601671E+04  0.7818609E-02  0.8367634E-01
       -2   -1    0    0    0  501  0.00000000000E+00  0.00000000000E+00  0.11378193316E+04  0.11378193316E+04  0.25500000920E-02 0.  1.
        2   -1    0    0  501    0  0.00000000000E+00  0.00000000000E+00 -0.14872066767E+04  0.14872066767E+04  0.25500000920E-02 0. -1.
    10030    2    1    2    0    0  0.00000000000E+00  0.00000000000E+00 -0.34938734511E+03  0.26250260082E+04  0.26016706223E+04 0.  0.
        5    1    3    3  502    0  0.90197710566E+03  0.72096031420E+03 -0.77907341764E+03  0.13929551155E+04  0.46999998093E+01 0.  1.
       -5    1    3    3    0  502 -0.90197710566E+03 -0.72096031420E+03  0.42968607252E+03  0.12320708927E+04  0.46999998093E+01 0. -1.
</event>
<event>
 5   0  0.1055179E-06  0.2603141E+04  0.7818609E-02  0.8367135E-01
        1   -1    0    0  501    0  0.00000000000E+00  0.00000000000E+00  0.16396431499E+04  0.16396431500E+04  0.50400001928E-02 0.  1.
       -1   -1    0    0    0  501  0.00000000000E+00  0.00000000000E+00 -0.10332039635E+04  0.10332039636E+04  0.50400001928E-02 0. -1.
    10030    2    1    2    0    0  0.00000000000E+00  0.00000000000E+00  0.60643918641E+03  0.26728471135E+04  0.26031410268E+04 0.  0.
        3    1    3    3  502    0 -0.11749962483E+04 -0.47580871390E+03  0.23199884666E+00  0.12676790523E+04  0.10100000352E+00 0. -1.
       -3    1    3    3    0  502  0.11749962483E+04  0.47580871390E+03  0.60620718756E+03  0.14051680612E+04  0.10100000352E+00 0.  1.
</event>
<event>
 5   0  0.2586775E-06  0.2629629E+04  0.7818609E-02  0.8358206E-01
        2   -1    0    0  501    0  0.00000000000E+00  0.00000000000E+00  0.18063818014E+04  0.18063818014E+04  0.25500000920E-02 0. -1.
       -2   -1    0    0    0  501  0.00000000000E+00  0.00000000000E+00 -0.95701668475E+03  0.95701668475E+03  0.25500000920E-02 0.  1.
    10030    2    1    2    0    0  0.00000000000E+00  0.00000000000E+00  0.84936511670E+03  0.27633984862E+04  0.26296292689E+04 0.  0.
        1    1    3    3  502    0  0.19481033504E+03  0.12897057864E+04  0.25058844093E+03  0.13281892368E+04  0.50400001928E-02 0.  1.
       -1    1    3    3    0  502 -0.19481033504E+03 -0.12897057864E+04  0.59877667577E+03  0.14352092494E+04  0.50400001928E-02 0. -1.
</event>
<event>
 5   0  0.1055179E-06  0.2598557E+04  0.7818609E-02  0.8368692E-01
        1   -1    0    0  501    0  0.00000000000E+00  0.00000000000E+00  0.13546061389E+04  0.13546061389E+04  0.50400001928E-02 0. -1.
       -1   -1    0    0    0  501  0.00000000000E+00  0.00000000000E+00 -0.12462104534E+04  0.12462104534E+04  0.50400001928E-02 0.  1.
    10030    2    1    2    0    0  0.00000000000E+00  0.00000000000E+00  0.10839568558E+03  0.26008165923E+04  0.25985567768E+04 0.  0.
        3    1    3    3  502    0  0.55052468109E+03  0.43235507755E+03  0.11497345853E+04  0.13460675928E+04  0.10100000352E+00 0. -1.
       -3    1    3    3    0  502 -0.55052468109E+03 -0.43235507755E+03 -0.10413388997E+04  0.12547489995E+04  0.10100000352E+00 0.  1.
</event>
<event>
 5   0  0.2746631E-06  0.2581278E+04  0.7818609E-02  0.8374589E-01
        2   -1    0    0  501    0  0.00000000000E+00  0.00000000000E+00  0.18580985045E+04  0.18580985045E+04  0.25500000920E-02 0. -1.
       -2   -1    0    0    0  501  0.00000000000E+00  0.00000000000E+00 -0.89648027156E+03  0.89648027156E+03  0.25500000920E-02 0.  1.
    10030    2    1    2    0    0  0.00000000000E+00  0.00000000000E+00  0.96161823290E+03  0.27545787760E+04  0.25812777083E+04 0.  0.
        2    1    3    3  502    0  0.80722721291E+03 -0.76511838781E+02 -0.59073680510E+03  0.10032147366E+04  0.25500000920E-02 0.  1.
       -2    1    3    3    0  502 -0.80722721291E+03  0.76511838781E+02  0.15523550380E+04  0.17513640395E+04  0.25500000920E-02 0. -1.
</event>
<event>
 5   0  0.2820028E-06  0.2601791E+04  0.7818609E-02  0.8367593E-01
       -2   -1    0    0    0  501  0.00000000000E+00  0.00000000000E+00  0.60672708130E+03  0.60672708130E+03  0.25500000920E-02 0. -1.
        2   -1    0    0  501    0  0.00000000000E+00  0.00000000000E+00 -0.27892753768E+04  0.27892753768E+04  0.25500000920E-02 0.  1.
    10030    2    1    2    0    0  0.00000000000E+00  0.00000000000E+00 -0.21825482955E+04  0.33960024581E+04  0.26017908512E+04 0.  0.
        3    1    3    3  502    0 -0.12259675807E+03 -0.93341120179E+03  0.80582731854E+02  0.94487037396E+03  0.10100000352E+00 0. -1.
       -3    1    3    3    0  502  0.12259675807E+03  0.93341120179E+03 -0.22631310273E+04  0.24511320841E+04  0.10100000352E+00 0.  1.
</event>
<event>
 5   0  0.2586775E-06  0.2594161E+04  0.7818609E-02  0.8370187E-01
       -2   -1    0    0    0  501  0.00000000000E+00  0.00000000000E+00  0.70037311128E+03  0.70037311129E+03  0.25500000920E-02 0. -1.
        2   -1    0    0  501    0  0.00000000000E+00  0.00000000000E+00 -0.24021729632E+04  0.24021729632E+04  0.25500000920E-02 0.  1.
    10030    2    1    2    0    0  0.00000000000E+00  0.00000000000E+00 -0.17017998519E+04  0.31025460745E+04  0.25941606366E+04 0.  0.
        1    1    3    3  502    0  0.13615516239E+02  0.73339747085E+03  0.42848942582E+03  0.84950598620E+03  0.50400001928E-02 0. -1.
       -1    1    3    3    0  502 -0.13615516239E+02 -0.73339747085E+03 -0.21302892778E+04  0.22530400883E+04  0.50400001928E-02 0.  1.
</event>
<event>
 5   0  0.2623368E-06  0.2594221E+04  0.7818609E-02  0.8370167E-01
       -2   -1    0    0    0  501  0.00000000000E+00  0.00000000000E+00  0.10877781194E+04  0.10877781194E+04  0.25500000920E-02 0.  1.
        2   -1    0    0  501    0  0.00000000000E+00  0.00000000000E+00 -0.15467266967E+04  0.15467266967E+04  0.25500000920E-02 0. -1.
    10030    2    1    2    0    0  0.00000000000E+00  0.00000000000E+00 -0.45894857738E+03  0.26345048161E+04  0.25942208521E+04 0.  0.
        5    1    3    3  502    0  0.62957718391E+03  0.10142669779E+04 -0.74466697752E+03  0.14070024629E+04  0.46999998093E+01 0.  1.
       -5    1    3    3    0  502 -0.62957718391E+03 -0.10142669779E+04  0.28571840015E+03  0.12275023533E+04  0.46999998093E+01 0. -1.
</event>
<event>
 5   0  0.1100104E-06  0.2594228E+04  0.7818609E-02  0.8370165E-01
        1   -1    0    0  501    0  0.00000000000E+00  0.00000000000E+00  0.21372581882E+04  0.21372581882E+04  0.50400001928E-02 0. -1.
       -1   -1    0    0    0  501  0.00000000000E+00  0.00000000000E+00 -0.78722562832E+03  0.78722562834E+03  0.50400001928E-02 0.  1.
    10030    2    1    2    0    0  0.00000000000E+00  0.00000000000E+00  0.13500325599E+04  0.29244838166E+04  0.25942277619E+04 0.  0.
        4    1    3    3  502    0 -0.10713270520E+04  0.72554123796E+03  0.57199851955E+03  0.14146857105E+04  0.12699999809E+01 0.  1.
       -4    1    3    3    0  502  0.10713270520E+04 -0.72554123796E+03  0.77803404037E+03  0.15097981061E+04  0.12699999809E+01 0. -1.
</event>
<event>
 5   0  0.1088757E-06  0.2578966E+04  0.7818609E-02  0.8375381E-01
       -1   -1    0    0    0  501  0.00000000000E+00  0.00000000000E+00  0.12327481281E+04  0.12327481281E+04  0.50400001928E-02 0.  1.
        1   -1    0    0  501    0  0.00000000000E+00  0.00000000000E+00 -0.13488295085E+04  0.13488295085E+04  0.50400001928E-02 0. -1.
    10030    2    1    2    0    0  0.00000000000E+00  0.00000000000E+00 -0.11608138039E+03  0.25815776366E+04  0.25789664998E+04 0.  0.
        5    1    3    3  502    0  0.27982852703E+03  0.11028036360E+04  0.54942222472E+03  0.12634740737E+04  0.46999998093E+01 0. -1.
       -5    1    3    3    0  502 -0.27982852703E+03 -0.11028036360E+04 -0.66550360510E+03  0.13181035629E+04  0.46999998093E+01 0.  1.
</event>
<event>
 5   0  0.2705807E-06  0.2598655E+04  0.7818609E-02  0.8368658E-01
        2   -1    0    0  501    0  0.00000000000E+00  0.00000000000E+00  0.19713083095E+04  0.19713083095E+04  0.25500000920E-02 0. -1.
       -2   -1    0    0    0  501  0.00000000000E+00  0.00000000000E+00 -0.85641210996E+03  0.85641210996E+03  0.25500000920E-02 0.  1.
    10030    2    1    2    0    0  0.00000000000E+00  0.00000000000E+00  0.11148961996E+04  0.28277204195E+04  0.25986552744E+04 0.  0.
        4    1    3    3  502    0  0.55681574775E+03 -0.24378790207E+03 -0.69215774109E+03  0.92117331137E+03  0.12699999809E+01 0.  1.
       -4    1    3    3    0  502 -0.55681574775E+03  0.24378790207E+03  0.18070539406E+04  0.19065471081E+04  0.12699999809E+01 0. -1.
</event>
<event>
 5   0  0.1100104E-06  0.2601261E+04  0.7818609E-02  0.8367773E-01
        1   -1    0    0  501    0  0.00000000000E+00  0.00000000000E+00  0.20720006427E+04  0.20720006427E+04  0.50400001928E-02 0.  1.
       -1   -1    0    0    0  501  0.00000000000E+00  0.00000000000E+00 -0.81642785893E+03  0.81642785894E+03  0.50400001928E-02 0. -1.
    10030    2    1    2    0    0  0.00000000000E+00  0.00000000000E+00  0.12555727838E+04  0.28884285016E+04  0.26012605009E+04 0.  0.
        4    1    3    3  502    0  0.13274567833E+02 -0.95924116069E+03 -0.34741519826E+03  0.10203032644E+04  0.12699999809E+01 0. -1.
       -4    1    3    3    0  502 -0.13274567833E+02  0.95924116069E+03  0.16029879820E+04  0.18681252372E+04  0.12699999809E+01 0.  1.
</event>
<event>
 5   0  0.1032076E-06  0.2601054E+04  0.7818609E-02  0.8367843E-01
       -1   -1    0    0    0  501  0.00000000000E+00  0.00000000000E+00  0.16549345208E+04  0.16549345208E+04  0.50400001928E-02 0.  1.
        1   -1    0    0  501    0  0.00000000000E+00  0.00000000000E+00 -0.10220162003E+04  0.10220162003E+04  0.50400001928E-02 0. -1.
    10030    2    1    2    0    0  0.00000000000E+00  0.00000000000E+00  0.63291832051E+03  0.26769507211E+04  0.26010535486E+04 0.  0.
        1    1    3    3  502    0  0.48654366492E+03 -0.64028197746E+03 -0.73546295205E+03  0.10897667193E+04  0.50400001928E-02 0. -1.
       -1    1    3    3    0  502 -0.48654366492E+03  0.64028197746E+03  0.13683812726E+04  0.15871840018E+04  0.50400001928E-02 0.  1.
</event>
<event>
 5   0  0.2586775E-06  0.2598937E+04  0.7818609E-02  0.8368562E-01
        2   -1    0    0  501    0  0.00000000000E+00  0.00000000000E+00  0.95978174702E+03  0.95978174702E+03  0.25500000920E-02 0.  1.
       -2   -1    0    0    0  501  0.00000000000E+00  0.00000000000E+00 -0.17593780268E+04  0.17593780268E+04  0.25500000920E-02 0. -1.
    10030    2    1    2    0    0  0.00000000000E+00  0.00000000000E+00 -0.79959627981E+03  0.27191597739E+04  0.25989374108E+04 0.  0.
        1    1    3    3  502    0 -0.79837468781E+03 -0.10074341554E+04 -0.20047784663E+03  0.13009677500E+04  0.50400001928E-02 0.  1.
       -1    1    3    3    0  502  0.79837468781E+03  0.10074341554E+04 -0.59911843319E+03  0.14181920239E+04  0.50400001928E-02 0. -1.
</event>
<event>
 5   0  0.1088757E-06  0.2598866E+04  0.7818609E-02  0.8368586E-01
        1   -1    0    0  501    0  0.00000000000E+00  0.00000000000E+00  0.13793557517E+04  0.13793557518E+04  0.50400001928E-02 0.  1.
       -1   -1    0    0    0  501  0.00000000000E+00  0.00000000000E+00 -0.12241414228E+04  0.12241414228E+04  0.50400001928E-02 0. -1.
    10030    2    1    2    0    0  0.00000000000E+00  0.00000000000E+00  0.15521432894E+03  0.26034971746E+04  0.25988663009E+04 0.  0.
        5    1    3    3  502    0  0.11663573470E+04  0.35255792726E+03  0.52987354115E+03  0.13287116364E+04  0.46999998093E+01 0.  1.
       -5    1    3    3    0  502 -0.11663573470E+04 -0.35255792726E+03 -0.37465921222E+03  0.12747855382E+04  0.46999998093E+01 0. -1.
</event>
<event>
 5   0  0.2705807E-06  0.2598917E+04  0.7818609E-02  0.8368569E-01
        2   -1    0    0  501    0  0.00000000000E+00  0.00000000000E+00  0.16161422386E+04  0.16161422386E+04  0.25500000920E-02 0.  1.
       -2   -1    0    0    0  501  0.00000000000E+00  0.00000000000E+00 -0.10448293846E+04  0.10448293846E+04  0.25500000920E-02 0. -1.
    10030    2    1    2    0    0  0.00000000000E+00  0.00000000000E+00  0.57131285398E+03  0.26609716232E+04  0.25989173904E+04 0.  0.
        4    1    3    3  502    0 -0.29836023758E+03 -0.82262442455E+03  0.12692507992E+04  0.15416643537E+04  0.12699999809E+01 0.  1.
       -4    1    3    3    0  502  0.29836023758E+03  0.82262442455E+03 -0.69793794522E+03  0.11193072695E+04  0.12699999809E+01 0. -1.
</event>
<event>
 5   0  0.2586775E-06  0.2577087E+04  0.7818609E-02  0.8376026E-01
        2   -1    0    0  501    0  0.00000000000E+00  0.00000000000E+00  0.85514333907E+03  0.85514333907E+03  0.25500000920E-02 0. -1.
       -2   -1    0    0    0  501  0.00000000000E+00  0.00000000000E+00 -0.19415977273E+04  0.19415977273E+04  0.25500000920E-02 0.  1.
    10030    2    1    2    0    0  0.00000000000E+00  0.00000000000E+00 -0.10864543883E+04  0.27967410664E+04  0.25770870095E+04 0.  0.
        1    1    3    3  502    0 -0.12188280476E+03 -0.94302290160E+03  0.40048720542E+03  0.10317643204E+04  0.50400001928E-02 0. -1.
       -1    1    3    3    0  502  0.12188280476E+03  0.94302290160E+03 -0.14869415937E+04  0.17649767461E+04  0.50400001928E-02 0.  1.
</event>
<event>
 5   0  0.2820028E-06  0.2606361E+04  0.7818609E-02  0.8366044E-01
        2   -1    0    0  501    0  0.00000000000E+00  0.00000000000E+00  0.13001691101E+04  0.13001691101E+04  0.25500000920E-02 0. -1.
       -2   -1    0    0    0  501  0.00000000000E+00  0.00000000000E+00 -0.13061992474E+04  0.13061992474E+04  0.25500000920E-02 0.  1.
    10030    2    1    2    0    0  0.00000000000E+00  0.00000000000E+00 -0.60301373229E+01  0.26063683576E+04  0.26063613819E+04 0.  0.
        3    1    3    3  502    0 -0.52738489411E+03  0.10355365055E+04  0.58674003639E+03  0.13018197115E+04  0.10100000352E+00 0. -1.
       -3    1    3    3    0  502  0.52738489411E+03 -0.10355365055E+04 -0.59277017371E+03  0.13045486460E+04  0.10100000352E+00 0.  1.
</event>
<event>
 5   0  0.2746631E-06  0.2606148E+04  0.7818609E-02  0.8366116E-01
       -2   -1    0    0    0  501  0.00000000000E+00  0.00000000000E+00  0.10925028258E+04  0.10925028258E+04  0.25500000920E-02 0. -1.
        2   -1    0    0  501    0  0.00000000000E+00  0.00000000000E+00 -0.15542307344E+04  0.15542307344E+04  0.25500000920E-02 0.  1.
    10030    2    1    2    0    0  0.00000000000E+00  0.00000000000E+00 -0.46172790864E+03  0.26467335602E+04  0.26061477083E+04 0.  0.
        2    1    3    3  502    0 -0.11921375081E+04 -0.40851472580E+02 -0.76357130105E+03  0.14162986312E+04  0.25500000920E-02 0.  1.
       -2    1    3    3    0  502  0.11921375081E+04  0.40851472580E+02  0.30184339241E+03  0.12304349290E+04  0.25500000920E-02 0. -1.
</event>
<event>
 5   0  0.2586775E-06  0.2579436E+04  0.7818609E-02  0.8375220E-01
        2   -1    0    0  501    0  0.00000000000E+00  0.00000000000E+00  0.26201616547E+04  0.26201616547E+04  0.25500000920E-02 0. -1.
       -2   -1    0    0    0  501  0.00000000000E+00  0.00000000000E+00 -0.63483593487E+03  0.63483593487E+03  0.25500000920E-02 0.  1.
    10030    2    1    2    0    0  0.00000000000E+00  0.00000000000E+00  0.19853257198E+04  0.32549975895E+04  0.25794361970E+04 0.  0.
        1    1    3    3  502    0 -0.22741179807E+03  0.11286828609E+04  0.17260136436E+04  0.20747925738E+04  0.50400001928E-02 0. -1.
       -1    1    3    3    0  502  0.22741179807E+03 -0.11286828609E+04  0.25931207617E+03  0.11802050157E+04  0.50400001928E-02 0.  1.
</event>
<event>
 5   0  0.2623368E-06  0.2597464E+04  0.7818609E-02  0.8369063E-01
        2   -1    0    0  501    0  0.00000000000E+00  0.00000000000E+00  0.14676465824E+04  0.14676465824E+04  0.25500000920E-02 0.  1.
       -2   -1    0    0    0  501  0.00000000000E+00  0.00000000000E+00 -0.11492579843E+04  0.11492579843E+04  0.25500000920E-02 0. -1.
    10030    2    1    2    0    0  0.00000000000E+00  0.00000000000E+00  0.31838859816E+03  0.26169045667E+04  0.25974638038E+04 0.  0.
        5    1    3    3  502    0 -0.11364744341E+03 -0.20800338779E+03 -0.11272736097E+04  0.11519327376E+04  0.46999998093E+01 0. -1.
       -5    1    3    3    0  502  0.11364744341E+03  0.20800338779E+03  0.14456622079E+04  0.14649718291E+04  0.46999998093E+01 0.  1.
</event>
<event>
 5   0  0.2746631E-06  0.2561392E+04  0.7818609E-02  0.8381435E-01
       -2   -1    0    0    0  501  0.00000000000E+00  0.00000000000E+00  0.97513778374E+03  0.97513778374E+03  0.25500000920E-02 0.  1.
        2   -1    0    0  501    0  0.00000000000E+00  0.00000000000E+00 -0.16820010906E+04  0.16820010906E+04  0.25500000920E-02 0. -1.
    10030    2    1    2    0    0  0.00000000000E+00  0.00000000000E+00 -0.70686330685E+03  0.26571388743E+04  0.25613924461E+04 0.  0.
        2    1    3    3  502    0  0.71955477332E+03  0.86787116878E+03 -0.98378305770E+03  0.14962581803E+04  0.25500000920E-02 0. -1.
       -2    1    3    3    0  502 -0.71955477332E+03 -0.86787116878E+03  0.27691975085E+03  0.11608806941E+04  0.25500000920E-02 0.  1.
</event>
<event>
 5   0  0.1055179E-06  0.2597068E+04  0.7818609E-02  0.8369198E-01
       -1   -1    0    0    0  501  0.00000000000E+00  0.00000000000E+00  0.11231912872E+04  0.11231912872E+04  0.50400001928E-02 0.  1.
        1   -1    0    0  501    0  0.00000000000E+00  0.00000000000E+00 -0.15012493230E+04  0.15012493230E+04  0.50400001928E-02 0. -1.
    10030    2    1    2    0    0  0.00000000000E+00  0.00000000000E+00 -0.37805803575E+03  0.26244406102E+04  0.25970677000E+04 0.  0.
        3    1    3    3  502    0 -0.10446777979E+04  0.52610831543E+03 -0.75893097234E+03  0.13943162812E+04  0.10100000352E+00 0. -1.
       -3    1    3    3    0  502  0.10446777979E+04 -0.52610831543E+03  0.38087293658E+03  0.12301243291E+04  0.10100000352E+00 0.  1.
</event>
<event>
 5   0  0.1032076E-06  0.2673121E+04  0.7818609E-02  0.8343779E-01
        1   -1    0    0  501    0  0.00000000000E+00  0.00000000000E+00  0.21186288781E+04  0.21186288781E+04  0.50400001928E-02 0.  1.
       -1   -1    0    0    0  501  0.00000000000E+00  0.00000000000E+00 -0.84318409411E+03  0.84318409413E+03  0.50400001928E-02 0. -1.
    10030    2    1    2    0    0  0.00000000000E+00  0.00000000000E+00  0.12754447840E+04  0.29618129723E+04  0.26731211506E+04 0.  0.
        1    1    3    3  502    0 -0.94481327549E+03 -0.94478281154E+03  0.67459534215E+03  0.14967850755E+04  0.50400001928E-02 0.  1.
       -1    1    3    3    0  502  0.94481327549E+03  0.94478281154E+03  0.60084944186E+03  0.14650278968E+04  0.50400001928E-02 0. -1.
</event>
<event>
 5   0  0.2746631E-06  0.2597992E+04  0.7818609E-02  0.8368884E-01
       -2   -1    0    0    0  501  0.00000000000E+00  0.00000000000E+00  0.99490842051E+03  0.99490842051E+03  0.25500000920E-02 0.  1.
        2   -1    0    0  501    0  0.00000000000E+00  0.00000000000E+00 -0.16960262007E+04  0.16960262007E+04  0.25500000920E-02 0. -1.
    10030    2    1    2    0    0  0.00000000000E+00  0.00000000000E+00 -0.70111778017E+03  0.26909346212E+04  0.25979921081E+04 0.  0.
        2    1    3    3  502    0 -0.96510252575E+02  0.35945342132E+03 -0.16396178112E+04  0.16813291046E+04  0.25500000920E-02 0. -1.
       -2    1    3    3    0  502  0.96510252575E+02 -0.35945342132E+03  0.93850003105E+03  0.10096055166E+04  0.25500000920E-02 0.  1.
</event>
<event>
 5   0  0.2623368E-06  0.2602658E+04  0.7818609E-02  0.8367299E-01
        2   -1    0    0  501    0  0.00000000000E+00  0.00000000000E+00  0.14231246246E+04  0.14231246246E+04  0.25500000920E-02 0.  1.
       -2   -1    0    0    0  501  0.00000000000E+00  0.00000000000E+00 -0.11899574864E+04  0.11899574864E+04  0.25500000920E-02 0. -1.
    10030    2    1    2    0    0  0.00000000000E+00  0.00000000000E+00  0.23316713820E+03  0.26130821110E+04  0.26026584879E+04 0.  0.
        5    1    3    3  502    0  0.72515460583E+03  0.28650898166E+03  0.11626291471E+04  0.13998804316E+04  0.46999998093E+01 0.  1.
       -5    1    3    3    0  502 -0.72515460583E+03 -0.28650898166E+03 -0.92946200893E+03  0.12132016794E+04  0.46999998093E+01 0. -1.
</event>
<event>
 5   0  0.2623368E-06  0.2599909E+04  0.7818609E-02  0.8368232E-01
       -2   -1    0    0    0  501  0.00000000000E+00  0.00000000000E+00  0.97794731986E+03  0.97794731986E+03  0.25500000920E-02 0.  1.
        2   -1    0    0  501    0  0.00000000000E+00  0.00000000000E+00 -0.17279878845E+04  0.17279878845E+04  0.25500000920E-02 0. -1.
    10030    2    1    2    0    0  0.00000000000E+00  0.00000000000E+00 -0.75004056464E+03  0.27059352044E+04  0.25999085525E+04 0.  0.
        5    1    3    3  502    0 -0.97165821381E+03  0.85564119746E+03 -0.49647315946E+03  0.13866323346E+04  0.46999998093E+01 0. -1.
       -5    1    3    3    0  502  0.97165821381E+03 -0.85564119746E+03 -0.25356740518E+03  0.13193028698E+04  0.46999998093E+01 0.  1.
</event>
<event>
 5   0  0.1100104E-06  0.2595444E+04  0.7818609E-02  0.8369750E-01
        1   -1    0    0  501    0  0.00000000000E+00  0.00000000000E+00  0.15434508152E+04  0.15434508152E+04  0.50400001928E-02 0.  1.
       -1   -1    0    0    0  501  0.00000000000E+00  0.00000000000E+00 -0.10911151172E+04  0.10911151172E+04  0.50400001928E-02 0. -1.
    10030    2    1    2    0    0  0.00000000000E+00  0.00000000000E+00  0.45233569794E+03  0.26345659324E+04  0.25954440985E+04 0.  0.
        4    1    3    3  502    0 -0.10191361561E+04  0.30603113756E+03  0.98018853271E+03  0.14467428017E+04  0.12699999809E+01 0.  1.
       -4    1    3    3    0  502  0.10191361561E+04 -0.30603113756E+03 -0.52785283477E+03  0.11878231307E+04  0.12699999809E+01 0. -1.
</event>
<event>
 5   0  0.1088757E-06  0.2603184E+04  0.7818609E-02  0.8367120E-01
        1   -1    0    0  501    0  0.00000000000E+00  0.00000000000E+00  0.12898647013E+04  0.12898647013E+04  0.50400001928E-02 0.  1.
       -1   -1    0    0    0  501  0.00000000000E+00  0.00000000000E+00 -0.13134264192E+04  0.13134264192E+04  0.50400001928E-02 0. -1.
    10030    2    1    2    0    0  0.00000000000E+00  0.00000000000E+00 -0.23561717888E+02  0.26032911205E+04  0.26031844928E+04 0.  0.
        5    1    3    3  502    0  0.33010434534E+03 -0.11170817390E+04  0.56900087829E+03  0.12963890542E+04  0.46999998093E+01 0.  1.
       -5    1    3    3    0  502 -0.33010434534E+03  0.11170817390E+04 -0.59256259618E+03  0.13069020663E+04  0.46999998093E+01 0. -1.
</event>
<event>
 5   0  0.2586775E-06  0.2601254E+04  0.7818609E-02  0.8367775E-01
       -2   -1    0    0    0  501  0.00000000000E+00  0.00000000000E+00  0.12002346395E+04  0.12002346395E+04  0.25500000920E-02 0. -1.
        2   -1    0    0  501    0  0.00000000000E+00  0.00000000000E+00 -0.14094169333E+04  0.14094169333E+04  0.25500000920E-02 0.  1.
    10030    2    1    2    0    0  0.00000000000E+00  0.00000000000E+00 -0.20918229379E+03  0.26096515728E+04  0.26012543319E+04 0.  0.
        1    1    3    3  502    0  0.55096854518E+03  0.23295623242E+03 -0.12632202375E+04  0.13976982194E+04  0.50400001928E-02 0.  1.
       -1    1    3    3    0  502 -0.55096854518E+03 -0.23295623242E+03  0.10540379437E+04  0.12119533534E+04  0.50400001928E-02 0. -1.
</event>
<event>
 5   0  0.2705807E-06  0.2605633E+04  0.7818609E-02  0.8366290E-01
       -2   -1    0    0    0  501  0.00000000000E+00  0.00000000000E+00  0.15113777907E+04  0.15113777907E+04  0.25500000920E-02 0.  1.
        2   -1    0    0  501    0  0.00000000000E+00  0.00000000000E+00 -0.11230355766E+04  0.11230355766E+04  0.25500000920E-02 0. -1.
    10030    2    1    2    0    0  0.00000000000E+00  0.00000000000E+00  0.38834221416E+03  0.26344133673E+04  0.26056331504E+04 0.  0.
        4    1    3    3  502    0  0.10543662228E+04 -0.33781799863E+03 -0.50008680897E+03  0.12148652441E+04  0.12699999809E+01 0. -1.
       -4    1    3    3    0  502 -0.10543662228E+04  0.33781799863E+03  0.88842902313E+03  0.14195481232E+04  0.12699999809E+01 0.  1.
</event>
<event>
 5   0  0.2746631E-06  0.2600761E+04  0.7818609E-02  0.8367943E-01
        2   -1    0    0  501    0  0.00000000000E+00  0.00000000000E+00  0.94321506336E+03  0.94321506336E+03  0.25500000920E-02 0. -1.
       -2   -1    0    0    0  501  0.00000000000E+00  0.00000000000E+00 -0.17927929773E+04  0.17927929773E+04  0.25500000920E-02 0.  1.
    10030    2    1    2    0    0  0.00000000000E+00  0.00000000000E+00 -0.84957791390E+03  0.27360080406E+04  0.26007609207E+04 0.  0.
        2    1    3    3  502    0 -0.73623735765E+03  0.46589010147E+03 -0.14403343400E+04  0.16833484620E+04  0.25500000920E-02 0.  1.
       -2    1    3    3    0  502  0.73623735765E+03 -0.46589010147E+03  0.59075642613E+03  0.10526595786E+04  0.25500000920E-02 0. -1.
</event>
<event>
 5   0  0.2746631E-06  0.2597054E+04  0.7818609E-02  0.8369203E-01
        2   -1    0    0  501    0  0.00000000000E+00  0.00000000000E+00  0.16599164415E+04  0.16599164415E+04  0.25500000920E-02 0. -1.
       -2   -1    0    0    0  501  0.00000000000E+00  0.00000000000E+00 -0.10158176354E+04  0.10158176354E+04  0.25500000920E-02 0.  1.
    10030    2    1    2    0    0  0.00000000000E+00  0.00000000000E+00  0.64409880603E+03  0.26757340769E+04  0.25970540192E+04 0.  0.
        2    1    3    3  502    0  0.33366796713E+03 -0.89323164125E+03 -0.58611730607E+03  0.11192544723E+04  0.25500000920E-02 0.  1.
       -2    1    3    3    0  502 -0.33366796713E+03  0.89323164125E+03  0.12302161121E+04  0.15564796046E+04  0.25500000920E-02 0. -1.
</event>
<event>
 5   0  0.1122628E-06  0.2607193E+04  0.7818609E-02  0.8365762E-01
        1   -1    0    0  501    0  0.00000000000E+00  0.00000000000E+00  0.14964984006E+04  0.14964984006E+04  0.50400001928E-02 0.  1.
       -1   -1    0    0    0  501  0.00000000000E+00  0.00000000000E+00 -0.11355596876E+04  0.11355596877E+04  0.50400001928E-02 0. -1.
    10030    2    1    2    0    0  0.00000000000E+00  0.00000000000E+00  0.36093871298E+03  0.26320580883E+04  0.26071925563E+04 0.  0.
        2    1    3    3  502    0 -0.12019258022E+03  0.41590675450E+03  0.14218055993E+04  0.14862556466E+04  0.25500000920E-02 0.  1.
       -2    1    3    3    0  502  0.12019258022E+03 -0.41590675450E+03 -0.10608668864E+04  0.11458024417E+04  0.25500000920E-02 0. -1.
</event>
<event>
 5   0  0.1055179E-06  0.2599008E+04  0.7818609E-02  0.8368538E-01
        1   -1    0    0  501    0  0.00000000000E+00  0.00000000000E+00  0.20454657739E+04  0.20454657739E+04  0.50400001928E-02 0.  1.
       -1   -1    0    0    0  501  0.00000000000E+00  0.00000000000E+00 -0.82558731025E+03  0.82558731026E+03  0.50400001928E-02 0. -1.
    10030    2    1    2    0    0  0.00000000000E+00  0.00000000000E+00  0.12198784637E+04  0.28710530842E+04  0.25990079542E+04 0.  0.
        3    1    3    3  502    0  0.92365630905E+03  0.40679765798E+03 -0.29433186064E+03  0.10513118311E+04  0.10100000352E+00 0. -1.
       -3    1    3    3    0  502 -0.92365630905E+03 -0.40679765798E+03  0.15142103243E+04  0.18197412531E+04  0.10100000352E+00 0.  1.
</event>
<event>
 5   0  0.2623368E-06  0.2575457E+04  0.7818609E-02  0.8376586E-01
       -2   -1    0    0    0  501  0.00000000000E+00  0.00000000000E+00  0.15105129683E+04  0.15105129683E+04  0.25500000920E-02 0. -1.
        2   -1    0    0  501    0  0.00000000000E+00  0.00000000000E+00 -0.10978023516E+04  0.10978023516E+04  0.25500000920E-02 0.  1.
    10030    2    1    2    0    0  0.00000000000E+00  0.00000000000E+00  0.41271061669E+03  0.26083153199E+04  0.25754569992E+04 0.  0.
        5    1    3    3  502    0 -0.98059229959E+03  0.77823162153E+03  0.51189439115E+03  0.13525027440E+04  0.46999998093E+01 0.  1.
       -5    1    3    3    0  502  0.98059229959E+03 -0.77823162153E+03 -0.99183774458E+02  0.12558125759E+04  0.46999998093E+01 0. -1.
</event>
<event>
 5   0  0.2586775E-06  0.2596102E+04  0.7818609E-02  0.8369527E-01
        2   -1    0    0  501    0  0.00000000000E+00  0.00000000000E+00  0.63658811734E+03  0.63658811735E+03  0.25500000920E-02 0.  1.
       -2   -1    0    0    0  501  0.00000000000E+00  0.00000000000E+00 -0.26468229865E+04  0.26468229865E+04  0.25500000920E-02 0. -1.
    10030    2    1    2    0    0  0.00000000000E+00  0.00000000000E+00 -0.20102348691E+04  0.32834111038E+04  0.25961017406E+04 0.  0.
        1    1    3    3  502    0  0.34750262790E+03 -0.75904176286E+03  0.25203924846E+03  0.87202422957E+03  0.50400001928E-02 0.  1.
       -1    1    3    3    0  502 -0.34750262790E+03  0.75904176286E+03 -0.22622741176E+04  0.24113868742E+04  0.50400001928E-02 0. -1.
</event>
<event>
 5   0  0.1100104E-06  0.2600458E+04  0.7818609E-02  0.8368046E-01
        1   -1    0    0  501    0  0.00000000000E+00  0.00000000000E+00  0.17383672597E+04  0.17383672597E+04  0.50400001928E-02 0. -1.
       -1   -1    0    0    0  501  0.00000000000E+00  0.00000000000E+00 -0.97251928680E+03  0.97251928681E+03  0.50400001928E-02 0.  1.
    10030    2    1    2    0    0  0.00000000000E+00  0.00000000000E+00  0.76584797287E+03  0.27108865465E+04  0.26004581808E+04 0.  0.
        4    1    3    3  502    0  0.20403362144E+03 -0.12840256987E+04  0.36669494484E+03  0.13508584342E+04  0.12699999809E+01 0. -1.
       -4    1    3    3    0  502 -0.20403362144E+03  0.12840256987E+04  0.39915302803E+03  0.13600281123E+04  0.12699999809E+01 0.  1.
</event>
<event>
 5   0  0.1055179E-06  0.2603794E+04  0.7818609E-02  0.8366914E-01
        1   -1    0    0  501    0  0.00000000000E+00  0.00000000000E+00  0.12089911693E+04  0.12089911693E+04  0.50400001928E-02 0.  1.
       -1   -1    0    0    0  501  0.00000000000E+00  0.00000000000E+00 -0.14019422484E+04  0.14019422485E+04  0.50400001928E-02 0. -1.
    10030    2    1    2    0    0  0.00000000000E+00  0.00000000000E+00 -0.19295107920E+03  0.26109334177E+04  0.26037939997E+04 0.  0.
        3    1    3    3  502    0  0.54179444014E+03 -0.13878355309E+03 -0.12753408898E+04  0.13925862578E+04  0.10100000352E+00 0. -1.
       -3    1    3    3    0  502 -0.54179444014E+03  0.13878355309E+03  0.10823898106E+04  0.12183471600E+04  0.10100000352E+00 0.  1.
</event>
<event>
 5   0  0.2623368E-06  0.2604119E+04  0.7818609E-02  0.8366803E-01
       -2   -1    0    0    0  501  0.00000000000E+00  0.00000000000E+00  0.29681704440E+04  0.29681704440E+04  0.25500000920E-02 0.  1.
        2   -1    0    0  501    0  0.00000000000E+00  0.00000000000E+00 -0.57117993525E+03  0.57117993525E+03  0.25500000920E-02 0. -1.
    10030    2    1    2    0    0  0.00000000000E+00  0.00000000000E+00  0.23969905088E+04  0.35393503793E+04  0.26041193537E+04 0.  0.
        5    1    3    3  502    0 -0.14171317261E+03  0.47810621399E+03 -0.43623944380E+03  0.66256706639E+03  0.46999998093E+01 0. -1.
       -5    1    3    3    0  502  0.14171317261E+03 -0.47810621399E+03  0.28332299526E+04  0.28767833129E+04  0.46999998093E+01 0.  1.
</event>
<event>
 5   0  0.2623368E-06  0.2613784E+04  0.7818609E-02  0.8363534E-01
        2   -1    0    0  501    0  0.00000000000E+00  0.00000000000E+00  0.76508561700E+03  0.76508561701E+03  0.25500000920E-02 0. -1.
       -2   -1    0    0    0  501  0.00000000000E+00  0.00000000000E+00 -0.22323860208E+04  0.22323860208E+04  0.25500000920E-02 0.  1.
    10030    2    1    2    0    0  0.00000000000E+00  0.00000000000E+00 -0.14673004038E+04  0.29974716378E+04  0.26137837983E+04 0.  0.
        5    1    3    3  502    0 -0.69144580605E+03 -0.43015485919E+03  0.43855833347E+03  0.92492486584E+03  0.46999998093E+01 0. -1.
       -5    1    3    3    0  502  0.69144580605E+03  0.43015485919E+03 -0.19058587373E+04  0.20725467720E+04  0.46999998093E+01 0.  1.
</event>
<event>
 5   0  0.2746631E-06  0.2626599E+04  0.7818609E-02  0.8359222E-01
        2   -1    0    0  501    0  0.00000000000E+00  0.00000000000E+00  0.21722174134E+04  0.21722174134E+04  0.25500000920E-02 0.  1.
       -2   -1    0    0    0  501  0.00000000000E+00  0.00000000000E+00 -0.79400697692E+03  0.79400697692E+03  0.25500000920E-02 0. -1.
    10030    2    1    2    0    0  0.00000000000E+00  0.00000000000E+00  0.13782104365E+04  0.29662243903E+04  0.26265991560E+04 0.  0.
        2    1    3    3  502    0 -0.76611297964E+02 -0.16811405923E+03 -0.77925880756E+03  0.80085948646E+03  0.25500000920E-02 0. -1.
       -2    1    3    3    0  502  0.76611297964E+02  0.16811405923E+03  0.21574692440E+04  0.21653649039E+04  0.25500000920E-02 0.  1.
</event>
<event>
 5   0  0.2705807E-06  0.2592867E+04  0.7818609E-02  0.8370628E-01
        2   -1    0    0  501    0  0.00000000000E+00  0.00000000000E+00  0.15064776761E+04  0.15064776761E+04  0.25500000920E-02 0.  1.
       -2   -1    0    0    0  501  0.00000000000E+00  0.00000000000E+00 -0.11156752503E+04  0.11156752503E+04  0.25500000920E-02 0. -1.
    10030    2    1    2    0    0  0.00000000000E+00  0.00000000000E+00  0.39080242587E+03  0.26221529264E+04  0.25928670296E+04 0.  0.
        4    1    3    3  502    0 -0.38393682946E+03  0.68049103921E+03  0.12416210893E+04  0.14670037783E+04  0.12699999809E+01 0.  1.
       -4    1    3    3    0  502  0.38393682946E+03 -0.68049103921E+03 -0.85081866338E+03  0.11551491481E+04  0.12699999809E+01 0. -1.
</event>
<event>
 5   0  0.1032076E-06  0.2601450E+04  0.7818609E-02  0.8367709E-01
        1   -1    0    0  501    0  0.00000000000E+00  0.00000000000E+00  0.11572851754E+04  0.11572851754E+04  0.50400001928E-02 0.  1.
       -1   -1    0    0    0  501  0.00000000000E+00  0.00000000000E+00 -0.14619437321E+04  0.14619437321E+04  0.50400001928E-02 0. -1.
    10030    2    1    2    0    0  0.00000000000E+00  0.00000000000E+00 -0.30465855667E+03  0.26192289075E+04  0.26014502175E+04 0.  0.
        1    1    3    3  502    0 -0.70339488875E+03  0.53706178212E+03  0.80743564504E+03  0.11979783171E+04  0.50400001928E-02 0.  1.
       -1    1    3    3    0  502  0.70339488875E+03 -0.53706178212E+03 -0.11120942017E+04  0.14212505904E+04  0.50400001928E-02 0. -1.
</event>
<event>
 5   0  0.1032076E-06  0.2597798E+04  0.7818609E-02  0.8368950E-01
        1   -1    0    0  501    0  0.00000000000E+00  0.00000000000E+00  0.32739441569E+04  0.32739441569E+04  0.50400001928E-02 0. -1.
       -1   -1    0    0    0  501  0.00000000000E+00  0.00000000000E+00 -0.51532278672E+03  0.51532278675E+03  0.50400001928E-02 0.  1.
    10030    2    1    2    0    0  0.00000000000E+00  0.00000000000E+00  0.27586213702E+04  0.37892669437E+04  0.25977975491E+04 0.  0.
        1    1    3    3  502    0  0.99568894148E+03  0.82648306486E+03  0.15434799896E+04  0.20141502434E+04  0.50400001928E-02 0. -1.
       -1    1    3    3    0  502 -0.99568894148E+03 -0.82648306486E+03  0.12151413806E+04  0.17751167003E+04  0.50400001928E-02 0.  1.
</event>
<event>
 5   0  0.1055179E-06  0.2522046E+04  0.7818609E-02  0.8395173E-01
       -1   -1    0    0    0  501  0.00000000000E+00  0.00000000000E+00  0.66797399300E+03  0.66797399302E+03  0.50400001928E-02 0. -1.
        1   -1    0    0  501    0  0.00000000000E+00  0.00000000000E+00 -0.23805998541E+04  0.23805998541E+04  0.50400001928E-02 0.  1.
    10030    2    1    2    0    0  0.00000000000E+00  0.00000000000E+00 -0.17126258611E+04  0.30485738471E+04  0.25220458285E+04 0.  0.
        3    1    3    3  502    0 -0.38173541028E+03 -0.11934825392E+04 -0.10274992261E+04  0.16204558509E+04  0.10100000352E+00 0.  1.
       -3    1    3    3    0  502  0.38173541028E+03  0.11934825392E+04 -0.68512663494E+03  0.14281179962E+04  0.10100000352E+00 0. -1.
</event>
<event>
 5   0  0.2586775E-06  0.2600769E+04  0.7818609E-02  0.8367940E-01
       -2   -1    0    0    0  501  0.00000000000E+00  0.00000000000E+00  0.80961480314E+03  0.80961480314E+03  0.25500000920E-02 0.  1.
        2   -1    0    0  501    0  0.00000000000E+00  0.00000000000E+00 -0.20886471461E+04  0.20886471461E+04  0.25500000920E-02 0. -1.
    10030    2    1    2    0    0  0.00000000000E+00  0.00000000000E+00 -0.12790323430E+04  0.28982619493E+04  0.26007688464E+04 0.  0.
        1    1    3    3  502    0  0.35120226453E+03  0.11877412867E+04 -0.10809697763E+04  0.16439489201E+04  0.50400001928E-02 0. -1.
       -1    1    3    3    0  502 -0.35120226453E+03 -0.11877412867E+04 -0.19806256665E+03  0.12543130291E+04  0.50400001928E-02 0.  1.
</event>
<event>
 5   0  0.9197000E-07  0.2600017E+04  0.7818609E-02  0.8368195E-01
       -3   -1    0    0    0  501  0.00000000000E+00  0.00000000000E+00  0.17774709520E+04  0.17774709549E+04  0.10100000352E+00 0. -1.
        3   -1    0    0  501    0  0.00000000000E+00  0.00000000000E+00 -0.95080183867E+03  0.95080184403E+03  0.10100000352E+00 0.  1.
    10030    2    1    2    0    0  0.00000000000E+00  0.00000000000E+00  0.82666911334E+03  0.27282727989E+04  0.26000174312E+04 0.  0.
        3    1    3    3  502    0 -0.41167286320E+03  0.12148311179E+04  0.63527056673E+03  0.14313832102E+04  0.10100000352E+00 0.  1.
       -3    1    3    3    0  502  0.41167286320E+03 -0.12148311179E+04  0.19139854662E+03  0.12968895887E+04  0.10100000352E+00 0. -1.
</event>
<event>
 5   0  0.2705807E-06  0.2595733E+04  0.7818609E-02  0.8369652E-01
        2   -1    0    0  501    0  0.00000000000E+00  0.00000000000E+00  0.27701552875E+04  0.27701552875E+04  0.25500000920E-02 0. -1.
       -2   -1    0    0    0  501  0.00000000000E+00  0.00000000000E+00 -0.60807343728E+03  0.60807343728E+03  0.25500000920E-02 0.  1.
    10030    2    1    2    0    0  0.00000000000E+00  0.00000000000E+00  0.21620818502E+04  0.33782287248E+04  0.25957333048E+04 0.  0.
        4    1    3    3  502    0  0.76530913133E+03 -0.34895875515E+02 -0.28240917375E+03  0.81650005691E+03  0.12699999809E+01 0.  1.
       -4    1    3    3    0  502 -0.76530913133E+03  0.34895875515E+02  0.24444910239E+04  0.25617286678E+04  0.12699999809E+01 0. -1.
</event>
<event>
 5   0  0.1100104E-06  0.2633158E+04  0.7818609E-02  0.8357025E-01
        1   -1    0    0  501    0  0.00000000000E+00  0.00000000000E+00  0.11339247813E+04  0.11339247813E+04  0.50400001928E-02 0. -1.
       -1   -1    0    0    0  501  0.00000000000E+00  0.00000000000E+00 -0.15286558496E+04  0.15286558496E+04  0.50400001928E-02 0.  1.
    10030    2    1    2    0    0  0.00000000000E+00  0.00000000000E+00 -0.39473106829E+03  0.26625806310E+04  0.26331583698E+04 0.  0.
        4    1    3    3  502    0  0.27236221576E+03  0.11298681255E+04  0.42808935130E+03  0.12385658090E+04  0.12699999809E+01 0. -1.
       -4    1    3    3    0  502 -0.27236221576E+03 -0.11298681255E+04 -0.82282041959E+03  0.14240148220E+04  0.12699999809E+01 0.  1.
</event>
<event>
 5   0  0.1088757E-06  0.2603931E+04  0.7818609E-02  0.8366867E-01
       -1   -1    0    0    0  501  0.00000000000E+00  0.00000000000E+00  0.15629749832E+04  0.15629749833E+04  0.50400001928E-02 0. -1.
        1   -1    0    0  501    0  0.00000000000E+00  0.00000000000E+00 -0.10845431096E+04  0.10845431096E+04  0.50400001928E-02 0.  1.
    10030    2    1    2    0    0  0.00000000000E+00  0.00000000000E+00  0.47843187364E+03  0.26475180929E+04  0.26039306816E+04 0.  0.
        5    1    3    3  502    0  0.84467344954E+03  0.77454512183E+03  0.86737498139E+03  0.14372734014E+04  0.46999998093E+01 0. -1.
       -5    1    3    3    0  502 -0.84467344954E+03 -0.77454512183E+03 -0.38894310774E+03  0.12102446914E+04  0.46999998093E+01 0.  1.
</event>
<event>
 5   0  0.2586775E-06  0.2597858E+04  0.7818609E-02  0.8368929E-01
       -2   -1    0    0    0  501  0.00000000000E+00  0.00000000000E+00  0.92764110697E+03  0.92764110697E+03  0.25500000920E-02 0.  1.
        2   -1    0    0  501    0  0.00000000000E+00  0.00000000000E+00 -0.18188243268E+04  0.18188243268E+04  0.25500000920E-02 0. -1.
    10030    2    1    2    0    0  0.00000000000E+00  0.00000000000E+00 -0.89118321987E+03  0.27464654338E+04  0.25978577420E+04 0.  0.
        1    1    3    3  502    0 -0.29162383093E+03  0.63690109743E+02  0.89088951548E+03  0.93956639875E+03  0.50400001928E-02 0.  1.
       -1    1    3    3    0  502  0.29162383093E+03 -0.63690109743E+02 -0.17820727353E+04  0.18068990351E+04  0.50400001928E-02 0. -1.
</event>
<event>
 5   0  0.1055179E-06  0.2605466E+04  0.7818609E-02  0.8366347E-01
       -1   -1    0    0    0  501  0.00000000000E+00  0.00000000000E+00  0.12521785257E+04  0.12521785258E+04  0.50400001928E-02 0.  1.
        1   -1    0    0  501    0  0.00000000000E+00  0.00000000000E+00 -0.13553284996E+04  0.13553284996E+04  0.50400001928E-02 0. -1.
    10030    2    1    2    0    0  0.00000000000E+00  0.00000000000E+00 -0.10314997384E+03  0.26075070253E+04  0.26054659795E+04 0.  0.
        3    1    3    3  502    0  0.16060451496E+03 -0.84635803594E+03  0.92643028781E+03  0.12650647508E+04  0.10100000352E+00 0.  1.
       -3    1    3    3    0  502 -0.16060451496E+03  0.84635803594E+03 -0.10295802616E+04  0.13424422746E+04  0.10100000352E+00 0. -1.
</event>
<event>
 5   0  0.2746631E-06  0.2591786E+04  0.7818609E-02  0.8370996E-01
        2   -1    0    0  501    0  0.00000000000E+00  0.00000000000E+00  0.99340337326E+03  0.99340337326E+03  0.25500000920E-02 0.  1.
       -2   -1    0    0    0  501  0.00000000000E+00  0.00000000000E+00 -0.16904908207E+04  0.16904908207E+04  0.25500000920E-02 0. -1.
    10030    2    1    2    0    0  0.00000000000E+00  0.00000000000E+00 -0.69708744739E+03  0.26838941939E+04  0.25917864755E+04 0.  0.
        2    1    3    3  502    0 -0.10447063688E+04 -0.76597522865E+03 -0.38456253433E+03  0.13513022574E+04  0.25500000920E-02 0.  1.
       -2    1    3    3    0  502  0.10447063688E+04  0.76597522865E+03 -0.31252491306E+03  0.13325919365E+04  0.25500000920E-02 0. -1.
</event>
<event>
 5   0  0.2746631E-06  0.2596263E+04  0.7818609E-02  0.8369472E-01
       -2   -1    0    0    0  501  0.00000000000E+00  0.00000000000E+00  0.10648716985E+04  0.10648716985E+04  0.25500000920E-02 0. -1.
        2   -1    0    0  501    0  0.00000000000E+00  0.00000000000E+00 -0.15824866086E+04  0.15824866086E+04  0.25500000920E-02 0.  1.
    10030    2    1    2    0    0  0.00000000000E+00  0.00000000000E+00 -0.51761491014E+03  0.26473583071E+04  0.25962628547E+04 0.  0.
        2    1    3    3  502    0  0.71766701252E+03  0.18909064980E+03  0.82720911569E+03  0.11113397931E+04  0.25500000920E-02 0. -1.
       -2    1    3    3    0  502 -0.71766701252E+03 -0.18909064980E+03 -0.13448240258E+04  0.15360185139E+04  0.25500000920E-02 0.  1.
</event>
<event>
 5   0  0.2705807E-06  0.2599783E+04  0.7818609E-02  0.8368275E-01
        2   -1    0    0  501    0  0.00000000000E+00  0.00000000000E+00  0.13468553950E+04  0.13468553950E+04  0.25500000920E-02 0.  1.
       -2   -1    0    0    0  501  0.00000000000E+00  0.00000000000E+00 -0.12545651754E+04  0.12545651754E+04  0.25500000920E-02 0. -1.
    10030    2    1    2    0    0  0.00000000000E+00  0.00000000000E+00  0.92290219675E+02  0.26014205704E+04  0.25997829716E+04 0.  0.
        4    1    3    3  502    0  0.10806628505E+04  0.41706507486E+03  0.63638172478E+03  0.13216500239E+04  0.12699999809E+01 0.  1.
       -4    1    3    3    0  502 -0.10806628505E+04 -0.41706507486E+03 -0.54409150510E+03  0.12797705466E+04  0.12699999809E+01 0. -1.
</event>
<event>
 5   0  0.2820028E-06  0.2598708E+04  0.7818609E-02  0.8368640E-01
        2   -1    0    0  501    0  0.00000000000E+00  0.00000000000E+00  0.29539755280E+04  0.29539755280E+04  0.25500000920E-02 0. -1.
       -2   -1    0    0    0  501  0.00000000000E+00  0.00000000000E+00 -0.57154188064E+03  0.57154188064E+03  0.25500000920E-02 0.  1.
    10030    2    1    2    0    0  0.00000000000E+00  0.00000000000E+00  0.23824336473E+04  0.35255174086E+04  0.25987079317E+04 0.  0.
        3    1    3    3  502    0  0.49997640348E+03 -0.91213496450E+03  0.13481642049E+03  0.10488765776E+04  0.10100000352E+00 0.  1.
       -3    1    3    3    0  502 -0.49997640348E+03  0.91213496450E+03  0.22476172269E+04  0.24766408311E+04  0.10100000352E+00 0. -1.
</event>
<event>
 5   0  0.2586775E-06  0.2601331E+04  0.7818609E-02  0.8367749E-01
       -2   -1    0    0    0  501  0.00000000000E+00  0.00000000000E+00  0.78420539230E+03  0.78420539231E+03  0.25500000920E-02 0.  1.
        2   -1    0    0  501    0  0.00000000000E+00  0.00000000000E+00 -0.21572548226E+04  0.21572548226E+04  0.25500000920E-02 0. -1.
    10030    2    1    2    0    0  0.00000000000E+00  0.00000000000E+00 -0.13730494303E+04  0.29414602149E+04  0.26013310935E+04 0.  0.
        1    1    3    3  502    0  0.54466781213E+03 -0.46165807396E+01  0.64903002349E+03  0.84730414244E+03  0.50400001928E-02 0.  1.
       -1    1    3    3    0  502 -0.54466781213E+03  0.46165807396E+01 -0.20220794538E+04  0.20941560725E+04  0.50400001928E-02 0. -1.
</event>
<event>
 5   0  0.2623368E-06  0.2599931E+04  0.7818609E-02  0.8368225E-01
        2   -1    0    0  501    0  0.00000000000E+00  0.00000000000E+00  0.24015763033E+04  0.24015763033E+04  0.25500000920E-02 0.  1.
       -2   -1    0    0    0  501  0.00000000000E+00  0.00000000000E+00 -0.70366708977E+03  0.70366708978E+03  0.25500000920E-02 0. -1.
    10030    2    1    2    0    0  0.00000000000E+00  0.00000000000E+00  0.16979092135E+04  0.31052433930E+04  0.25999309285E+04 0.  0.
        5    1    3    3  502    0 -0.10525280525E+04  0.70888298173E+03  0.51207475154E+03  0.13684199005E+04  0.46999998093E+01 0.  1.
       -5    1    3    3    0  502  0.10525280525E+04 -0.70888298173E+03  0.11858344619E+04  0.17368234925E+04  0.46999998093E+01 0. -1.
</event>
<event>
 5   0  0.1100104E-06  0.2584643E+04  0.7818609E-02  0.8373437E-01
       -1   -1    0    0    0  501  0.00000000000E+00  0.00000000000E+00  0.11852865364E+04  0.11852865365E+04  0.50400001928E-02 0.  1.
        1   -1    0    0  501    0  0.00000000000E+00  0.00000000000E+00 -0.14090215019E+04  0.14090215019E+04  0.50400001928E-02 0. -1.
    10030    2    1    2    0    0  0.00000000000E+00  0.00000000000E+00 -0.22373496542E+03  0.25943080383E+04  0.25846425020E+04 0.  0.
        4    1    3    3  502    0  0.69451827036E+03  0.10630995093E+04  0.12893884917E+03  0.12763867103E+04  0.12699999809E+01 0.  1.
       -4    1    3    3    0  502 -0.69451827036E+03 -0.10630995093E+04 -0.35267381459E+03  0.13179213280E+04  0.12699999809E+01 0. -1.
</event>
<event>
 5   0  0.1088757E-06  0.2599522E+04  0.7818609E-02  0.8368363E-01
       -1   -1    0    0    0  501  0.00000000000E+00  0.00000000000E+00  0.10653931386E+04  0.10653931386E+04  0.50400001928E-02 0.  1.
        1   -1    0    0  501    0  0.00000000000E+00  0.00000000000E+00 -0.15856861537E+04  0.15856861537E+04  0.50400001928E-02 0. -1.
    10030    2    1    2    0    0  0.00000000000E+00  0.00000000000E+00 -0.52029301505E+03  0.26510792923E+04  0.25995223778E+04 0.  0.
        5    1    3    3  502    0 -0.97975424754E+03  0.65754919523E+03  0.29570257703E+03  0.12164503417E+04  0.46999998093E+01 0. -1.
       -5    1    3    3    0  502  0.97975424754E+03 -0.65754919523E+03 -0.81599559208E+03  0.14346289506E+04  0.46999998093E+01 0.  1.
</event>
<event>
 5   0  0.2705807E-06  0.2594747E+04  0.7818609E-02  0.8369988E-01
       -2   -1    0    0    0  501  0.00000000000E+00  0.00000000000E+00  0.98681683675E+03  0.98681683675E+03  0.25500000920E-02 0. -1.
        2   -1    0    0  501    0  0.00000000000E+00  0.00000000000E+00 -0.17056646375E+04  0.17056646375E+04  0.25500000920E-02 0.  1.
    10030    2    1    2    0    0  0.00000000000E+00  0.00000000000E+00 -0.71884780078E+03  0.26924814743E+04  0.25947474499E+04 0.  0.
        4    1    3    3  502    0  0.23963743121E+03  0.10663834537E+04  0.36588704012E+03  0.11525947717E+04  0.12699999809E+01 0.  1.
       -4    1    3    3    0  502 -0.23963743121E+03 -0.10663834537E+04 -0.10847348409E+04  0.15398867026E+04  0.12699999809E+01 0. -1.
</event>
<event>
 5   0  0.2746631E-06  0.2598731E+04  0.7818609E-02  0.8368632E-01
       -2   -1    0    0    0  501  0.00000000000E+00  0.00000000000E+00  0.98288008417E+03  0.98288008417E+03  0.25500000920E-02 0.  1.
        2   -1    0    0  501    0  0.00000000000E+00  0.00000000000E+00 -0.17177581055E+04  0.17177581055E+04  0.25500000920E-02 0. -1.
    10030    2    1    2    0    0  0.00000000000E+00  0.00000000000E+00 -0.73487802137E+03  0.27006381897E+04  0.25987306373E+04 0.  0.
        2    1    3    3  502    0 -0.12497751178E+04 -0.34320872260E+03 -0.46392467176E+03  0.13765740712E+04  0.25500000920E-02 0.  1.
       -2    1    3    3    0  502  0.12497751178E+04  0.34320872260E+03 -0.27095334961E+03  0.13240641185E+04  0.25500000920E-02 0. -1.
</event>
<event>
 5   0  0.1088757E-06  0.2600679E+04  0.7818609E-02  0.8367971E-01
       -1   -1    0    0    0  501  0.00000000000E+00  0.00000000000E+00  0.11679878342E+04  0.11679878342E+04  0.50400001928E-02 0.  1.
        1   -1    0    0  501    0  0.00000000000E+00  0.00000000000E+00 -0.14476883684E+04  0.14476883684E+04  0.50400001928E-02 0. -1.
    10030    2    1    2    0    0  0.00000000000E+00  0.00000000000E+00 -0.27970053417E+03  0.26156762026E+04  0.26006786822E+04 0.  0.
        5    1    3    3  502    0  0.18686759447E+03 -0.11810112461E+04  0.37412829084E+03  0.12528771405E+04  0.46999998093E+01 0.  1.
       -5    1    3    3    0  502 -0.18686759447E+03  0.11810112461E+04 -0.65382882501E+03  0.13627990621E+04  0.46999998093E+01 0. -1.
</event>
<event>
 5   0  0.1122628E-06  0.2603476E+04  0.7818609E-02  0.8367021E-01
       -1   -1    0    0    0  501  0.00000000000E+00  0.00000000000E+00  0.11838798618E+04  0.11838798618E+04  0.50400001928E-02 0.  1.
        1   -1    0    0  501    0  0.00000000000E+00  0.00000000000E+00 -0.14313291221E+04  0.14313291221E+04  0.50400001928E-02 0. -1.
    10030    2    1    2    0    0  0.00000000000E+00  0.00000000000E+00 -0.24744926035E+03  0.26152089839E+04  0.26034759252E+04 0.  0.
        2    1    3    3  502    0 -0.62900841691E+02  0.53574360993E+03  0.10663271222E+04  0.11950026205E+04  0.25500000920E-02 0.  1.
       -2    1    3    3    0  502  0.62900841691E+02 -0.53574360993E+03 -0.13137763825E+04  0.14202063634E+04  0.25500000920E-02 0. -1.
</event>
<event>
 5   0  0.2623368E-06  0.2601426E+04  0.7818609E-02  0.8367717E-01
       -2   -1    0    0    0  501  0.00000000000E+00  0.00000000000E+00  0.82504730145E+03  0.82504730145E+03  0.25500000920E-02 0.  1.
        2   -1    0    0  501    0  0.00000000000E+00  0.00000000000E+00 -0.20506142734E+04  0.20506142734E+04  0.25500000920E-02 0. -1.
    10030    2    1    2    0    0  0.00000000000E+00  0.00000000000E+00 -0.12255669720E+04  0.28756615749E+04  0.26014255881E+04 0.  0.
        5    1    3    3  502    0  0.91666639844E+03  0.17233966074E+03 -0.16149123120E+04  0.18649241567E+04  0.46999998093E+01 0. -1.
       -5    1    3    3    0  502 -0.91666639844E+03 -0.17233966074E+03  0.38934534004E+03  0.10107374182E+04  0.46999998093E+01 0.  1.
</event>
<event>
 5   0  0.1122628E-06  0.2669300E+04  0.7818609E-02  0.8345035E-01
       -1   -1    0    0    0  501  0.00000000000E+00  0.00000000000E+00  0.13449534805E+04  0.13449534805E+04  0.50400001928E-02 0.  1.
        1   -1    0    0  501    0  0.00000000000E+00  0.00000000000E+00 -0.13244256638E+04  0.13244256638E+04  0.50400001928E-02 0. -1.
    10030    2    1    2    0    0  0.00000000000E+00  0.00000000000E+00  0.20527816713E+02  0.26693791443E+04  0.26693002125E+04 0.  0.
        2    1    3    3  502    0 -0.11569957987E+04  0.41952401719E+02 -0.65375243096E+03  0.13295832141E+04  0.25500000920E-02 0. -1.
       -2    1    3    3    0  502  0.11569957987E+04 -0.41952401719E+02  0.67428024767E+03  0.13397959302E+04  0.25500000920E-02 0.  1.
</event>
<event>
 5   0  0.1055179E-06  0.2600653E+04  0.7818609E-02  0.8367979E-01
        1   -1    0    0  501    0  0.00000000000E+00  0.00000000000E+00  0.21153828269E+04  0.21153828269E+04  0.50400001928E-02 0. -1.
       -1   -1    0    0    0  501  0.00000000000E+00  0.00000000000E+00 -0.79931098055E+03  0.79931098056E+03  0.50400001928E-02 0.  1.
    10030    2    1    2    0    0  0.00000000000E+00  0.00000000000E+00  0.13160718464E+04  0.29146938075E+04  0.26006527808E+04 0.  0.
        3    1    3    3  502    0  0.12753164338E+04  0.25152904830E+03  0.62003187619E+03  0.14401869344E+04  0.10100000352E+00 0. -1.
       -3    1    3    3    0  502 -0.12753164338E+04 -0.25152904830E+03  0.69603997017E+03  0.14745068730E+04  0.10100000352E+00 0.  1.
</event>
<event>
 5   0  0.1032076E-06  0.2608463E+04  0.7818609E-02  0.8365332E-01
        1   -1    0    0  501    0  0.00000000000E+00  0.00000000000E+00  0.15424527291E+04  0.15424527291E+04  0.50400001928E-02 0.  1.
       -1   -1    0    0    0  501  0.00000000000E+00  0.00000000000E+00 -0.11028023014E+04  0.11028023015E+04  0.50400001928E-02 0. -1.
    10030    2    1    2    0    0  0.00000000000E+00  0.00000000000E+00  0.43965042767E+03  0.26452550306E+04  0.26084634707E+04 0.  0.
        1    1    3    3  502    0 -0.56410308770E+02 -0.12174966229E+04  0.69063664711E+03  0.14008779847E+04  0.50400001928E-02 0. -1.
       -1    1    3    3    0  502  0.56410308770E+02  0.12174966229E+04 -0.25098621944E+03  0.12443770458E+04  0.50400001928E-02 0.  1.
</event>
<event>
 5   0  0.2586775E-06  0.2589943E+04  0.7818609E-02  0.8371625E-01
        2   -1    0    0  501    0  0.00000000000E+00  0.00000000000E+00  0.22670185850E+04  0.22670185850E+04  0.25500000920E-02 0.  1.
       -2   -1    0    0    0  501  0.00000000000E+00  0.00000000000E+00 -0.73971663950E+03  0.73971663951E+03  0.25500000920E-02 0. -1.
    10030    2    1    2    0    0  0.00000000000E+00  0.00000000000E+00  0.15273019455E+04  0.30067352245E+04  0.25899431417E+04 0.  0.
        1    1    3    3  502    0  0.83193348724E+03 -0.81307787072E+03  0.10310239956E+03  0.11678352007E+04  0.50400001928E-02 0. -1.
       -1    1    3    3    0  502 -0.83193348724E+03  0.81307787072E+03  0.14241995459E+04  0.18389000238E+04  0.50400001928E-02 0.  1.
</event>
<event>
 5   0  0.2820028E-06  0.2602800E+04  0.7818609E-02  0.8367251E-01
       -2   -1    0    0    0  501  0.00000000000E+00  0.00000000000E+00  0.10039749401E+04  0.10039749401E+04  0.25500000920E-02 0. -1.
        2   -1    0    0  501    0  0.00000000000E+00  0.00000000000E+00 -0.16869363039E+04  0.16869363039E+04  0.25500000920E-02 0.  1.
    10030    2    1    2    0    0  0.00000000000E+00  0.00000000000E+00 -0.68296136385E+03  0.26909112440E+04  0.26027998575E+04 0.  0.
        3    1    3    3  502    0 -0.11327813919E+04  0.28302735066E+03  0.25273149673E+03  0.11946427846E+04  0.10100000352E+00 0. -1.
       -3    1    3    3    0  502  0.11327813919E+04 -0.28302735066E+03 -0.93569286057E+03  0.14962684594E+04  0.10100000352E+00 0.  1.
</event>
<event>
 5   0  0.2623368E-06  0.2625426E+04  0.7818609E-02  0.8359615E-01
       -2   -1    0    0    0  501  0.00000000000E+00  0.00000000000E+00  0.29032667709E+04  0.29032667709E+04  0.25500000920E-02 0.  1.
        2   -1    0    0  501    0  0.00000000000E+00  0.00000000000E+00 -0.59354373959E+03  0.59354373960E+03  0.25500000920E-02 0. -1.
    10030    2    1    2    0    0  0.00000000000E+00  0.00000000000E+00  0.23097230314E+04  0.34968105105E+04  0.26254263016E+04 0.  0.
        5    1    3    3  502    0 -0.79652867433E+03  0.18273257290E+03 -0.21340095196E+03  0.84463671393E+03  0.46999998093E+01 0. -1.
       -5    1    3    3    0  502  0.79652867433E+03 -0.18273257290E+03  0.25231239833E+04  0.26521737966E+04  0.46999998093E+01 0.  1.
</event>
<event>
 5   0  0.2705807E-06  0.2602711E+04  0.7818609E-02  0.8367281E-01
       -2   -1    0    0    0  501  0.00000000000E+00  0.00000000000E+00  0.93175665525E+03  0.93175665526E+03  0.25500000920E-02 0.  1.
        2   -1    0    0  501    0  0.00000000000E+00  0.00000000000E+00 -0.18175625781E+04  0.18175625781E+04  0.25500000920E-02 0. -1.
    10030    2    1    2    0    0  0.00000000000E+00  0.00000000000E+00 -0.88580592289E+03  0.27493192334E+04  0.26027109164E+04 0.  0.
        4    1    3    3  502    0 -0.25305348984E+03  0.28396745696E+03 -0.17575344581E+04  0.17982220579E+04  0.12699999809E+01 0. -1.
       -4    1    3    3    0  502  0.25305348984E+03 -0.28396745696E+03  0.87172853517E+03  0.95109717551E+03  0.12699999809E+01 0.  1.
</event>
<event>
 5   0  0.2586775E-06  0.2601597E+04  0.7818609E-02  0.8367659E-01
        2   -1    0    0  501    0  0.00000000000E+00  0.00000000000E+00  0.17016653450E+04  0.17016653450E+04  0.25500000920E-02 0.  1.
       -2   -1    0    0    0  501  0.00000000000E+00  0.00000000000E+00 -0.99436498559E+03  0.99436498559E+03  0.25500000920E-02 0. -1.
    10030    2    1    2    0    0  0.00000000000E+00  0.00000000000E+00  0.70730035937E+03  0.26960303306E+04  0.26015967683E+04 0.  0.
        1    1    3    3  502    0  0.86760352485E+03 -0.14864809846E+03 -0.63884247376E+03  0.10876358949E+04  0.50400001928E-02 0. -1.
       -1    1    3    3    0  502 -0.86760352485E+03  0.14864809846E+03  0.13461428331E+04  0.16083944357E+04  0.50400001928E-02 0.  1.
</event>
<event>
 5   0  0.1122628E-06  0.2624165E+04  0.7818609E-02  0.8360039E-01
       -1   -1    0    0    0  501  0.00000000000E+00  0.00000000000E+00  0.25831459981E+04  0.25831459981E+04  0.50400001928E-02 0.  1.
        1   -1    0    0  501    0  0.00000000000E+00  0.00000000000E+00 -0.66645882741E+03  0.66645882743E+03  0.50400001928E-02 0. -1.
    10030    2    1    2    0    0  0.00000000000E+00  0.00000000000E+00  0.19166871707E+04  0.32496048255E+04  0.26241649742E+04 0.  0.
        2    1    3    3  502    0 -0.11132115838E+04  0.68765876017E+03  0.10786974355E+04  0.16957897152E+04  0.25500000920E-02 0. -1.
       -2    1    3    3    0  502  0.11132115838E+04 -0.68765876017E+03  0.83798973517E+03  0.15538151103E+04  0.25500000920E-02 0.  1.
</event>
<event>
 5   0  0.1055179E-06  0.2588560E+04  0.7818609E-02  0.8372098E-01
        1   -1    0    0  501    0  0.00000000000E+00  0.00000000000E+00  0.17338315624E+04  0.17338315624E+04  0.50400001928E-02 0.  1.
       -1   -1    0    0    0  501  0.00000000000E+00  0.00000000000E+00 -0.96616095917E+03  0.96616095918E+03  0.50400001928E-02 0. -1.
    10030    2    1    2    0    0  0.00000000000E+00  0.00000000000E+00  0.76767060321E+03  0.26999925216E+04  0.25885597272E+04 0.  0.
        3    1    3    3  502    0  0.12385609266E+04 -0.58676804954E+02  0.77086692669E+03  0.14600383438E+04  0.10100000352E+00 0.  1.
       -3    1    3    3    0  502 -0.12385609266E+04  0.58676804954E+02 -0.31963234838E+01  0.12399541778E+04  0.10100000352E+00 0. -1.
</event>
<event>
 5   0  0.2820028E-06  0.2602852E+04  0.7818609E-02  0.8367233E-01
        2   -1    0    0  501    0  0.00000000000E+00  0.00000000000E+00  0.22045941143E+04  0.22045941143E+04  0.25500000920E-02 0. -1.
       -2   -1    0    0    0  501  0.00000000000E+00  0.00000000000E+00 -0.76826362386E+03  0.76826362386E+03  0.25500000920E-02 0.  1.
    10030    2    1    2    0    0  0.00000000000E+00  0.00000000000E+00  0.14363304904E+04  0.29728577381E+04  0.26028518693E+04 0.  0.
        3    1    3    3  502    0 -0.10125480463E+04 -0.81290689998E+03  0.61834412616E+03  0.14382004877E+04  0.10100000352E+00 0. -1.
       -3    1    3    3    0  502  0.10125480463E+04  0.81290689998E+03  0.81798636426E+03  0.15346572505E+04  0.10100000352E+00 0.  1.
</event>
<event>
 5   0  0.2820028E-06  0.2601406E+04  0.7818609E-02  0.8367724E-01
        2   -1    0    0  501    0  0.00000000000E+00  0.00000000000E+00  0.20783509231E+04  0.20783509231E+04  0.25500000920E-02 0.  1.
       -2   -1    0    0    0  501  0.00000000000E+00  0.00000000000E+00 -0.81402437498E+03  0.81402437498E+03  0.25500000920E-02 0. -1.
    10030    2    1    2    0    0  0.00000000000E+00  0.00000000000E+00  0.12643265481E+04  0.28923752980E+04  0.26014060130E+04 0.  0.
        3    1    3    3  502    0 -0.55052523745E+03 -0.35310824418E+03 -0.61789764650E+03  0.89975606746E+03  0.10100000352E+00 0. -1.
       -3    1    3    3    0  502  0.55052523745E+03  0.35310824418E+03  0.18822241946E+04  0.19926192306E+04  0.10100000352E+00 0.  1.
</event>
<event>
 5   0  0.1122628E-06  0.2602154E+04  0.7818609E-02  0.8367470E-01
       -1   -1    0    0    0  501  0.00000000000E+00  0.00000000000E+00  0.12681964644E+04  0.12681964644E+04  0.50400001928E-02 0. -1.
        1   -1    0    0  501    0  0.00000000000E+00  0.00000000000E+00 -0.13348097268E+04  0.13348097269E+04  0.50400001928E-02 0.  1.
    10030    2    1    2    0    0  0.00000000000E+00  0.00000000000E+00 -0.66613262449E+02  0.26030061913E+04  0.26021537051E+04 0.  0.
        2    1    3    3  502    0  0.10834905583E+04  0.23959947825E+03  0.64621060146E+03  0.12841136404E+04  0.25500000920E-02 0. -1.
       -2    1    3    3    0  502 -0.10834905583E+04 -0.23959947825E+03 -0.71282386391E+03  0.13188925509E+04  0.25500000920E-02 0.  1.
</event>
<event>
 5   0  0.1032076E-06  0.2597876E+04  0.7818609E-02  0.8368923E-01
       -1   -1    0    0    0  501  0.00000000000E+00  0.00000000000E+00  0.16588334560E+04  0.16588334560E+04  0.50400001928E-02 0.  1.
        1   -1    0    0  501    0  0.00000000000E+00  0.00000000000E+00 -0.10171240489E+04  0.10171240489E+04  0.50400001928E-02 0. -1.
    10030    2    1    2    0    0  0.00000000000E+00  0.00000000000E+00  0.64170940707E+03  0.26759575049E+04  0.25978755945E+04 0.  0.
        1    1    3    3  502    0  0.82478060054E+03  0.53537801378E+03  0.11950966923E+04  0.15476268157E+04  0.50400001928E-02 0.  1.
       -1    1    3    3    0  502 -0.82478060054E+03 -0.53537801378E+03 -0.55338728522E+03  0.11283306892E+04  0.50400001928E-02 0. -1.
</event>
<event>
 5   0  0.2623368E-06  0.2601506E+04  0.7818609E-02  0.8367690E-01
       -2   -1    0    0    0  501  0.00000000000E+00  0.00000000000E+00  0.11676955164E+04  0.11676955164E+04  0.25500000920E-02 0. -1.
        2   -1    0    0  501    0  0.00000000000E+00  0.00000000000E+00 -0.14489717924E+04  0.14489717924E+04  0.25500000920E-02 0.  1.
    10030    2    1    2    0    0  0.00000000000E+00  0.00000000000E+00 -0.28127627595E+03  0.26166673088E+04  0.26015056144E+04 0.  0.
        5    1    3    3  502    0  0.96493108653E+03 -0.39694191451E+03 -0.92187643637E+03  0.13923121558E+04  0.46999998093E+01 0.  1.
       -5    1    3    3    0  502 -0.96493108653E+03  0.39694191451E+03  0.64060016041E+03  0.12243551530E+04  0.46999998093E+01 0. -1.
</event>
<event>
 5   0  0.1100104E-06  0.2636968E+04  0.7818609E-02  0.8355751E-01
        1   -1    0    0  501    0  0.00000000000E+00  0.00000000000E+00  0.14278702631E+04  0.14278702631E+04  0.50400001928E-02 0. -1.
       -1   -1    0    0    0  501  0.00000000000E+00  0.00000000000E+00 -0.12174775189E+04  0.12174775189E+04  0.50400001928E-02 0.  1.
    10030    2    1    2    0    0  0.00000000000E+00  0.00000000000E+00  0.21039274426E+03  0.26453477820E+04  0.26369679143E+04 0.  0.
        4    1    3    3  502    0  0.12075992357E+04  0.44169328085E+03 -0.18729399630E+03  0.12994112215E+04  0.12699999809E+01 0. -1.
       -4    1    3    3    0  502 -0.12075992357E+04 -0.44169328085E+03  0.39768674056E+03  0.13459365605E+04  0.12699999809E+01 0.  1.
</event>
<event>
 5   0  0.1032076E-06  0.2606896E+04  0.7818609E-02  0.8365862E-01
       -1   -1    0    0    0  501  0.00000000000E+00  0.00000000000E+00  0.14009639489E+04  0.14009639489E+04  0.50400001928E-02 0.  1.
        1   -1    0    0  501    0  0.00000000000E+00  0.00000000000E+00 -0.12127199594E+04  0.12127199594E+04  0.50400001928E-02 0. -1.
    10030    2    1    2    0    0  0.00000000000E+00  0.00000000000E+00  0.18824398948E+03  0.26136839083E+04  0.26068961953E+04 0.  0.
        1    1    3    3  502    0  0.75195921536E+02  0.12617000049E+04  0.41344084529E+03  0.13298400887E+04  0.50400001928E-02 0.  1.
       -1    1    3    3    0  502 -0.75195921536E+02 -0.12617000049E+04 -0.22519685581E+03  0.12838438195E+04  0.50400001928E-02 0. -1.
</event>
<event>
 5   0  0.2705807E-06  0.2596407E+04  0.7818609E-02  0.8369423E-01
       -2   -1    0    0    0  501  0.00000000000E+00  0.00000000000E+00  0.12582077659E+04  0.12582077659E+04  0.25500000920E-02 0.  1.
        2   -1    0    0  501    0  0.00000000000E+00  0.00000000000E+00 -0.13394705912E+04  0.13394705912E+04  0.25500000920E-02 0. -1.
    10030    2    1    2    0    0  0.00000000000E+00  0.00000000000E+00 -0.81262825330E+02  0.25976783571E+04  0.25964069790E+04 0.  0.
        4    1    3    3  502    0 -0.89360445779E+03 -0.73721119138E+03  0.54559186312E+03  0.12805004341E+04  0.12699999809E+01 0.  1.
       -4    1    3    3    0  502  0.89360445779E+03  0.73721119138E+03 -0.62685468845E+03  0.13171779231E+04  0.12699999809E+01 0. -1.
</event>
<event>
 5   0  0.1032076E-06  0.2599938E+04  0.7818609E-02  0.8368222E-01
        1   -1    0    0  501    0  0.00000000000E+00  0.00000000000E+00  0.16710526157E+04  0.16710526157E+04  0.50400001928E-02 0.  1.
       -1   -1    0    0    0  501  0.00000000000E+00  0.00000000000E+00 -0.10112901973E+04  0.10112901973E+04  0.50400001928E-02 0. -1.
    10030    2    1    2    0    0  0.00000000000E+00  0.00000000000E+00  0.65976241833E+03  0.26823428130E+04  0.25999377911E+04 0.  0.
        1    1    3    3  502    0  0.58526764622E+03  0.78706564936E+03 -0.55033577176E+03  0.11246688472E+04  0.50400001928E-02 0. -1.
       -1    1    3    3    0  502 -0.58526764622E+03 -0.78706564936E+03  0.12100981901E+04  0.15576739658E+04  0.50400001928E-02 0.  1.
</event>
<event>
 5   0  0.1032076E-06  0.2604991E+04  0.7818609E-02  0.8366508E-01
        1   -1    0    0  501    0  0.00000000000E+00  0.00000000000E+00  0.15065788677E+04  0.15065788677E+04  0.50400001928E-02 0.  1.
       -1   -1    0    0    0  501  0.00000000000E+00  0.00000000000E+00 -0.11260577211E+04  0.11260577211E+04  0.50400001928E-02 0. -1.
    10030    2    1    2    0    0  0.00000000000E+00  0.00000000000E+00  0.38052114659E+03  0.26326365888E+04  0.26049911834E+04 0.  0.
        1    1    3    3  502    0  0.12233836969E+04 -0.28808601429E+03  0.53569723852E+03  0.13662476908E+04  0.50400001928E-02 0.  1.
       -1    1    3    3    0  502 -0.12233836969E+04  0.28808601429E+03 -0.15517609193E+03  0.12663888980E+04  0.50400001928E-02 0. -1.
</event>
<event>
 5   0  0.1032076E-06  0.2600471E+04  0.7818609E-02  0.8368041E-01
        1   -1    0    0  501    0  0.00000000000E+00  0.00000000000E+00  0.16586528931E+04  0.16586528931E+04  0.50400001928E-02 0.  1.
       -1   -1    0    0    0  501  0.00000000000E+00  0.00000000000E+00 -0.10192683483E+04  0.10192683483E+04  0.50400001928E-02 0. -1.
    10030    2    1    2    0    0  0.00000000000E+00  0.00000000000E+00  0.63938454486E+03  0.26779212414E+04  0.26004710302E+04 0.  0.
        1    1    3    3  502    0 -0.12584816466E+04 -0.16469755190E+03  0.61043245749E+03  0.14083781891E+04  0.50400001928E-02 0. -1.
       -1    1    3    3    0  502  0.12584816466E+04  0.16469755190E+03  0.28952087361E+02  0.12695430523E+04  0.50400001928E-02 0.  1.
</event>
<event>
 5   0  0.1088757E-06  0.2553403E+04  0.7818609E-02  0.8384204E-01
       -1   -1    0    0    0  501  0.00000000000E+00  0.00000000000E+00  0.10392491374E+04  0.10392491374E+04  0.50400001928E-02 0. -1.
        1   -1    0    0  501    0  0.00000000000E+00  0.00000000000E+00 -0.15684075929E+04  0.15684075929E+04  0.50400001928E-02 0.  1.
    10030    2    1    2    0    0  0.00000000000E+00  0.00000000000E+00 -0.52915845546E+03  0.26076567303E+04  0.25534026224E+04 0.  0.
        5    1    3    3  502    0  0.69494945445E+03 -0.17921007577E+03 -0.13428897651E+04  0.15226444125E+04  0.46999998093E+01 0.  1.
       -5    1    3    3    0  502 -0.69494945445E+03  0.17921007577E+03  0.81373130968E+03  0.10850123178E+04  0.46999998093E+01 0. -1.
</event>
<event>
 5   0  0.1088757E-06  0.2575106E+04  0.7818609E-02  0.8376706E-01
        1   -1    0    0  501    0  0.00000000000E+00  0.00000000000E+00  0.16657895196E+04  0.16657895196E+04  0.50400001928E-02 0. -1.
       -1   -1    0    0    0  501  0.00000000000E+00  0.00000000000E+00 -0.99519978187E+03  0.99519978188E+03  0.50400001928E-02 0.  1.
    10030    2    1    2    0    0  0.00000000000E+00  0.00000000000E+00  0.67058973773E+03  0.26609893015E+04  0.25751064961E+04 0.  0.
        5    1    3    3  502    0  0.37241880629E+03 -0.61387783760E+03 -0.76910061513E+03  0.10521785081E+04  0.46999998093E+01 0.  1.
       -5    1    3    3    0  502 -0.37241880629E+03  0.61387783760E+03  0.14396903529E+04  0.16088107934E+04  0.46999998093E+01 0. -1.
</event>
<event>
 5   0  0.1122628E-06  0.2600843E+04  0.7818609E-02  0.8367915E-01
        1   -1    0    0  501    0  0.00000000000E+00  0.00000000000E+00  0.27985958712E+04  0.27985958712E+04  0.50400001928E-02 0.  1.
       -1   -1    0    0    0  501  0.00000000000E+00  0.00000000000E+00 -0.60426575560E+03  0.60426575562E+03  0.50400001928E-02 0. -1.
    10030    2    1    2    0    0  0.00000000000E+00  0.00000000000E+00  0.21943301156E+04  0.34028616268E+04  0.26008426702E+04 0.  0.
        2    1    3    3  502    0  0.72189186136E+03 -0.98832233213E+03  0.52209747870E+03  0.13305993646E+04  0.25500000920E-02 0. -1.
       -2    1    3    3    0  502 -0.72189186136E+03  0.98832233213E+03  0.16722326369E+04  0.20722622623E+04  0.25500000920E-02 0.  1.
</event>
<event>
 5   0  0.1122628E-06  0.2600199E+04  0.7818609E-02  0.8368134E-01
       -1   -1    0    0    0  501  0.00000000000E+00  0.00000000000E+00  0.11683987615E+04  0.11683987615E+04  0.50400001928E-02 0.  1.
        1   -1    0    0  501    0  0.00000000000E+00  0.00000000000E+00 -0.14466457080E+04  0.14466457080E+04  0.50400001928E-02 0. -1.
    10030    2    1    2    0    0  0.00000000000E+00  0.00000000000E+00 -0.27824694651E+03  0.26150444696E+04  0.26001992644E+04 0.  0.
        2    1    3    3  502    0 -0.36335579025E+03 -0.18823186949E+03 -0.13801867835E+04  0.14395743205E+04  0.25500000920E-02 0. -1.
       -2    1    3    3    0  502  0.36335579025E+03  0.18823186949E+03  0.11019398370E+04  0.11754701490E+04  0.25500000920E-02 0.  1.
</event>
<event>
 5   0  0.1122628E-06  0.2599556E+04  0.7818609E-02  0.8368352E-01
        1   -1    0    0  501    0  0.00000000000E+00  0.00000000000E+00  0.13346923745E+04  0.13346923745E+04  0.50400001928E-02 0. -1.
       -1   -1    0    0    0  501  0.00000000000E+00  0.00000000000E+00 -0.12657768024E+04  0.12657768024E+04  0.50400001928E-02 0.  1.
    10030    2    1    2    0    0  0.00000000000E+00  0.00000000000E+00  0.68915572111E+02  0.26004691769E+04  0.25995558436E+04 0.  0.
        2    1    3    3  502    0  0.23983979836E+03 -0.94082754125E+03  0.89890435551E+03  0.13231434660E+04  0.25500000920E-02 0. -1.
       -2    1    3    3    0  502 -0.23983979836E+03  0.94082754125E+03 -0.82998878340E+03  0.12773257109E+04  0.25500000920E-02 0.  1.
</event>
<event>
 5   0  0.2623368E-06  0.2633358E+04  0.7818609E-02  0.8356958E-01
       -2   -1    0    0    0  501  0.00000000000E+00  0.00000000000E+00  0.10666299320E+04  0.10666299320E+04  0.25500000920E-02 0. -1.
        2   -1    0    0  501    0  0.00000000000E+00  0.00000000000E+00 -0.16253464623E+04  0.16253464623E+04  0.25500000920E-02 0.  1.
    10030    2    1    2    0    0  0.00000000000E+00  0.00000000000E+00 -0.55871653025E+03  0.26919763943E+04  0.26333576943E+04 0.  0.
        5    1    3    3  502    0  0.39478463480E+03  0.91631464065E+03 -0.11576299885E+04  0.15282724590E+04  0.46999998093E+01 0.  1.
       -5    1    3    3    0  502 -0.39478463480E+03 -0.91631464065E+03  0.59891345828E+03  0.11637039353E+04  0.46999998093E+01 0. -1.
</event>
<event>
 5   0  0.1032076E-06  0.2598807E+04  0.7818609E-02  0.8368606E-01
       -1   -1    0    0    0  501  0.00000000000E+00  0.00000000000E+00  0.84493360354E+03  0.84493360355E+03  0.50400001928E-02 0. -1.
        1   -1    0    0  501    0  0.00000000000E+00  0.00000000000E+00 -0.19983223673E+04  0.19983223673E+04  0.50400001928E-02 0.  1.
    10030    2    1    2    0    0  0.00000000000E+00  0.00000000000E+00 -0.11533887638E+04  0.28432559709E+04  0.25988072025E+04 0.  0.
        1    1    3    3  502    0  0.10788880416E+04  0.15653628897E+03  0.19688298071E+03  0.11078203483E+04  0.50400001928E-02 0. -1.
       -1    1    3    3    0  502 -0.10788880416E+04 -0.15653628897E+03 -0.13502717445E+04  0.17354356226E+04  0.50400001928E-02 0.  1.
</event>
<event>
 5   0  0.9197000E-07  0.2596788E+04  0.7818609E-02  0.8369293E-01
        3   -1    0    0  501    0  0.00000000000E+00  0.00000000000E+00  0.10749180629E+04  0.10749180677E+04  0.10100000352E+00 0.  1.
       -3   -1    0    0    0  501  0.00000000000E+00  0.00000000000E+00 -0.15683312717E+04  0.15683312749E+04  0.10100000352E+00 0. -1.
    10030    2    1    2    0    0  0.00000000000E+00  0.00000000000E+00 -0.49341320878E+03  0.26432493426E+04  0.25967884959E+04 0.  0.
        2    1    3    3  502    0  0.42293259082E+03 -0.85799864541E+03  0.64695008160E+03  0.11548065033E+04  0.25500000920E-02 0.  1.
       -2    1    3    3    0  502 -0.42293259082E+03  0.85799864541E+03 -0.11403632904E+04  0.14884428393E+04  0.25500000920E-02 0. -1.
</event>
<event>
 5   0  0.2820028E-06  0.2608710E+04  0.7818609E-02  0.8365249E-01
       -2   -1    0    0    0  501  0.00000000000E+00  0.00000000000E+00  0.15948478394E+04  0.15948478394E+04  0.25500000920E-02 0.  1.
        2   -1    0    0  501    0  0.00000000000E+00  0.00000000000E+00 -0.10667740274E+04  0.10667740274E+04  0.25500000920E-02 0. -1.
    10030    2    1    2    0    0  0.00000000000E+00  0.00000000000E+00  0.52807381204E+03  0.26616218668E+04  0.26087102198E+04 0.  0.
        3    1    3    3  502    0 -0.26218182874E+02 -0.13010826042E+04  0.17370352624E+03  0.13128885182E+04  0.10100000352E+00 0.  1.
       -3    1    3    3    0  502  0.26218182874E+02  0.13010826042E+04  0.35437028581E+03  0.13487333486E+04  0.10100000352E+00 0. -1.
</event>
<event>
 5   0  0.1100104E-06  0.2598493E+04  0.7818609E-02  0.8368713E-01
        1   -1    0    0  501    0  0.00000000000E+00  0.00000000000E+00  0.16195881710E+04  0.16195881710E+04  0.50400001928E-02 0. -1.
       -1   -1    0    0    0  501  0.00000000000E+00  0.00000000000E+00 -0.10422657772E+04  0.10422657772E+04  0.50400001928E-02 0.  1.
    10030    2    1    2    0    0  0.00000000000E+00  0.00000000000E+00  0.57732239386E+03  0.26618539482E+04  0.25984928892E+04 0.  0.
        4    1    3    3  502    0 -0.78099075099E+03  0.17291311989E+03 -0.76011680237E+03  0.11034603148E+04  0.12699999809E+01 0.  1.
       -4    1    3    3    0  502  0.78099075099E+03 -0.17291311989E+03  0.13374391962E+04  0.15583936334E+04  0.12699999809E+01 0. -1.
</event>
<event>
 5   0  0.2705807E-06  0.2592545E+04  0.7818609E-02  0.8370738E-01
       -2   -1    0    0    0  501  0.00000000000E+00  0.00000000000E+00  0.12489410459E+04  0.12489410459E+04  0.25500000920E-02 0.  1.
        2   -1    0    0  501    0  0.00000000000E+00  0.00000000000E+00 -0.13453976484E+04  0.13453976484E+04  0.25500000920E-02 0. -1.
    10030    2    1    2    0    0  0.00000000000E+00  0.00000000000E+00 -0.96456602472E+02  0.25943386944E+04  0.25925449630E+04 0.  0.
        4    1    3    3  502    0 -0.52069504714E+03  0.75747892325E+03  0.86641890283E+03  0.12631630850E+04  0.12699999809E+01 0.  1.
       -4    1    3    3    0  502  0.52069504714E+03 -0.75747892325E+03 -0.96287550530E+03  0.13311756093E+04  0.12699999809E+01 0. -1.
</event>
<event>
 5   0  0.2586775E-06  0.2598102E+04  0.7818609E-02  0.8368846E-01
        2   -1    0    0  501    0  0.00000000000E+00  0.00000000000E+00  0.11712215328E+04  0.11712215328E+04  0.25500000920E-02 0.  1.
       -2   -1    0    0    0  501  0.00000000000E+00  0.00000000000E+00 -0.14408322601E+04  0.14408322601E+04  0.25500000920E-02 0. -1.
    10030    2    1    2    0    0  0.00000000000E+00  0.00000000000E+00 -0.26961072732E+03  0.26120537929E+04  0.25981022060E+04 0.  0.
        1    1    3    3  502    0 -0.72933127501E+02 -0.23723512780E+01 -0.14387701037E+04  0.14406194087E+04  0.50400001928E-02 0. -1.
       -1    1    3    3    0  502  0.72933127501E+02  0.23723512780E+01  0.11691593764E+04  0.11714343843E+04  0.50400001928E-02 0.  1.
</event>
<event>
 5   0  0.1055179E-06  0.2604182E+04  0.7818609E-02  0.8366782E-01
       -1   -1    0    0    0  501  0.00000000000E+00  0.00000000000E+00  0.12706943929E+04  0.12706943929E+04  0.50400001928E-02 0.  1.
        1   -1    0    0  501    0  0.00000000000E+00  0.00000000000E+00 -0.13342634005E+04  0.13342634005E+04  0.50400001928E-02 0. -1.
    10030    2    1    2    0    0  0.00000000000E+00  0.00000000000E+00 -0.63569007534E+02  0.26049577934E+04  0.26041820379E+04 0.  0.
        3    1    3    3  502    0 -0.73615576945E+03  0.21387123297E+03  0.10210378340E+04  0.12767867833E+04  0.10100000352E+00 0.  1.
       -3    1    3    3    0  502  0.73615576945E+03 -0.21387123297E+03 -0.10846068416E+04  0.13281710101E+04  0.10100000352E+00 0. -1.
</event>
<event>
 5   0  0.2820028E-06  0.2600591E+04  0.7818609E-02  0.8368001E-01
       -2   -1    0    0    0  501  0.00000000000E+00  0.00000000000E+00  0.61113661203E+03  0.61113661204E+03  0.25500000920E-02 0.  1.
        2   -1    0    0  501    0  0.00000000000E+00  0.00000000000E+00 -0.27665957757E+04  0.27665957757E+04  0.25500000920E-02 0. -1.
    10030    2    1    2    0    0  0.00000000000E+00  0.00000000000E+00 -0.21554591637E+04  0.33777323877E+04  0.26005906785E+04 0.  0.
        3    1    3    3  502    0  0.89427244516E+03 -0.90686571481E+03 -0.73744697701E+03  0.14717189558E+04  0.10100000352E+00 0. -1.
       -3    1    3    3    0  502 -0.89427244516E+03  0.90686571481E+03 -0.14180121866E+04  0.19060134319E+04  0.10100000352E+00 0.  1.
</event>
<event>
 5   0  0.1100104E-06  0.2624781E+04  0.7818609E-02  0.8359832E-01
       -1   -1    0    0    0  501  0.00000000000E+00  0.00000000000E+00  0.89366063192E+03  0.89366063193E+03  0.50400001928E-02 0. -1.
        1   -1    0    0  501    0  0.00000000000E+00  0.00000000000E+00 -0.19273185262E+04  0.19273185263E+04  0.50400001928E-02 0.  1.
    10030    2    1    2    0    0  0.00000000000E+00  0.00000000000E+00 -0.10336578943E+04  0.28209791582E+04  0.26247808991E+04 0.  0.
        4    1    3    3  502    0  0.74172095933E+03 -0.23950661476E+03 -0.16516196167E+04  0.18262974487E+04  0.12699999809E+01 0.  1.
       -4    1    3    3    0  502 -0.74172095933E+03  0.23950661476E+03  0.61796172235E+03  0.99468170950E+03  0.12699999809E+01 0. -1.
</event>
<event>
 5   0  0.2746631E-06  0.2597552E+04  0.7818609E-02  0.8369033E-01
       -2   -1    0    0    0  501  0.00000000000E+00  0.00000000000E+00  0.11857948887E+04  0.11857948887E+04  0.25500000920E-02 0.  1.
        2   -1    0    0  501    0  0.00000000000E+00  0.00000000000E+00 -0.14225215958E+04  0.14225215958E+04  0.25500000920E-02 0. -1.
    10030    2    1    2    0    0  0.00000000000E+00  0.00000000000E+00 -0.23672670706E+03  0.26083164845E+04  0.25975517992E+04 0.  0.
        2    1    3    3  502    0  0.26003693347E+03  0.12486203955E+04  0.12790131631E+03  0.12818076476E+04  0.25500000920E-02 0.  1.
       -2    1    3    3    0  502 -0.26003693347E+03 -0.12486203955E+04 -0.36462802338E+03  0.13265088369E+04  0.25500000920E-02 0. -1.
</event>
<event>
 5   0  0.1100104E-06  0.2597493E+04  0.7818609E-02  0.8369053E-01
       -1   -1    0    0    0  501  0.00000000000E+00  0.00000000000E+00  0.10579562433E+04  0.10579562433E+04  0.50400001928E-02 0. -1.
        1   -1    0    0  501    0  0.00000000000E+00  0.00000000000E+00 -0.15943399290E+04  0.15943399290E+04  0.50400001928E-02 0.  1.
    10030    2    1    2    0    0  0.00000000000E+00  0.00000000000E+00 -0.53638368571E+03  0.26522961724E+04  0.25974925462E+04 0.  0.
        4    1    3    3  502    0 -0.52568393418E+03 -0.39579017577E+03  0.87514086723E+03  0.10949276745E+04  0.12699999809E+01 0. -1.
       -4    1    3    3    0  502  0.52568393418E+03  0.39579017577E+03 -0.14115245529E+04  0.15573684979E+04  0.12699999809E+01 0.  1.
</event>
<event>
 5   0  0.1100104E-06  0.2603504E+04  0.7818609E-02  0.8367012E-01
       -1   -1    0    0    0  501  0.00000000000E+00  0.00000000000E+00  0.79887319823E+03  0.79887319825E+03  0.50400001928E-02 0. -1.
        1   -1    0    0  501    0  0.00000000000E+00  0.00000000000E+00 -0.21211860827E+04  0.21211860827E+04  0.50400001928E-02 0.  1.
    10030    2    1    2    0    0  0.00000000000E+00  0.00000000000E+00 -0.13223128844E+04  0.29200592809E+04  0.26035043383E+04 0.  0.
        4    1    3    3  502    0 -0.97847870209E+02 -0.26698585517E+02 -0.21167469978E+04  0.21191758977E+04  0.12699999809E+01 0.  1.
       -4    1    3    3    0  502  0.97847870209E+02  0.26698585517E+02  0.79443411331E+03  0.80088338319E+03  0.12699999809E+01 0. -1.
</event>
<event>
 5   0  0.1122628E-06  0.2593085E+04  0.7818609E-02  0.8370554E-01
        1   -1    0    0  501    0  0.00000000000E+00  0.00000000000E+00  0.23803734173E+04  0.23803734173E+04  0.50400001928E-02 0.  1.
       -1   -1    0    0    0  501  0.00000000000E+00  0.00000000000E+00 -0.70620118392E+03  0.70620118394E+03  0.50400001928E-02 0. -1.
    10030    2    1    2    0    0  0.00000000000E+00  0.00000000000E+00  0.16741722334E+04  0.30865746012E+04  0.25930850549E+04 0.  0.
        2    1    3    3  502    0  0.26739145075E+03 -0.10694876338E+04  0.16493978222E+04  0.19838888988E+04  0.25500000920E-02 0.  1.
       -2    1    3    3    0  502 -0.26739145075E+03  0.10694876338E+04  0.24774411123E+02  0.11026857024E+04  0.25500000920E-02 0. -1.
</event>
<event>
 5   0  0.2746631E-06  0.2596292E+04  0.7818609E-02  0.8369462E-01
       -2   -1    0    0    0  501  0.00000000000E+00  0.00000000000E+00  0.13250610682E+04  0.13250610682E+04  0.25500000920E-02 0.  1.
        2   -1    0    0  501    0  0.00000000000E+00  0.00000000000E+00 -0.12717777700E+04  0.12717777700E+04  0.25500000920E-02 0. -1.
    10030    2    1    2    0    0  0.00000000000E+00  0.00000000000E+00  0.53283298186E+02  0.25968388382E+04  0.25962921334E+04 0.  0.
        2    1    3    3  502    0 -0.11631013779E+04  0.57361165063E+03  0.84516337686E+02  0.12996069222E+04  0.25500000920E-02 0. -1.
       -2    1    3    3    0  502  0.11631013779E+04 -0.57361165063E+03 -0.31233039500E+02  0.12972319160E+04  0.25500000920E-02 0.  1.
</event>
<event>
 5   0  0.2586775E-06  0.2592592E+04  0.7818609E-02  0.8370722E-01
        2   -1    0    0  501    0  0.00000000000E+00  0.00000000000E+00  0.15664804705E+04  0.15664804705E+04  0.25500000920E-02 0. -1.
       -2   -1    0    0    0  501  0.00000000000E+00  0.00000000000E+00 -0.10727124763E+04  0.10727124763E+04  0.25500000920E-02 0.  1.
    10030    2    1    2    0    0  0.00000000000E+00  0.00000000000E+00  0.49376799420E+03  0.26391929468E+04  0.25925918649E+04 0.  0.
        1    1    3    3  502    0  0.95547231049E+03 -0.28663989608E+03 -0.59582039158E+03  0.11619344668E+04  0.50400001928E-02 0.  1.
       -1    1    3    3    0  502 -0.95547231049E+03  0.28663989608E+03  0.10895883858E+04  0.14772584799E+04  0.50400001928E-02 0. -1.
</event>
<event>
 5   0  0.2623368E-06  0.2585818E+04  0.7818609E-02  0.8373035E-01
       -2   -1    0    0    0  501  0.00000000000E+00  0.00000000000E+00  0.73592877911E+03  0.73592877912E+03  0.25500000920E-02 0.  1.
        2   -1    0    0  501    0  0.00000000000E+00  0.00000000000E+00 -0.22714337154E+04  0.22714337154E+04  0.25500000920E-02 0. -1.
    10030    2    1    2    0    0  0.00000000000E+00  0.00000000000E+00 -0.15355049363E+04  0.30073624945E+04  0.25858178134E+04 0.  0.
        5    1    3    3  502    0  0.85922875977E+01  0.12815460982E+04 -0.56916118465E+03  0.14022841271E+04  0.46999998093E+01 0.  1.
       -5    1    3    3    0  502 -0.85922875977E+01 -0.12815460982E+04 -0.96634375164E+03  0.16050783674E+04  0.46999998093E+01 0. -1.
</event>
<event>
 5   0  0.2586775E-06  0.2600696E+04  0.7818609E-02  0.8367965E-01
        2   -1    0    0  501    0  0.00000000000E+00  0.00000000000E+00  0.23852719035E+04  0.23852719035E+04  0.25500000920E-02 0.  1.
       -2   -1    0    0    0  501  0.00000000000E+00  0.00000000000E+00 -0.70889384460E+03  0.70889384461E+03  0.25500000920E-02 0. -1.
    10030    2    1    2    0    0  0.00000000000E+00  0.00000000000E+00  0.16763780589E+04  0.30941657481E+04  0.26006957301E+04 0.  0.
        1    1    3    3  502    0  0.63835193425E+03 -0.62882991919E+03 -0.28294278287E+03  0.93966849347E+03  0.50400001928E-02 0. -1.
       -1    1    3    3    0  502 -0.63835193425E+03  0.62882991919E+03  0.19593208418E+04  0.21544972547E+04  0.50400001928E-02 0.  1.
</event>
<event>
 5   0  0.1032076E-06  0.2596988E+04  0.7818609E-02  0.8369225E-01
        1   -1    0    0  501    0  0.00000000000E+00  0.00000000000E+00  0.11894893410E+04  0.11894893411E+04  0.50400001928E-02 0. -1.
       -1   -1    0    0    0  501  0.00000000000E+00  0.00000000000E+00 -0.14174882698E+04  0.14174882698E+04  0.50400001928E-02 0.  1.
    10030    2    1    2    0    0  0.00000000000E+00  0.00000000000E+00 -0.22799892871E+03  0.26069776108E+04  0.25969884004E+04 0.  0.
        1    1    3    3  502    0  0.20175829090E+02  0.64407057316E+03 -0.12456569186E+04  0.14024603831E+04  0.50400001928E-02 0.  1.
       -1    1    3    3    0  502 -0.20175829090E+02 -0.64407057316E+03  0.10176579899E+04  0.12045172277E+04  0.50400001928E-02 0. -1.
</event>
<event>
 5   0  0.2623368E-06  0.2599735E+04  0.7818609E-02  0.8368291E-01
       -2   -1    0    0    0  501  0.00000000000E+00  0.00000000000E+00  0.84066717705E+03  0.84066717706E+03  0.25500000920E-02 0. -1.
        2   -1    0    0  501    0  0.00000000000E+00  0.00000000000E+00 -0.20098977072E+04  0.20098977072E+04  0.25500000920E-02 0.  1.
    10030    2    1    2    0    0  0.00000000000E+00  0.00000000000E+00 -0.11692305302E+04  0.28505648843E+04  0.25997346262E+04 0.  0.
        5    1    3    3  502    0  0.48965996507E+03  0.56553940621E+03  0.58097828928E+03  0.94718507377E+03  0.46999998093E+01 0. -1.
       -5    1    3    3    0  502 -0.48965996507E+03 -0.56553940621E+03 -0.17502088194E+04  0.19033798105E+04  0.46999998093E+01 0.  1.
</event>
<event>
 5   0  0.9197000E-07  0.2588761E+04  0.7818609E-02  0.8372029E-01
        3   -1    0    0  501    0  0.00000000000E+00  0.00000000000E+00  0.11615666586E+04  0.11615666630E+04  0.10100000352E+00 0.  1.
       -3   -1    0    0    0  501  0.00000000000E+00  0.00000000000E+00 -0.14423805601E+04  0.14423805636E+04  0.10100000352E+00 0. -1.
    10030    2    1    2    0    0  0.00000000000E+00  0.00000000000E+00 -0.28081390147E+03  0.26039472267E+04  0.25887612312E+04 0.  0.
        3    1    3    3  502    0  0.11246955422E+04 -0.58262191171E+03 -0.40849020660E+03  0.13308841474E+04  0.10100000352E+00 0. -1.
       -3    1    3    3    0  502 -0.11246955422E+04  0.58262191171E+03  0.12767630513E+03  0.12730630793E+04  0.10100000352E+00 0.  1.
</event>
<event>
 5   0  0.2705807E-06  0.2610101E+04  0.7818609E-02  0.8364778E-01
       -2   -1    0    0    0  501  0.00000000000E+00  0.00000000000E+00  0.59001459954E+03  0.59001459955E+03  0.25500000920E-02 0.  1.
        2   -1    0    0  501    0  0.00000000000E+00  0.00000000000E+00 -0.28866351244E+04  0.28866351244E+04  0.25500000920E-02 0. -1.
    10030    2    1    2    0    0  0.00000000000E+00  0.00000000000E+00 -0.22966205248E+04  0.34766497239E+04  0.26101010455E+04 0.  0.
        4    1    3    3  502    0 -0.89352607653E+03  0.90705876630E+03 -0.15297615967E+04  0.19903056576E+04  0.12699999809E+01 0. -1.
       -4    1    3    3    0  502  0.89352607653E+03 -0.90705876630E+03 -0.76685892811E+03  0.14863440663E+04  0.12699999809E+01 0.  1.
</event>
<event>
 5   0  0.2705807E-06  0.2594677E+04  0.7818609E-02  0.8370012E-01
       -2   -1    0    0    0  501  0.00000000000E+00  0.00000000000E+00  0.13171425794E+04  0.13171425794E+04  0.25500000920E-02 0.  1.
        2   -1    0    0  501    0  0.00000000000E+00  0.00000000000E+00 -0.12778318369E+04  0.12778318369E+04  0.25500000920E-02 0. -1.
    10030    2    1    2    0    0  0.00000000000E+00  0.00000000000E+00  0.39310742537E+02  0.25949744163E+04  0.25946766439E+04 0.  0.
        4    1    3    3  502    0 -0.11575155498E+04 -0.47077834464E+03  0.36842252169E+03  0.13027706112E+04  0.12699999809E+01 0.  1.
       -4    1    3    3    0  502  0.11575155498E+04  0.47077834464E+03 -0.32911177915E+03  0.12922038051E+04  0.12699999809E+01 0. -1.
</event>
<event>
 5   0  0.1122628E-06  0.2597857E+04  0.7818609E-02  0.8368930E-01
       -1   -1    0    0    0  501  0.00000000000E+00  0.00000000000E+00  0.10431282522E+04  0.10431282522E+04  0.50400001928E-02 0. -1.
        1   -1    0    0  501    0  0.00000000000E+00  0.00000000000E+00 -0.16174568597E+04  0.16174568597E+04  0.50400001928E-02 0.  1.
    10030    2    1    2    0    0  0.00000000000E+00  0.00000000000E+00 -0.57432860758E+03  0.26605851119E+04  0.25978567682E+04 0.  0.
        2    1    3    3  502    0 -0.16158632313E+03  0.50881917597E+03 -0.14999055580E+04  0.15920815860E+04  0.25500000920E-02 0.  1.
       -2    1    3    3    0  502  0.16158632313E+03 -0.50881917597E+03  0.92557695042E+03  0.10685035259E+04  0.25500000920E-02 0. -1.
</event>
<event>
 5   0  0.1055179E-06  0.2570719E+04  0.7818609E-02  0.8378216E-01
       -1   -1    0    0    0  501  0.00000000000E+00  0.00000000000E+00  0.10259192962E+04  0.10259192962E+04  0.50400001928E-02 0. -1.
        1   -1    0    0  501    0  0.00000000000E+00  0.00000000000E+00 -0.16104084680E+04  0.16104084680E+04  0.50400001928E-02 0.  1.
    10030    2    1    2    0    0  0.00000000000E+00  0.00000000000E+00 -0.58448917177E+03  0.26363277642E+04  0.25707190606E+04 0.  0.
        3    1    3    3  502    0 -0.22885323803E+03  0.17016132869E+03 -0.15775550883E+04  0.16031246830E+04  0.10100000352E+00 0.  1.
       -3    1    3    3    0  502  0.22885323803E+03 -0.17016132869E+03  0.99306591651E+03  0.10332030812E+04  0.10100000352E+00 0. -1.
</event>
<event>
 5   0  0.1088757E-06  0.2599892E+04  0.7818609E-02  0.8368238E-01
       -1   -1    0    0    0  501  0.00000000000E+00  0.00000000000E+00  0.99539514977E+03  0.99539514979E+03  0.50400001928E-02 0.  1.
        1   -1    0    0  501    0  0.00000000000E+00  0.00000000000E+00 -0.16976772472E+04  0.16976772472E+04  0.50400001928E-02 0. -1.
    10030    2    1    2    0    0  0.00000000000E+00  0.00000000000E+00 -0.70228209745E+03  0.26930723970E+04  0.25998920730E+04 0.  0.
        5    1    3    3  502    0 -0.24783754769E+03 -0.15453420189E+03 -0.16632414891E+04  0.16886973117E+04  0.46999998093E+01 0. -1.
       -5    1    3    3    0  502  0.24783754769E+03  0.15453420189E+03  0.96095939164E+03  0.10043750853E+04  0.46999998093E+01 0.  1.
</event>
<event>
 5   0  0.2705807E-06  0.2583852E+04  0.7818609E-02  0.8373707E-01
        2   -1    0    0  501    0  0.00000000000E+00  0.00000000000E+00  0.16284881975E+04  0.16284881975E+04  0.25500000920E-02 0.  1.
       -2   -1    0    0    0  501  0.00000000000E+00  0.00000000000E+00 -0.10249215254E+04  0.10249215254E+04  0.25500000920E-02 0. -1.
    10030    2    1    2    0    0  0.00000000000E+00  0.00000000000E+00  0.60356667205E+03  0.26534097229E+04  0.25838518591E+04 0.  0.
        4    1    3    3  502    0  0.59069747203E+02 -0.19920175825E+03 -0.10076508564E+04  0.10288500556E+04  0.12699999809E+01 0. -1.
       -4    1    3    3    0  502 -0.59069747203E+02  0.19920175825E+03  0.16112175285E+04  0.16245596673E+04  0.12699999809E+01 0.  1.
</event>
<event>
 5   0  0.2623368E-06  0.2588493E+04  0.7818609E-02  0.8372120E-01
       -2   -1    0    0    0  501  0.00000000000E+00  0.00000000000E+00  0.89148116716E+03  0.89148116716E+03  0.25500000920E-02 0. -1.
        2   -1    0    0  501    0  0.00000000000E+00  0.00000000000E+00 -0.18789791560E+04  0.18789791560E+04  0.25500000920E-02 0.  1.
    10030    2    1    2    0    0  0.00000000000E+00  0.00000000000E+00 -0.98749798886E+03  0.27704603232E+04  0.25884934082E+04 0.  0.
        5    1    3    3  502    0  0.51404921875E+03  0.12889016778E+03 -0.17575140612E+04  0.18356843520E+04  0.46999998093E+01 0.  1.
       -5    1    3    3    0  502 -0.51404921875E+03 -0.12889016778E+03  0.77001607237E+03  0.93477597121E+03  0.46999998093E+01 0. -1.
</event>
<event>
 5   0  0.2586775E-06  0.2597461E+04  0.7818609E-02  0.8369064E-01
       -2   -1    0    0    0  501  0.00000000000E+00  0.00000000000E+00  0.66573988803E+03  0.66573988804E+03  0.25500000920E-02 0. -1.
        2   -1    0    0  501    0  0.00000000000E+00  0.00000000000E+00 -0.25335733200E+04  0.25335733200E+04  0.25500000920E-02 0.  1.
    10030    2    1    2    0    0  0.00000000000E+00  0.00000000000E+00 -0.18678334319E+04  0.31993132080E+04  0.25974609282E+04 0.  0.
        1    1    3    3  502    0  0.59108941826E+03 -0.10981459926E+04 -0.48745105617E+03  0.13389995719E+04  0.50400001928E-02 0. -1.
       -1    1    3    3    0  502 -0.59108941826E+03  0.10981459926E+04 -0.13803823758E+04  0.18603136361E+04  0.50400001928E-02 0.  1.
</event>
<event>
 5   0  0.2586775E-06  0.2584975E+04  0.7818609E-02  0.8373323E-01
       -2   -1    0    0    0  501  0.00000000000E+00  0.00000000000E+00  0.90805707069E+03  0.90805707069E+03  0.25500000920E-02 0. -1.
        2   -1    0    0  501    0  0.00000000000E+00  0.00000000000E+00 -0.18396679224E+04  0.18396679224E+04  0.25500000920E-02 0.  1.
    10030    2    1    2    0    0  0.00000000000E+00  0.00000000000E+00 -0.93161085173E+03  0.27477249931E+04  0.25849746340E+04 0.  0.
        1    1    3    3  502    0  0.15090006254E+03  0.10016328127E+04  0.38753665851E+03  0.10845385111E+04  0.50400001928E-02 0. -1.
       -1    1    3    3    0  502 -0.15090006254E+03 -0.10016328127E+04 -0.13191475102E+04  0.16631864820E+04  0.50400001928E-02 0.  1.
</event>
<event>
 5   0  0.1088757E-06  0.2609857E+04  0.7818609E-02  0.8364861E-01
        1   -1    0    0  501    0  0.00000000000E+00  0.00000000000E+00  0.16641943738E+04  0.16641943738E+04  0.50400001928E-02 0. -1.
       -1   -1    0    0    0  501  0.00000000000E+00  0.00000000000E+00 -0.10232205984E+04  0.10232205984E+04  0.50400001928E-02 0.  1.
    10030    2    1    2    0    0  0.00000000000E+00  0.00000000000E+00  0.64097377534E+03  0.26874149722E+04  0.26098566727E+04 0.  0.
        5    1    3    3  502    0 -0.20142458925E+03 -0.11193030759E+04  0.97934887361E+03  0.15008522735E+04  0.46999998093E+01 0. -1.
       -5    1    3    3    0  502  0.20142458925E+03  0.11193030759E+04 -0.33837509827E+03  0.11865626987E+04  0.46999998093E+01 0.  1.
</event>
<event>
 5   0  0.1088757E-06  0.2598697E+04  0.7818609E-02  0.8368644E-01
       -1   -1    0    0    0  501  0.00000000000E+00  0.00000000000E+00  0.17812514531E+04  0.17812514531E+04  0.50400001928E-02 0.  1.
        1   -1    0    0  501    0  0.00000000000E+00  0.00000000000E+00 -0.94782026437E+03  0.94782026438E+03  0.50400001928E-02 0. -1.
    10030    2    1    2    0    0  0.00000000000E+00  0.00000000000E+00  0.83343118872E+03  0.27290717175E+04  0.25986967681E+04 0.  0.
        5    1    3    3  502    0  0.96854684569E+03 -0.41145905031E+02 -0.49185276937E+03  0.10870681738E+04  0.46999998093E+01 0. -1.
       -5    1    3    3    0  502 -0.96854684569E+03  0.41145905031E+02  0.13252839581E+04  0.16420035437E+04  0.46999998093E+01 0.  1.
</event>
<event>
 5   0  0.2705807E-06  0.2598688E+04  0.7818609E-02  0.8368647E-01
       -2   -1    0    0    0  501  0.00000000000E+00  0.00000000000E+00  0.63023216783E+03  0.63023216783E+03  0.25500000920E-02 0. -1.
        2   -1    0    0  501    0  0.00000000000E+00  0.00000000000E+00 -0.26788460389E+04  0.26788460390E+04  0.25500000920E-02 0.  1.
    10030    2    1    2    0    0  0.00000000000E+00  0.00000000000E+00 -0.20486138711E+04  0.33090782068E+04  0.25986880893E+04 0.  0.
        4    1    3    3  502    0  0.10220677029E+02  0.12946099161E+04 -0.88380892475E+03  0.15675583324E+04  0.12699999809E+01 0.  1.
       -4    1    3    3    0  502 -0.10220677029E+02 -0.12946099161E+04 -0.11648049464E+04  0.17415198744E+04  0.12699999809E+01 0. -1.
</event>
<event>
 5   0  0.1100104E-06  0.2603779E+04  0.7818609E-02  0.8366919E-01
       -1   -1    0    0    0  501  0.00000000000E+00  0.00000000000E+00  0.91182016691E+03  0.91182016692E+03  0.50400001928E-02 0.  1.
        1   -1    0    0  501    0  0.00000000000E+00  0.00000000000E+00 -0.18588275577E+04  0.18588275577E+04  0.50400001928E-02 0. -1.
    10030    2    1    2    0    0  0.00000000000E+00  0.00000000000E+00 -0.94700739076E+03  0.27706477246E+04  0.26037791411E+04 0.  0.
        4    1    3    3  502    0 -0.24263163871E+03  0.50660854323E+03  0.77624041672E+03  0.95816132547E+03  0.12699999809E+01 0.  1.
       -4    1    3    3    0  502  0.24263163871E+03 -0.50660854323E+03 -0.17232478075E+04  0.18124863991E+04  0.12699999809E+01 0. -1.
</event>
<event>
 5   0  0.2705807E-06  0.2598516E+04  0.7818609E-02  0.8368705E-01
        2   -1    0    0  501    0  0.00000000000E+00  0.00000000000E+00  0.11635581651E+04  0.11635581651E+04  0.25500000920E-02 0.  1.
       -2   -1    0    0    0  501  0.00000000000E+00  0.00000000000E+00 -0.14507838518E+04  0.14507838518E+04  0.25500000920E-02 0. -1.
    10030    2    1    2    0    0  0.00000000000E+00  0.00000000000E+00 -0.28722568665E+03  0.26143420169E+04  0.25985160354E+04 0.  0.
        4    1    3    3  502    0 -0.59888838794E+03 -0.58523758787E+02  0.10149112529E+04  0.11798893150E+04  0.12699999809E+01 0.  1.
       -4    1    3    3    0  502  0.59888838794E+03  0.58523758787E+02 -0.13021369396E+04  0.14344527019E+04  0.12699999809E+01 0. -1.
</event>
<event>
 5   0  0.1055179E-06  0.2597007E+04  0.7818609E-02  0.8369218E-01
       -1   -1    0    0    0  501  0.00000000000E+00  0.00000000000E+00  0.10066153792E+04  0.10066153792E+04  0.50400001928E-02 0.  1.
        1   -1    0    0  501    0  0.00000000000E+00  0.00000000000E+00 -0.16750307612E+04  0.16750307612E+04  0.50400001928E-02 0. -1.
    10030    2    1    2    0    0  0.00000000000E+00  0.00000000000E+00 -0.66841538204E+03  0.26816461404E+04  0.25970072967E+04 0.  0.
        3    1    3    3  502    0 -0.12543486010E+03  0.75751726781E+03 -0.14154962511E+04  0.16103403249E+04  0.10100000352E+00 0. -1.
       -3    1    3    3    0  502  0.12543486010E+03 -0.75751726781E+03  0.74708086902E+03  0.10713058154E+04  0.10100000352E+00 0.  1.
</event>
<event>
 5   0  0.1100104E-06  0.2598023E+04  0.7818609E-02  0.8368873E-01
       -1   -1    0    0    0  501  0.00000000000E+00  0.00000000000E+00  0.12676486669E+04  0.12676486669E+04  0.50400001928E-02 0. -1.
        1   -1    0    0  501    0  0.00000000000E+00  0.00000000000E+00 -0.13311498776E+04  0.13311498776E+04  0.50400001928E-02 0.  1.
    10030    2    1    2    0    0  0.00000000000E+00  0.00000000000E+00 -0.63501210639E+02  0.25987985445E+04  0.25980226079E+04 0.  0.
        4    1    3    3  502    0  0.78961296320E+03 -0.27425481417E+03 -0.10263938085E+04  0.13237032137E+04  0.12699999809E+01 0.  1.
       -4    1    3    3    0  502 -0.78961296320E+03  0.27425481417E+03  0.96289259790E+03  0.12750953308E+04  0.12699999809E+01 0. -1.
</event>
<event>
 5   0  0.1122628E-06  0.2600166E+04  0.7818609E-02  0.8368145E-01
        1   -1    0    0  501    0  0.00000000000E+00  0.00000000000E+00  0.22012007724E+04  0.22012007724E+04  0.50400001928E-02 0. -1.
       -1   -1    0    0    0  501  0.00000000000E+00  0.00000000000E+00 -0.76786097216E+03  0.76786097217E+03  0.50400001928E-02 0.  1.
    10030    2    1    2    0    0  0.00000000000E+00  0.00000000000E+00  0.14333398002E+04  0.29690617445E+04  0.26001662755E+04 0.  0.
        2    1    3    3  502    0 -0.86281309638E+02 -0.12145647304E+04  0.12369487754E+04  0.17356999228E+04  0.25500000920E-02 0. -1.
       -2    1    3    3    0  502  0.86281309638E+02  0.12145647304E+04  0.19639102479E+03  0.12333618218E+04  0.25500000920E-02 0.  1.
</event>
<event>
 5   0  0.2586775E-06  0.2595197E+04  0.7818609E-02  0.8369835E-01
       -2   -1    0    0    0  501  0.00000000000E+00  0.00000000000E+00  0.90259358821E+03  0.90259358821E+03  0.25500000920E-02 0. -1.
        2   -1    0    0  501    0  0.00000000000E+00  0.00000000000E+00 -0.18654699702E+04  0.18654699702E+04  0.25500000920E-02 0.  1.
    10030    2    1    2    0    0  0.00000000000E+00  0.00000000000E+00 -0.96287638198E+03  0.27680635584E+04  0.25951965121E+04 0.  0.
        1    1    3    3  502    0  0.51634871315E+03  0.97661327556E+03  0.24461858983E+03  0.11314714924E+04  0.50400001928E-02 0. -1.
       -1    1    3    3    0  502 -0.51634871315E+03 -0.97661327556E+03 -0.12074949718E+04  0.16365920660E+04  0.50400001928E-02 0.  1.
</event>
<event>
 5   0  0.1032076E-06  0.2580809E+04  0.7818609E-02  0.8374749E-01
        1   -1    0    0  501    0  0.00000000000E+00  0.00000000000E+00  0.10188514134E+04  0.10188514134E+04  0.50400001928E-02 0.  1.
       -1   -1    0    0    0  501  0.00000000000E+00  0.00000000000E+00 -0.16343343800E+04  0.16343343800E+04  0.50400001928E-02 0. -1.
    10030    2    1    2    0    0  0.00000000000E+00  0.00000000000E+00 -0.61548296661E+03  0.26531857935E+04  0.25808090926E+04 0.  0.
        1    1    3    3  502    0 -0.10125902412E+04  0.43728658596E+03 -0.99628964069E+03  0.14863215006E+04  0.50400001928E-02 0. -1.
       -1    1    3    3    0  502  0.10125902412E+04 -0.43728658596E+03  0.38080667408E+03  0.11668642929E+04  0.50400001928E-02 0.  1.
</event>
<event>
 5   0  0.2586775E-06  0.2594329E+04  0.7818609E-02  0.8370130E-01
        2   -1    0    0  501    0  0.00000000000E+00  0.00000000000E+00  0.22136310686E+04  0.22136310686E+04  0.25500000920E-02 0.  1.
       -2   -1    0    0    0  501  0.00000000000E+00  0.00000000000E+00 -0.76012497630E+03  0.76012497631E+03  0.25500000920E-02 0. -1.
    10030    2    1    2    0    0  0.00000000000E+00  0.00000000000E+00  0.14535060923E+04  0.29737560450E+04  0.25943294036E+04 0.  0.
        1    1    3    3  502    0  0.93200377859E+03  0.28189378960E+03 -0.25564677317E+03  0.10067027489E+04  0.50400001928E-02 0. -1.
       -1    1    3    3    0  502 -0.93200377859E+03 -0.28189378960E+03  0.17091528655E+04  0.19670532961E+04  0.50400001928E-02 0.  1.
</event>
<event>
 5   0  0.2746631E-06  0.2598996E+04  0.7818609E-02  0.8368542E-01
       -2   -1    0    0    0  501  0.00000000000E+00  0.00000000000E+00  0.91734073805E+03  0.91734073806E+03  0.25500000920E-02 0. -1.
        2   -1    0    0  501    0  0.00000000000E+00  0.00000000000E+00 -0.18408595105E+04  0.18408595105E+04  0.25500000920E-02 0.  1.
    10030    2    1    2    0    0  0.00000000000E+00  0.00000000000E+00 -0.92351877244E+03  0.27582002486E+04  0.25989962847E+04 0.  0.
        2    1    3    3  502    0 -0.95312249674E+03  0.11602630848E+03 -0.13910650588E+04  0.16902563699E+04  0.25500000920E-02 0.  1.
       -2    1    3    3    0  502  0.95312249674E+03 -0.11602630848E+03  0.46754628638E+03  0.10679438787E+04  0.25500000920E-02 0. -1.
</event>
<event>
 5   0  0.2705807E-06  0.2607429E+04  0.7818609E-02  0.8365682E-01
       -2   -1    0    0    0  501  0.00000000000E+00  0.00000000000E+00  0.11720826193E+04  0.11720826193E+04  0.25500000920E-02 0. -1.
        2   -1    0    0  501    0  0.00000000000E+00  0.00000000000E+00 -0.14501289014E+04  0.14501289014E+04  0.25500000920E-02 0.  1.
    10030    2    1    2    0    0  0.00000000000E+00  0.00000000000E+00 -0.27804628213E+03  0.26222115207E+04  0.26074285271E+04 0.  0.
        4    1    3    3  502    0 -0.64744361183E+03  0.10828223855E+04  0.19144563135E+03  0.12760644935E+04  0.12699999809E+01 0. -1.
       -4    1    3    3    0  502  0.64744361183E+03 -0.10828223855E+04 -0.46949191348E+03  0.13461470271E+04  0.12699999809E+01 0.  1.
</event>
<event>
 5   0  0.1100104E-06  0.2602659E+04  0.7818609E-02  0.8367299E-01
        1   -1    0    0  501    0  0.00000000000E+00  0.00000000000E+00  0.19661975093E+04  0.19661975093E+04  0.50400001928E-02 0.  1.
       -1   -1    0    0    0  501  0.00000000000E+00  0.00000000000E+00 -0.86128589208E+03  0.86128589209E+03  0.50400001928E-02 0. -1.
    10030    2    1    2    0    0  0.00000000000E+00  0.00000000000E+00  0.11049116172E+04  0.28274834014E+04  0.26026587758E+04 0.  0.
        4    1    3    3  502    0  0.82200474728E+03 -0.69150615706E+03 -0.24556158942E+03  0.11018959465E+04  0.12699999809E+01 0.  1.
       -4    1    3    3    0  502 -0.82200474728E+03  0.69150615706E+03  0.13504732066E+04  0.17255874549E+04  0.12699999809E+01 0. -1.
</event>
<event>
 5   0  0.1032076E-06  0.2598731E+04  0.7818609E-02  0.8368632E-01
        1   -1    0    0  501    0  0.00000000000E+00  0.00000000000E+00  0.92917485801E+03  0.92917485802E+03  0.50400001928E-02 0.  1.
       -1   -1    0    0    0  501  0.00000000000E+00  0.00000000000E+00 -0.18170426397E+04  0.18170426397E+04  0.50400001928E-02 0. -1.
    10030    2    1    2    0    0  0.00000000000E+00  0.00000000000E+00 -0.88786778171E+03  0.27462174977E+04  0.25987307185E+04 0.  0.
        1    1    3    3  502    0  0.12756257002E+04  0.18394639150E+03 -0.61851625050E+03  0.14295522216E+04  0.50400001928E-02 0. -1.
       -1    1    3    3    0  502 -0.12756257002E+04 -0.18394639150E+03 -0.26935153121E+03  0.13166652762E+04  0.50400001928E-02 0.  1.
</event>
<event>
 5   0  0.2705807E-06  0.2601695E+04  0.7818609E-02  0.8367626E-01
       -2   -1    0    0    0  501  0.00000000000E+00  0.00000000000E+00  0.77346113793E+03  0.77346113794E+03  0.25500000920E-02 0. -1.
        2   -1    0    0  501    0  0.00000000000E+00  0.00000000000E+00 -0.21878337510E+04  0.21878337510E+04  0.25500000920E-02 0.  1.
    10030    2    1    2    0    0  0.00000000000E+00  0.00000000000E+00 -0.14143726131E+04  0.29612948890E+04  0.26016951264E+04 0.  0.
        4    1    3    3  502    0 -0.12284495464E+04  0.40821700944E+03 -0.56109772223E+03  0.14108726667E+04  0.12699999809E+01 0. -1.
       -4    1    3    3    0  502  0.12284495464E+04 -0.40821700944E+03 -0.85327489087E+03  0.15504222222E+04  0.12699999809E+01 0.  1.
</event>
<event>
 5   0  0.2623368E-06  0.2575806E+04  0.7818609E-02  0.8376466E-01
        2   -1    0    0  501    0  0.00000000000E+00  0.00000000000E+00  0.14903482415E+04  0.14903482415E+04  0.25500000920E-02 0.  1.
       -2   -1    0    0    0  501  0.00000000000E+00  0.00000000000E+00 -0.11129575699E+04  0.11129575699E+04  0.25500000920E-02 0. -1.
    10030    2    1    2    0    0  0.00000000000E+00  0.00000000000E+00  0.37739067159E+03  0.26033058114E+04  0.25758061706E+04 0.  0.
        5    1    3    3  502    0 -0.11802793659E+04  0.18060223289E+02 -0.33186342355E+03  0.12261896163E+04  0.46999998093E+01 0. -1.
       -5    1    3    3    0  502  0.11802793659E+04 -0.18060223289E+02  0.70925409514E+03  0.13771161951E+04  0.46999998093E+01 0.  1.
</event>
<event>
 5   0  0.1122628E-06  0.2586241E+04  0.7818609E-02  0.8372890E-01
        1   -1    0    0  501    0  0.00000000000E+00  0.00000000000E+00  0.16549886373E+04  0.16549886373E+04  0.50400001928E-02 0.  1.
       -1   -1    0    0    0  501  0.00000000000E+00  0.00000000000E+00 -0.10103762592E+04  0.10103762592E+04  0.50400001928E-02 0. -1.
    10030    2    1    2    0    0  0.00000000000E+00  0.00000000000E+00  0.64461237808E+03  0.26653648965E+04  0.25862414647E+04 0.  0.
        2    1    3    3  502    0 -0.90057056002E+03 -0.10420523656E+03 -0.62800829831E+03  0.11028510723E+04  0.25500000920E-02 0. -1.
       -2    1    3    3    0  502  0.90057056002E+03  0.10420523656E+03  0.12726206764E+04  0.15625138242E+04  0.25500000920E-02 0.  1.
</event>
<event>
 5   0  0.1055179E-06  0.2603978E+04  0.7818609E-02  0.8366851E-01
       -1   -1    0    0    0  501  0.00000000000E+00  0.00000000000E+00  0.12943885628E+04  0.12943885628E+04  0.50400001928E-02 0.  1.
        1   -1    0    0  501    0  0.00000000000E+00  0.00000000000E+00 -0.13096342223E+04  0.13096342223E+04  0.50400001928E-02 0. -1.
    10030    2    1    2    0    0  0.00000000000E+00  0.00000000000E+00 -0.15245659535E+02  0.26040227851E+04  0.26039781556E+04 0.  0.
        3    1    3    3  502    0 -0.10691787536E+04  0.73829278361E+03  0.75781879440E+02  0.13015230866E+04  0.10100000352E+00 0. -1.
       -3    1    3    3    0  502  0.10691787536E+04 -0.73829278361E+03 -0.91027538975E+02  0.13024996985E+04  0.10100000352E+00 0.  1.
</event>
<event>
 5   0  0.2746631E-06  0.2601070E+04  0.7818609E-02  0.8367838E-01
       -2   -1    0    0    0  501  0.00000000000E+00  0.00000000000E+00  0.11101542618E+04  0.11101542618E+04  0.25500000920E-02 0.  1.
        2   -1    0    0  501    0  0.00000000000E+00  0.00000000000E+00 -0.15235637829E+04  0.15235637829E+04  0.25500000920E-02 0. -1.
    10030    2    1    2    0    0  0.00000000000E+00  0.00000000000E+00 -0.41340952107E+03  0.26337180447E+04  0.26010696466E+04 0.  0.
        2    1    3    3  502    0 -0.10011489950E+04 -0.82719874162E+03 -0.13630685066E+03  0.13058088014E+04  0.25500000920E-02 0.  1.
       -2    1    3    3    0  502  0.10011489950E+04  0.82719874162E+03 -0.27710267040E+03  0.13279092432E+04  0.25500000920E-02 0. -1.
</event>
<event>
 5   0  0.2705807E-06  0.2595785E+04  0.7818609E-02  0.8369634E-01
       -2   -1    0    0    0  501  0.00000000000E+00  0.00000000000E+00  0.68614697492E+03  0.68614697492E+03  0.25500000920E-02 0.  1.
        2   -1    0    0  501    0  0.00000000000E+00  0.00000000000E+00 -0.24550492779E+04  0.24550492779E+04  0.25500000920E-02 0. -1.
    10030    2    1    2    0    0  0.00000000000E+00  0.00000000000E+00 -0.17689023030E+04  0.31411962528E+04  0.25957847640E+04 0.  0.
        4    1    3    3  502    0 -0.54380759674E+03  0.20343919315E+02 -0.23103244902E+04  0.23735503872E+04  0.12699999809E+01 0. -1.
       -4    1    3    3    0  502  0.54380759674E+03 -0.20343919315E+02  0.54142218725E+03  0.76764586566E+03  0.12699999809E+01 0.  1.
</event>
<event>
 5   0  0.1032076E-06  0.2599153E+04  0.7818609E-02  0.8368489E-01
       -1   -1    0    0    0  501  0.00000000000E+00  0.00000000000E+00  0.62346088330E+03  0.62346088333E+03  0.50400001928E-02 0. -1.
        1   -1    0    0  501    0  0.00000000000E+00  0.00000000000E+00 -0.27089096089E+04  0.27089096089E+04  0.50400001928E-02 0.  1.
    10030    2    1    2    0    0  0.00000000000E+00  0.00000000000E+00 -0.20854487256E+04  0.33323704922E+04  0.25991530756E+04 0.  0.
        1    1    3    3  502    0  0.63704015572E+03  0.10855689289E+04 -0.14574175972E+04  0.19257066526E+04  0.50400001928E-02 0. -1.
       -1    1    3    3    0  502 -0.63704015572E+03 -0.10855689289E+04 -0.62803112838E+03  0.14066638396E+04  0.50400001928E-02 0.  1.
</event>
<event>
 5   0  0.1032076E-06  0.2600723E+04  0.7818609E-02  0.8367956E-01
       -1   -1    0    0    0  501  0.00000000000E+00  0.00000000000E+00  0.13109852559E+04  0.13109852559E+04  0.50400001928E-02 0.  1.
        1   -1    0    0  501    0  0.00000000000E+00  0.00000000000E+00 -0.12898236913E+04  0.12898236913E+04  0.50400001928E-02 0. -1.
    10030    2    1    2    0    0  0.00000000000E+00  0.00000000000E+00  0.21161564564E+02  0.26008089472E+04  0.26007228549E+04 0.  0.
        1    1    3    3  502    0 -0.74259893546E+03 -0.34646259094E+03  0.10202925389E+04  0.13086200254E+04  0.50400001928E-02 0.  1.
       -1    1    3    3    0  502  0.74259893546E+03  0.34646259094E+03 -0.99913097431E+03  0.12921889218E+04  0.50400001928E-02 0. -1.
</event>
<event>
 5   0  0.2820028E-06  0.2599814E+04  0.7818609E-02  0.8368264E-01
       -2   -1    0    0    0  501  0.00000000000E+00  0.00000000000E+00  0.10696419556E+04  0.10696419556E+04  0.25500000920E-02 0.  1.
        2   -1    0    0  501    0  0.00000000000E+00  0.00000000000E+00 -0.15797418802E+04  0.15797418802E+04  0.25500000920E-02 0. -1.
    10030    2    1    2    0    0  0.00000000000E+00  0.00000000000E+00 -0.51009992457E+03  0.26493838358E+04  0.25998139889E+04 0.  0.
        3    1    3    3  502    0  0.50105248737E+02  0.49565324500E+03  0.96849886118E+03  0.10891155722E+04  0.10100000352E+00 0.  1.
       -3    1    3    3    0  502 -0.50105248737E+02 -0.49565324500E+03 -0.14785987857E+04  0.15602682637E+04  0.10100000352E+00 0. -1.
</event>
<event>
 5   0  0.1100104E-06  0.2599404E+04  0.7818609E-02  0.8368404E-01
       -1   -1    0    0    0  501  0.00000000000E+00  0.00000000000E+00  0.10248133732E+04  0.10248133732E+04  0.50400001928E-02 0. -1.
        1   -1    0    0  501    0  0.00000000000E+00  0.00000000000E+00 -0.16483251214E+04  0.16483251214E+04  0.50400001928E-02 0.  1.
    10030    2    1    2    0    0  0.00000000000E+00  0.00000000000E+00 -0.62351174824E+03  0.26731384946E+04  0.25994042608E+04 0.  0.
        4    1    3    3  502    0 -0.11775925559E+04  0.54219560859E+03 -0.21681309381E+03  0.13144237658E+04  0.12699999809E+01 0. -1.
       -4    1    3    3    0  502  0.11775925559E+04 -0.54219560859E+03 -0.40669865443E+03  0.13587147287E+04  0.12699999809E+01 0.  1.
</event>
<event>
 5   0  0.1032076E-06  0.2598751E+04  0.7818609E-02  0.8368626E-01
       -1   -1    0    0    0  501  0.00000000000E+00  0.00000000000E+00  0.18713318348E+04  0.18713318348E+04  0.50400001928E-02 0. -1.
        1   -1    0    0  501    0  0.00000000000E+00  0.00000000000E+00 -0.90223256854E+03  0.90223256856E+03  0.50400001928E-02 0.  1.
    10030    2    1    2    0    0  0.00000000000E+00  0.00000000000E+00  0.96909926622E+03  0.27735644033E+04  0.25987508752E+04 0.  0.
        1    1    3    3  502    0  0.25623054832E+03 -0.79603936772E+02 -0.87234491950E+03  0.91267548408E+03  0.50400001928E-02 0.  1.
       -1    1    3    3    0  502 -0.25623054832E+03  0.79603936772E+02  0.18414441857E+04  0.18608889192E+04  0.50400001928E-02 0. -1.
</event>
<event>
 5   0  0.1032076E-06  0.2602096E+04  0.7818609E-02  0.8367490E-01
       -1   -1    0    0    0  501  0.00000000000E+00  0.00000000000E+00  0.11603300814E+04  0.11603300814E+04  0.50400001928E-02 0.  1.
        1   -1    0    0  501    0  0.00000000000E+00  0.00000000000E+00 -0.14588313735E+04  0.14588313735E+04  0.50400001928E-02 0. -1.
    10030    2    1    2    0    0  0.00000000000E+00  0.00000000000E+00 -0.29850129206E+03  0.26191614549E+04  0.26020960216E+04 0.  0.
        1    1    3    3  502    0 -0.63358470221E+03 -0.11361013039E+04 -0.17328566485E+03  0.13123199569E+04  0.50400001928E-02 0.  1.
       -1    1    3    3    0  502  0.63358470221E+03  0.11361013039E+04 -0.12521562721E+03  0.13068414980E+04  0.50400001928E-02 0. -1.
</event>
<event>
 5   0  0.1055179E-06  0.2600688E+04  0.7818609E-02  0.8367967E-01
       -1   -1    0    0    0  501  0.00000000000E+00  0.00000000000E+00  0.12833378471E+04  0.12833378472E+04  0.50400001928E-02 0.  1.
        1   -1    0    0  501    0  0.00000000000E+00  0.00000000000E+00 -0.13175756681E+04  0.13175756681E+04  0.50400001928E-02 0. -1.
    10030    2    1    2    0    0  0.00000000000E+00  0.00000000000E+00 -0.34237820967E+02  0.26009135153E+04  0.26006881562E+04 0.  0.
        3    1    3    3  502    0  0.40178059851E+03 -0.59426650508E+03  0.10675553519E+04  0.12861783578E+04  0.10100000352E+00 0.  1.
       -3    1    3    3    0  502 -0.40178059851E+03  0.59426650508E+03 -0.11017931729E+04  0.13147351575E+04  0.10100000352E+00 0. -1.
</event>
<event>
 5   0  0.2623368E-06  0.2592170E+04  0.7818609E-02  0.8370866E-01
        2   -1    0    0  501    0  0.00000000000E+00  0.00000000000E+00  0.16408642343E+04  0.16408642343E+04  0.25500000920E-02 0. -1.
       -2   -1    0    0    0  501  0.00000000000E+00  0.00000000000E+00 -0.10237512255E+04  0.10237512255E+04  0.25500000920E-02 0.  1.
    10030    2    1    2    0    0  0.00000000000E+00  0.00000000000E+00  0.61711300876E+03  0.26646154598E+04  0.25921703422E+04 0.  0.
        5    1    3    3  502    0 -0.40600703497E+03 -0.10592452090E+03  0.15691041166E+04  0.16242449124E+04  0.46999998093E+01 0. -1.
       -5    1    3    3    0  502  0.40600703497E+03  0.10592452090E+03 -0.95199110786E+03  0.10403705475E+04  0.46999998093E+01 0.  1.
</event>
<event>
 5   0  0.1100104E-06  0.2604521E+04  0.7818609E-02  0.8366667E-01
        1   -1    0    0  501    0  0.00000000000E+00  0.00000000000E+00  0.23574477402E+04  0.23574477402E+04  0.50400001928E-02 0. -1.
       -1   -1    0    0    0  501  0.00000000000E+00  0.00000000000E+00 -0.71937199347E+03  0.71937199349E+03  0.50400001928E-02 0.  1.
    10030    2    1    2    0    0  0.00000000000E+00  0.00000000000E+00  0.16380757468E+04  0.30768197337E+04  0.26045205935E+04 0.  0.
        4    1    3    3  502    0  0.10133878417E+04  0.38414112690E+03 -0.33951270799E+02  0.10842848448E+04  0.12699999809E+01 0. -1.
       -4    1    3    3    0  502 -0.10133878417E+04 -0.38414112690E+03  0.16720270176E+04  0.19925348889E+04  0.12699999809E+01 0.  1.
</event>
<event>
 5   0  0.1032076E-06  0.2605203E+04  0.7818609E-02  0.8366436E-01
       -1   -1    0    0    0  501  0.00000000000E+00  0.00000000000E+00  0.11894272668E+04  0.11894272668E+04  0.50400001928E-02 0.  1.
        1   -1    0    0  501    0  0.00000000000E+00  0.00000000000E+00 -0.14265440698E+04  0.14265440698E+04  0.50400001928E-02 0. -1.
    10030    2    1    2    0    0  0.00000000000E+00  0.00000000000E+00 -0.23711680291E+03  0.26159713366E+04  0.26052028051E+04 0.  0.
        1    1    3    3  502    0 -0.76911167747E+03  0.53251927438E+03  0.79164351349E+03  0.12254831710E+04  0.50400001928E-02 0.  1.
       -1    1    3    3    0  502  0.76911167747E+03 -0.53251927438E+03 -0.10287603164E+04  0.13904881656E+04  0.50400001928E-02 0. -1.
</event>
<event>
 5   0  0.1032076E-06  0.2597643E+04  0.7818609E-02  0.8369002E-01
       -1   -1    0    0    0  501  0.00000000000E+00  0.00000000000E+00  0.13065945653E+04  0.13065945653E+04  0.50400001928E-02 0. -1.
        1   -1    0    0  501    0  0.00000000000E+00  0.00000000000E+00 -0.12910949867E+04  0.12910949867E+04  0.50400001928E-02 0.  1.
    10030    2    1    2    0    0  0.00000000000E+00  0.00000000000E+00  0.15499578568E+02  0.25976895520E+04  0.25976433111E+04 0.  0.
        1    1    3    3  502    0 -0.54019513234E+03  0.66842528837E+03  0.98159182413E+03  0.13046553784E+04  0.50400001928E-02 0. -1.
       -1    1    3    3    0  502  0.54019513234E+03 -0.66842528837E+03 -0.96609224557E+03  0.12930341736E+04  0.50400001928E-02 0.  1.
</event>
<event>
 5   0  0.2623368E-06  0.2595764E+04  0.7818609E-02  0.8369642E-01
       -2   -1    0    0    0  501  0.00000000000E+00  0.00000000000E+00  0.10987944029E+04  0.10987944029E+04  0.25500000920E-02 0. -1.
        2   -1    0    0  501    0  0.00000000000E+00  0.00000000000E+00 -0.15330415671E+04  0.15330415671E+04  0.25500000920E-02 0.  1.
    10030    2    1    2    0    0  0.00000000000E+00  0.00000000000E+00 -0.43424716414E+03  0.26318359700E+04  0.25957638516E+04 0.  0.
        5    1    3    3  502    0  0.82879651410E+03  0.31215636039E+03 -0.11790598339E+04  0.14746353573E+04  0.46999998093E+01 0.  1.
       -5    1    3    3    0  502 -0.82879651410E+03 -0.31215636039E+03  0.74481266972E+03  0.11572006127E+04  0.46999998093E+01 0. -1.
</event>
<event>
 5   0  0.2705807E-06  0.2599495E+04  0.7818609E-02  0.8368373E-01
       -2   -1    0    0    0  501  0.00000000000E+00  0.00000000000E+00  0.97281742149E+03  0.97281742149E+03  0.25500000920E-02 0.  1.
        2   -1    0    0  501    0  0.00000000000E+00  0.00000000000E+00 -0.17365469454E+04  0.17365469454E+04  0.25500000920E-02 0. -1.
    10030    2    1    2    0    0  0.00000000000E+00  0.00000000000E+00 -0.76372952389E+03  0.27093643669E+04  0.25994946599E+04 0.  0.
        4    1    3    3  502    0 -0.18242879701E+03 -0.84966030530E+03 -0.13892234726E+04  0.16386416235E+04  0.12699999809E+01 0. -1.
       -4    1    3    3    0  502  0.18242879701E+03  0.84966030530E+03  0.62549394875E+03  0.10707227434E+04  0.12699999809E+01 0.  1.
</event>
<event>
 5   0  0.1088757E-06  0.2591997E+04  0.7818609E-02  0.8370925E-01
        1   -1    0    0  501    0  0.00000000000E+00  0.00000000000E+00  0.19085726642E+04  0.19085726642E+04  0.50400001928E-02 0.  1.
       -1   -1    0    0    0  501  0.00000000000E+00  0.00000000000E+00 -0.88003598406E+03  0.88003598408E+03  0.50400001928E-02 0. -1.
    10030    2    1    2    0    0  0.00000000000E+00  0.00000000000E+00  0.10285366801E+04  0.27886086483E+04  0.25919973941E+04 0.  0.
        5    1    3    3  502    0 -0.51899837342E+03  0.54867731557E+03  0.16473335123E+04  0.18122185020E+04  0.46999998093E+01 0.  1.
       -5    1    3    3    0  502  0.51899837342E+03 -0.54867731557E+03 -0.61879683217E+03  0.97639014627E+03  0.46999998093E+01 0. -1.
</event>
<event>
 5   0  0.2705807E-06  0.2600512E+04  0.7818609E-02  0.8368027E-01
       -2   -1    0    0    0  501  0.00000000000E+00  0.00000000000E+00  0.98481396642E+03  0.98481396642E+03  0.25500000920E-02 0. -1.
        2   -1    0    0  501    0  0.00000000000E+00  0.00000000000E+00 -0.17167358480E+04  0.17167358480E+04  0.25500000920E-02 0.  1.
    10030    2    1    2    0    0  0.00000000000E+00  0.00000000000E+00 -0.73192188156E+03  0.27015498144E+04  0.26005118264E+04 0.  0.
        4    1    3    3  502    0  0.73005752976E+03 -0.49662022113E+03  0.62561235160E+03  0.10821312620E+04  0.12699999809E+01 0. -1.
       -4    1    3    3    0  502 -0.73005752976E+03  0.49662022113E+03 -0.13575342332E+04  0.16194185524E+04  0.12699999809E+01 0.  1.
</event>
<event>
 5   0  0.1055179E-06  0.2606944E+04  0.7818609E-02  0.8365846E-01
        1   -1    0    0  501    0  0.00000000000E+00  0.00000000000E+00  0.15493516143E+04  0.15493516143E+04  0.50400001928E-02 0. -1.
       -1   -1    0    0    0  501  0.00000000000E+00  0.00000000000E+00 -0.10966130750E+04  0.10966130750E+04  0.50400001928E-02 0.  1.
    10030    2    1    2    0    0  0.00000000000E+00  0.00000000000E+00  0.45273853933E+03  0.26459646893E+04  0.26069439871E+04 0.  0.
        3    1    3    3  502    0  0.37921097521E+02  0.48094896644E+03  0.14553984048E+04  0.15332757237E+04  0.10100000352E+00 0. -1.
       -3    1    3    3    0  502 -0.37921097521E+02 -0.48094896644E+03 -0.10026598655E+04  0.11126889656E+04  0.10100000352E+00 0.  1.
</event>
<event>
 5   0  0.2746631E-06  0.2602034E+04  0.7818609E-02  0.8367511E-01
       -2   -1    0    0    0  501  0.00000000000E+00  0.00000000000E+00  0.11319172955E+04  0.11319172955E+04  0.25500000920E-02 0. -1.
        2   -1    0    0  501    0  0.00000000000E+00  0.00000000000E+00 -0.14953787787E+04  0.14953787787E+04  0.25500000920E-02 0.  1.
    10030    2    1    2    0    0  0.00000000000E+00  0.00000000000E+00 -0.36346148322E+03  0.26272960741E+04  0.26020338990E+04 0.  0.
        2    1    3    3  502    0  0.84697983167E+03 -0.88042486687E+03 -0.63342423295E+03  0.13761355458E+04  0.25500000920E-02 0.  1.
       -2    1    3    3    0  502 -0.84697983167E+03  0.88042486687E+03  0.26996274973E+03  0.12511605284E+04  0.25500000920E-02 0. -1.
</event>
<event>
 5   0  0.2586775E-06  0.2582540E+04  0.7818609E-02  0.8374156E-01
        2   -1    0    0  501    0  0.00000000000E+00  0.00000000000E+00  0.63659835340E+03  0.63659835341E+03  0.25500000920E-02 0. -1.
       -2   -1    0    0    0  501  0.00000000000E+00  0.00000000000E+00 -0.26191992181E+04  0.26191992181E+04  0.25500000920E-02 0.  1.
    10030    2    1    2    0    0  0.00000000000E+00  0.00000000000E+00 -0.19826008647E+04  0.32557975715E+04  0.25825397650E+04 0.  0.
        1    1    3    3  502    0  0.72669027365E+03  0.10647768338E+04 -0.10852155137E+04  0.16850878823E+04  0.50400001928E-02 0.  1.
       -1    1    3    3    0  502 -0.72669027365E+03 -0.10647768338E+04 -0.89738535093E+03  0.15707096892E+04  0.50400001928E-02 0. -1.
</event>
<event>
 5   0  0.1100104E-06  0.2599880E+04  0.7818609E-02  0.8368242E-01
        1   -1    0    0  501    0  0.00000000000E+00  0.00000000000E+00  0.22674344681E+04  0.22674344681E+04  0.50400001928E-02 0. -1.
       -1   -1    0    0    0  501  0.00000000000E+00  0.00000000000E+00 -0.74526672698E+03  0.74526672700E+03  0.50400001928E-02 0.  1.
    10030    2    1    2    0    0  0.00000000000E+00  0.00000000000E+00  0.15221677411E+04  0.30127011951E+04  0.25998795854E+04 0.  0.
        4    1    3    3  502    0  0.58334751408E+02  0.99504945453E+02 -0.73932452093E+03  0.74826902751E+03  0.12699999809E+01 0.  1.
       -4    1    3    3    0  502 -0.58334751408E+02 -0.99504945453E+02  0.22614922620E+04  0.22644321676E+04  0.12699999809E+01 0. -1.
</event>
<event>
 5   0  0.2586775E-06  0.2599032E+04  0.7818609E-02  0.8368530E-01
        2   -1    0    0  501    0  0.00000000000E+00  0.00000000000E+00  0.23010543759E+04  0.23010543759E+04  0.25500000920E-02 0. -1.
       -2   -1    0    0    0  501  0.00000000000E+00  0.00000000000E+00 -0.73389924626E+03  0.73389924626E+03  0.25500000920E-02 0.  1.
    10030    2    1    2    0    0  0.00000000000E+00  0.00000000000E+00  0.15671551297E+04  0.30349536222E+04  0.25990321830E+04 0.  0.
        1    1    3    3  502    0  0.90001095952E+03  0.93028578534E+03  0.91819904711E+03  0.15869911341E+04  0.50400001928E-02 0.  1.
       -1    1    3    3    0  502 -0.90001095952E+03 -0.93028578534E+03  0.64895608255E+03  0.14479624880E+04  0.50400001928E-02 0. -1.
</event>
<event>
 5   0  0.1122628E-06  0.2595502E+04  0.7818609E-02  0.8369731E-01
       -1   -1    0    0    0  501  0.00000000000E+00  0.00000000000E+00  0.96549959343E+03  0.96549959344E+03  0.50400001928E-02 0.  1.
        1   -1    0    0  501    0  0.00000000000E+00  0.00000000000E+00 -0.17443380487E+04  0.17443380487E+04  0.50400001928E-02 0. -1.
    10030    2    1    2    0    0  0.00000000000E+00  0.00000000000E+00 -0.77883845529E+03  0.27098376422E+04  0.25955020145E+04 0.  0.
        2    1    3    3  502    0 -0.11038344624E+04  0.66435681512E+03 -0.22654325698E+03  0.13081063968E+04  0.25500000920E-02 0.  1.
       -2    1    3    3    0  502  0.11038344624E+04 -0.66435681512E+03 -0.55229519830E+03  0.14017312453E+04  0.25500000920E-02 0. -1.
</event>
<event>
 5   0  0.2705807E-06  0.2593316E+04  0.7818609E-02  0.8370475E-01
       -2   -1    0    0    0  501  0.00000000000E+00  0.00000000000E+00  0.74320548071E+03  0.74320548072E+03  0.25500000920E-02 0. -1.
        2   -1    0    0  501    0  0.00000000000E+00  0.00000000000E+00 -0.22622579956E+04  0.22622579956E+04  0.25500000920E-02 0.  1.
    10030    2    1    2    0    0  0.00000000000E+00  0.00000000000E+00 -0.15190525149E+04  0.30054634763E+04  0.25933164413E+04 0.  0.
        4    1    3    3  502    0 -0.82656384023E+03  0.21571415177E+03  0.37099496571E+03  0.93133197879E+03  0.12699999809E+01 0. -1.
       -4    1    3    3    0  502  0.82656384023E+03 -0.21571415177E+03 -0.18900474806E+04  0.20741314975E+04  0.12699999809E+01 0.  1.
</event>
<event>
 5   0  0.2820028E-06  0.2597126E+04  0.7818609E-02  0.8369178E-01
        2   -1    0    0  501    0  0.00000000000E+00  0.00000000000E+00  0.11390600018E+04  0.11390600018E+04  0.25500000920E-02 0.  1.
       -2   -1    0    0    0  501  0.00000000000E+00  0.00000000000E+00 -0.14804013692E+04  0.14804013692E+04  0.25500000920E-02 0. -1.
    10030    2    1    2    0    0  0.00000000000E+00  0.00000000000E+00 -0.34134136735E+03  0.26194613710E+04  0.25971260934E+04 0.  0.
        3    1    3    3  502    0 -0.76237386532E+03  0.10231946072E+04  0.72493679557E+02  0.12780439971E+04  0.10100000352E+00 0.  1.
       -3    1    3    3    0  502  0.76237386532E+03 -0.10231946072E+04 -0.41383504691E+03  0.13414173739E+04  0.10100000352E+00 0. -1.
</event>
<event>
 5   0  0.1122628E-06  0.2601518E+04  0.7818609E-02  0.8367686E-01
       -1   -1    0    0    0  501  0.00000000000E+00  0.00000000000E+00  0.13593762410E+04  0.13593762410E+04  0.50400001928E-02 0.  1.
        1   -1    0    0  501    0  0.00000000000E+00  0.00000000000E+00 -0.12446696505E+04  0.12446696505E+04  0.50400001928E-02 0. -1.
    10030    2    1    2    0    0  0.00000000000E+00  0.00000000000E+00  0.11470659044E+03  0.26040458915E+04  0.26015182881E+04 0.  0.
        2    1    3    3  502    0 -0.48644104800E+02 -0.68710820502E+03  0.11618248265E+04  0.13506742249E+04  0.25500000920E-02 0.  1.
       -2    1    3    3    0  502  0.48644104800E+02  0.68710820502E+03 -0.10471182361E+04  0.12533716666E+04  0.25500000920E-02 0. -1.
</event>
<event>
 5   0  0.1100104E-06  0.2606767E+04  0.7818609E-02  0.8365906E-01
       -1   -1    0    0    0  501  0.00000000000E+00  0.00000000000E+00  0.11439789291E+04  0.11439789291E+04  0.50400001928E-02 0. -1.
        1   -1    0    0  501    0  0.00000000000E+00  0.00000000000E+00 -0.14850001458E+04  0.14850001458E+04  0.50400001928E-02 0.  1.
    10030    2    1    2    0    0  0.00000000000E+00  0.00000000000E+00 -0.34102121674E+03  0.26289790750E+04  0.26067672520E+04 0.  0.
        4    1    3    3  502    0  0.10893464096E+04 -0.21441022798E+03 -0.85908733082E+03  0.14038091041E+04  0.12699999809E+01 0.  1.
       -4    1    3    3    0  502 -0.10893464096E+04  0.21441022798E+03  0.51806611408E+03  0.12251699708E+04  0.12699999809E+01 0. -1.
</event>
<event>
 5   0  0.1055179E-06  0.2603423E+04  0.7818609E-02  0.8367039E-01
        1   -1    0    0  501    0  0.00000000000E+00  0.00000000000E+00  0.17110981581E+04  0.17110981581E+04  0.50400001928E-02 0.  1.
       -1   -1    0    0    0  501  0.00000000000E+00  0.00000000000E+00 -0.99027231403E+03  0.99027231404E+03  0.50400001928E-02 0. -1.
    10030    2    1    2    0    0  0.00000000000E+00  0.00000000000E+00  0.72082584407E+03  0.27013704721E+04  0.26034232330E+04 0.  0.
        3    1    3    3  502    0  0.53934401776E+03 -0.11037612011E+04 -0.86213789631E+02  0.12315086626E+04  0.10100000352E+00 0. -1.
       -3    1    3    3    0  502 -0.53934401776E+03  0.11037612011E+04  0.80703963370E+03  0.14698618095E+04  0.10100000352E+00 0.  1.
</event>
<event>
 5   0  0.1055179E-06  0.2595032E+04  0.7818609E-02  0.8369891E-01
       -1   -1    0    0    0  501  0.00000000000E+00  0.00000000000E+00  0.13547995232E+04  0.13547995232E+04  0.50400001928E-02 0.  1.
        1   -1    0    0  501    0  0.00000000000E+00  0.00000000000E+00 -0.12426541587E+04  0.12426541587E+04  0.50400001928E-02 0. -1.
    10030    2    1    2    0    0  0.00000000000E+00  0.00000000000E+00  0.11214536449E+03  0.25974536819E+04  0.25950316080E+04 0.  0.
        3    1    3    3  502    0  0.46367515096E+03  0.86907439186E+03 -0.78926415947E+03  0.12622293246E+04  0.10100000352E+00 0. -1.
       -3    1    3    3    0  502 -0.46367515096E+03 -0.86907439186E+03  0.90140952396E+03  0.13352243573E+04  0.10100000352E+00 0.  1.
</event>
<event>
 5   0  0.2586775E-06  0.2557651E+04  0.7818609E-02  0.8382730E-01
       -2   -1    0    0    0  501  0.00000000000E+00  0.00000000000E+00  0.96603312759E+03  0.96603312760E+03  0.25500000920E-02 0. -1.
        2   -1    0    0  501    0  0.00000000000E+00  0.00000000000E+00 -0.16928973562E+04  0.16928973562E+04  0.25500000920E-02 0.  1.
    10030    2    1    2    0    0  0.00000000000E+00  0.00000000000E+00 -0.72686422860E+03  0.26589304838E+04  0.25576512098E+04 0.  0.
        1    1    3    3  502    0  0.94151092303E+03  0.86066647739E+03 -0.26926190471E+03  0.13037222008E+04  0.50400001928E-02 0. -1.
       -1    1    3    3    0  502 -0.94151092303E+03 -0.86066647739E+03 -0.45760232389E+03  0.13552082830E+04  0.50400001928E-02 0.  1.
</event>
<event>
 5   0  0.2623368E-06  0.2607110E+04  0.7818609E-02  0.8365790E-01
        2   -1    0    0  501    0  0.00000000000E+00  0.00000000000E+00  0.67088190315E+03  0.67088190315E+03  0.25500000920E-02 0. -1.
       -2   -1    0    0    0  501  0.00000000000E+00  0.00000000000E+00 -0.25328683676E+04  0.25328683676E+04  0.25500000920E-02 0.  1.
    10030    2    1    2    0    0  0.00000000000E+00  0.00000000000E+00 -0.18619864644E+04  0.32037502707E+04  0.26071099331E+04 0.  0.
        5    1    3    3  502    0 -0.23958086094E+03  0.46050842914E+03 -0.24003655844E+04  0.24558591228E+04  0.46999998093E+01 0.  1.
       -5    1    3    3    0  502  0.23958086094E+03 -0.46050842914E+03  0.53837912001E+03  0.74789114790E+03  0.46999998093E+01 0. -1.
</event>
<event>
 5   0  0.2746631E-06  0.2594452E+04  0.7818609E-02  0.8370088E-01
        2   -1    0    0  501    0  0.00000000000E+00  0.00000000000E+00  0.14784422096E+04  0.14784422096E+04  0.25500000920E-02 0. -1.
       -2   -1    0    0    0  501  0.00000000000E+00  0.00000000000E+00 -0.11382215839E+04  0.11382215839E+04  0.25500000920E-02 0.  1.
    10030    2    1    2    0    0  0.00000000000E+00  0.00000000000E+00  0.34022062566E+03  0.26166637935E+04  0.25944516442E+04 0.  0.
        2    1    3    3  502    0  0.71271257232E+03 -0.10231264449E+04 -0.19079109458E+03  0.12614072200E+04  0.25500000920E-02 0. -1.
       -2    1    3    3    0  502 -0.71271257232E+03  0.10231264449E+04  0.53101172024E+03  0.13552565735E+04  0.25500000920E-02 0.  1.
</event>
<event>
 5   0  0.1032076E-06  0.2599752E+04  0.7818609E-02  0.8368285E-01
        1   -1    0    0  501    0  0.00000000000E+00  0.00000000000E+00  0.22369030349E+04  0.22369030349E+04  0.50400001928E-02 0. -1.
       -1   -1    0    0    0  501  0.00000000000E+00  0.00000000000E+00 -0.75536471817E+03  0.75536471818E+03  0.50400001928E-02 0.  1.
    10030    2    1    2    0    0  0.00000000000E+00  0.00000000000E+00  0.14815383168E+04  0.29922677531E+04  0.25997520117E+04 0.  0.
        1    1    3    3  502    0  0.12109850844E+04 -0.18185833497E+03  0.12426293833E+04  0.17446160360E+04  0.50400001928E-02 0. -1.
       -1    1    3    3    0  502 -0.12109850844E+04  0.18185833497E+03  0.23890893344E+03  0.12476517171E+04  0.50400001928E-02 0.  1.
</event>
<event>
 5   0  0.2746631E-06  0.2603048E+04  0.7818609E-02  0.8367166E-01
        2   -1    0    0  501    0  0.00000000000E+00  0.00000000000E+00  0.12823130971E+04  0.12823130971E+04  0.25500000920E-02 0.  1.
       -2   -1    0    0    0  501  0.00000000000E+00  0.00000000000E+00 -0.13210230850E+04  0.13210230850E+04  0.25500000920E-02 0. -1.
    10030    2    1    2    0    0  0.00000000000E+00  0.00000000000E+00 -0.38709987905E+02  0.26033361820E+04  0.26030483694E+04 0.  0.
        2    1    3    3  502    0  0.18011305274E+03  0.12193781327E+04 -0.43730245785E+03  0.13078827095E+04  0.25500000920E-02 0. -1.
       -2    1    3    3    0  502 -0.18011305274E+03 -0.12193781327E+04  0.39859246995E+03  0.12954534725E+04  0.25500000920E-02 0.  1.
</event>
<event>
 5   0  0.1032076E-06  0.2600135E+04  0.7818609E-02  0.8368155E-01
       -1   -1    0    0    0  501  0.00000000000E+00  0.00000000000E+00  0.13746748720E+04  0.13746748720E+04  0.50400001928E-02 0.  1.
        1   -1    0    0  501    0  0.00000000000E+00  0.00000000000E+00 -0.12295089395E+04  0.12295089395E+04  0.50400001928E-02 0. -1.
    10030    2    1    2    0    0  0.00000000000E+00  0.00000000000E+00  0.14516593246E+03  0.26041838115E+04  0.26001346458E+04 0.  0.
        1    1    3    3  502    0  0.32739956884E+03  0.24707672709E+03 -0.11630065883E+04  0.12332160034E+04  0.50400001928E-02 0. -1.
       -1    1    3    3    0  502 -0.32739956884E+03 -0.24707672709E+03  0.13081725207E+04  0.13709678081E+04  0.50400001928E-02 0.  1.
</event>
<event>
 5   0  0.1088757E-06  0.2585604E+04  0.7818609E-02  0.8373108E-01
       -1   -1    0    0    0  501  0.00000000000E+00  0.00000000000E+00  0.97364907354E+03  0.97364907355E+03  0.50400001928E-02 0.  1.
        1   -1    0    0  501    0  0.00000000000E+00  0.00000000000E+00 -0.17165705824E+04  0.17165705824E+04  0.50400001928E-02 0. -1.
    10030    2    1    2    0    0  0.00000000000E+00  0.00000000000E+00 -0.74292150883E+03  0.26902196559E+04  0.25856042676E+04 0.  0.
        5    1    3    3  502    0 -0.38595757002E+02  0.68904485291E+03 -0.15088717440E+04  0.16592132086E+04  0.46999998093E+01 0. -1.
       -5    1    3    3    0  502  0.38595757002E+02 -0.68904485291E+03  0.76595023514E+03  0.10310064474E+04  0.46999998093E+01 0.  1.
</event>
<event>
 5   0  0.2705807E-06  0.2597984E+04  0.7818609E-02  0.8368886E-01
        2   -1    0    0  501    0  0.00000000000E+00  0.00000000000E+00  0.13819940442E+04  0.13819940442E+04  0.25500000920E-02 0.  1.
       -2   -1    0    0    0  501  0.00000000000E+00  0.00000000000E+00 -0.12209749962E+04  0.12209749962E+04  0.25500000920E-02 0. -1.
    10030    2    1    2    0    0  0.00000000000E+00  0.00000000000E+00  0.16101904806E+03  0.26029690404E+04  0.25979839667E+04 0.  0.
        4    1    3    3  502    0 -0.15194961034E+02  0.64141468902E+03 -0.10511420955E+04  0.12314808192E+04  0.12699999809E+01 0. -1.
       -4    1    3    3    0  502  0.15194961034E+02 -0.64141468902E+03  0.12121611436E+04  0.13714882212E+04  0.12699999809E+01 0.  1.
</event>
<event>
 5   0  0.1055179E-06  0.2564942E+04  0.7818609E-02  0.8380208E-01
        1   -1    0    0  501    0  0.00000000000E+00  0.00000000000E+00  0.12416117135E+04  0.12416117135E+04  0.50400001928E-02 0.  1.
       -1   -1    0    0    0  501  0.00000000000E+00  0.00000000000E+00 -0.13246751392E+04  0.13246751392E+04  0.50400001928E-02 0. -1.
    10030    2    1    2    0    0  0.00000000000E+00  0.00000000000E+00 -0.83063425665E+02  0.25662868527E+04  0.25649422367E+04 0.  0.
        3    1    3    3  502    0  0.27910065200E+03 -0.95740751233E+03  0.76524442231E+03  0.12570303714E+04  0.10100000352E+00 0.  1.
       -3    1    3    3    0  502 -0.27910065200E+03  0.95740751233E+03 -0.84830784798E+03  0.13092564813E+04  0.10100000352E+00 0. -1.
</event>
<event>
 5   0  0.9197000E-07  0.2589931E+04  0.7818609E-02  0.8371629E-01
       -3   -1    0    0    0  501  0.00000000000E+00  0.00000000000E+00  0.19396779870E+04  0.19396779896E+04  0.10100000352E+00 0. -1.
        3   -1    0    0  501    0  0.00000000000E+00  0.00000000000E+00 -0.86454346555E+03  0.86454347145E+03  0.10100000352E+00 0.  1.
    10030    2    1    2    0    0  0.00000000000E+00  0.00000000000E+00  0.10751345214E+04  0.28042214610E+04  0.25899312275E+04 0.  0.
        2    1    3    3  502    0  0.32110026643E+03 -0.11825325208E+04  0.99108840641E+03  0.15759900930E+04  0.25500000920E-02 0. -1.
       -2    1    3    3    0  502 -0.32110026643E+03  0.11825325208E+04  0.84046115002E+02  0.12282313680E+04  0.25500000920E-02 0.  1.
</event>
<event>
 5   0  0.1032076E-06  0.2600548E+04  0.7818609E-02  0.8368015E-01
        1   -1    0    0  501    0  0.00000000000E+00  0.00000000000E+00  0.17515639875E+04  0.17515639875E+04  0.50400001928E-02 0. -1.
       -1   -1    0    0    0  501  0.00000000000E+00  0.00000000000E+00 -0.96525894076E+03  0.96525894077E+03  0.50400001928E-02 0.  1.
    10030    2    1    2    0    0  0.00000000000E+00  0.00000000000E+00  0.78630504675E+03  0.27168229283E+04  0.26005482493E+04 0.  0.
        1    1    3    3  502    0  0.52657811621E+03 -0.95271433092E+03 -0.34981570368E+03  0.11433810106E+04  0.50400001928E-02 0.  1.
       -1    1    3    3    0  502 -0.52657811621E+03  0.95271433092E+03  0.11361207504E+04  0.15734419177E+04  0.50400001928E-02 0. -1.
</event>
<event>
 5   0  0.1122628E-06  0.2596209E+04  0.7818609E-02  0.8369490E-01
       -1   -1    0    0    0  501  0.00000000000E+00  0.00000000000E+00  0.11947816813E+04  0.11947816813E+04  0.50400001928E-02 0.  1.
        1   -1    0    0  501    0  0.00000000000E+00  0.00000000000E+00 -0.14103621103E+04  0.14103621103E+04  0.50400001928E-02 0. -1.
    10030    2    1    2    0    0  0.00000000000E+00  0.00000000000E+00 -0.21558042903E+03  0.26051437917E+04  0.25962086307E+04 0.  0.
        2    1    3    3  502    0  0.10612535805E+04 -0.42213691854E+03  0.51127396044E+03  0.12513431994E+04  0.25500000920E-02 0.  1.
       -2    1    3    3    0  502 -0.10612535805E+04  0.42213691854E+03 -0.72685438947E+03  0.13538005923E+04  0.25500000920E-02 0. -1.
</event>
<event>
 5   0  0.1100104E-06  0.2600460E+04  0.7818609E-02  0.8368045E-01
        1   -1    0    0  501    0  0.00000000000E+00  0.00000000000E+00  0.20909784047E+04  0.20909784047E+04  0.50400001928E-02 0. -1.
       -1   -1    0    0    0  501  0.00000000000E+00  0.00000000000E+00 -0.80851997226E+03  0.80851997228E+03  0.50400001928E-02 0.  1.
    10030    2    1    2    0    0  0.00000000000E+00  0.00000000000E+00  0.12824584325E+04  0.28994983770E+04  0.26004598069E+04 0.  0.
        4    1    3    3  502    0  0.61474494896E+03  0.20273466725E+03 -0.61608887577E+03  0.89363292986E+03  0.12699999809E+01 0.  1.
       -4    1    3    3    0  502 -0.61474494896E+03 -0.20273466725E+03  0.18985473082E+04  0.20058654472E+04  0.12699999809E+01 0. -1.
</event>
<event>
 5   0  0.1088757E-06  0.2602837E+04  0.7818609E-02  0.8367238E-01
        1   -1    0    0  501    0  0.00000000000E+00  0.00000000000E+00  0.14284440095E+04  0.14284440095E+04  0.50400001928E-02 0. -1.
       -1   -1    0    0    0  501  0.00000000000E+00  0.00000000000E+00 -0.11856884597E+04  0.11856884597E+04  0.50400001928E-02 0.  1.
    10030    2    1    2    0    0  0.00000000000E+00  0.00000000000E+00  0.24275554980E+03  0.26141324692E+04  0.26028365891E+04 0.  0.
        5    1    3    3  502    0  0.64144158989E+03 -0.41296639333E+03  0.11803153910E+04  0.14054021018E+04  0.46999998093E+01 0. -1.
       -5    1    3    3    0  502 -0.64144158989E+03  0.41296639333E+03 -0.93755984125E+03  0.12087303674E+04  0.46999998093E+01 0.  1.
</event>
<event>
 5   0  0.2586775E-06  0.2598677E+04  0.7818609E-02  0.8368651E-01
        2   -1    0    0  501    0  0.00000000000E+00  0.00000000000E+00  0.19204300548E+04  0.19204300548E+04  0.25500000920E-02 0. -1.
       -2   -1    0    0    0  501  0.00000000000E+00  0.00000000000E+00 -0.87911590152E+03  0.87911590152E+03  0.25500000920E-02 0.  1.
    10030    2    1    2    0    0  0.00000000000E+00  0.00000000000E+00  0.10413141533E+04  0.27995459563E+04  0.25986770472E+04 0.  0.
        1    1    3    3  502    0  0.84468380860E+03  0.96195180384E+03  0.76019171612E+03  0.14888698582E+04  0.50400001928E-02 0. -1.
       -1    1    3    3    0  502 -0.84468380860E+03 -0.96195180384E+03  0.28112243713E+03  0.13106760981E+04  0.50400001928E-02 0.  1.
</event>
<event>
 5   0  0.1122628E-06  0.2600194E+04  0.7818609E-02  0.8368135E-01
        1   -1    0    0  501    0  0.00000000000E+00  0.00000000000E+00  0.30510093306E+04  0.30510093307E+04  0.50400001928E-02 0. -1.
       -1   -1    0    0    0  501  0.00000000000E+00  0.00000000000E+00 -0.55399776109E+03  0.55399776111E+03  0.50400001928E-02 0.  1.
    10030    2    1    2    0    0  0.00000000000E+00  0.00000000000E+00  0.24970115696E+04  0.36050070918E+04  0.26001940991E+04 0.  0.
        2    1    3    3  502    0 -0.74953171830E+03 -0.21601678067E+03 -0.19351691071E+03  0.80368516286E+03  0.25500000920E-02 0.  1.
       -2    1    3    3    0  502  0.74953171830E+03  0.21601678067E+03  0.26905284803E+04  0.28013219289E+04  0.25500000920E-02 0. -1.
</event>
<event>
 5   0  0.2820028E-06  0.2602455E+04  0.7818609E-02  0.8367368E-01
       -2   -1    0    0    0  501  0.00000000000E+00  0.00000000000E+00  0.83874453589E+03  0.83874453589E+03  0.25500000920E-02 0. -1.
        2   -1    0    0  501    0  0.00000000000E+00  0.00000000000E+00 -0.20187227188E+04  0.20187227188E+04  0.25500000920E-02 0.  1.
    10030    2    1    2    0    0  0.00000000000E+00  0.00000000000E+00 -0.11799781829E+04  0.28574672547E+04  0.26024547257E+04 0.  0.
        3    1    3    3  502    0 -0.10101673390E+04 -0.12290333867E+03 -0.14804098556E+04  0.17964288559E+04  0.10100000352E+00 0.  1.
       -3    1    3    3    0  502  0.10101673390E+04  0.12290333867E+03  0.30043167273E+03  0.10610383988E+04  0.10100000352E+00 0. -1.
</event>
<event>
 5   0  0.1100104E-06  0.2545993E+04  0.7818609E-02  0.8386781E-01
        1   -1    0    0  501    0  0.00000000000E+00  0.00000000000E+00  0.12946951569E+04  0.12946951569E+04  0.50400001928E-02 0.  1.
       -1   -1    0    0    0  501  0.00000000000E+00  0.00000000000E+00 -0.12516618711E+04  0.12516618711E+04  0.50400001928E-02 0. -1.
    10030    2    1    2    0    0  0.00000000000E+00  0.00000000000E+00  0.43033285789E+02  0.25463570281E+04  0.25459933721E+04 0.  0.
        4    1    3    3  502    0  0.68834068125E+03  0.97392412462E+03 -0.42371865799E+03  0.12656540633E+04  0.12699999809E+01 0. -1.
       -4    1    3    3    0  502 -0.68834068125E+03 -0.97392412462E+03  0.46675194378E+03  0.12807029647E+04  0.12699999809E+01 0.  1.
</event>
<event>
 5   0  0.2586775E-06  0.2586379E+04  0.7818609E-02  0.8372843E-01
       -2   -1    0    0    0  501  0.00000000000E+00  0.00000000000E+00  0.87059364893E+03  0.87059364893E+03  0.25500000920E-02 0.  1.
        2   -1    0    0  501    0  0.00000000000E+00  0.00000000000E+00 -0.19209174524E+04  0.19209174524E+04  0.25500000920E-02 0. -1.
    10030    2    1    2    0    0  0.00000000000E+00  0.00000000000E+00 -0.10503238034E+04  0.27915111013E+04  0.25863785756E+04 0.  0.
        1    1    3    3  502    0 -0.11987430564E+04  0.47003108893E+03 -0.65478907661E+03  0.14445285995E+04  0.50400001928E-02 0. -1.
       -1    1    3    3    0  502  0.11987430564E+04 -0.47003108893E+03 -0.39553472682E+03  0.13469825018E+04  0.50400001928E-02 0.  1.
</event>
<event>
 5   0  0.1055179E-06  0.2603780E+04  0.7818609E-02  0.8366918E-01
       -1   -1    0    0    0  501  0.00000000000E+00  0.00000000000E+00  0.13011070069E+04  0.13011070069E+04  0.50400001928E-02 0.  1.
        1   -1    0    0  501    0  0.00000000000E+00  0.00000000000E+00 -0.13026732929E+04  0.13026732929E+04  0.50400001928E-02 0. -1.
    10030    2    1    2    0    0  0.00000000000E+00  0.00000000000E+00 -0.15662860112E+01  0.26037802999E+04  0.26037798288E+04 0.  0.
        3    1    3    3  502    0  0.10228405260E+04 -0.41583577932E+03  0.68899607825E+03  0.13014752180E+04  0.10100000352E+00 0.  1.
       -3    1    3    3    0  502 -0.10228405260E+04  0.41583577932E+03 -0.69056236427E+03  0.13023050819E+04  0.10100000352E+00 0. -1.
</event>
<event>
 5   0  0.2705807E-06  0.2601413E+04  0.7818609E-02  0.8367721E-01
       -2   -1    0    0    0  501  0.00000000000E+00  0.00000000000E+00  0.13250665787E+04  0.13250665787E+04  0.25500000920E-02 0. -1.
        2   -1    0    0  501    0  0.00000000000E+00  0.00000000000E+00 -0.12767946244E+04  0.12767946244E+04  0.25500000920E-02 0.  1.
    10030    2    1    2    0    0  0.00000000000E+00  0.00000000000E+00  0.48271954302E+02  0.26018612032E+04  0.26014133733E+04 0.  0.
        4    1    3    3  502    0 -0.81004954270E+03  0.82035762643E+02  0.10386705655E+04  0.13197531150E+04  0.12699999809E+01 0. -1.
       -4    1    3    3    0  502  0.81004954270E+03 -0.82035762643E+02 -0.99039861116E+03  0.12821080882E+04  0.12699999809E+01 0.  1.
</event>
<event>
 5   0  0.2705807E-06  0.2667304E+04  0.7818609E-02  0.8345692E-01
        2   -1    0    0  501    0  0.00000000000E+00  0.00000000000E+00  0.26111197666E+04  0.26111197666E+04  0.25500000920E-02 0. -1.
       -2   -1    0    0    0  501  0.00000000000E+00  0.00000000000E+00 -0.68117415761E+03  0.68117415761E+03  0.25500000920E-02 0.  1.
    10030    2    1    2    0    0  0.00000000000E+00  0.00000000000E+00  0.19299456090E+04  0.32922939243E+04  0.26673037378E+04 0.  0.
        4    1    3    3  502    0 -0.22839616204E+03  0.50427106258E+03 -0.53265999240E+03  0.76823329255E+03  0.12699999809E+01 0.  1.
       -4    1    3    3    0  502  0.22839616204E+03 -0.50427106258E+03  0.24626056014E+04  0.25240606317E+04  0.12699999809E+01 0. -1.
</event>
<event>
 5   0  0.2623368E-06  0.2596037E+04  0.7818609E-02  0.8369548E-01
       -2   -1    0    0    0  501  0.00000000000E+00  0.00000000000E+00  0.98642927556E+03  0.98642927557E+03  0.25500000920E-02 0.  1.
        2   -1    0    0  501    0  0.00000000000E+00  0.00000000000E+00 -0.17080317671E+04  0.17080317671E+04  0.25500000920E-02 0. -1.
    10030    2    1    2    0    0  0.00000000000E+00  0.00000000000E+00 -0.72160249154E+03  0.26944610427E+04  0.25960373947E+04 0.  0.
        5    1    3    3  502    0  0.91593135777E+03  0.81563905873E+03 -0.80192420218E+03  0.14653674769E+04  0.46999998093E+01 0.  1.
       -5    1    3    3    0  502 -0.91593135777E+03 -0.81563905873E+03  0.80321710635E+02  0.12290935658E+04  0.46999998093E+01 0. -1.
</event>
<event>
 5   0  0.2746631E-06  0.2600446E+04  0.7818609E-02  0.8368050E-01
        2   -1    0    0  501    0  0.00000000000E+00  0.00000000000E+00  0.11590667813E+04  0.11590667813E+04  0.25500000920E-02 0. -1.
       -2   -1    0    0    0  501  0.00000000000E+00  0.00000000000E+00 -0.14585693088E+04  0.14585693088E+04  0.25500000920E-02 0.  1.
    10030    2    1    2    0    0  0.00000000000E+00  0.00000000000E+00 -0.29950252751E+03  0.26176360902E+04  0.26004455266E+04 0.  0.
        2    1    3    3  502    0 -0.12689389998E+04 -0.22196207835E+03  0.27783247401E+02  0.12885050478E+04  0.25500000920E-02 0. -1.
       -2    1    3    3    0  502  0.12689389998E+04  0.22196207835E+03 -0.32728577492E+03  0.13291310424E+04  0.25500000920E-02 0.  1.
</event>
<event>
 5   0  0.2820028E-06  0.2592443E+04  0.7818609E-02  0.8370773E-01
        2   -1    0    0  501    0  0.00000000000E+00  0.00000000000E+00  0.22790272979E+04  0.22790272979E+04  0.25500000920E-02 0.  1.
       -2   -1    0    0    0  501  0.00000000000E+00  0.00000000000E+00 -0.73723990306E+03  0.73723990306E+03  0.25500000920E-02 0. -1.
    10030    2    1    2    0    0  0.00000000000E+00  0.00000000000E+00  0.15417873949E+04  0.30162672010E+04  0.25924427586E+04 0.  0.
        3    1    3    3  502    0  0.67542542508E+03  0.51197398215E+03 -0.37019525488E+03  0.92485750263E+03  0.10100000352E+00 0. -1.
       -3    1    3    3    0  502 -0.67542542508E+03 -0.51197398215E+03  0.19119826497E+04  0.20914096983E+04  0.10100000352E+00 0.  1.
</event>
<event>
 5   0  0.2820028E-06  0.2594494E+04  0.7818609E-02  0.8370074E-01
        2   -1    0    0  501    0  0.00000000000E+00  0.00000000000E+00  0.16679382268E+04  0.16679382268E+04  0.25500000920E-02 0.  1.
       -2   -1    0    0    0  501  0.00000000000E+00  0.00000000000E+00 -0.10089404686E+04  0.10089404686E+04  0.25500000920E-02 0. -1.
    10030    2    1    2    0    0  0.00000000000E+00  0.00000000000E+00  0.65899775823E+03  0.26768786954E+04  0.25944944603E+04 0.  0.
        3    1    3    3  502    0  0.10741084645E+04  0.11178254298E+03 -0.41210585604E+03  0.11558700521E+04  0.10100000352E+00 0. -1.
       -3    1    3    3    0  502 -0.10741084645E+04 -0.11178254298E+03  0.10711036143E+04  0.15210086434E+04  0.10100000352E+00 0.  1.
</event>
<event>
 5   0  0.2746631E-06  0.2598851E+04  0.7818609E-02  0.8368592E-01
       -2   -1    0    0    0  501  0.00000000000E+00  0.00000000000E+00  0.87657600521E+03  0.87657600521E+03  0.25500000920E-02 0.  1.
        2   -1    0    0  501    0  0.00000000000E+00  0.00000000000E+00 -0.19262522515E+04  0.19262522515E+04  0.25500000920E-02 0. -1.
    10030    2    1    2    0    0  0.00000000000E+00  0.00000000000E+00 -0.10496762463E+04  0.28028282567E+04  0.25988509027E+04 0.  0.
        2    1    3    3  502    0 -0.12149802441E+04  0.34024668695E+03 -0.85997141987E+03  0.15269235883E+04  0.25500000920E-02 0.  1.
       -2    1    3    3    0  502  0.12149802441E+04 -0.34024668695E+03 -0.18970482638E+03  0.12759046684E+04  0.25500000920E-02 0. -1.
</event>
<event>
 5   0  0.9197000E-07  0.2608841E+04  0.7818609E-02  0.8365204E-01
       -3   -1    0    0    0  501  0.00000000000E+00  0.00000000000E+00  0.16154689833E+04  0.16154689864E+04  0.10100000352E+00 0. -1.
        3   -1    0    0  501    0  0.00000000000E+00  0.00000000000E+00 -0.10532623363E+04  0.10532623411E+04  0.10100000352E+00 0.  1.
    10030    2    1    2    0    0  0.00000000000E+00  0.00000000000E+00  0.56220664698E+03  0.26687313275E+04  0.26088408508E+04 0.  0.
        1    1    3    3  502    0  0.47599103055E+03  0.65261832674E+03 -0.76663337026E+03  0.11136448563E+04  0.50400001928E-02 0.  1.
       -1    1    3    3    0  502 -0.47599103055E+03 -0.65261832674E+03  0.13288400172E+04  0.15550864712E+04  0.50400001928E-02 0. -1.
</event>
<event>
 5   0  0.2623368E-06  0.2599781E+04  0.7818609E-02  0.8368276E-01
        2   -1    0    0  501    0  0.00000000000E+00  0.00000000000E+00  0.21566980102E+04  0.21566980103E+04  0.25500000920E-02 0.  1.
       -2   -1    0    0    0  501  0.00000000000E+00  0.00000000000E+00 -0.78347301422E+03  0.78347301423E+03  0.25500000920E-02 0. -1.
    10030    2    1    2    0    0  0.00000000000E+00  0.00000000000E+00  0.13732249960E+04  0.29401710245E+04  0.25997805222E+04 0.  0.
        5    1    3    3  502    0  0.35732294736E+03  0.33336395209E+02 -0.72632733937E+03  0.81016325384E+03  0.46999998093E+01 0. -1.
       -5    1    3    3    0  502 -0.35732294736E+03 -0.33336395209E+02  0.20995523354E+04  0.21300077706E+04  0.46999998093E+01 0.  1.
</event>
<event>
 5   0  0.2820028E-06  0.2599513E+04  0.7818609E-02  0.8368367E-01
        2   -1    0    0  501    0  0.00000000000E+00  0.00000000000E+00  0.18035070138E+04  0.18035070138E+04  0.25500000920E-02 0.  1.
       -2   -1    0    0    0  501  0.00000000000E+00  0.00000000000E+00 -0.93671217415E+03  0.93671217415E+03  0.25500000920E-02 0. -1.
    10030    2    1    2    0    0  0.00000000000E+00  0.00000000000E+00  0.86679483969E+03  0.27402191880E+04  0.25995130129E+04 0.  0.
        3    1    3    3  502    0  0.92441747655E+02 -0.54231188480E+03 -0.80793354414E+03  0.97744783955E+03  0.10100000352E+00 0. -1.
       -3    1    3    3    0  502 -0.92441747655E+02  0.54231188480E+03  0.16747283838E+04  0.17627713484E+04  0.10100000352E+00 0.  1.
</event>
<event>
 5   0  0.1100104E-06  0.2602342E+04  0.7818609E-02  0.8367406E-01
       -1   -1    0    0    0  501  0.00000000000E+00  0.00000000000E+00  0.10109974210E+04  0.10109974210E+04  0.50400001928E-02 0. -1.
        1   -1    0    0  501    0  0.00000000000E+00  0.00000000000E+00 -0.16746291662E+04  0.16746291662E+04  0.50400001928E-02 0.  1.
    10030    2    1    2    0    0  0.00000000000E+00  0.00000000000E+00 -0.66363174518E+03  0.26856265872E+04  0.26023418439E+04 0.  0.
        4    1    3    3  502    0 -0.78819864715E+03 -0.69528130183E+02 -0.13978077714E+04  0.16062252167E+04  0.12699999809E+01 0.  1.
       -4    1    3    3    0  502  0.78819864715E+03  0.69528130183E+02  0.73417602618E+03  0.10794013705E+04  0.12699999809E+01 0. -1.
</event>
<event>
 5   0  0.2586775E-06  0.2602460E+04  0.7818609E-02  0.8367366E-01
        2   -1    0    0  501    0  0.00000000000E+00  0.00000000000E+00  0.19681556400E+04  0.19681556400E+04  0.25500000920E-02 0.  1.
       -2   -1    0    0    0  501  0.00000000000E+00  0.00000000000E+00 -0.86029738804E+03  0.86029738804E+03  0.25500000920E-02 0. -1.
    10030    2    1    2    0    0  0.00000000000E+00  0.00000000000E+00  0.11078582519E+04  0.28284530280E+04  0.26024597260E+04 0.  0.
        1    1    3    3  502    0 -0.26071197128E+03  0.99271605995E+03  0.14232253820E+04  0.17547154742E+04  0.50400001928E-02 0.  1.
       -1    1    3    3    0  502  0.26071197128E+03 -0.99271605995E+03 -0.31536713002E+03  0.10737375538E+04  0.50400001928E-02 0. -1.
</event>
<event>
 5   0  0.2746631E-06  0.2602420E+04  0.7818609E-02  0.8367380E-01
        2   -1    0    0  501    0  0.00000000000E+00  0.00000000000E+00  0.14391977551E+04  0.14391977551E+04  0.25500000920E-02 0.  1.
       -2   -1    0    0    0  501  0.00000000000E+00  0.00000000000E+00 -0.11764519968E+04  0.11764519968E+04  0.25500000920E-02 0. -1.
    10030    2    1    2    0    0  0.00000000000E+00  0.00000000000E+00  0.26274575828E+03  0.26156497519E+04  0.26024196993E+04 0.  0.
        2    1    3    3  502    0 -0.73314333921E+03  0.10595550561E+04 -0.51184752109E+02  0.12894867008E+04  0.25500000920E-02 0. -1.
       -2    1    3    3    0  502  0.73314333921E+03 -0.10595550561E+04  0.31393051039E+03  0.13261630511E+04  0.25500000920E-02 0.  1.
</event>
<event>
 5   0  0.1122628E-06  0.2599967E+04  0.7818609E-02  0.8368212E-01
        1   -1    0    0  501    0  0.00000000000E+00  0.00000000000E+00  0.21644503576E+04  0.21644503576E+04  0.50400001928E-02 0. -1.
       -1   -1    0    0    0  501  0.00000000000E+00  0.00000000000E+00 -0.78077910646E+03  0.78077910647E+03  0.50400001928E-02 0.  1.
    10030    2    1    2    0    0  0.00000000000E+00  0.00000000000E+00  0.13836712512E+04  0.29452294641E+04  0.25999673969E+04 0.  0.
        2    1    3    3  502    0  0.80165484423E+03  0.47091436727E+03  0.17210884795E+04  0.19561585786E+04  0.25500000920E-02 0. -1.
       -2    1    3    3    0  502 -0.80165484423E+03 -0.47091436727E+03 -0.33741722828E+03  0.98907088549E+03  0.25500000920E-02 0.  1.
</event>
<event>
 5   0  0.2623368E-06  0.2604647E+04  0.7818609E-02  0.8366624E-01
       -2   -1    0    0    0  501  0.00000000000E+00  0.00000000000E+00  0.11746897696E+04  0.11746897696E+04  0.25500000920E-02 0. -1.
        2   -1    0    0  501    0  0.00000000000E+00  0.00000000000E+00 -0.14438251595E+04  0.14438251595E+04  0.25500000920E-02 0.  1.
    10030    2    1    2    0    0  0.00000000000E+00  0.00000000000E+00 -0.26913538985E+03  0.26185149291E+04  0.26046471116E+04 0.  0.
        5    1    3    3  502    0  0.46839775390E+03 -0.12031782498E+03 -0.13502004185E+04  0.14342022504E+04  0.46999998093E+01 0.  1.
       -5    1    3    3    0  502 -0.46839775390E+03  0.12031782498E+03  0.10810650287E+04  0.11843126788E+04  0.46999998093E+01 0. -1.
</event>
<event>
 5   0  0.1055179E-06  0.2655590E+04  0.7818609E-02  0.8349560E-01
        1   -1    0    0  501    0  0.00000000000E+00  0.00000000000E+00  0.11542028007E+04  0.11542028007E+04  0.50400001928E-02 0.  1.
       -1   -1    0    0    0  501  0.00000000000E+00  0.00000000000E+00 -0.15274953089E+04  0.15274953089E+04  0.50400001928E-02 0. -1.
    10030    2    1    2    0    0  0.00000000000E+00  0.00000000000E+00 -0.37329250821E+03  0.26816981096E+04  0.26555898505E+04 0.  0.
        3    1    3    3  502    0 -0.72604447573E+03  0.10525920939E+04  0.17456955588E+03  0.12905677963E+04  0.10100000352E+00 0.  1.
       -3    1    3    3    0  502  0.72604447573E+03 -0.10525920939E+04 -0.54786206409E+03  0.13911303132E+04  0.10100000352E+00 0. -1.
</event>
<event>
 5   0  0.1055179E-06  0.2605148E+04  0.7818609E-02  0.8366455E-01
       -1   -1    0    0    0  501  0.00000000000E+00  0.00000000000E+00  0.68436173924E+03  0.68436173926E+03  0.50400001928E-02 0.  1.
        1   -1    0    0  501    0  0.00000000000E+00  0.00000000000E+00 -0.24792435077E+04  0.24792435077E+04  0.50400001928E-02 0. -1.
    10030    2    1    2    0    0  0.00000000000E+00  0.00000000000E+00 -0.17948817684E+04  0.31636052469E+04  0.26051482867E+04 0.  0.
        3    1    3    3  502    0 -0.38997355573E+03  0.12015118091E+04 -0.51152939647E+03  0.13628544806E+04  0.10100000352E+00 0.  1.
       -3    1    3    3    0  502  0.38997355573E+03 -0.12015118091E+04 -0.12833523719E+04  0.18007507663E+04  0.10100000352E+00 0. -1.
</event>
<event>
 5   0  0.1100104E-06  0.2601738E+04  0.7818609E-02  0.8367611E-01
       -1   -1    0    0    0  501  0.00000000000E+00  0.00000000000E+00  0.14056985815E+04  0.14056985815E+04  0.50400001928E-02 0. -1.
        1   -1    0    0  501    0  0.00000000000E+00  0.00000000000E+00 -0.12038569985E+04  0.12038569985E+04  0.50400001928E-02 0.  1.
    10030    2    1    2    0    0  0.00000000000E+00  0.00000000000E+00  0.20184158300E+03  0.26095555800E+04  0.26017379384E+04 0.  0.
        4    1    3    3  502    0  0.54747054021E+03 -0.49553226065E+03  0.11751113962E+04  0.13878633291E+04  0.12699999809E+01 0. -1.
       -4    1    3    3    0  502 -0.54747054021E+03  0.49553226065E+03 -0.97326981320E+03  0.12216922509E+04  0.12699999809E+01 0.  1.
</event>
<event>
 5   0  0.2705807E-06  0.2599112E+04  0.7818609E-02  0.8368503E-01
        2   -1    0    0  501    0  0.00000000000E+00  0.00000000000E+00  0.27342152658E+04  0.27342152658E+04  0.25500000920E-02 0.  1.
       -2   -1    0    0    0  501  0.00000000000E+00  0.00000000000E+00 -0.61767116902E+03  0.61767116902E+03  0.25500000920E-02 0. -1.
    10030    2    1    2    0    0  0.00000000000E+00  0.00000000000E+00  0.21165440967E+04  0.33518864348E+04  0.25991121096E+04 0.  0.
        4    1    3    3  502    0 -0.95458277763E+03 -0.18378561011E+03 -0.53981309562E+02  0.97361235845E+03  0.12699999809E+01 0. -1.
       -4    1    3    3    0  502  0.95458277763E+03  0.18378561011E+03  0.21705254063E+04  0.23782740763E+04  0.12699999809E+01 0.  1.
</event>
<event>
 5   0  0.2746631E-06  0.2603208E+04  0.7818609E-02  0.8367112E-01
       -2   -1    0    0    0  501  0.00000000000E+00  0.00000000000E+00  0.99560498913E+03  0.99560498914E+03  0.25500000920E-02 0.  1.
        2   -1    0    0  501    0  0.00000000000E+00  0.00000000000E+00 -0.17016519739E+04  0.17016519739E+04  0.25500000920E-02 0. -1.
    10030    2    1    2    0    0  0.00000000000E+00  0.00000000000E+00 -0.70604698478E+03  0.26972569630E+04  0.26032081707E+04 0.  0.
        2    1    3    3  502    0 -0.11228820737E+04 -0.28827922911E+02  0.32836599886E+03  0.11702646837E+04  0.25500000920E-02 0.  1.
       -2    1    3    3    0  502  0.11228820737E+04  0.28827922911E+02 -0.10344129836E+04  0.15269922794E+04  0.25500000920E-02 0. -1.
</event>
<event>
 5   0  0.2705807E-06  0.2598601E+04  0.7818609E-02  0.8368676E-01
        2   -1    0    0  501    0  0.00000000000E+00  0.00000000000E+00  0.16174838783E+04  0.16174838783E+04  0.25500000920E-02 0.  1.
       -2   -1    0    0    0  501  0.00000000000E+00  0.00000000000E+00 -0.10437087926E+04  0.10437087926E+04  0.25500000920E-02 0. -1.
    10030    2    1    2    0    0  0.00000000000E+00  0.00000000000E+00  0.57377508569E+03  0.26611926708E+04  0.25986012742E+04 0.  0.
        4    1    3    3  502    0 -0.10894808886E+04  0.14733162042E+03  0.99602983441E+03  0.14834932615E+04  0.12699999809E+01 0.  1.
       -4    1    3    3    0  502  0.10894808886E+04 -0.14733162042E+03 -0.42225474872E+03  0.11776994093E+04  0.12699999809E+01 0. -1.
</event>
<event>
 5   0  0.2586775E-06  0.2601301E+04  0.7818609E-02  0.8367759E-01
       -2   -1    0    0    0  501  0.00000000000E+00  0.00000000000E+00  0.15370575966E+04  0.15370575966E+04  0.25500000920E-02 0.  1.
        2   -1    0    0  501    0  0.00000000000E+00  0.00000000000E+00 -0.11006042146E+04  0.11006042146E+04  0.25500000920E-02 0. -1.
    10030    2    1    2    0    0  0.00000000000E+00  0.00000000000E+00  0.43645338197E+03  0.26376618112E+04  0.26013012658E+04 0.  0.
        1    1    3    3  502    0  0.79464448468E+03 -0.75625792636E+03 -0.49032993076E+03  0.12015861805E+04  0.50400001928E-02 0. -1.
       -1    1    3    3    0  502 -0.79464448468E+03  0.75625792636E+03  0.92678331273E+03  0.14360756307E+04  0.50400001928E-02 0.  1.
</event>
<event>
 5   0  0.2820028E-06  0.2571334E+04  0.7818609E-02  0.8378004E-01
        2   -1    0    0  501    0  0.00000000000E+00  0.00000000000E+00  0.11355308600E+04  0.11355308600E+04  0.25500000920E-02 0.  1.
       -2   -1    0    0    0  501  0.00000000000E+00  0.00000000000E+00 -0.14556532296E+04  0.14556532296E+04  0.25500000920E-02 0. -1.
    10030    2    1    2    0    0  0.00000000000E+00  0.00000000000E+00 -0.32012236968E+03  0.25911840896E+04  0.25713336335E+04 0.  0.
        3    1    3    3  502    0 -0.10974030374E+03 -0.15701044536E+03 -0.14411914545E+04  0.14538665801E+04  0.10100000352E+00 0. -1.
       -3    1    3    3    0  502  0.10974030374E+03  0.15701044536E+03  0.11210690848E+04  0.11373175094E+04  0.10100000352E+00 0.  1.
</event>
<event>
 5   0  0.1032076E-06  0.2593869E+04  0.7818609E-02  0.8370287E-01
        1   -1    0    0  501    0  0.00000000000E+00  0.00000000000E+00  0.16848951971E+04  0.16848951971E+04  0.50400001928E-02 0.  1.
       -1   -1    0    0    0  501  0.00000000000E+00  0.00000000000E+00 -0.99830508036E+03  0.99830508037E+03  0.50400001928E-02 0. -1.
    10030    2    1    2    0    0  0.00000000000E+00  0.00000000000E+00  0.68659011678E+03  0.26832002775E+04  0.25938692605E+04 0.  0.
        1    1    3    3  502    0  0.12621764482E+04 -0.25386644568E+02  0.35898465583E+02  0.12629420288E+04  0.50400001928E-02 0. -1.
       -1    1    3    3    0  502 -0.12621764482E+04  0.25386644568E+02  0.65069165120E+03  0.14202582487E+04  0.50400001928E-02 0.  1.
</event>
<event>
 5   0  0.2746631E-06  0.2587527E+04  0.7818609E-02  0.8372450E-01
       -2   -1    0    0    0  501  0.00000000000E+00  0.00000000000E+00  0.86337637871E+03  0.86337637871E+03  0.25500000920E-02 0. -1.
        2   -1    0    0  501    0  0.00000000000E+00  0.00000000000E+00 -0.19386963575E+04  0.19386963575E+04  0.25500000920E-02 0.  1.
    10030    2    1    2    0    0  0.00000000000E+00  0.00000000000E+00 -0.10753199788E+04  0.28020727363E+04  0.25875274998E+04 0.  0.
        2    1    3    3  502    0  0.21273335035E+02  0.12698282546E+04 -0.80491916983E+03  0.15035994217E+04  0.25500000920E-02 0.  1.
       -2    1    3    3    0  502 -0.21273335035E+02 -0.12698282546E+04 -0.27040080900E+03  0.12984733145E+04  0.25500000920E-02 0. -1.
</event>
<event>
 5   0  0.1122628E-06  0.2609602E+04  0.7818609E-02  0.8364947E-01
        1   -1    0    0  501    0  0.00000000000E+00  0.00000000000E+00  0.18693524686E+04  0.18693524686E+04  0.50400001928E-02 0. -1.
       -1   -1    0    0    0  501  0.00000000000E+00  0.00000000000E+00 -0.91074605095E+03  0.91074605096E+03  0.50400001928E-02 0.  1.
    10030    2    1    2    0    0  0.00000000000E+00  0.00000000000E+00  0.95860641768E+03  0.27800985196E+04  0.26096017924E+04 0.  0.
        2    1    3    3  502    0  0.13194961143E+03 -0.49934034035E+03  0.17558182819E+04  0.18302047193E+04  0.25500000920E-02 0. -1.
       -2    1    3    3    0  502 -0.13194961143E+03  0.49934034035E+03 -0.79721186421E+03  0.94989380032E+03  0.25500000920E-02 0.  1.
</event>
<event>
 5   0  0.2705807E-06  0.2602391E+04  0.7818609E-02  0.8367389E-01
        2   -1    0    0  501    0  0.00000000000E+00  0.00000000000E+00  0.14310902380E+04  0.14310902380E+04  0.25500000920E-02 0.  1.
       -2   -1    0    0    0  501  0.00000000000E+00  0.00000000000E+00 -0.11830909055E+04  0.11830909055E+04  0.25500000920E-02 0. -1.
    10030    2    1    2    0    0  0.00000000000E+00  0.00000000000E+00  0.24799933247E+03  0.26141811435E+04  0.26023910894E+04 0.  0.
        4    1    3    3  502    0 -0.10747581527E+04  0.68423977391E+03 -0.14143043218E+03  0.12819100339E+04  0.12699999809E+01 0. -1.
       -4    1    3    3    0  502  0.10747581527E+04 -0.68423977391E+03  0.38942976465E+03  0.13322711096E+04  0.12699999809E+01 0.  1.
</event>
<event>
 5   0  0.2705807E-06  0.2598211E+04  0.7818609E-02  0.8368809E-01
        2   -1    0    0  501    0  0.00000000000E+00  0.00000000000E+00  0.13359731797E+04  0.13359731797E+04  0.25500000920E-02 0. -1.
       -2   -1    0    0    0  501  0.00000000000E+00  0.00000000000E+00 -0.12632549367E+04  0.12632549367E+04  0.25500000920E-02 0.  1.
    10030    2    1    2    0    0  0.00000000000E+00  0.00000000000E+00  0.72718242963E+02  0.25992281165E+04  0.25982107033E+04 0.  0.
        4    1    3    3  502    0  0.78425480239E+03 -0.97087512852E+03 -0.32436353885E+03  0.12895221706E+04  0.12699999809E+01 0.  1.
       -4    1    3    3    0  502 -0.78425480239E+03  0.97087512852E+03  0.39708178181E+03  0.13097059458E+04  0.12699999809E+01 0. -1.
</event>
<event>
 5   0  0.1032076E-06  0.2605471E+04  0.7818609E-02  0.8366345E-01
       -1   -1    0    0    0  501  0.00000000000E+00  0.00000000000E+00  0.11259843177E+04  0.11259843177E+04  0.50400001928E-02 0. -1.
        1   -1    0    0  501    0  0.00000000000E+00  0.00000000000E+00 -0.15072320572E+04  0.15072320572E+04  0.50400001928E-02 0.  1.
    10030    2    1    2    0    0  0.00000000000E+00  0.00000000000E+00 -0.38124773957E+03  0.26332163749E+04  0.26054709053E+04 0.  0.
        1    1    3    3  502    0  0.10523996098E+04 -0.76586327930E+03 -0.24623857044E+03  0.13246603092E+04  0.50400001928E-02 0.  1.
       -1    1    3    3    0  502 -0.10523996098E+04  0.76586327930E+03 -0.13500916913E+03  0.13085560657E+04  0.50400001928E-02 0. -1.
</event>
<event>
 5   0  0.1055179E-06  0.2605623E+04  0.7818609E-02  0.8366294E-01
        1   -1    0    0  501    0  0.00000000000E+00  0.00000000000E+00  0.22539318927E+04  0.22539318927E+04  0.50400001928E-02 0.  1.
       -1   -1    0    0    0  501  0.00000000000E+00  0.00000000000E+00 -0.75304722668E+03  0.75304722669E+03  0.50400001928E-02 0. -1.
    10030    2    1    2    0    0  0.00000000000E+00  0.00000000000E+00  0.15008846660E+04  0.30069791194E+04  0.26056225060E+04 0.  0.
        3    1    3    3  502    0  0.92745723690E+02  0.90129219047E+03  0.18307987839E+04  0.20427318911E+04  0.10100000352E+00 0.  1.
       -3    1    3    3    0  502 -0.92745723690E+02 -0.90129219047E+03 -0.32991411784E+03  0.96424722826E+03  0.10100000352E+00 0. -1.
</event>
<event>
 5   0  0.2820028E-06  0.2626653E+04  0.7818609E-02  0.8359204E-01
        2   -1    0    0  501    0  0.00000000000E+00  0.00000000000E+00  0.18550678139E+04  0.18550678139E+04  0.25500000920E-02 0. -1.
       -2   -1    0    0    0  501  0.00000000000E+00  0.00000000000E+00 -0.92979169061E+03  0.92979169062E+03  0.25500000920E-02 0.  1.
    10030    2    1    2    0    0  0.00000000000E+00  0.00000000000E+00  0.92527612324E+03  0.27848595045E+04  0.26266531091E+04 0.  0.
        3    1    3    3  502    0 -0.47157795904E+03  0.56794364372E+03 -0.68900965171E+03  0.10097920896E+04  0.10100000352E+00 0.  1.
       -3    1    3    3    0  502  0.47157795904E+03 -0.56794364372E+03  0.16142857749E+04  0.17750674149E+04  0.10100000352E+00 0. -1.
</event>
<event>
 5   0  0.1088757E-06  0.2597612E+04  0.7818609E-02  0.8369013E-01
       -1   -1    0    0    0  501  0.00000000000E+00  0.00000000000E+00  0.11494920028E+04  0.11494920029E+04  0.50400001928E-02 0. -1.
        1   -1    0    0  501    0  0.00000000000E+00  0.00000000000E+00 -0.14675151365E+04  0.14675151365E+04  0.50400001928E-02 0.  1.
    10030    2    1    2    0    0  0.00000000000E+00  0.00000000000E+00 -0.31802313361E+03  0.26170071393E+04  0.25976119136E+04 0.  0.
        5    1    3    3  502    0 -0.10667881740E+04 -0.11022208257E+02  0.58727320720E+03  0.12178137818E+04  0.46999998093E+01 0. -1.
       -5    1    3    3    0  502  0.10667881740E+04  0.11022208257E+02 -0.90529634081E+03  0.13991933576E+04  0.46999998093E+01 0.  1.
</event>
<event>
 5   0  0.1100104E-06  0.2601001E+04  0.7818609E-02  0.8367861E-01
        1   -1    0    0  501    0  0.00000000000E+00  0.00000000000E+00  0.21477988085E+04  0.21477988085E+04  0.50400001928E-02 0.  1.
       -1   -1    0    0    0  501  0.00000000000E+00  0.00000000000E+00 -0.78745805330E+03  0.78745805332E+03  0.50400001928E-02 0. -1.
    10030    2    1    2    0    0  0.00000000000E+00  0.00000000000E+00  0.13603407552E+04  0.29352568618E+04  0.26010009370E+04 0.  0.
        4    1    3    3  502    0  0.84027315807E+03  0.46878596508E+03  0.16675239368E+04  0.19252160798E+04  0.12699999809E+01 0.  1.
       -4    1    3    3    0  502 -0.84027315807E+03 -0.46878596508E+03 -0.30718318167E+03  0.10100407820E+04  0.12699999809E+01 0. -1.
</event>
<event>
 5   0  0.2705807E-06  0.2604945E+04  0.7818609E-02  0.8366524E-01
        2   -1    0    0  501    0  0.00000000000E+00  0.00000000000E+00  0.22346416245E+04  0.22346416246E+04  0.25500000920E-02 0.  1.
       -2   -1    0    0    0  501  0.00000000000E+00  0.00000000000E+00 -0.75915266739E+03  0.75915266739E+03  0.25500000920E-02 0. -1.
    10030    2    1    2    0    0  0.00000000000E+00  0.00000000000E+00  0.14754889572E+04  0.29937942919E+04  0.26049446443E+04 0.  0.
        4    1    3    3  502    0  0.63689221394E+03  0.11303984221E+04  0.86878310939E+03  0.15614794231E+04  0.12699999809E+01 0.  1.
       -4    1    3    3    0  502 -0.63689221394E+03 -0.11303984221E+04  0.60670584777E+03  0.14323148688E+04  0.12699999809E+01 0. -1.
</event>
<event>
 5   0  0.2586775E-06  0.2600388E+04  0.7818609E-02  0.8368069E-01
       -2   -1    0    0    0  501  0.00000000000E+00  0.00000000000E+00  0.15379270869E+04  0.15379270870E+04  0.25500000920E-02 0. -1.
        2   -1    0    0  501    0  0.00000000000E+00  0.00000000000E+00 -0.10992100405E+04  0.10992100405E+04  0.25500000920E-02 0.  1.
    10030    2    1    2    0    0  0.00000000000E+00  0.00000000000E+00  0.43871704642E+03  0.26371371275E+04  0.26003883522E+04 0.  0.
        1    1    3    3  502    0  0.75280332611E+03 -0.10240327889E+04  0.49736556770E+03  0.13648181228E+04  0.50400001928E-02 0.  1.
       -1    1    3    3    0  502 -0.75280332611E+03  0.10240327889E+04 -0.58648521283E+02  0.12723190046E+04  0.50400001928E-02 0. -1.
</event>
<event>
 5   0  0.1122628E-06  0.2584592E+04  0.7818609E-02  0.8373454E-01
        1   -1    0    0  501    0  0.00000000000E+00  0.00000000000E+00  0.20221838100E+04  0.20221838100E+04  0.50400001928E-02 0. -1.
       -1   -1    0    0    0  501  0.00000000000E+00  0.00000000000E+00 -0.82585444994E+03  0.82585444996E+03  0.50400001928E-02 0.  1.
    10030    2    1    2    0    0  0.00000000000E+00  0.00000000000E+00  0.11963293601E+04  0.28480382600E+04  0.25845924229E+04 0.  0.
        2    1    3    3  502    0 -0.30633983333E+02  0.89727078460E+02 -0.82201669274E+03  0.82746651454E+03  0.25500000920E-02 0.  1.
       -2    1    3    3    0  502  0.30633983333E+02 -0.89727078460E+02  0.20183460528E+04  0.20205717454E+04  0.25500000920E-02 0. -1.
</event>
<event>
 5   0  0.2746631E-06  0.2602362E+04  0.7818609E-02  0.8367399E-01
       -2   -1    0    0    0  501  0.00000000000E+00  0.00000000000E+00  0.75372259556E+03  0.75372259556E+03  0.25500000920E-02 0. -1.
        2   -1    0    0  501    0  0.00000000000E+00  0.00000000000E+00 -0.22462797113E+04  0.22462797113E+04  0.25500000920E-02 0.  1.
    10030    2    1    2    0    0  0.00000000000E+00  0.00000000000E+00 -0.14925571158E+04  0.30000023069E+04  0.26023618306E+04 0.  0.
        2    1    3    3  502    0  0.43572980177E+02  0.11687955634E+04 -0.88990440892E+02  0.11729880529E+04  0.25500000920E-02 0. -1.
       -2    1    3    3    0  502 -0.43572980177E+02 -0.11687955634E+04 -0.14035666749E+04  0.18270142540E+04  0.25500000920E-02 0.  1.
</event>
<event>
 5   0  0.2586775E-06  0.2640191E+04  0.7818609E-02  0.8354676E-01
        2   -1    0    0  501    0  0.00000000000E+00  0.00000000000E+00  0.15842167272E+04  0.15842167272E+04  0.25500000920E-02 0. -1.
       -2   -1    0    0    0  501  0.00000000000E+00  0.00000000000E+00 -0.11000084640E+04  0.11000084640E+04  0.25500000920E-02 0.  1.
    10030    2    1    2    0    0  0.00000000000E+00  0.00000000000E+00  0.48420826318E+03  0.26842251912E+04  0.26401907573E+04 0.  0.
        1    1    3    3  502    0  0.53383831086E+03 -0.11221938347E+04 -0.21068829793E+03  0.12604332207E+04  0.50400001928E-02 0.  1.
       -1    1    3    3    0  502 -0.53383831086E+03  0.11221938347E+04  0.69489656110E+03  0.14237919706E+04  0.50400001928E-02 0. -1.
</event>
<event>
 5   0  0.2820028E-06  0.2521584E+04  0.7818609E-02  0.8395336E-01
        2   -1    0    0  501    0  0.00000000000E+00  0.00000000000E+00  0.12202648009E+04  0.12202648009E+04  0.25500000920E-02 0. -1.
       -2   -1    0    0    0  501  0.00000000000E+00  0.00000000000E+00 -0.13026651706E+04  0.13026651706E+04  0.25500000920E-02 0.  1.
    10030    2    1    2    0    0  0.00000000000E+00  0.00000000000E+00 -0.82400369702E+02  0.25229299716E+04  0.25215839904E+04 0.  0.
        3    1    3    3  502    0 -0.84614840865E+03 -0.93199836169E+03  0.29607424130E+02  0.12591523678E+04  0.10100000352E+00 0.  1.
       -3    1    3    3    0  502  0.84614840865E+03  0.93199836169E+03 -0.11200779383E+03  0.12637776037E+04  0.10100000352E+00 0. -1.
</event>
<event>
 5   0  0.2746631E-06  0.2591196E+04  0.7818609E-02  0.8371198E-01
        2   -1    0    0  501    0  0.00000000000E+00  0.00000000000E+00  0.18954715835E+04  0.18954715835E+04  0.25500000920E-02 0. -1.
       -2   -1    0    0    0  501  0.00000000000E+00  0.00000000000E+00 -0.88557108236E+03  0.88557108237E+03  0.25500000920E-02 0.  1.
    10030    2    1    2    0    0  0.00000000000E+00  0.00000000000E+00  0.10099005011E+04  0.27810426658E+04  0.25911964972E+04 0.  0.
        2    1    3    3  502    0  0.11826282850E+04 -0.19915083986E+03  0.10310739897E+04  0.15815765203E+04  0.25500000920E-02 0. -1.
       -2    1    3    3    0  502 -0.11826282850E+04  0.19915083986E+03 -0.21173488575E+02  0.11994661455E+04  0.25500000920E-02 0.  1.
</event>
<event>
 5   0  0.1088757E-06  0.2575840E+04  0.7818609E-02  0.8376454E-01
       -1   -1    0    0    0  501  0.00000000000E+00  0.00000000000E+00  0.87983840975E+03  0.87983840977E+03  0.50400001928E-02 0. -1.
        1   -1    0    0  501    0  0.00000000000E+00  0.00000000000E+00 -0.18852756307E+04  0.18852756307E+04  0.50400001928E-02 0.  1.
    10030    2    1    2    0    0  0.00000000000E+00  0.00000000000E+00 -0.10054372209E+04  0.27651140404E+04  0.25758399895E+04 0.  0.
        5    1    3    3  502    0  0.32966262624E+03 -0.93805640566E+03  0.37602112789E+03  0.10630339816E+04  0.46999998093E+01 0.  1.
       -5    1    3    3    0  502 -0.32966262624E+03  0.93805640566E+03 -0.13814583488E+04  0.17020800589E+04  0.46999998093E+01 0. -1.
</event>
<event>
 5   0  0.2705807E-06  0.2598473E+04  0.7818609E-02  0.8368720E-01
        2   -1    0    0  501    0  0.00000000000E+00  0.00000000000E+00  0.11349274554E+04  0.11349274554E+04  0.25500000920E-02 0.  1.
       -2   -1    0    0    0  501  0.00000000000E+00  0.00000000000E+00 -0.14873331873E+04  0.14873331873E+04  0.25500000920E-02 0. -1.
    10030    2    1    2    0    0  0.00000000000E+00  0.00000000000E+00 -0.35240573190E+03  0.26222606427E+04  0.25984728358E+04 0.  0.
        4    1    3    3  502    0 -0.10948657753E+03 -0.40743708113E+03  0.10638757613E+04  0.11444760959E+04  0.12699999809E+01 0.  1.
       -4    1    3    3    0  502  0.10948657753E+03  0.40743708113E+03 -0.14162814932E+04  0.14777845468E+04  0.12699999809E+01 0. -1.
</event>
<event>
 5   0  0.1055179E-06  0.2597559E+04  0.7818609E-02  0.8369031E-01
        1   -1    0    0  501    0  0.00000000000E+00  0.00000000000E+00  0.13084258624E+04  0.13084258624E+04  0.50400001928E-02 0.  1.
       -1   -1    0    0    0  501  0.00000000000E+00  0.00000000000E+00 -0.12892042132E+04  0.12892042132E+04  0.50400001928E-02 0. -1.
    10030    2    1    2    0    0  0.00000000000E+00  0.00000000000E+00  0.19221649233E+02  0.25976300756E+04  0.25975589575E+04 0.  0.
        3    1    3    3  502    0 -0.14116274748E+03 -0.85766945618E+03  0.97467833708E+03  0.13059562352E+04  0.10100000352E+00 0.  1.
       -3    1    3    3    0  502  0.14116274748E+03  0.85766945618E+03 -0.95545668784E+03  0.12916738404E+04  0.10100000352E+00 0. -1.
</event>
<event>
 5   0  0.1032076E-06  0.2600186E+04  0.7818609E-02  0.8368138E-01
       -1   -1    0    0    0  501  0.00000000000E+00  0.00000000000E+00  0.71990102225E+03  0.71990102227E+03  0.50400001928E-02 0. -1.
        1   -1    0    0  501    0  0.00000000000E+00  0.00000000000E+00 -0.23478812570E+04  0.23478812570E+04  0.50400001928E-02 0.  1.
    10030    2    1    2    0    0  0.00000000000E+00  0.00000000000E+00 -0.16279802348E+04  0.30677822793E+04  0.26001862373E+04 0.  0.
        1    1    3    3  502    0 -0.18324517465E+03 -0.12337275080E+04 -0.38116749468E+03  0.13042051285E+04  0.50400001928E-02 0. -1.
       -1    1    3    3    0  502  0.18324517465E+03  0.12337275080E+04 -0.12468127401E+04  0.17635771509E+04  0.50400001928E-02 0.  1.
</event>
<event>
 5   0  0.2820028E-06  0.2600287E+04  0.7818609E-02  0.8368104E-01
       -2   -1    0    0    0  501  0.00000000000E+00  0.00000000000E+00  0.12130288272E+04  0.12130288272E+04  0.25500000920E-02 0.  1.
        2   -1    0    0  501    0  0.00000000000E+00  0.00000000000E+00 -0.13935144209E+04  0.13935144209E+04  0.25500000920E-02 0. -1.
    10030    2    1    2    0    0  0.00000000000E+00  0.00000000000E+00 -0.18048559370E+03  0.26065432481E+04  0.26002870332E+04 0.  0.
        3    1    3    3  502    0  0.10694732813E+04  0.63613521478E+03 -0.46788791199E+03  0.13294210090E+04  0.10100000352E+00 0.  1.
       -3    1    3    3    0  502 -0.10694732813E+04 -0.63613521478E+03  0.28740231828E+03  0.12771222391E+04  0.10100000352E+00 0. -1.
</event>
<event>
 5   0  0.9197000E-07  0.2599641E+04  0.7818609E-02  0.8368323E-01
        3   -1    0    0  501    0  0.00000000000E+00  0.00000000000E+00  0.11473977831E+04  0.11473977876E+04  0.10100000352E+00 0. -1.
       -3   -1    0    0    0  501  0.00000000000E+00  0.00000000000E+00 -0.14724916183E+04  0.14724916218E+04  0.10100000352E+00 0.  1.
    10030    2    1    2    0    0  0.00000000000E+00  0.00000000000E+00 -0.32509383516E+03  0.26198894094E+04  0.25996412282E+04 0.  0.
        2    1    3    3  502    0  0.85621078160E+03 -0.13416510077E+03 -0.11388214896E+04  0.14310875451E+04  0.25500000920E-02 0.  1.
       -2    1    3    3    0  502 -0.85621078160E+03  0.13416510077E+03  0.81372765440E+03  0.11888018642E+04  0.25500000920E-02 0. -1.
</event>
<event>
 5   0  0.1055179E-06  0.2602180E+04  0.7818609E-02  0.8367461E-01
       -1   -1    0    0    0  501  0.00000000000E+00  0.00000000000E+00  0.12347557605E+04  0.12347557605E+04  0.50400001928E-02 0.  1.
        1   -1    0    0  501    0  0.00000000000E+00  0.00000000000E+00 -0.13709880925E+04  0.13709880925E+04  0.50400001928E-02 0. -1.
    10030    2    1    2    0    0  0.00000000000E+00  0.00000000000E+00 -0.13623233203E+03  0.26057438530E+04  0.26021801973E+04 0.  0.
        3    1    3    3  502    0 -0.80093507604E+03 -0.79858741258E+03 -0.71211165526E+03  0.13365410100E+04  0.10100000352E+00 0. -1.
       -3    1    3    3    0  502  0.80093507604E+03  0.79858741258E+03  0.57587932323E+03  0.12692028430E+04  0.10100000352E+00 0.  1.
</event>
<event>
 5   0  0.1100104E-06  0.2605175E+04  0.7818609E-02  0.8366446E-01
       -1   -1    0    0    0  501  0.00000000000E+00  0.00000000000E+00  0.64412736668E+03  0.64412736670E+03  0.50400001928E-02 0.  1.
        1   -1    0    0  501    0  0.00000000000E+00  0.00000000000E+00 -0.26341585596E+04  0.26341585597E+04  0.50400001928E-02 0. -1.
    10030    2    1    2    0    0  0.00000000000E+00  0.00000000000E+00 -0.19900311930E+04  0.32782859264E+04  0.26051745558E+04 0.  0.
        4    1    3    3  502    0 -0.10610495535E+04  0.70459692298E+03 -0.13383675383E+04  0.18475692840E+04  0.12699999809E+01 0. -1.
       -4    1    3    3    0  502  0.10610495535E+04 -0.70459692298E+03 -0.65166365470E+03  0.14307166423E+04  0.12699999809E+01 0.  1.
</event>
<event>
 5   0  0.1088757E-06  0.2581787E+04  0.7818609E-02  0.8374414E-01
        1   -1    0    0  501    0  0.00000000000E+00  0.00000000000E+00  0.19608668614E+04  0.19608668614E+04  0.50400001928E-02 0. -1.
       -1   -1    0    0    0  501  0.00000000000E+00  0.00000000000E+00 -0.84983107320E+03  0.84983107321E+03  0.50400001928E-02 0.  1.
    10030    2    1    2    0    0  0.00000000000E+00  0.00000000000E+00  0.11110357882E+04  0.28106979346E+04  0.25817866599E+04 0.  0.
        5    1    3    3  502    0 -0.66864922605E+03  0.10535053783E+04  0.91563061695E+03  0.15476972851E+04  0.46999998093E+01 0. -1.
       -5    1    3    3    0  502  0.66864922605E+03 -0.10535053783E+04  0.19540517125E+03  0.12630006495E+04  0.46999998093E+01 0.  1.
</event>
<event>
 5   0  0.1100104E-06  0.2598635E+04  0.7818609E-02  0.8368665E-01
        1   -1    0    0  501    0  0.00000000000E+00  0.00000000000E+00  0.12164153369E+04  0.12164153369E+04  0.50400001928E-02 0.  1.
       -1   -1    0    0    0  501  0.00000000000E+00  0.00000000000E+00 -0.13878691853E+04  0.13878691853E+04  0.50400001928E-02 0. -1.
    10030    2    1    2    0    0  0.00000000000E+00  0.00000000000E+00 -0.17145384847E+03  0.26042845222E+04  0.25986345358E+04 0.  0.
        4    1    3    3  502    0  0.97346008556E+03  0.77586927581E+03 -0.45886167081E+03  0.13267076985E+04  0.12699999809E+01 0.  1.
       -4    1    3    3    0  502 -0.97346008556E+03 -0.77586927581E+03  0.28740782234E+03  0.12775768237E+04  0.12699999809E+01 0. -1.
</event>
<event>
 5   0  0.2586775E-06  0.2607457E+04  0.7818609E-02  0.8365673E-01
       -2   -1    0    0    0  501  0.00000000000E+00  0.00000000000E+00  0.13071992872E+04  0.13071992872E+04  0.25500000920E-02 0. -1.
        2   -1    0    0  501    0  0.00000000000E+00  0.00000000000E+00 -0.13002671709E+04  0.13002671710E+04  0.25500000920E-02 0.  1.
    10030    2    1    2    0    0  0.00000000000E+00  0.00000000000E+00  0.69321162057E+01  0.26074664581E+04  0.26074572434E+04 0.  0.
        1    1    3    3  502    0 -0.44227262048E+03  0.10822449921E+03  0.12251048157E+04  0.13069810338E+04  0.50400001928E-02 0. -1.
       -1    1    3    3    0  502  0.44227262048E+03 -0.10822449921E+03 -0.12181726995E+04  0.13004854243E+04  0.50400001928E-02 0.  1.
</event>
<event>
 5   0  0.1032076E-06  0.2598010E+04  0.7818609E-02  0.8368877E-01
       -1   -1    0    0    0  501  0.00000000000E+00  0.00000000000E+00  0.18160083581E+04  0.18160083581E+04  0.50400001928E-02 0.  1.
        1   -1    0    0  501    0  0.00000000000E+00  0.00000000000E+00 -0.92918871543E+03  0.92918871544E+03  0.50400001928E-02 0. -1.
    10030    2    1    2    0    0  0.00000000000E+00  0.00000000000E+00  0.88681964270E+03  0.27451970736E+04  0.25980103722E+04 0.  0.
        1    1    3    3  502    0 -0.10506041347E+03 -0.21106676159E+03 -0.90639129970E+03  0.93655328547E+03  0.50400001928E-02 0. -1.
       -1    1    3    3    0  502  0.10506041347E+03  0.21106676159E+03  0.17932109424E+04  0.18086437881E+04  0.50400001928E-02 0.  1.
</event>
<event>
 5   0  0.2820028E-06  0.2602256E+04  0.7818609E-02  0.8367435E-01
        2   -1    0    0  501    0  0.00000000000E+00  0.00000000000E+00  0.15414350703E+04  0.15414350703E+04  0.25500000920E-02 0.  1.
       -2   -1    0    0    0  501  0.00000000000E+00  0.00000000000E+00 -0.10982846052E+04  0.10982846052E+04  0.25500000920E-02 0. -1.
    10030    2    1    2    0    0  0.00000000000E+00  0.00000000000E+00  0.44315046510E+03  0.26397196755E+04  0.26022562577E+04 0.  0.
        3    1    3    3  502    0 -0.11758106000E+04 -0.55682019511E+03  0.24069063691E+03  0.13230688907E+04  0.10100000352E+00 0. -1.
       -3    1    3    3    0  502  0.11758106000E+04  0.55682019511E+03  0.20245982819E+03  0.13166507848E+04  0.10100000352E+00 0.  1.
</event>
<event>
 5   0  0.2705807E-06  0.2594012E+04  0.7818609E-02  0.8370238E-01
        2   -1    0    0  501    0  0.00000000000E+00  0.00000000000E+00  0.14575095520E+04  0.14575095520E+04  0.25500000920E-02 0. -1.
       -2   -1    0    0    0  501  0.00000000000E+00  0.00000000000E+00 -0.11541776610E+04  0.11541776610E+04  0.25500000920E-02 0.  1.
    10030    2    1    2    0    0  0.00000000000E+00  0.00000000000E+00  0.30333189098E+03  0.26116872131E+04  0.25940123097E+04 0.  0.
        4    1    3    3  502    0 -0.88452070284E+01 -0.12619577371E+04 -0.14971930947E+03  0.12708395070E+04  0.12699999809E+01 0. -1.
       -4    1    3    3    0  502  0.88452070284E+01  0.12619577371E+04  0.45305120045E+03  0.13408477061E+04  0.12699999809E+01 0.  1.
</event>
<event>
 5   0  0.1100104E-06  0.2596675E+04  0.7818609E-02  0.8369331E-01
        1   -1    0    0  501    0  0.00000000000E+00  0.00000000000E+00  0.10929044204E+04  0.10929044204E+04  0.50400001928E-02 0.  1.
       -1   -1    0    0    0  501  0.00000000000E+00  0.00000000000E+00 -0.15423861325E+04  0.15423861325E+04  0.50400001928E-02 0. -1.
    10030    2    1    2    0    0  0.00000000000E+00  0.00000000000E+00 -0.44948171217E+03  0.26352905529E+04  0.25966752759E+04 0.  0.
        4    1    3    3  502    0 -0.10029080086E+04  0.69245175180E+03  0.22953735685E+03  0.12401624544E+04  0.12699999809E+01 0.  1.
       -4    1    3    3    0  502  0.10029080086E+04 -0.69245175180E+03 -0.67901906902E+03  0.13951280985E+04  0.12699999809E+01 0. -1.
</event>
<event>
 5   0  0.1032076E-06  0.2603853E+04  0.7818609E-02  0.8366894E-01
       -1   -1    0    0    0  501  0.00000000000E+00  0.00000000000E+00  0.95811462631E+03  0.95811462632E+03  0.50400001928E-02 0.  1.
        1   -1    0    0  501    0  0.00000000000E+00  0.00000000000E+00 -0.17691126477E+04  0.17691126477E+04  0.50400001928E-02 0. -1.
    10030    2    1    2    0    0  0.00000000000E+00  0.00000000000E+00 -0.81099802138E+03  0.27272272740E+04  0.26038530706E+04 0.  0.
        1    1    3    3  502    0  0.56657505440E+03 -0.10157683618E+04 -0.10182126949E+04  0.15458168550E+04  0.50400001928E-02 0. -1.
       -1    1    3    3    0  502 -0.56657505440E+03  0.10157683618E+04  0.20721467355E+03  0.11814104190E+04  0.50400001928E-02 0.  1.
</event>
<event>
 5   0  0.2746631E-06  0.2600247E+04  0.7818609E-02  0.8368117E-01
       -2   -1    0    0    0  501  0.00000000000E+00  0.00000000000E+00  0.16865390376E+04  0.16865390376E+04  0.25500000920E-02 0. -1.
        2   -1    0    0  501    0  0.00000000000E+00  0.00000000000E+00 -0.10022421545E+04  0.10022421545E+04  0.25500000920E-02 0.  1.
    10030    2    1    2    0    0  0.00000000000E+00  0.00000000000E+00  0.68429688313E+03  0.26887811921E+04  0.26002465412E+04 0.  0.
        2    1    3    3  502    0 -0.44381864399E+03  0.74157119600E+03  0.13465166150E+04  0.16000030693E+04  0.25500000920E-02 0. -1.
       -2    1    3    3    0  502  0.44381864399E+03 -0.74157119600E+03 -0.66221973183E+03  0.10887781228E+04  0.25500000920E-02 0.  1.
</event>
<event>
 5   0  0.2820028E-06  0.2600218E+04  0.7818609E-02  0.8368127E-01
        2   -1    0    0  501    0  0.00000000000E+00  0.00000000000E+00  0.10047745532E+04  0.10047745532E+04  0.25500000920E-02 0.  1.
       -2   -1    0    0    0  501  0.00000000000E+00  0.00000000000E+00 -0.16822516633E+04  0.16822516633E+04  0.25500000920E-02 0. -1.
    10030    2    1    2    0    0  0.00000000000E+00  0.00000000000E+00 -0.67747711013E+03  0.26870262165E+04  0.26002181934E+04 0.  0.
        3    1    3    3  502    0  0.11773854643E+04 -0.25450066965E+02  0.23046746025E+03  0.11999997908E+04  0.10100000352E+00 0.  1.
       -3    1    3    3    0  502 -0.11773854643E+04  0.25450066965E+02 -0.90794457038E+03  0.14870264257E+04  0.10100000352E+00 0. -1.
</event>
<event>
 5   0  0.1100104E-06  0.2599374E+04  0.7818609E-02  0.8368414E-01
        1   -1    0    0  501    0  0.00000000000E+00  0.00000000000E+00  0.11421593426E+04  0.11421593426E+04  0.50400001928E-02 0. -1.
       -1   -1    0    0    0  501  0.00000000000E+00  0.00000000000E+00 -0.14789405081E+04  0.14789405081E+04  0.50400001928E-02 0.  1.
    10030    2    1    2    0    0  0.00000000000E+00  0.00000000000E+00 -0.33678116554E+03  0.26210998508E+04  0.25993735542E+04 0.  0.
        4    1    3    3  502    0 -0.14862018688E+03 -0.11526493044E+04  0.41827615373E+03  0.12351700015E+04  0.12699999809E+01 0. -1.
       -4    1    3    3    0  502  0.14862018688E+03  0.11526493044E+04 -0.75505731927E+03  0.13859298493E+04  0.12699999809E+01 0.  1.
</event>
<event>
 5   0  0.1122628E-06  0.2598936E+04  0.7818609E-02  0.8368563E-01
       -1   -1    0    0    0  501  0.00000000000E+00  0.00000000000E+00  0.12293975193E+04  0.12293975193E+04  0.50400001928E-02 0. -1.
        1   -1    0    0  501    0  0.00000000000E+00  0.00000000000E+00 -0.13735320774E+04  0.13735320774E+04  0.50400001928E-02 0.  1.
    10030    2    1    2    0    0  0.00000000000E+00  0.00000000000E+00 -0.14413455811E+03  0.26029295967E+04  0.25989358812E+04 0.  0.
        2    1    3    3  502    0  0.92635254093E+03  0.70902453082E+03  0.50132634192E+03  0.12697137144E+04  0.25500000920E-02 0. -1.
       -2    1    3    3    0  502 -0.92635254093E+03 -0.70902453082E+03 -0.64546090004E+03  0.13332158823E+04  0.25500000920E-02 0.  1.
</event>
<event>
 5   0  0.1032076E-06  0.2598623E+04  0.7818609E-02  0.8368669E-01
       -1   -1    0    0    0  501  0.00000000000E+00  0.00000000000E+00  0.26203363943E+04  0.26203363943E+04  0.50400001928E-02 0. -1.
        1   -1    0    0  501    0  0.00000000000E+00  0.00000000000E+00 -0.64427261649E+03  0.64427261651E+03  0.50400001928E-02 0.  1.
    10030    2    1    2    0    0  0.00000000000E+00  0.00000000000E+00  0.19760637778E+04  0.32646090109E+04  0.25986234702E+04 0.  0.
        1    1    3    3  502    0  0.35963247266E+03  0.11188088769E+04  0.29179418223E+03  0.12108726867E+04  0.50400001928E-02 0.  1.
       -1    1    3    3    0  502 -0.35963247266E+03 -0.11188088769E+04  0.16842695956E+04  0.20537363242E+04  0.50400001928E-02 0. -1.
</event>
<event>
 5   0  0.2746631E-06  0.2616831E+04  0.7818609E-02  0.8362506E-01
       -2   -1    0    0    0  501  0.00000000000E+00  0.00000000000E+00  0.13201531426E+04  0.13201531426E+04  0.25500000920E-02 0. -1.
        2   -1    0    0  501    0  0.00000000000E+00  0.00000000000E+00 -0.12967823115E+04  0.12967823115E+04  0.25500000920E-02 0.  1.
    10030    2    1    2    0    0  0.00000000000E+00  0.00000000000E+00  0.23370831131E+02  0.26169354541E+04  0.26168310941E+04 0.  0.
        2    1    3    3  502    0  0.36470352079E+03  0.11331045858E+04 -0.53149053604E+03  0.13036168342E+04  0.25500000920E-02 0. -1.
       -2    1    3    3    0  502 -0.36470352079E+03 -0.11331045858E+04  0.55486136717E+03  0.13133186199E+04  0.25500000920E-02 0.  1.
</event>
<event>
 5   0  0.1088757E-06  0.2580875E+04  0.7818609E-02  0.8374727E-01
       -1   -1    0    0    0  501  0.00000000000E+00  0.00000000000E+00  0.10696798345E+04  0.10696798345E+04  0.50400001928E-02 0. -1.
        1   -1    0    0  501    0  0.00000000000E+00  0.00000000000E+00 -0.15567548504E+04  0.15567548505E+04  0.50400001928E-02 0.  1.
    10030    2    1    2    0    0  0.00000000000E+00  0.00000000000E+00 -0.48707501594E+03  0.26264346850E+04  0.25808752553E+04 0.  0.
        5    1    3    3  502    0  0.36088542727E+03  0.12371440494E+04 -0.17570127762E+03  0.13006370437E+04  0.46999998093E+01 0. -1.
       -5    1    3    3    0  502 -0.36088542727E+03 -0.12371440494E+04 -0.31137373832E+03  0.13257976412E+04  0.46999998093E+01 0.  1.
</event>
<event>
 5   0  0.1055179E-06  0.2594192E+04  0.7818609E-02  0.8370177E-01
       -1   -1    0    0    0  501  0.00000000000E+00  0.00000000000E+00  0.14960004727E+04  0.14960004727E+04  0.50400001928E-02 0. -1.
        1   -1    0    0  501    0  0.00000000000E+00  0.00000000000E+00 -0.11246374822E+04  0.11246374822E+04  0.50400001928E-02 0.  1.
    10030    2    1    2    0    0  0.00000000000E+00  0.00000000000E+00  0.37136299042E+03  0.26206379549E+04  0.25941921324E+04 0.  0.
        3    1    3    3  502    0  0.11730889206E+04 -0.41934646278E+03 -0.17920581552E+03  0.12586118568E+04  0.10100000352E+00 0.  1.
       -3    1    3    3    0  502 -0.11730889206E+04  0.41934646278E+03  0.55056880594E+03  0.13620260981E+04  0.10100000352E+00 0. -1.
</event>
<event>
 5   0  0.2820028E-06  0.2599507E+04  0.7818609E-02  0.8368369E-01
       -2   -1    0    0    0  501  0.00000000000E+00  0.00000000000E+00  0.13055189688E+04  0.13055189688E+04  0.25500000920E-02 0.  1.
        2   -1    0    0  501    0  0.00000000000E+00  0.00000000000E+00 -0.12940139589E+04  0.12940139589E+04  0.25500000920E-02 0. -1.
    10030    2    1    2    0    0  0.00000000000E+00  0.00000000000E+00  0.11505009858E+02  0.25995329277E+04  0.25995074681E+04 0.  0.
        3    1    3    3  502    0  0.96790404934E+03 -0.82855702935E+03  0.26268839673E+03  0.13009036104E+04  0.10100000352E+00 0.  1.
       -3    1    3    3    0  502 -0.96790404934E+03  0.82855702935E+03 -0.25118338687E+03  0.12986293173E+04  0.10100000352E+00 0. -1.
</event>
<event>
 5   0  0.2820028E-06  0.2594318E+04  0.7818609E-02  0.8370134E-01
        2   -1    0    0  501    0  0.00000000000E+00  0.00000000000E+00  0.20436236003E+04  0.20436236003E+04  0.25500000920E-02 0.  1.
       -2   -1    0    0    0  501  0.00000000000E+00  0.00000000000E+00 -0.82335219756E+03  0.82335219756E+03  0.25500000920E-02 0. -1.
    10030    2    1    2    0    0  0.00000000000E+00  0.00000000000E+00  0.12202714027E+04  0.28669757979E+04  0.25943183939E+04 0.  0.
        3    1    3    3  502    0 -0.33068904753E+03 -0.11516837408E+04  0.11592384703E+04  0.16672026051E+04  0.10100000352E+00 0.  1.
       -3    1    3    3    0  502  0.33068904753E+03  0.11516837408E+04  0.61032932392E+02  0.11997731928E+04  0.10100000352E+00 0. -1.
</event>
<event>
 5   0  0.1032076E-06  0.2639682E+04  0.7818609E-02  0.8354846E-01
       -1   -1    0    0    0  501  0.00000000000E+00  0.00000000000E+00  0.73270885463E+03  0.73270885464E+03  0.50400001928E-02 0.  1.
        1   -1    0    0  501    0  0.00000000000E+00  0.00000000000E+00 -0.23774521099E+04  0.23774521099E+04  0.50400001928E-02 0. -1.
    10030    2    1    2    0    0  0.00000000000E+00  0.00000000000E+00 -0.16447432553E+04  0.31101609646E+04  0.26396819599E+04 0.  0.
        1    1    3    3  502    0  0.78693078096E+03 -0.10530822293E+04 -0.68427195495E+03  0.14820493730E+04  0.50400001928E-02 0.  1.
       -1    1    3    3    0  502 -0.78693078096E+03  0.10530822293E+04 -0.96047130034E+03  0.16281115915E+04  0.50400001928E-02 0. -1.
</event>
<event>
 5   0  0.2586775E-06  0.2646765E+04  0.7818609E-02  0.8352487E-01
       -2   -1    0    0    0  501  0.00000000000E+00  0.00000000000E+00  0.19112388282E+04  0.19112388283E+04  0.25500000920E-02 0. -1.
        2   -1    0    0  501    0  0.00000000000E+00  0.00000000000E+00 -0.91633858431E+03  0.91633858431E+03  0.25500000920E-02 0.  1.
    10030    2    1    2    0    0  0.00000000000E+00  0.00000000000E+00  0.99490024394E+03  0.28275774126E+04  0.26467654843E+04 0.  0.
        1    1    3    3  502    0  0.51887527094E+03 -0.38136847173E+03 -0.73767480239E+03  0.97920251844E+03  0.50400001928E-02 0.  1.
       -1    1    3    3    0  502 -0.51887527094E+03  0.38136847173E+03  0.17325750463E+04  0.18483748941E+04  0.50400001928E-02 0. -1.
</event>
<event>
 5   0  0.1122628E-06  0.2600846E+04  0.7818609E-02  0.8367914E-01
       -1   -1    0    0    0  501  0.00000000000E+00  0.00000000000E+00  0.10864498982E+04  0.10864498983E+04  0.50400001928E-02 0.  1.
        1   -1    0    0  501    0  0.00000000000E+00  0.00000000000E+00 -0.15565375312E+04  0.15565375312E+04  0.50400001928E-02 0. -1.
    10030    2    1    2    0    0  0.00000000000E+00  0.00000000000E+00 -0.47008763295E+03  0.26429874295E+04  0.26008460488E+04 0.  0.
        2    1    3    3  502    0 -0.12868853438E+04 -0.59659194168E+02 -0.41530726358E+03  0.13535557731E+04  0.25500000920E-02 0. -1.
       -2    1    3    3    0  502  0.12868853438E+04  0.59659194168E+02 -0.54780369370E+02  0.12894316564E+04  0.25500000920E-02 0.  1.
</event>
<event>
 5   0  0.1032076E-06  0.2591470E+04  0.7818609E-02  0.8371105E-01
        1   -1    0    0  501    0  0.00000000000E+00  0.00000000000E+00  0.16022275183E+04  0.16022275183E+04  0.50400001928E-02 0. -1.
       -1   -1    0    0    0  501  0.00000000000E+00  0.00000000000E+00 -0.10478716681E+04  0.10478716681E+04  0.50400001928E-02 0.  1.
    10030    2    1    2    0    0  0.00000000000E+00  0.00000000000E+00  0.55435585018E+03  0.26500991864E+04  0.25914697160E+04 0.  0.
        1    1    3    3  502    0  0.12365944754E+04 -0.73380140229E+02 -0.11138997782E+03  0.12437677713E+04  0.50400001928E-02 0.  1.
       -1    1    3    3    0  502 -0.12365944754E+04  0.73380140229E+02  0.66574582800E+03  0.14063314151E+04  0.50400001928E-02 0. -1.
</event>
<event>
 5   0  0.9197000E-07  0.2600030E+04  0.7818609E-02  0.8368191E-01
        4   -1    0    0  501    0  0.00000000000E+00  0.00000000000E+00  0.18048485334E+04  0.18048489802E+04  0.12699999809E+01 0. -1.
       -4   -1    0    0    0  501  0.00000000000E+00  0.00000000000E+00 -0.93638739776E+03  0.93638825900E+03  0.12699999809E+01 0.  1.
    10030    2    1    2    0    0  0.00000000000E+00  0.00000000000E+00  0.86846113561E+03  0.27412372392E+04  0.26000301647E+04 0.  0.
        2    1    3    3  502    0 -0.11829811029E+04  0.20081344742E+03  0.96166887005E+03  0.15377182272E+04  0.25500000920E-02 0. -1.
       -2    1    3    3    0  502  0.11829811029E+04 -0.20081344742E+03 -0.93207734438E+02  0.12035190120E+04  0.25500000920E-02 0.  1.
</event>
<event>
 5   0  0.2586775E-06  0.2591081E+04  0.7818609E-02  0.8371237E-01
       -2   -1    0    0    0  501  0.00000000000E+00  0.00000000000E+00  0.14774766647E+04  0.14774766647E+04  0.25500000920E-02 0.  1.
        2   -1    0    0  501    0  0.00000000000E+00  0.00000000000E+00 -0.11360075612E+04  0.11360075612E+04  0.25500000920E-02 0. -1.
    10030    2    1    2    0    0  0.00000000000E+00  0.00000000000E+00  0.34146910344E+03  0.26134842259E+04  0.25910805951E+04 0.  0.
        1    1    3    3  502    0 -0.76107664545E+02 -0.47583150174E+03  0.13837201446E+04  0.14652267515E+04  0.50400001928E-02 0.  1.
       -1    1    3    3    0  502  0.76107664545E+02  0.47583150174E+03 -0.10422510412E+04  0.11482574744E+04  0.50400001928E-02 0. -1.
</event>
<event>
 5   0  0.1100104E-06  0.2602018E+04  0.7818609E-02  0.8367516E-01
       -1   -1    0    0    0  501  0.00000000000E+00  0.00000000000E+00  0.78995435508E+03  0.78995435510E+03  0.50400001928E-02 0.  1.
        1   -1    0    0  501    0  0.00000000000E+00  0.00000000000E+00 -0.21426871685E+04  0.21426871685E+04  0.50400001928E-02 0. -1.
    10030    2    1    2    0    0  0.00000000000E+00  0.00000000000E+00 -0.13527328134E+04  0.29326415236E+04  0.26020184937E+04 0.  0.
        4    1    3    3  502    0 -0.75015202635E+03 -0.48900436700E+03 -0.17400964354E+04  0.19569850666E+04  0.12699999809E+01 0. -1.
       -4    1    3    3    0  502  0.75015202635E+03  0.48900436700E+03  0.38736362196E+03  0.97565645701E+03  0.12699999809E+01 0.  1.
</event>
<event>
 5   0  0.1122628E-06  0.2599223E+04  0.7818609E-02  0.8368465E-01
        1   -1    0    0  501    0  0.00000000000E+00  0.00000000000E+00  0.71681687884E+03  0.71681687886E+03  0.50400001928E-02 0.  1.
       -1   -1    0    0    0  501  0.00000000000E+00  0.00000000000E+00 -0.23562357705E+04  0.23562357705E+04  0.50400001928E-02 0. -1.
    10030    2    1    2    0    0  0.00000000000E+00  0.00000000000E+00 -0.16394188917E+04  0.30730526494E+04  0.25992226306E+04 0.  0.
        2    1    3    3  502    0 -0.31363741956E+03  0.79932713307E+01 -0.23107902312E+04  0.23319913842E+04  0.25500000920E-02 0. -1.
       -2    1    3    3    0  502  0.31363741956E+03 -0.79932713307E+01  0.67137133948E+03  0.74106126523E+03  0.25500000920E-02 0.  1.
</event>
<event>
 5   0  0.2746631E-06  0.2603048E+04  0.7818609E-02  0.8367167E-01
       -2   -1    0    0    0  501  0.00000000000E+00  0.00000000000E+00  0.92652905756E+03  0.92652905756E+03  0.25500000920E-02 0.  1.
        2   -1    0    0  501    0  0.00000000000E+00  0.00000000000E+00 -0.18282912681E+04  0.18282912681E+04  0.25500000920E-02 0. -1.
    10030    2    1    2    0    0  0.00000000000E+00  0.00000000000E+00 -0.90176221055E+03  0.27548203257E+04  0.26030482021E+04 0.  0.
        2    1    3    3  502    0 -0.91615571657E+03 -0.92069769711E+03 -0.53904144463E+03  0.14062685467E+04  0.25500000920E-02 0. -1.
       -2    1    3    3    0  502  0.91615571657E+03  0.92069769711E+03 -0.36272076592E+03  0.13485517789E+04  0.25500000920E-02 0.  1.
</event>
<event>
 5   0  0.1055179E-06  0.2599898E+04  0.7818609E-02  0.8368236E-01
       -1   -1    0    0    0  501  0.00000000000E+00  0.00000000000E+00  0.10451177039E+04  0.10451177039E+04  0.50400001928E-02 0.  1.
        1   -1    0    0  501    0  0.00000000000E+00  0.00000000000E+00 -0.16169160977E+04  0.16169160977E+04  0.50400001928E-02 0. -1.
    10030    2    1    2    0    0  0.00000000000E+00  0.00000000000E+00 -0.57179839378E+03  0.26620338016E+04  0.25998981821E+04 0.  0.
        3    1    3    3  502    0 -0.90850428799E+03 -0.43851626988E+03 -0.11253661309E+04  0.15113323589E+04  0.10100000352E+00 0. -1.
       -3    1    3    3    0  502  0.90850428799E+03  0.43851626988E+03  0.55356773716E+03  0.11507014426E+04  0.10100000352E+00 0.  1.
</event>
<event>
 5   0  0.2623368E-06  0.2599031E+04  0.7818609E-02  0.8368530E-01
       -2   -1    0    0    0  501  0.00000000000E+00  0.00000000000E+00  0.10745948839E+04  0.10745948839E+04  0.25500000920E-02 0.  1.
        2   -1    0    0  501    0  0.00000000000E+00  0.00000000000E+00 -0.15715141793E+04  0.15715141793E+04  0.25500000920E-02 0. -1.
    10030    2    1    2    0    0  0.00000000000E+00  0.00000000000E+00 -0.49691929540E+03  0.26461090631E+04  0.25990314326E+04 0.  0.
        5    1    3    3  502    0 -0.59370840712E+03  0.78483269608E+03  0.61559847880E+03  0.11607909418E+04  0.46999998093E+01 0.  1.
       -5    1    3    3    0  502  0.59370840712E+03 -0.78483269608E+03 -0.11125177742E+04  0.14853181213E+04  0.46999998093E+01 0. -1.
</event>
<event>
 5   0  0.1055179E-06  0.2598845E+04  0.7818609E-02  0.8368594E-01
       -1   -1    0    0    0  501  0.00000000000E+00  0.00000000000E+00  0.88601557632E+03  0.88601557633E+03  0.50400001928E-02 0.  1.
        1   -1    0    0  501    0  0.00000000000E+00  0.00000000000E+00 -0.19057211393E+04  0.19057211393E+04  0.50400001928E-02 0. -1.
    10030    2    1    2    0    0  0.00000000000E+00  0.00000000000E+00 -0.10197055630E+04  0.27917367157E+04  0.25988448308E+04 0.  0.
        3    1    3    3  502    0  0.72591854508E+03 -0.10627759516E+04 -0.70215999024E+03  0.14661102003E+04  0.10100000352E+00 0. -1.
       -3    1    3    3    0  502 -0.72591854508E+03  0.10627759516E+04 -0.31754557276E+03  0.13256265154E+04  0.10100000352E+00 0.  1.
</event>
<event>
 5   0  0.2746631E-06  0.2596186E+04  0.7818609E-02  0.8369498E-01
       -2   -1    0    0    0  501  0.00000000000E+00  0.00000000000E+00  0.13480035366E+04  0.13480035366E+04  0.25500000920E-02 0. -1.
        2   -1    0    0  501    0  0.00000000000E+00  0.00000000000E+00 -0.12500302137E+04  0.12500302137E+04  0.25500000920E-02 0.  1.
    10030    2    1    2    0    0  0.00000000000E+00  0.00000000000E+00  0.97973322903E+02  0.25980337503E+04  0.25961857783E+04 0.  0.
        2    1    3    3  502    0  0.55871248573E+03  0.74391065889E+03  0.95488371604E+03  0.13331787657E+04  0.25500000920E-02 0. -1.
       -2    1    3    3    0  502 -0.55871248573E+03 -0.74391065889E+03 -0.85691039313E+03  0.12648549846E+04  0.25500000920E-02 0.  1.
</event>
<event>
 5   0  0.2746631E-06  0.2599423E+04  0.7818609E-02  0.8368397E-01
        2   -1    0    0  501    0  0.00000000000E+00  0.00000000000E+00  0.18737722180E+04  0.18737722180E+04  0.25500000920E-02 0. -1.
       -2   -1    0    0    0  501  0.00000000000E+00  0.00000000000E+00 -0.90152349303E+03  0.90152349303E+03  0.25500000920E-02 0.  1.
    10030    2    1    2    0    0  0.00000000000E+00  0.00000000000E+00  0.97224872492E+03  0.27752957110E+04  0.25994227629E+04 0.  0.
        2    1    3    3  502    0 -0.29187148832E+03 -0.21339339593E+03  0.18189983416E+04  0.18545836928E+04  0.25500000920E-02 0. -1.
       -2    1    3    3    0  502  0.29187148832E+03  0.21339339593E+03 -0.84674961663E+03  0.92071201816E+03  0.25500000920E-02 0.  1.
</event>
<event>
 5   0  0.1032076E-06  0.2604249E+04  0.7818609E-02  0.8366759E-01
       -1   -1    0    0    0  501  0.00000000000E+00  0.00000000000E+00  0.78871398364E+03  0.78871398366E+03  0.50400001928E-02 0. -1.
        1   -1    0    0  501    0  0.00000000000E+00  0.00000000000E+00 -0.21497374994E+04  0.21497374994E+04  0.50400001928E-02 0.  1.
    10030    2    1    2    0    0  0.00000000000E+00  0.00000000000E+00 -0.13610235158E+04  0.29384514831E+04  0.26042488568E+04 0.  0.
        1    1    3    3  502    0  0.11034362570E+04  0.29730182057E+03  0.23739652495E+02  0.11430325966E+04  0.50400001928E-02 0. -1.
       -1    1    3    3    0  502 -0.11034362570E+04 -0.29730182057E+03 -0.13847631683E+04  0.17954188865E+04  0.50400001928E-02 0.  1.
</event>
<event>
 5   0  0.2820028E-06  0.2602277E+04  0.7818609E-02  0.8367428E-01
        2   -1    0    0  501    0  0.00000000000E+00  0.00000000000E+00  0.28066383414E+04  0.28066383414E+04  0.25500000920E-02 0.  1.
       -2   -1    0    0    0  501  0.00000000000E+00  0.00000000000E+00 -0.60319889280E+03  0.60319889280E+03  0.25500000920E-02 0. -1.
    10030    2    1    2    0    0  0.00000000000E+00  0.00000000000E+00  0.22034394486E+04  0.34098372342E+04  0.26022768031E+04 0.  0.
        3    1    3    3  502    0  0.10145953303E+04 -0.81419061756E+03  0.10682849342E+04  0.16833130300E+04  0.10100000352E+00 0. -1.
       -3    1    3    3    0  502 -0.10145953303E+04  0.81419061756E+03  0.11351545144E+04  0.17265242042E+04  0.10100000352E+00 0.  1.
</event>
<event>
 5   0  0.2746631E-06  0.2590084E+04  0.7818609E-02  0.8371577E-01
        2   -1    0    0  501    0  0.00000000000E+00  0.00000000000E+00  0.14319680640E+04  0.14319680640E+04  0.25500000920E-02 0. -1.
       -2   -1    0    0    0  501  0.00000000000E+00  0.00000000000E+00 -0.11712090324E+04  0.11712090324E+04  0.25500000920E-02 0.  1.
    10030    2    1    2    0    0  0.00000000000E+00  0.00000000000E+00  0.26075903154E+03  0.26031770964E+04  0.25900841150E+04 0.  0.
        2    1    3    3  502    0  0.77434606716E+03  0.80523159582E+03  0.78876665282E+03  0.13675388796E+04  0.25500000920E-02 0. -1.
       -2    1    3    3    0  502 -0.77434606716E+03 -0.80523159582E+03 -0.52800762129E+03  0.12356382168E+04  0.25500000920E-02 0.  1.
</event>
<event>
 5   0  0.1055179E-06  0.2599606E+04  0.7818609E-02  0.8368335E-01
       -1   -1    0    0    0  501  0.00000000000E+00  0.00000000000E+00  0.75611160215E+03  0.75611160217E+03  0.50400001928E-02 0. -1.
        1   -1    0    0  501    0  0.00000000000E+00  0.00000000000E+00 -0.22344418086E+04  0.22344418086E+04  0.50400001928E-02 0.  1.
    10030    2    1    2    0    0  0.00000000000E+00  0.00000000000E+00 -0.14783302064E+04  0.29905534107E+04  0.25996056438E+04 0.  0.
        3    1    3    3  502    0 -0.56143228994E+02  0.30132263743E+03  0.71394303948E+03  0.77695692790E+03  0.10100000352E+00 0. -1.
       -3    1    3    3    0  502  0.56143228994E+02 -0.30132263743E+03 -0.21922732459E+04  0.22135964828E+04  0.10100000352E+00 0.  1.
</event>
<event>
 5   0  0.1055179E-06  0.2599025E+04  0.7818609E-02  0.8368533E-01
       -1   -1    0    0    0  501  0.00000000000E+00  0.00000000000E+00  0.14070089436E+04  0.14070089436E+04  0.50400001928E-02 0.  1.
        1   -1    0    0  501    0  0.00000000000E+00  0.00000000000E+00 -0.12002284068E+04  0.12002284068E+04  0.50400001928E-02 0. -1.
    10030    2    1    2    0    0  0.00000000000E+00  0.00000000000E+00  0.20678053686E+03  0.26072373504E+04  0.25990245114E+04 0.  0.
        3    1    3    3  502    0  0.23613233702E+03  0.93266913634E+03  0.97970771765E+03  0.13731195945E+04  0.10100000352E+00 0.  1.
       -3    1    3    3    0  502 -0.23613233702E+03 -0.93266913634E+03 -0.77292718079E+03  0.12341177559E+04  0.10100000352E+00 0. -1.
</event>
<event>
 5   0  0.1100104E-06  0.2600407E+04  0.7818609E-02  0.8368063E-01
       -1   -1    0    0    0  501  0.00000000000E+00  0.00000000000E+00  0.12455111733E+04  0.12455111733E+04  0.50400001928E-02 0. -1.
        1   -1    0    0  501    0  0.00000000000E+00  0.00000000000E+00 -0.13572969915E+04  0.13572969915E+04  0.50400001928E-02 0.  1.
    10030    2    1    2    0    0  0.00000000000E+00  0.00000000000E+00 -0.11178581827E+03  0.26028081648E+04  0.26004065593E+04 0.  0.
        4    1    3    3  502    0  0.72064671067E+03  0.28425854926E+03  0.98929001499E+03  0.12565154003E+04  0.12699999809E+01 0. -1.
       -4    1    3    3    0  502 -0.72064671067E+03 -0.28425854926E+03 -0.11010758333E+04  0.13462927646E+04  0.12699999809E+01 0.  1.
</event>
<event>
 5   0  0.2820028E-06  0.2598074E+04  0.7818609E-02  0.8368856E-01
        2   -1    0    0  501    0  0.00000000000E+00  0.00000000000E+00  0.16509276246E+04  0.16509276246E+04  0.25500000920E-02 0. -1.
       -2   -1    0    0    0  501  0.00000000000E+00  0.00000000000E+00 -0.10221509149E+04  0.10221509149E+04  0.25500000920E-02 0.  1.
    10030    2    1    2    0    0  0.00000000000E+00  0.00000000000E+00  0.62877670966E+03  0.26730785395E+04  0.25980740420E+04 0.  0.
        3    1    3    3  502    0  0.58463981877E+03  0.10252520279E+04  0.87278266821E+03  0.14678879503E+04  0.10100000352E+00 0. -1.
       -3    1    3    3    0  502 -0.58463981877E+03 -0.10252520279E+04 -0.24400595856E+03  0.12051905892E+04  0.10100000352E+00 0.  1.
</event>
<event>
 5   0  0.2746631E-06  0.2594269E+04  0.7818609E-02  0.8370150E-01
       -2   -1    0    0    0  501  0.00000000000E+00  0.00000000000E+00  0.22363247249E+04  0.22363247249E+04  0.25500000920E-02 0.  1.
        2   -1    0    0  501    0  0.00000000000E+00  0.00000000000E+00 -0.75237664763E+03  0.75237664763E+03  0.25500000920E-02 0. -1.
    10030    2    1    2    0    0  0.00000000000E+00  0.00000000000E+00  0.14839480773E+04  0.29887013725E+04  0.25942694536E+04 0.  0.
        2    1    3    3  502    0  0.19615541251E+03 -0.11374480187E+04  0.60132404231E+02  0.11558031179E+04  0.25500000920E-02 0. -1.
       -2    1    3    3    0  502 -0.19615541251E+03  0.11374480187E+04  0.14238156730E+04  0.18328982547E+04  0.25500000920E-02 0.  1.
</event>
<event>
 5   0  0.2705807E-06  0.2599808E+04  0.7818609E-02  0.8368267E-01
       -2   -1    0    0    0  501  0.00000000000E+00  0.00000000000E+00  0.18854026641E+04  0.18854026641E+04  0.25500000920E-02 0. -1.
        2   -1    0    0  501    0  0.00000000000E+00  0.00000000000E+00 -0.89622760776E+03  0.89622760776E+03  0.25500000920E-02 0.  1.
    10030    2    1    2    0    0  0.00000000000E+00  0.00000000000E+00  0.98917505637E+03  0.27816302719E+04  0.25998076231E+04 0.  0.
        4    1    3    3  502    0  0.10242271377E+04  0.50540223402E+03 -0.16952852301E+03  0.11546489427E+04  0.12699999809E+01 0.  1.
       -4    1    3    3    0  502 -0.10242271377E+04 -0.50540223402E+03  0.11587035794E+04  0.16269813292E+04  0.12699999809E+01 0. -1.
</event>
<event>
 5   0  0.1122628E-06  0.2601297E+04  0.7818609E-02  0.8367761E-01
        1   -1    0    0  501    0  0.00000000000E+00  0.00000000000E+00  0.23102358990E+04  0.23102358990E+04  0.50400001928E-02 0.  1.
       -1   -1    0    0    0  501  0.00000000000E+00  0.00000000000E+00 -0.73225706479E+03  0.73225706481E+03  0.50400001928E-02 0. -1.
    10030    2    1    2    0    0  0.00000000000E+00  0.00000000000E+00  0.15779788342E+04  0.30424929638E+04  0.26012970291E+04 0.  0.
        2    1    3    3  502    0  0.10452343786E+04 -0.56169608317E+03  0.16605015985E+03  0.11981611126E+04  0.25500000920E-02 0. -1.
       -2    1    3    3    0  502 -0.10452343786E+04  0.56169608317E+03  0.14119286743E+04  0.18443318512E+04  0.25500000920E-02 0.  1.
</event>
<event>
 5   0  0.9197000E-07  0.2604879E+04  0.7818609E-02  0.8366546E-01
       -3   -1    0    0    0  501  0.00000000000E+00  0.00000000000E+00  0.63135929642E+03  0.63135930450E+03  0.10100000352E+00 0.  1.
        3   -1    0    0  501    0  0.00000000000E+00  0.00000000000E+00 -0.26868206585E+04  0.26868206604E+04  0.10100000352E+00 0. -1.
    10030    2    1    2    0    0  0.00000000000E+00  0.00000000000E+00 -0.20554613621E+04  0.33181799649E+04  0.26048794345E+04 0.  0.
        4    1    3    3  502    0 -0.44926808500E+03  0.39160034296E+03  0.44747233058E+03  0.74526890472E+03  0.12699999809E+01 0.  1.
       -4    1    3    3    0  502  0.44926808500E+03 -0.39160034296E+03 -0.25029336926E+04  0.25729110602E+04  0.12699999809E+01 0. -1.
</event>
<event>
 5   0  0.2586775E-06  0.2600987E+04  0.7818609E-02  0.8367866E-01
        2   -1    0    0  501    0  0.00000000000E+00  0.00000000000E+00  0.12220005015E+04  0.12220005015E+04  0.25500000920E-02 0. -1.
       -2   -1    0    0    0  501  0.00000000000E+00  0.00000000000E+00 -0.13840282942E+04  0.13840282943E+04  0.25500000920E-02 0.  1.
    10030    2    1    2    0    0  0.00000000000E+00  0.00000000000E+00 -0.16202779272E+03  0.26060287958E+04  0.26009869432E+04 0.  0.
        1    1    3    3  502    0 -0.78852935662E+03  0.83960131997E+03 -0.68598424816E+03  0.13406279542E+04  0.50400001928E-02 0.  1.
       -1    1    3    3    0  502  0.78852935662E+03 -0.83960131997E+03  0.52395645545E+03  0.12654008416E+04  0.50400001928E-02 0. -1.
</event>
<event>
 5   0  0.2746631E-06  0.2599674E+04  0.7818609E-02  0.8368312E-01
        2   -1    0    0  501    0  0.00000000000E+00  0.00000000000E+00  0.15662388538E+04  0.15662388538E+04  0.25500000920E-02 0. -1.
       -2   -1    0    0    0  501  0.00000000000E+00  0.00000000000E+00 -0.10787474861E+04  0.10787474861E+04  0.25500000920E-02 0.  1.
    10030    2    1    2    0    0  0.00000000000E+00  0.00000000000E+00  0.48749136771E+03  0.26449863400E+04  0.25996739998E+04 0.  0.
        2    1    3    3  502    0 -0.57171026507E+03 -0.60173399449E+03 -0.77400974804E+03  0.11349129999E+04  0.25500000920E-02 0.  1.
       -2    1    3    3    0  502  0.57171026507E+03  0.60173399449E+03  0.12615011158E+04  0.15100733401E+04  0.25500000920E-02 0. -1.
</event>
<event>
 5   0  0.1032076E-06  0.2599093E+04  0.7818609E-02  0.8368509E-01
        1   -1    0    0  501    0  0.00000000000E+00  0.00000000000E+00  0.15220792261E+04  0.15220792261E+04  0.50400001928E-02 0. -1.
       -1   -1    0    0    0  501  0.00000000000E+00  0.00000000000E+00 -0.11095484262E+04  0.11095484262E+04  0.50400001928E-02 0.  1.
    10030    2    1    2    0    0  0.00000000000E+00  0.00000000000E+00  0.41253079992E+03  0.26316276523E+04  0.25990926185E+04 0.  0.
        1    1    3    3  502    0  0.11118247054E+04 -0.51073370441E+03 -0.23718680466E+03  0.12462987895E+04  0.50400001928E-02 0.  1.
       -1    1    3    3    0  502 -0.11118247054E+04  0.51073370441E+03  0.64971760458E+03  0.13853288628E+04  0.50400001928E-02 0. -1.
</event>
<event>
 5   0  0.1055179E-06  0.2601227E+04  0.7818609E-02  0.8367784E-01
       -1   -1    0    0    0  501  0.00000000000E+00  0.00000000000E+00  0.11667376506E+04  0.11667376506E+04  0.50400001928E-02 0. -1.
        1   -1    0    0  501    0  0.00000000000E+00  0.00000000000E+00 -0.14498512510E+04  0.14498512510E+04  0.50400001928E-02 0.  1.
    10030    2    1    2    0    0  0.00000000000E+00  0.00000000000E+00 -0.28311360046E+03  0.26165889016E+04  0.26012274351E+04 0.  0.
        3    1    3    3  502    0  0.71444134191E+03  0.30744162023E+03  0.90702390403E+03  0.11948385471E+04  0.10100000352E+00 0. -1.
       -3    1    3    3    0  502 -0.71444134191E+03 -0.30744162023E+03 -0.11901375045E+04  0.14217503546E+04  0.10100000352E+00 0.  1.
</event>
<event>
 5   0  0.1100104E-06  0.2607860E+04  0.7818609E-02  0.8365536E-01
        1   -1    0    0  501    0  0.00000000000E+00  0.00000000000E+00  0.87823345939E+03  0.87823345940E+03  0.50400001928E-02 0. -1.
       -1   -1    0    0    0  501  0.00000000000E+00  0.00000000000E+00 -0.19359698236E+04  0.19359698236E+04  0.50400001928E-02 0.  1.
    10030    2    1    2    0    0  0.00000000000E+00  0.00000000000E+00 -0.10577363642E+04  0.28142032830E+04  0.26078600235E+04 0.  0.
        4    1    3    3  502    0  0.64341241004E+03  0.25407837226E+03  0.66389123933E+03  0.95879535836E+03  0.12699999809E+01 0. -1.
       -4    1    3    3    0  502 -0.64341241004E+03 -0.25407837226E+03 -0.17216276036E+04  0.18554079247E+04  0.12699999809E+01 0.  1.
</event>
<event>
 5   0  0.1032076E-06  0.2598139E+04  0.7818609E-02  0.8368834E-01
        1   -1    0    0  501    0  0.00000000000E+00  0.00000000000E+00  0.91261452526E+03  0.91261452527E+03  0.50400001928E-02 0.  1.
       -1   -1    0    0    0  501  0.00000000000E+00  0.00000000000E+00 -0.18491716986E+04  0.18491716987E+04  0.50400001928E-02 0. -1.
    10030    2    1    2    0    0  0.00000000000E+00  0.00000000000E+00 -0.93655717339E+03  0.27617862239E+04  0.25981385274E+04 0.  0.
        1    1    3    3  502    0  0.44367020870E+02  0.76516219202E+03  0.64666168698E+03  0.10028025479E+04  0.50400001928E-02 0.  1.
       -1    1    3    3    0  502 -0.44367020870E+02 -0.76516219202E+03 -0.15832188604E+04  0.17589836760E+04  0.50400001928E-02 0. -1.
</event>
<event>
 5   0  0.2820028E-06  0.2599644E+04  0.7818609E-02  0.8368322E-01
       -2   -1    0    0    0  501  0.00000000000E+00  0.00000000000E+00  0.16223617877E+04  0.16223617877E+04  0.25500000920E-02 0.  1.
        2   -1    0    0  501    0  0.00000000000E+00  0.00000000000E+00 -0.10414060842E+04  0.10414060843E+04  0.25500000920E-02 0. -1.
    10030    2    1    2    0    0  0.00000000000E+00  0.00000000000E+00  0.58095570345E+03  0.26637678720E+04  0.25996441576E+04 0.  0.
        3    1    3    3  502    0  0.10050949499E+04  0.80636723569E+03  0.46525316064E+03  0.13700016389E+04  0.10100000352E+00 0.  1.
       -3    1    3    3    0  502 -0.10050949499E+04 -0.80636723569E+03  0.11570254281E+03  0.12937662330E+04  0.10100000352E+00 0. -1.
</event>
<event>
 5   0  0.1122628E-06  0.2599834E+04  0.7818609E-02  0.8368258E-01
        1   -1    0    0  501    0  0.00000000000E+00  0.00000000000E+00  0.12101561451E+04  0.12101561451E+04  0.50400001928E-02 0.  1.
       -1   -1    0    0    0  501  0.00000000000E+00  0.00000000000E+00 -0.13963355996E+04  0.13963355997E+04  0.50400001928E-02 0. -1.
    10030    2    1    2    0    0  0.00000000000E+00  0.00000000000E+00 -0.18617945451E+03  0.26064917448E+04  0.25998339229E+04 0.  0.
        2    1    3    3  502    0 -0.66864186723E+03  0.21424367161E+03  0.10036961917E+04  0.12249034013E+04  0.25500000920E-02 0.  1.
       -2    1    3    3    0  502  0.66864186723E+03 -0.21424367161E+03 -0.11898756462E+04  0.13815883435E+04  0.25500000920E-02 0. -1.
</event>
<event>
 5   0  0.2586775E-06  0.2596772E+04  0.7818609E-02  0.8369299E-01
        2   -1    0    0  501    0  0.00000000000E+00  0.00000000000E+00  0.13251005962E+04  0.13251005962E+04  0.25500000920E-02 0.  1.
       -2   -1    0    0    0  501  0.00000000000E+00  0.00000000000E+00 -0.12722095722E+04  0.12722095722E+04  0.25500000920E-02 0. -1.
    10030    2    1    2    0    0  0.00000000000E+00  0.00000000000E+00  0.52891024088E+02  0.25973101684E+04  0.25967715823E+04 0.  0.
        1    1    3    3  502    0  0.12895984844E+04  0.15070242720E+03  0.20949816841E+02  0.12985431711E+04  0.50400001928E-02 0.  1.
       -1    1    3    3    0  502 -0.12895984844E+04 -0.15070242720E+03  0.31941207247E+02  0.12987669973E+04  0.50400001928E-02 0. -1.
</event>
<event>
 5   0  0.1122628E-06  0.2603079E+04  0.7818609E-02  0.8367156E-01
       -1   -1    0    0    0  501  0.00000000000E+00  0.00000000000E+00  0.10249378898E+04  0.10249378898E+04  0.50400001928E-02 0. -1.
        1   -1    0    0  501    0  0.00000000000E+00  0.00000000000E+00 -0.16527877261E+04  0.16527877261E+04  0.50400001928E-02 0.  1.
    10030    2    1    2    0    0  0.00000000000E+00  0.00000000000E+00 -0.62784983634E+03  0.26777256159E+04  0.26030787651E+04 0.  0.
        2    1    3    3  502    0 -0.53630997083E+03  0.11340019767E+04  0.43036004321E+02  0.12551657124E+04  0.25500000920E-02 0.  1.
       -2    1    3    3    0  502  0.53630997083E+03 -0.11340019767E+04 -0.67088584066E+03  0.14225599035E+04  0.25500000920E-02 0. -1.
</event>
<event>
 5   0  0.1055179E-06  0.2541862E+04  0.7818609E-02  0.8388222E-01
       -1   -1    0    0    0  501  0.00000000000E+00  0.00000000000E+00  0.10065135195E+04  0.10065135195E+04  0.50400001928E-02 0. -1.
        1   -1    0    0  501    0  0.00000000000E+00  0.00000000000E+00 -0.16048122424E+04  0.16048122424E+04  0.50400001928E-02 0.  1.
    10030    2    1    2    0    0  0.00000000000E+00  0.00000000000E+00 -0.59829872296E+03  0.26113257619E+04  0.25418616943E+04 0.  0.
        3    1    3    3  502    0 -0.33093969064E+03  0.83454785748E+03 -0.12233301397E+04  0.15174082662E+04  0.10100000352E+00 0. -1.
       -3    1    3    3    0  502  0.33093969064E+03 -0.83454785748E+03  0.62503141678E+03  0.10939174957E+04  0.10100000352E+00 0.  1.
</event>
<event>
 5   0  0.2705807E-06  0.2603666E+04  0.7818609E-02  0.8366957E-01
        2   -1    0    0  501    0  0.00000000000E+00  0.00000000000E+00  0.19571583621E+04  0.19571583621E+04  0.25500000920E-02 0.  1.
       -2   -1    0    0    0  501  0.00000000000E+00  0.00000000000E+00 -0.86593361896E+03  0.86593361896E+03  0.25500000920E-02 0. -1.
    10030    2    1    2    0    0  0.00000000000E+00  0.00000000000E+00  0.10912247431E+04  0.28230919810E+04  0.26036660487E+04 0.  0.
        4    1    3    3  502    0  0.42460334527E+03 -0.90996333420E+03 -0.35273240164E+03  0.10643040122E+04  0.12699999809E+01 0. -1.
       -4    1    3    3    0  502 -0.42460334527E+03  0.90996333420E+03  0.14439571447E+04  0.17587879688E+04  0.12699999809E+01 0.  1.
</event>
<event>
 5   0  0.1100104E-06  0.2597369E+04  0.7818609E-02  0.8369096E-01
       -1   -1    0    0    0  501  0.00000000000E+00  0.00000000000E+00  0.13292207666E+04  0.13292207666E+04  0.50400001928E-02 0. -1.
        1   -1    0    0  501    0  0.00000000000E+00  0.00000000000E+00 -0.12688494370E+04  0.12688494370E+04  0.50400001928E-02 0.  1.
    10030    2    1    2    0    0  0.00000000000E+00  0.00000000000E+00  0.60371329590E+02  0.25980702036E+04  0.25973686849E+04 0.  0.
        4    1    3    3  502    0 -0.75954780059E+03  0.11351611423E+03 -0.10173701447E+04  0.12746930586E+04  0.12699999809E+01 0.  1.
       -4    1    3    3    0  502  0.75954780059E+03 -0.11351611423E+03  0.10777414743E+04  0.13233771450E+04  0.12699999809E+01 0. -1.
</event>
<event>
 5   0  0.2746631E-06  0.2601996E+04  0.7818609E-02  0.8367523E-01
       -2   -1    0    0    0  501  0.00000000000E+00  0.00000000000E+00  0.10368011250E+04  0.10368011250E+04  0.25500000920E-02 0. -1.
        2   -1    0    0  501    0  0.00000000000E+00  0.00000000000E+00 -0.16325178737E+04  0.16325178737E+04  0.25500000920E-02 0.  1.
    10030    2    1    2    0    0  0.00000000000E+00  0.00000000000E+00 -0.59571674871E+03  0.26693189987E+04  0.26019964397E+04 0.  0.
        2    1    3    3  502    0  0.75586809405E+03 -0.10017394857E+04  0.54208763566E+02  0.12560880394E+04  0.25500000920E-02 0. -1.
       -2    1    3    3    0  502 -0.75586809405E+03  0.10017394857E+04 -0.64992551228E+03  0.14132309593E+04  0.25500000920E-02 0.  1.
</event>
<event>
 5   0  0.1088757E-06  0.2600735E+04  0.7818609E-02  0.8367952E-01
       -1   -1    0    0    0  501  0.00000000000E+00  0.00000000000E+00  0.18383397777E+04  0.18383397777E+04  0.50400001928E-02 0.  1.
        1   -1    0    0  501    0  0.00000000000E+00  0.00000000000E+00 -0.91982737951E+03  0.91982737952E+03  0.50400001928E-02 0. -1.
    10030    2    1    2    0    0  0.00000000000E+00  0.00000000000E+00  0.91851239823E+03  0.27581671573E+04  0.26007347119E+04 0.  0.
        5    1    3    3  502    0 -0.22648194790E+03  0.10114428992E+04  0.12920436321E+04  0.16564146970E+04  0.46999998093E+01 0.  1.
       -5    1    3    3    0  502  0.22648194790E+03 -0.10114428992E+04 -0.37353123384E+03  0.11017524603E+04  0.46999998093E+01 0. -1.
</event>
<event>
 5   0  0.2820028E-06  0.2599359E+04  0.7818609E-02  0.8368419E-01
        2   -1    0    0  501    0  0.00000000000E+00  0.00000000000E+00  0.28754426703E+04  0.28754426703E+04  0.25500000920E-02 0. -1.
       -2   -1    0    0    0  501  0.00000000000E+00  0.00000000000E+00 -0.58744598132E+03  0.58744598133E+03  0.25500000920E-02 0.  1.
    10030    2    1    2    0    0  0.00000000000E+00  0.00000000000E+00  0.22879966889E+04  0.34628886516E+04  0.25993593374E+04 0.  0.
        3    1    3    3  502    0 -0.40928286217E+03  0.94030104700E+03  0.80324560588E+02  0.10286547358E+04  0.10100000352E+00 0.  1.
       -3    1    3    3    0  502  0.40928286217E+03 -0.94030104700E+03  0.22076721284E+04  0.24342339158E+04  0.10100000352E+00 0. -1.
</event>
<event>
 5   0  0.1122628E-06  0.2626087E+04  0.7818609E-02  0.8359394E-01
       -1   -1    0    0    0  501  0.00000000000E+00  0.00000000000E+00  0.10732122026E+04  0.10732122026E+04  0.50400001928E-02 0.  1.
        1   -1    0    0  501    0  0.00000000000E+00  0.00000000000E+00 -0.16064705851E+04  0.16064705851E+04  0.50400001928E-02 0. -1.
    10030    2    1    2    0    0  0.00000000000E+00  0.00000000000E+00 -0.53325838248E+03  0.26796827877E+04  0.26260874586E+04 0.  0.
        2    1    3    3  502    0  0.72739030722E+03  0.10148207584E+04  0.14802106402E+03  0.12573257598E+04  0.25500000920E-02 0.  1.
       -2    1    3    3    0  502 -0.72739030722E+03 -0.10148207584E+04 -0.68127944650E+03  0.14223570280E+04  0.25500000920E-02 0. -1.
</event>
<event>
 5   0  0.2746631E-06  0.2599775E+04  0.7818609E-02  0.8368278E-01
       -2   -1    0    0    0  501  0.00000000000E+00  0.00000000000E+00  0.13939308014E+04  0.13939308014E+04  0.25500000920E-02 0. -1.
        2   -1    0    0  501    0  0.00000000000E+00  0.00000000000E+00 -0.12121885980E+04  0.12121885980E+04  0.25500000920E-02 0.  1.
    10030    2    1    2    0    0  0.00000000000E+00  0.00000000000E+00  0.18174220334E+03  0.26061193994E+04  0.25997746239E+04 0.  0.
        2    1    3    3  502    0  0.75024457686E+03  0.10018348498E+04  0.44267921235E+03  0.13275936413E+04  0.25500000920E-02 0.  1.
       -2    1    3    3    0  502 -0.75024457686E+03 -0.10018348498E+04 -0.26093700900E+03  0.12785257581E+04  0.25500000920E-02 0. -1.
</event>
<event>
 5   0  0.2586775E-06  0.2605630E+04  0.7818609E-02  0.8366291E-01
       -2   -1    0    0    0  501  0.00000000000E+00  0.00000000000E+00  0.10135346071E+04  0.10135346071E+04  0.25500000920E-02 0. -1.
        2   -1    0    0  501    0  0.00000000000E+00  0.00000000000E+00 -0.16746613772E+04  0.16746613772E+04  0.25500000920E-02 0.  1.
    10030    2    1    2    0    0  0.00000000000E+00  0.00000000000E+00 -0.66112677015E+03  0.26881959843E+04  0.26056302585E+04 0.  0.
        1    1    3    3  502    0 -0.76421120475E+03  0.80214946064E+03  0.37662409931E+03  0.11701744463E+04  0.50400001928E-02 0.  1.
       -1    1    3    3    0  502  0.76421120475E+03 -0.80214946064E+03 -0.10377508695E+04  0.15180215380E+04  0.50400001928E-02 0. -1.
</event>
<event>
 5   0  0.1055179E-06  0.2604964E+04  0.7818609E-02  0.8366517E-01
       -1   -1    0    0    0  501  0.00000000000E+00  0.00000000000E+00  0.13916229683E+04  0.13916229683E+04  0.50400001928E-02 0.  1.
        1   -1    0    0  501    0  0.00000000000E+00  0.00000000000E+00 -0.12190505512E+04  0.12190505512E+04  0.50400001928E-02 0. -1.
    10030    2    1    2    0    0  0.00000000000E+00  0.00000000000E+00  0.17257241714E+03  0.26106735195E+04  0.26049635288E+04 0.  0.
        3    1    3    3  502    0 -0.13654046368E+03  0.41486097241E+03 -0.11434755396E+04  0.12240462591E+04  0.10100000352E+00 0. -1.
       -3    1    3    3    0  502  0.13654046368E+03 -0.41486097241E+03  0.13160479567E+04  0.13866272604E+04  0.10100000352E+00 0.  1.
</event>
<event>
 5   0  0.1100104E-06  0.2593028E+04  0.7818609E-02  0.8370573E-01
        1   -1    0    0  501    0  0.00000000000E+00  0.00000000000E+00  0.13585936088E+04  0.13585936089E+04  0.50400001928E-02 0. -1.
       -1   -1    0    0    0  501  0.00000000000E+00  0.00000000000E+00 -0.12372710896E+04  0.12372710896E+04  0.50400001928E-02 0.  1.
    10030    2    1    2    0    0  0.00000000000E+00  0.00000000000E+00  0.12132251925E+03  0.25958646985E+04  0.25930280328E+04 0.  0.
        4    1    3    3  502    0  0.11592288288E+04  0.41021421366E+03  0.47203633985E+03  0.13171587215E+04  0.12699999809E+01 0. -1.
       -4    1    3    3    0  502 -0.11592288288E+04 -0.41021421366E+03 -0.35071382060E+03  0.12787059769E+04  0.12699999809E+01 0.  1.
</event>
<event>
 5   0  0.2746631E-06  0.2599551E+04  0.7818609E-02  0.8368354E-01
       -2   -1    0    0    0  501  0.00000000000E+00  0.00000000000E+00  0.12327419498E+04  0.12327419498E+04  0.25500000920E-02 0.  1.
        2   -1    0    0  501    0  0.00000000000E+00  0.00000000000E+00 -0.13704540705E+04  0.13704540705E+04  0.25500000920E-02 0. -1.
    10030    2    1    2    0    0  0.00000000000E+00  0.00000000000E+00 -0.13771212063E+03  0.26031960203E+04  0.25995509020E+04 0.  0.
        2    1    3    3  502    0  0.10516780780E+04 -0.58024098388E+03 -0.56625148384E+03  0.13279108110E+04  0.25500000920E-02 0. -1.
       -2    1    3    3    0  502 -0.10516780780E+04  0.58024098388E+03  0.42853936321E+03  0.12752852093E+04  0.25500000920E-02 0.  1.
</event>
<event>
 5   0  0.2705807E-06  0.2616270E+04  0.7818609E-02  0.8362696E-01
        2   -1    0    0  501    0  0.00000000000E+00  0.00000000000E+00  0.22671425063E+04  0.22671425063E+04  0.25500000920E-02 0. -1.
       -2   -1    0    0    0  501  0.00000000000E+00  0.00000000000E+00 -0.75479011426E+03  0.75479011426E+03  0.25500000920E-02 0.  1.
    10030    2    1    2    0    0  0.00000000000E+00  0.00000000000E+00  0.15123523921E+04  0.30219326206E+04  0.26162696737E+04 0.  0.
        4    1    3    3  502    0  0.11495031031E+04 -0.50381560843E+03  0.33017014607E+03  0.12977678874E+04  0.12699999809E+01 0.  1.
       -4    1    3    3    0  502 -0.11495031031E+04  0.50381560843E+03  0.11821822460E+04  0.17241647332E+04  0.12699999809E+01 0. -1.
</event>
<event>
 5   0  0.2820028E-06  0.2601373E+04  0.7818609E-02  0.8367735E-01
       -2   -1    0    0    0  501  0.00000000000E+00  0.00000000000E+00  0.63554765598E+03  0.63554765599E+03  0.25500000920E-02 0. -1.
        2   -1    0    0  501    0  0.00000000000E+00  0.00000000000E+00 -0.26619332822E+04  0.26619332822E+04  0.25500000920E-02 0.  1.
    10030    2    1    2    0    0  0.00000000000E+00  0.00000000000E+00 -0.20263856262E+04  0.32974809382E+04  0.26013730666E+04 0.  0.
        3    1    3    3  502    0  0.46507033566E+03  0.96303425961E+03 -0.74780439924E+02  0.10720622774E+04  0.10100000352E+00 0. -1.
       -3    1    3    3    0  502 -0.46507033566E+03 -0.96303425961E+03 -0.19516051863E+04  0.22254186608E+04  0.10100000352E+00 0.  1.
</event>
<event>
 5   0  0.2623368E-06  0.2601046E+04  0.7818609E-02  0.8367846E-01
        2   -1    0    0  501    0  0.00000000000E+00  0.00000000000E+00  0.14164038768E+04  0.14164038768E+04  0.25500000920E-02 0. -1.
       -2   -1    0    0    0  501  0.00000000000E+00  0.00000000000E+00 -0.11941223866E+04  0.11941223866E+04  0.25500000920E-02 0.  1.
    10030    2    1    2    0    0  0.00000000000E+00  0.00000000000E+00  0.22228149017E+03  0.26105262634E+04  0.26010456188E+04 0.  0.
        5    1    3    3  502    0 -0.10163171884E+04 -0.38630312454E+03 -0.60504747974E+03  0.12442810270E+04  0.46999998093E+01 0.  1.
       -5    1    3    3    0  502  0.10163171884E+04  0.38630312454E+03  0.82732896990E+03  0.13662452364E+04  0.46999998093E+01 0. -1.
</event>
<event>
 5   0  0.1100104E-06  0.2600464E+04  0.7818609E-02  0.8368043E-01
       -1   -1    0    0    0  501  0.00000000000E+00  0.00000000000E+00  0.88036255937E+03  0.88036255938E+03  0.50400001928E-02 0.  1.
        1   -1    0    0  501    0  0.00000000000E+00  0.00000000000E+00 -0.19203494329E+04  0.19203494329E+04  0.50400001928E-02 0. -1.
    10030    2    1    2    0    0  0.00000000000E+00  0.00000000000E+00 -0.10399868735E+04  0.28007119923E+04  0.26004643752E+04 0.  0.
        4    1    3    3  502    0  0.34956629818E+03 -0.54829783973E+03  0.69266540034E+03  0.95006004421E+03  0.12699999809E+01 0.  1.
       -4    1    3    3    0  502 -0.34956629818E+03  0.54829783973E+03 -0.17326522739E+04  0.18506519481E+04  0.12699999809E+01 0. -1.
</event>
<event>
 5   0  0.1055179E-06  0.2599250E+04  0.7818609E-02  0.8368456E-01
        1   -1    0    0  501    0  0.00000000000E+00  0.00000000000E+00  0.11233255407E+04  0.11233255407E+04  0.50400001928E-02 0.  1.
       -1   -1    0    0    0  501  0.00000000000E+00  0.00000000000E+00 -0.15035931143E+04  0.15035931143E+04  0.50400001928E-02 0. -1.
    10030    2    1    2    0    0  0.00000000000E+00  0.00000000000E+00 -0.38026757357E+03  0.26269186551E+04  0.25992495442E+04 0.  0.
        3    1    3    3  502    0 -0.66052401927E+03  0.11116224538E+04 -0.32201455439E+03  0.13325501279E+04  0.10100000352E+00 0.  1.
       -3    1    3    3    0  502  0.66052401927E+03 -0.11116224538E+04 -0.58253019183E+02  0.12943685272E+04  0.10100000352E+00 0. -1.
</event>
<event>
 5   0  0.1032076E-06  0.2594515E+04  0.7818609E-02  0.8370067E-01
        1   -1    0    0  501    0  0.00000000000E+00  0.00000000000E+00  0.19576185702E+04  0.19576185702E+04  0.50400001928E-02 0.  1.
       -1   -1    0    0    0  501  0.00000000000E+00  0.00000000000E+00 -0.85965503438E+03  0.85965503440E+03  0.50400001928E-02 0. -1.
    10030    2    1    2    0    0  0.00000000000E+00  0.00000000000E+00  0.10979635358E+04  0.28172736046E+04  0.25945147209E+04 0.  0.
        1    1    3    3  502    0 -0.17816651934E+03 -0.12083056517E+04  0.10237025332E+04  0.15936476188E+04  0.50400001928E-02 0.  1.
       -1    1    3    3    0  502  0.17816651934E+03  0.12083056517E+04  0.74261002616E+02  0.12236259858E+04  0.50400001928E-02 0. -1.
</event>
<event>
 5   0  0.2705807E-06  0.2601717E+04  0.7818609E-02  0.8367618E-01
       -2   -1    0    0    0  501  0.00000000000E+00  0.00000000000E+00  0.14856878973E+04  0.14856878973E+04  0.25500000920E-02 0. -1.
        2   -1    0    0  501    0  0.00000000000E+00  0.00000000000E+00 -0.11390228088E+04  0.11390228088E+04  0.25500000920E-02 0.  1.
    10030    2    1    2    0    0  0.00000000000E+00  0.00000000000E+00  0.34666508846E+03  0.26247107062E+04  0.26017166655E+04 0.  0.
        4    1    3    3  502    0  0.12812747021E+04  0.22240022489E+03  0.20685370788E+03  0.13167827428E+04  0.12699999809E+01 0.  1.
       -4    1    3    3    0  502 -0.12812747021E+04 -0.22240022489E+03  0.13981138058E+03  0.13079279634E+04  0.12699999809E+01 0. -1.
</event>
<event>
 5   0  0.2705807E-06  0.2595639E+04  0.7818609E-02  0.8369684E-01
       -2   -1    0    0    0  501  0.00000000000E+00  0.00000000000E+00  0.10758119087E+04  0.10758119087E+04  0.25500000920E-02 0. -1.
        2   -1    0    0  501    0  0.00000000000E+00  0.00000000000E+00 -0.15656411844E+04  0.15656411844E+04  0.25500000920E-02 0.  1.
    10030    2    1    2    0    0  0.00000000000E+00  0.00000000000E+00 -0.48982927569E+03  0.26414530930E+04  0.25956389817E+04 0.  0.
        4    1    3    3  502    0 -0.80811933050E+03  0.36651983814E+03 -0.12087000605E+04  0.14994502637E+04  0.12699999809E+01 0.  1.
       -4    1    3    3    0  502  0.80811933050E+03 -0.36651983814E+03  0.71887078481E+03  0.11420028293E+04  0.12699999809E+01 0. -1.
</event>
<event>
 5   0  0.1088757E-06  0.2596805E+04  0.7818609E-02  0.8369287E-01
       -1   -1    0    0    0  501  0.00000000000E+00  0.00000000000E+00  0.97409721722E+03  0.97409721724E+03  0.50400001928E-02 0.  1.
        1   -1    0    0  501    0  0.00000000000E+00  0.00000000000E+00 -0.17306782199E+04  0.17306782199E+04  0.50400001928E-02 0. -1.
    10030    2    1    2    0    0  0.00000000000E+00  0.00000000000E+00 -0.75658100266E+03  0.27047754371E+04  0.25968048351E+04 0.  0.
        5    1    3    3  502    0 -0.39579721829E+03  0.73315367750E+03  0.65893370249E+03  0.10622548974E+04  0.46999998093E+01 0.  1.
       -5    1    3    3    0  502  0.39579721829E+03 -0.73315367750E+03 -0.14155147051E+04  0.16425205397E+04  0.46999998093E+01 0. -1.
</event>
<event>
 5   0  0.2746631E-06  0.2591270E+04  0.7818609E-02  0.8371173E-01
        2   -1    0    0  501    0  0.00000000000E+00  0.00000000000E+00  0.13731938641E+04  0.13731938641E+04  0.25500000920E-02 0.  1.
       -2   -1    0    0    0  501  0.00000000000E+00  0.00000000000E+00 -0.12224563726E+04  0.12224563726E+04  0.25500000920E-02 0. -1.
    10030    2    1    2    0    0  0.00000000000E+00  0.00000000000E+00  0.15073749147E+03  0.25956502366E+04  0.25912696424E+04 0.  0.
        2    1    3    3  502    0 -0.80476503312E+03 -0.12649293756E+03  0.10845551017E+04  0.13564317124E+04  0.25500000920E-02 0.  1.
       -2    1    3    3    0  502  0.80476503312E+03  0.12649293756E+03 -0.93381761019E+03  0.12392185243E+04  0.25500000920E-02 0. -1.
</event>
<event>
 5   0  0.1122628E-06  0.2601877E+04  0.7818609E-02  0.8367564E-01
        1   -1    0    0  501    0  0.00000000000E+00  0.00000000000E+00  0.14455086142E+04  0.14455086142E+04  0.50400001928E-02 0. -1.
       -1   -1    0    0    0  501  0.00000000000E+00  0.00000000000E+00 -0.11708272435E+04  0.11708272436E+04  0.50400001928E-02 0.  1.
    10030    2    1    2    0    0  0.00000000000E+00  0.00000000000E+00  0.27468137063E+03  0.26163358577E+04  0.26018769120E+04 0.  0.
        2    1    3    3  502    0  0.23063650720E+03  0.71826296670E+03  0.12031107398E+04  0.14200599776E+04  0.25500000920E-02 0. -1.
       -2    1    3    3    0  502 -0.23063650720E+03 -0.71826296670E+03 -0.92842936918E+03  0.11962758801E+04  0.25500000920E-02 0.  1.
</event>
<event>
 5   0  0.1055179E-06  0.2573461E+04  0.7818609E-02  0.8377272E-01
       -1   -1    0    0    0  501  0.00000000000E+00  0.00000000000E+00  0.71534163493E+03  0.71534163495E+03  0.50400001928E-02 0.  1.
        1   -1    0    0  501    0  0.00000000000E+00  0.00000000000E+00 -0.23145240190E+04  0.23145240191E+04  0.50400001928E-02 0. -1.
    10030    2    1    2    0    0  0.00000000000E+00  0.00000000000E+00 -0.15991823841E+04  0.30298656540E+04  0.25734610126E+04 0.  0.
        3    1    3    3  502    0 -0.48259354408E+03 -0.79372021566E+03  0.24870512442E+03  0.96163535638E+03  0.10100000352E+00 0.  1.
       -3    1    3    3    0  502  0.48259354408E+03  0.79372021566E+03 -0.18478875085E+04  0.20682302976E+04  0.10100000352E+00 0. -1.
</event>
<event>
 5   0  0.2623368E-06  0.2603313E+04  0.7818609E-02  0.8367077E-01
        2   -1    0    0  501    0  0.00000000000E+00  0.00000000000E+00  0.13860315622E+04  0.13860315622E+04  0.25500000920E-02 0.  1.
       -2   -1    0    0    0  501  0.00000000000E+00  0.00000000000E+00 -0.12224177907E+04  0.12224177907E+04  0.25500000920E-02 0. -1.
    10030    2    1    2    0    0  0.00000000000E+00  0.00000000000E+00  0.16361377152E+03  0.26084493529E+04  0.26033129970E+04 0.  0.
        5    1    3    3  502    0 -0.44994785863E+03  0.12199360925E+04  0.14184509581E+03  0.13079905452E+04  0.46999998093E+01 0. -1.
       -5    1    3    3    0  502  0.44994785863E+03 -0.12199360925E+04  0.21768675713E+02  0.13004588077E+04  0.46999998093E+01 0.  1.
</event>
<event>
 5   0  0.2586775E-06  0.2620101E+04  0.7818609E-02  0.8361405E-01
       -2   -1    0    0    0  501  0.00000000000E+00  0.00000000000E+00  0.78906600020E+03  0.78906600020E+03  0.25500000920E-02 0.  1.
        2   -1    0    0  501    0  0.00000000000E+00  0.00000000000E+00 -0.21750181922E+04  0.21750181922E+04  0.25500000920E-02 0. -1.
    10030    2    1    2    0    0  0.00000000000E+00  0.00000000000E+00 -0.13859521920E+04  0.29640841924E+04  0.26201014524E+04 0.  0.
        1    1    3    3  502    0  0.10351119431E+04 -0.53196002620E+03 -0.13734375490E+04  0.18002135721E+04  0.50400001928E-02 0. -1.
       -1    1    3    3    0  502 -0.10351119431E+04  0.53196002620E+03 -0.12514642971E+02  0.11638706202E+04  0.50400001928E-02 0.  1.
</event>
<event>
 5   0  0.1100104E-06  0.2599412E+04  0.7818609E-02  0.8368401E-01
        1   -1    0    0  501    0  0.00000000000E+00  0.00000000000E+00  0.16889128402E+04  0.16889128402E+04  0.50400001928E-02 0. -1.
       -1   -1    0    0    0  501  0.00000000000E+00  0.00000000000E+00 -0.10001909153E+04  0.10001909153E+04  0.50400001928E-02 0.  1.
    10030    2    1    2    0    0  0.00000000000E+00  0.00000000000E+00  0.68872192492E+03  0.26891037556E+04  0.25994116870E+04 0.  0.
        4    1    3    3  502    0 -0.39226914491E+03  0.14463288953E+03 -0.92872730370E+03  0.10184938745E+04  0.12699999809E+01 0.  1.
       -4    1    3    3    0  502  0.39226914491E+03 -0.14463288953E+03  0.16174492286E+04  0.16706098811E+04  0.12699999809E+01 0. -1.
</event>
<event>
 5   0  0.1100104E-06  0.2597772E+04  0.7818609E-02  0.8368958E-01
        1   -1    0    0  501    0  0.00000000000E+00  0.00000000000E+00  0.15700694427E+04  0.15700694427E+04  0.50400001928E-02 0.  1.
       -1   -1    0    0    0  501  0.00000000000E+00  0.00000000000E+00 -0.10745415857E+04  0.10745415857E+04  0.50400001928E-02 0. -1.
    10030    2    1    2    0    0  0.00000000000E+00  0.00000000000E+00  0.49552785701E+03  0.26446110283E+04  0.25977720520E+04 0.  0.
        4    1    3    3  502    0 -0.17708622985E+03  0.70337098213E+03 -0.84916707215E+03  0.11167706124E+04  0.12699999809E+01 0. -1.
       -4    1    3    3    0  502  0.17708622985E+03 -0.70337098213E+03  0.13446949292E+04  0.15278404160E+04  0.12699999809E+01 0.  1.
</event>
<event>
 5   0  0.1055179E-06  0.2600799E+04  0.7818609E-02  0.8367930E-01
        1   -1    0    0  501    0  0.00000000000E+00  0.00000000000E+00  0.15937688784E+04  0.15937688784E+04  0.50400001928E-02 0.  1.
       -1   -1    0    0    0  501  0.00000000000E+00  0.00000000000E+00 -0.10610314711E+04  0.10610314711E+04  0.50400001928E-02 0. -1.
    10030    2    1    2    0    0  0.00000000000E+00  0.00000000000E+00  0.53273740728E+03  0.26548003495E+04  0.26007990601E+04 0.  0.
        3    1    3    3  502    0  0.26133845420E+03  0.40327232483E+03  0.14998092957E+04  0.15749140577E+04  0.10100000352E+00 0.  1.
       -3    1    3    3    0  502 -0.26133845420E+03 -0.40327232483E+03 -0.96707188842E+03  0.10798862918E+04  0.10100000352E+00 0. -1.
</event>
<event>
 5   0  0.2705807E-06  0.2611175E+04  0.7818609E-02  0.8364415E-01
        2   -1    0    0  501    0  0.00000000000E+00  0.00000000000E+00  0.19801077191E+04  0.19801077191E+04  0.25500000920E-02 0.  1.
       -2   -1    0    0    0  501  0.00000000000E+00  0.00000000000E+00 -0.86084140356E+03  0.86084140356E+03  0.25500000920E-02 0. -1.
    10030    2    1    2    0    0  0.00000000000E+00  0.00000000000E+00  0.11192663156E+04  0.28409491227E+04  0.26111749908E+04 0.  0.
        4    1    3    3  502    0 -0.40903171999E+03 -0.92821991310E+03  0.14539489939E+04  0.17728137085E+04  0.12699999809E+01 0. -1.
       -4    1    3    3    0  502  0.40903171999E+03  0.92821991310E+03 -0.33468267836E+03  0.10681354142E+04  0.12699999809E+01 0.  1.
</event>
<event>
 5   0  0.1088757E-06  0.2566757E+04  0.7818609E-02  0.8379582E-01
       -1   -1    0    0    0  501  0.00000000000E+00  0.00000000000E+00  0.67544084885E+03  0.67544084887E+03  0.50400001928E-02 0. -1.
        1   -1    0    0  501    0  0.00000000000E+00  0.00000000000E+00 -0.24384965780E+04  0.24384965780E+04  0.50400001928E-02 0.  1.
    10030    2    1    2    0    0  0.00000000000E+00  0.00000000000E+00 -0.17630557292E+04  0.31139374269E+04  0.25667568631E+04 0.  0.
        5    1    3    3  502    0 -0.92907181837E+03 -0.79294040767E+03 -0.13593253867E+04  0.18274891328E+04  0.46999998093E+01 0.  1.
       -5    1    3    3    0  502  0.92907181837E+03  0.79294040767E+03 -0.40373034250E+03  0.12864482941E+04  0.46999998093E+01 0. -1.
</event>
<event>
 5   0  0.2820028E-06  0.2601658E+04  0.7818609E-02  0.8367638E-01
        2   -1    0    0  501    0  0.00000000000E+00  0.00000000000E+00  0.11868635246E+04  0.11868635246E+04  0.25500000920E-02 0. -1.
       -2   -1    0    0    0  501  0.00000000000E+00  0.00000000000E+00 -0.14257382471E+04  0.14257382471E+04  0.25500000920E-02 0.  1.
    10030    2    1    2    0    0  0.00000000000E+00  0.00000000000E+00 -0.23887472244E+03  0.26126017717E+04  0.26016584873E+04 0.  0.
        3    1    3    3  502    0 -0.91722662731E+03  0.43398336947E+03  0.69793377889E+03  0.12315672214E+04  0.10100000352E+00 0. -1.
       -3    1    3    3    0  502  0.91722662731E+03 -0.43398336947E+03 -0.93680850133E+03  0.13810345503E+04  0.10100000352E+00 0.  1.
</event>
<event>
 5   0  0.2820028E-06  0.2596816E+04  0.7818609E-02  0.8369284E-01
        2   -1    0    0  501    0  0.00000000000E+00  0.00000000000E+00  0.96876677971E+03  0.96876677971E+03  0.25500000920E-02 0.  1.
       -2   -1    0    0    0  501  0.00000000000E+00  0.00000000000E+00 -0.17402153051E+04  0.17402153051E+04  0.25500000920E-02 0. -1.
    10030    2    1    2    0    0  0.00000000000E+00  0.00000000000E+00 -0.77144852537E+03  0.27089820848E+04  0.25968155707E+04 0.  0.
        3    1    3    3  502    0 -0.11754247622E+04 -0.33974629689E+03 -0.83901792708E+03  0.14835774365E+04  0.10100000352E+00 0.  1.
       -3    1    3    3    0  502  0.11754247622E+04  0.33974629689E+03  0.67569401708E+02  0.12254046483E+04  0.10100000352E+00 0. -1.
</event>
<event>
 5   0  0.9197000E-07  0.2578601E+04  0.7818609E-02  0.8375507E-01
       -3   -1    0    0    0  501  0.00000000000E+00  0.00000000000E+00  0.15847340771E+04  0.15847340804E+04  0.10100000352E+00 0.  1.
        3   -1    0    0  501    0  0.00000000000E+00  0.00000000000E+00 -0.10489427780E+04  0.10489427828E+04  0.10100000352E+00 0. -1.
    10030    2    1    2    0    0  0.00000000000E+00  0.00000000000E+00  0.53579129918E+03  0.26336768632E+04  0.25786006871E+04 0.  0.
        4    1    3    3  502    0  0.11669428726E+02  0.14090848024E+03 -0.10409997961E+04  0.10505586912E+04  0.12699999809E+01 0. -1.
       -4    1    3    3    0  502 -0.11669428726E+02 -0.14090848024E+03  0.15767910953E+04  0.15831181720E+04  0.12699999809E+01 0.  1.
</event>
<event>
 5   0  0.1088757E-06  0.2623414E+04  0.7818609E-02  0.8360291E-01
       -1   -1    0    0    0  501  0.00000000000E+00  0.00000000000E+00  0.10416216587E+04  0.10416216587E+04  0.50400001928E-02 0.  1.
        1   -1    0    0  501    0  0.00000000000E+00  0.00000000000E+00 -0.16518235256E+04  0.16518235256E+04  0.50400001928E-02 0. -1.
    10030    2    1    2    0    0  0.00000000000E+00  0.00000000000E+00 -0.61020186690E+03  0.26934451843E+04  0.26234139289E+04 0.  0.
        5    1    3    3  502    0  0.11104452434E+04 -0.19434796584E+03 -0.99359393488E+03  0.15027011572E+04  0.46999998093E+01 0. -1.
       -5    1    3    3    0  502 -0.11104452434E+04  0.19434796584E+03  0.38339206798E+03  0.11907440271E+04  0.46999998093E+01 0.  1.
</event>
<event>
 5   0  0.2820028E-06  0.2601721E+04  0.7818609E-02  0.8367617E-01
        2   -1    0    0  501    0  0.00000000000E+00  0.00000000000E+00  0.17371471346E+04  0.17371471346E+04  0.25500000920E-02 0. -1.
       -2   -1    0    0    0  501  0.00000000000E+00  0.00000000000E+00 -0.97414777240E+03  0.97414777241E+03  0.25500000920E-02 0.  1.
    10030    2    1    2    0    0  0.00000000000E+00  0.00000000000E+00  0.76299936222E+03  0.27112949070E+04  0.26017209778E+04 0.  0.
        3    1    3    3  502    0  0.11507016902E+04  0.59841648394E+03  0.48582237519E+03  0.13850054362E+04  0.10100000352E+00 0. -1.
       -3    1    3    3    0  502 -0.11507016902E+04 -0.59841648394E+03  0.27717698703E+03  0.13262894708E+04  0.10100000352E+00 0.  1.
</event>
<event>
 5   0  0.9197000E-07  0.2602300E+04  0.7818609E-02  0.8367420E-01
       -3   -1    0    0    0  501  0.00000000000E+00  0.00000000000E+00  0.66416154611E+03  0.66416155379E+03  0.10100000352E+00 0.  1.
        3   -1    0    0  501    0  0.00000000000E+00  0.00000000000E+00 -0.25490661594E+04  0.25490661614E+04  0.10100000352E+00 0. -1.
    10030    2    1    2    0    0  0.00000000000E+00  0.00000000000E+00 -0.18849046133E+04  0.32132277152E+04  0.26023003187E+04 0.  0.
        3    1    3    3  502    0  0.86576509953E+03 -0.61555058618E+03 -0.18702033405E+04  0.21508399003E+04  0.10100000352E+00 0. -1.
       -3    1    3    3    0  502 -0.86576509953E+03  0.61555058618E+03 -0.14701272846E+02  0.10623878149E+04  0.10100000352E+00 0.  1.
</event>
<event>
 5   0  0.2746631E-06  0.2604001E+04  0.7818609E-02  0.8366844E-01
        2   -1    0    0  501    0  0.00000000000E+00  0.00000000000E+00  0.10866063404E+04  0.10866063404E+04  0.25500000920E-02 0.  1.
       -2   -1    0    0    0  501  0.00000000000E+00  0.00000000000E+00 -0.15600910818E+04  0.15600910818E+04  0.25500000920E-02 0. -1.
    10030    2    1    2    0    0  0.00000000000E+00  0.00000000000E+00 -0.47348474136E+03  0.26466974222E+04  0.26040006614E+04 0.  0.
        2    1    3    3  502    0 -0.84260742437E+03 -0.69266366268E+03 -0.95933862441E+03  0.14526186070E+04  0.25500000920E-02 0. -1.
       -2    1    3    3    0  502  0.84260742437E+03  0.69266366268E+03  0.48585388305E+03  0.11940788152E+04  0.25500000920E-02 0.  1.
</event>
<event>
 5   0  0.2586775E-06  0.2596004E+04  0.7818609E-02  0.8369560E-01
       -2   -1    0    0    0  501  0.00000000000E+00  0.00000000000E+00  0.59011791692E+03  0.59011791693E+03  0.25500000920E-02 0.  1.
        2   -1    0    0  501    0  0.00000000000E+00  0.00000000000E+00 -0.28550385275E+04  0.28550385275E+04  0.25500000920E-02 0. -1.
    10030    2    1    2    0    0  0.00000000000E+00  0.00000000000E+00 -0.22649206106E+04  0.34451564444E+04  0.25960041515E+04 0.  0.
        1    1    3    3  502    0  0.95255493496E+03  0.87512593745E+03 -0.12754122844E+04  0.18165579555E+04  0.50400001928E-02 0.  1.
       -1    1    3    3    0  502 -0.95255493496E+03 -0.87512593745E+03 -0.98950832618E+03  0.16285984889E+04  0.50400001928E-02 0. -1.
</event>
<event>
 5   0  0.1032076E-06  0.2598391E+04  0.7818609E-02  0.8368748E-01
        1   -1    0    0  501    0  0.00000000000E+00  0.00000000000E+00  0.11694549149E+04  0.11694549150E+04  0.50400001928E-02 0. -1.
       -1   -1    0    0    0  501  0.00000000000E+00  0.00000000000E+00 -0.14433291021E+04  0.14433291022E+04  0.50400001928E-02 0.  1.
    10030    2    1    2    0    0  0.00000000000E+00  0.00000000000E+00 -0.27387418720E+03  0.26127840171E+04  0.25983905114E+04 0.  0.
        1    1    3    3  502    0  0.95343621882E+03  0.51204192723E+03  0.58584973761E+03  0.12306288936E+04  0.50400001928E-02 0. -1.
       -1    1    3    3    0  502 -0.95343621882E+03 -0.51204192723E+03 -0.85972392481E+03  0.13821551235E+04  0.50400001928E-02 0.  1.
</event>
<event>
 5   0  0.2705807E-06  0.2605737E+04  0.7818609E-02  0.8366255E-01
       -2   -1    0    0    0  501  0.00000000000E+00  0.00000000000E+00  0.11483035874E+04  0.11483035874E+04  0.25500000920E-02 0.  1.
        2   -1    0    0  501    0  0.00000000000E+00  0.00000000000E+00 -0.14782383844E+04  0.14782383844E+04  0.25500000920E-02 0. -1.
    10030    2    1    2    0    0  0.00000000000E+00  0.00000000000E+00 -0.32993479696E+03  0.26265419718E+04  0.26057370857E+04 0.  0.
        4    1    3    3  502    0  0.20718284144E+03 -0.12144479158E+04  0.26227568967E+03  0.12596025645E+04  0.12699999809E+01 0.  1.
       -4    1    3    3    0  502 -0.20718284144E+03  0.12144479158E+04 -0.59221048663E+03  0.13669394074E+04  0.12699999809E+01 0. -1.
</event>
<event>
 5   0  0.2705807E-06  0.2598130E+04  0.7818609E-02  0.8368837E-01
        2   -1    0    0  501    0  0.00000000000E+00  0.00000000000E+00  0.13383763135E+04  0.13383763135E+04  0.25500000920E-02 0. -1.
       -2   -1    0    0    0  501  0.00000000000E+00  0.00000000000E+00 -0.12609086645E+04  0.12609086645E+04  0.25500000920E-02 0.  1.
    10030    2    1    2    0    0  0.00000000000E+00  0.00000000000E+00  0.77467648939E+02  0.25992849780E+04  0.25981303201E+04 0.  0.
        4    1    3    3  502    0 -0.86301303880E+03  0.33802487726E+03  0.94936708458E+03  0.13267824980E+04  0.12699999809E+01 0. -1.
       -4    1    3    3    0  502  0.86301303880E+03 -0.33802487726E+03 -0.87189943564E+03  0.12725024800E+04  0.12699999809E+01 0.  1.
</event>
<event>
 5   0  0.2623368E-06  0.2604561E+04  0.7818609E-02  0.8366654E-01
        2   -1    0    0  501    0  0.00000000000E+00  0.00000000000E+00  0.13005567530E+04  0.13005567530E+04  0.25500000920E-02 0.  1.
       -2   -1    0    0    0  501  0.00000000000E+00  0.00000000000E+00 -0.13040064423E+04  0.13040064423E+04  0.25500000920E-02 0. -1.
    10030    2    1    2    0    0  0.00000000000E+00  0.00000000000E+00 -0.34496893483E+01  0.26045631953E+04  0.26045609108E+04 0.  0.
        5    1    3    3  502    0  0.41536646631E+02 -0.12873917004E+04 -0.19358332350E+03  0.13025357102E+04  0.46999998093E+01 0.  1.
       -5    1    3    3    0  502 -0.41536646631E+02  0.12873917004E+04  0.19013363416E+03  0.13020274851E+04  0.46999998093E+01 0. -1.
</event>
<event>
 5   0  0.1100104E-06  0.2599183E+04  0.7818609E-02  0.8368479E-01
       -1   -1    0    0    0  501  0.00000000000E+00  0.00000000000E+00  0.17607467697E+04  0.17607467697E+04  0.50400001928E-02 0.  1.
        1   -1    0    0  501    0  0.00000000000E+00  0.00000000000E+00 -0.95921693809E+03  0.95921693811E+03  0.50400001928E-02 0. -1.
    10030    2    1    2    0    0  0.00000000000E+00  0.00000000000E+00  0.80152983163E+03  0.27199637078E+04  0.25991830449E+04 0.  0.
        4    1    3    3  502    0 -0.12165495940E+04 -0.39499665713E+03  0.64150102894E+03  0.14309229388E+04  0.12699999809E+01 0.  1.
       -4    1    3    3    0  502  0.12165495940E+04  0.39499665713E+03  0.16002880270E+03  0.12890407691E+04  0.12699999809E+01 0. -1.
</event>
<event>
 5   0  0.1122628E-06  0.2600061E+04  0.7818609E-02  0.8368181E-01
        1   -1    0    0  501    0  0.00000000000E+00  0.00000000000E+00  0.14727316904E+04  0.14727316904E+04  0.50400001928E-02 0. -1.
       -1   -1    0    0    0  501  0.00000000000E+00  0.00000000000E+00 -0.11475811683E+04  0.11475811683E+04  0.50400001928E-02 0.  1.
    10030    2    1    2    0    0  0.00000000000E+00  0.00000000000E+00  0.32515052210E+03  0.26203128588E+04  0.26000608870E+04 0.  0.
        2    1    3    3  502    0  0.12746850948E+04 -0.19225547701E+03  0.33209632548E+03  0.13311920330E+04  0.25500000920E-02 0. -1.
       -2    1    3    3    0  502 -0.12746850948E+04  0.19225547701E+03 -0.69458033754E+01  0.12891208258E+04  0.25500000920E-02 0.  1.
</event>
<event>
 5   0  0.2820028E-06  0.2598331E+04  0.7818609E-02  0.8368768E-01
       -2   -1    0    0    0  501  0.00000000000E+00  0.00000000000E+00  0.16729494155E+04  0.16729494155E+04  0.25500000920E-02 0. -1.
        2   -1    0    0  501    0  0.00000000000E+00  0.00000000000E+00 -0.10088956372E+04  0.10088956372E+04  0.25500000920E-02 0.  1.
    10030    2    1    2    0    0  0.00000000000E+00  0.00000000000E+00  0.66405377826E+03  0.26818450527E+04  0.25983312849E+04 0.  0.
        3    1    3    3  502    0 -0.86758921348E+02  0.11310306763E+04  0.98568602601E+03  0.15027755831E+04  0.10100000352E+00 0. -1.
       -3    1    3    3    0  502  0.86758921348E+02 -0.11310306763E+04 -0.32163224776E+03  0.11790694696E+04  0.10100000352E+00 0.  1.
</event>
<event>
 5   0  0.2705807E-06  0.2598316E+04  0.7818609E-02  0.8368774E-01
        2   -1    0    0  501    0  0.00000000000E+00  0.00000000000E+00  0.18716280185E+04  0.18716280185E+04  0.25500000920E-02 0.  1.
       -2   -1    0    0    0  501  0.00000000000E+00  0.00000000000E+00 -0.90178771368E+03  0.90178771369E+03  0.25500000920E-02 0. -1.
    10030    2    1    2    0    0  0.00000000000E+00  0.00000000000E+00  0.96984030479E+03  0.27734157322E+04  0.25983157250E+04 0.  0.
        4    1    3    3  502    0  0.12260982661E+04 -0.42749762573E+03  0.52942353173E+03  0.14022703259E+04  0.12699999809E+01 0.  1.
       -4    1    3    3    0  502 -0.12260982661E+04  0.42749762573E+03  0.44041677306E+03  0.13711454062E+04  0.12699999809E+01 0. -1.
</event>
<event>
 5   0  0.2705807E-06  0.2599725E+04  0.7818609E-02  0.8368295E-01
        2   -1    0    0  501    0  0.00000000000E+00  0.00000000000E+00  0.11173499512E+04  0.11173499512E+04  0.25500000920E-02 0.  1.
       -2   -1    0    0    0  501  0.00000000000E+00  0.00000000000E+00 -0.15121877720E+04  0.15121877720E+04  0.25500000920E-02 0. -1.
    10030    2    1    2    0    0  0.00000000000E+00  0.00000000000E+00 -0.39483782078E+03  0.26295377232E+04  0.25997253187E+04 0.  0.
        4    1    3    3  502    0 -0.15276796917E+03 -0.12274889877E+04 -0.60146702045E+03  0.13754386416E+04  0.12699999809E+01 0. -1.
       -4    1    3    3    0  502  0.15276796917E+03  0.12274889877E+04  0.20662919967E+03  0.12540990815E+04  0.12699999809E+01 0.  1.
</event>
<event>
 5   0  0.1055179E-06  0.2603942E+04  0.7818609E-02  0.8366863E-01
       -1   -1    0    0    0  501  0.00000000000E+00  0.00000000000E+00  0.88304125422E+03  0.88304125423E+03  0.50400001928E-02 0.  1.
        1   -1    0    0  501    0  0.00000000000E+00  0.00000000000E+00 -0.19196480744E+04  0.19196480744E+04  0.50400001928E-02 0. -1.
    10030    2    1    2    0    0  0.00000000000E+00  0.00000000000E+00 -0.10366068202E+04  0.28026893286E+04  0.26039419681E+04 0.  0.
        3    1    3    3  502    0 -0.21531137605E+03  0.23561017034E+03  0.84028096687E+03  0.89885663735E+03  0.10100000352E+00 0.  1.
       -3    1    3    3    0  502  0.21531137605E+03 -0.23561017034E+03 -0.18768877871E+04  0.19038326913E+04  0.10100000352E+00 0. -1.
</event>
<event>
 5   0  0.1032076E-06  0.2598907E+04  0.7818609E-02  0.8368573E-01
       -1   -1    0    0    0  501  0.00000000000E+00  0.00000000000E+00  0.95924440993E+03  0.95924440994E+03  0.50400001928E-02 0.  1.
        1   -1    0    0  501    0  0.00000000000E+00  0.00000000000E+00 -0.17603225627E+04  0.17603225627E+04  0.50400001928E-02 0. -1.
    10030    2    1    2    0    0  0.00000000000E+00  0.00000000000E+00 -0.80107815275E+03  0.27195669726E+04  0.25989071380E+04 0.  0.
        1    1    3    3  502    0  0.93518897360E+03  0.44271042867E+02 -0.13435094284E+04  0.16375457019E+04  0.50400001928E-02 0. -1.
       -1    1    3    3    0  502 -0.93518897360E+03 -0.44271042867E+02  0.54243127561E+03  0.10820212708E+04  0.50400001928E-02 0.  1.
</event>
<event>
 5   0  0.1122628E-06  0.2601905E+04  0.7818609E-02  0.8367555E-01
       -1   -1    0    0    0  501  0.00000000000E+00  0.00000000000E+00  0.17659911435E+04  0.17659911435E+04  0.50400001928E-02 0. -1.
        1   -1    0    0  501    0  0.00000000000E+00  0.00000000000E+00 -0.95837221983E+03  0.95837221985E+03  0.50400001928E-02 0.  1.
    10030    2    1    2    0    0  0.00000000000E+00  0.00000000000E+00  0.80761892368E+03  0.27243633634E+04  0.26019045735E+04 0.  0.
        2    1    3    3  502    0  0.11719147152E+03  0.12856784828E+04  0.23571116295E+03  0.13123500883E+04  0.25500000920E-02 0. -1.
       -2    1    3    3    0  502 -0.11719147152E+03 -0.12856784828E+04  0.57190776073E+03  0.14120132750E+04  0.25500000920E-02 0.  1.
</event>
<event>
 5   0  0.2586775E-06  0.2601924E+04  0.7818609E-02  0.8367548E-01
       -2   -1    0    0    0  501  0.00000000000E+00  0.00000000000E+00  0.33925510359E+04  0.33925510359E+04  0.25500000920E-02 0. -1.
        2   -1    0    0  501    0  0.00000000000E+00  0.00000000000E+00 -0.49888786959E+03  0.49888786960E+03  0.25500000920E-02 0.  1.
    10030    2    1    2    0    0  0.00000000000E+00  0.00000000000E+00  0.28936631663E+04  0.38914389055E+04  0.26019243331E+04 0.  0.
        1    1    3    3  502    0 -0.52228462741E+03 -0.22905985344E+02  0.32285408607E+04  0.32705935250E+04  0.50400001928E-02 0. -1.
       -1    1    3    3    0  502  0.52228462741E+03  0.22905985344E+02 -0.33487769446E+03  0.62084538049E+03  0.50400001928E-02 0.  1.
</event>
<event>
 5   0  0.2705807E-06  0.2598807E+04  0.7818609E-02  0.8368606E-01
        2   -1    0    0  501    0  0.00000000000E+00  0.00000000000E+00  0.11403899721E+04  0.11403899721E+04  0.25500000920E-02 0.  1.
       -2   -1    0    0    0  501  0.00000000000E+00  0.00000000000E+00 -0.14805897944E+04  0.14805897945E+04  0.25500000920E-02 0. -1.
    10030    2    1    2    0    0  0.00000000000E+00  0.00000000000E+00 -0.34019982235E+03  0.26209797665E+04  0.25988072298E+04 0.  0.
        4    1    3    3  502    0  0.52915848408E+02 -0.12842851035E+04  0.21944851952E+02  0.12855627186E+04  0.12699999809E+01 0.  1.
       -4    1    3    3    0  502 -0.52915848408E+02  0.12842851035E+04 -0.36214467431E+03  0.13354170480E+04  0.12699999809E+01 0. -1.
</event>
<event>
 5   0  0.1088757E-06  0.2599934E+04  0.7818609E-02  0.8368223E-01
       -1   -1    0    0    0  501  0.00000000000E+00  0.00000000000E+00  0.84753173312E+03  0.84753173313E+03  0.50400001928E-02 0. -1.
        1   -1    0    0  501    0  0.00000000000E+00  0.00000000000E+00 -0.19939250377E+04  0.19939250377E+04  0.50400001928E-02 0.  1.
    10030    2    1    2    0    0  0.00000000000E+00  0.00000000000E+00 -0.11463933046E+04  0.28414567709E+04  0.25999344168E+04 0.  0.
        5    1    3    3  502    0  0.35540717717E+00  0.41343108105E+03 -0.19201509733E+04  0.19641606949E+04  0.46999998093E+01 0.  1.
       -5    1    3    3    0  502 -0.35540717717E+00 -0.41343108105E+03  0.77375766868E+03  0.87729607598E+03  0.46999998093E+01 0. -1.
</event>
<event>
 5   0  0.2586775E-06  0.2597302E+04  0.7818609E-02  0.8369118E-01
        2   -1    0    0  501    0  0.00000000000E+00  0.00000000000E+00  0.20676657485E+04  0.20676657485E+04  0.25500000920E-02 0.  1.
       -2   -1    0    0    0  501  0.00000000000E+00  0.00000000000E+00 -0.81565125730E+03  0.81565125730E+03  0.25500000920E-02 0. -1.
    10030    2    1    2    0    0  0.00000000000E+00  0.00000000000E+00  0.12520144912E+04  0.28833170058E+04  0.25973018057E+04 0.  0.
        1    1    3    3  502    0 -0.51626514978E+03 -0.64488550315E+03 -0.48637918026E+03  0.95863012891E+03  0.50400001928E-02 0. -1.
       -1    1    3    3    0  502  0.51626514978E+03  0.64488550315E+03  0.17383936715E+04  0.19246868769E+04  0.50400001928E-02 0.  1.
</event>
<event>
 5   0  0.1055179E-06  0.2600741E+04  0.7818609E-02  0.8367950E-01
       -1   -1    0    0    0  501  0.00000000000E+00  0.00000000000E+00  0.11907301314E+04  0.11907301314E+04  0.50400001928E-02 0.  1.
        1   -1    0    0  501    0  0.00000000000E+00  0.00000000000E+00 -0.14201061245E+04  0.14201061245E+04  0.50400001928E-02 0. -1.
    10030    2    1    2    0    0  0.00000000000E+00  0.00000000000E+00 -0.22937599312E+03  0.26108362559E+04  0.26007407808E+04 0.  0.
        3    1    3    3  502    0  0.10748360264E+04  0.64933393141E+03  0.22434489487E+03  0.12756322668E+04  0.10100000352E+00 0. -1.
       -3    1    3    3    0  502 -0.10748360264E+04 -0.64933393141E+03 -0.45372088798E+03  0.13352039891E+04  0.10100000352E+00 0.  1.
</event>
<event>
 5   0  0.1088757E-06  0.2598799E+04  0.7818609E-02  0.8368609E-01
       -1   -1    0    0    0  501  0.00000000000E+00  0.00000000000E+00  0.14256859355E+04  0.14256859355E+04  0.50400001928E-02 0. -1.
        1   -1    0    0  501    0  0.00000000000E+00  0.00000000000E+00 -0.11842994066E+04  0.11842994066E+04  0.50400001928E-02 0.  1.
    10030    2    1    2    0    0  0.00000000000E+00  0.00000000000E+00  0.24138652885E+03  0.26099853421E+04  0.25987989591E+04 0.  0.
        5    1    3    3  502    0 -0.10805131068E+04 -0.72165905344E+03  0.10985077507E+03  0.13039898950E+04  0.46999998093E+01 0.  1.
       -5    1    3    3    0  502  0.10805131068E+04  0.72165905344E+03  0.13153575378E+03  0.13059954471E+04  0.46999998093E+01 0. -1.
</event>
<event>
 5   0  0.1088757E-06  0.2598249E+04  0.7818609E-02  0.8368796E-01
        1   -1    0    0  501    0  0.00000000000E+00  0.00000000000E+00  0.11840137403E+04  0.11840137403E+04  0.50400001928E-02 0.  1.
       -1   -1    0    0    0  501  0.00000000000E+00  0.00000000000E+00 -0.14254262408E+04  0.14254262408E+04  0.50400001928E-02 0. -1.
    10030    2    1    2    0    0  0.00000000000E+00  0.00000000000E+00 -0.24141250047E+03  0.26094399811E+04  0.25982488372E+04 0.  0.
        5    1    3    3  502    0 -0.16841925338E+03 -0.11184249251E+04  0.52115747073E+03  0.12453379289E+04  0.46999998093E+01 0.  1.
       -5    1    3    3    0  502  0.16841925338E+03  0.11184249251E+04 -0.76256997120E+03  0.13641020522E+04  0.46999998093E+01 0. -1.
</event>
<event>
 5   0  0.2623368E-06  0.2600060E+04  0.7818609E-02  0.8368181E-01
        2   -1    0    0  501    0  0.00000000000E+00  0.00000000000E+00  0.27527124477E+04  0.27527124477E+04  0.25500000920E-02 0.  1.
       -2   -1    0    0    0  501  0.00000000000E+00  0.00000000000E+00 -0.61396815582E+03  0.61396815583E+03  0.25500000920E-02 0. -1.
    10030    2    1    2    0    0  0.00000000000E+00  0.00000000000E+00  0.21387442919E+04  0.33666806036E+04  0.26000598340E+04 0.  0.
        5    1    3    3  502    0 -0.10817844636E+04  0.71445856419E+03  0.94418625665E+03  0.16038137183E+04  0.46999998093E+01 0.  1.
       -5    1    3    3    0  502  0.10817844636E+04 -0.71445856419E+03  0.11945580353E+04  0.17628668853E+04  0.46999998093E+01 0. -1.
</event>
<event>
 5   0  0.2623368E-06  0.2597116E+04  0.7818609E-02  0.8369182E-01
        2   -1    0    0  501    0  0.00000000000E+00  0.00000000000E+00  0.19419569043E+04  0.19419569043E+04  0.25500000920E-02 0.  1.
       -2   -1    0    0    0  501  0.00000000000E+00  0.00000000000E+00 -0.86832636602E+03  0.86832636602E+03  0.25500000920E-02 0. -1.
    10030    2    1    2    0    0  0.00000000000E+00  0.00000000000E+00  0.10736305383E+04  0.28102832704E+04  0.25971156168E+04 0.  0.
        5    1    3    3  502    0 -0.84543561022E+02 -0.90032253568E+03  0.15452417190E+04  0.17903972582E+04  0.46999998093E+01 0.  1.
       -5    1    3    3    0  502  0.84543561022E+02  0.90032253568E+03 -0.47161118073E+03  0.10198860121E+04  0.46999998093E+01 0. -1.
</event>
<event>
 5   0  0.2705807E-06  0.2597181E+04  0.7818609E-02  0.8369159E-01
       -2   -1    0    0    0  501  0.00000000000E+00  0.00000000000E+00  0.87654804853E+03  0.87654804854E+03  0.25500000920E-02 0. -1.
        2   -1    0    0  501    0  0.00000000000E+00  0.00000000000E+00 -0.19238387819E+04  0.19238387819E+04  0.25500000920E-02 0.  1.
    10030    2    1    2    0    0  0.00000000000E+00  0.00000000000E+00 -0.10472907333E+04  0.28003868304E+04  0.25971808793E+04 0.  0.
        4    1    3    3  502    0 -0.38248669030E+03 -0.12239485851E+04 -0.74459088574E+03  0.14828227835E+04  0.12699999809E+01 0. -1.
       -4    1    3    3    0  502  0.38248669030E+03  0.12239485851E+04 -0.30269984758E+03  0.13175640469E+04  0.12699999809E+01 0.  1.
</event>
<event>
 5   0  0.1032076E-06  0.2583752E+04  0.7818609E-02  0.8373741E-01
        1   -1    0    0  501    0  0.00000000000E+00  0.00000000000E+00  0.19284241174E+04  0.19284241174E+04  0.50400001928E-02 0.  1.
       -1   -1    0    0    0  501  0.00000000000E+00  0.00000000000E+00 -0.86544453399E+03  0.86544453400E+03  0.50400001928E-02 0. -1.
    10030    2    1    2    0    0  0.00000000000E+00  0.00000000000E+00  0.10629795834E+04  0.27938686514E+04  0.25837523965E+04 0.  0.
        1    1    3    3  502    0 -0.13541216168E+03 -0.23766788265E+03 -0.83377163565E+03  0.87749508057E+03  0.50400001928E-02 0. -1.
       -1    1    3    3    0  502  0.13541216168E+03  0.23766788265E+03  0.18967512190E+04  0.19163735708E+04  0.50400001928E-02 0.  1.
</event>
<event>
 5   0  0.2623368E-06  0.2590364E+04  0.7818609E-02  0.8371482E-01
       -2   -1    0    0    0  501  0.00000000000E+00  0.00000000000E+00  0.10325902625E+04  0.10325902625E+04  0.25500000920E-02 0. -1.
        2   -1    0    0  501    0  0.00000000000E+00  0.00000000000E+00 -0.16245515918E+04  0.16245515918E+04  0.25500000920E-02 0.  1.
    10030    2    1    2    0    0  0.00000000000E+00  0.00000000000E+00 -0.59196132931E+03  0.26571418543E+04  0.25903638004E+04 0.  0.
        5    1    3    3  502    0 -0.31257882016E+03  0.89005059678E+03  0.61435361876E+03  0.11257655362E+04  0.46999998093E+01 0. -1.
       -5    1    3    3    0  502  0.31257882016E+03 -0.89005059678E+03 -0.12063149481E+04  0.15313763181E+04  0.46999998093E+01 0.  1.
</event>
<event>
 5   0  0.1088757E-06  0.2609259E+04  0.7818609E-02  0.8365063E-01
        1   -1    0    0  501    0  0.00000000000E+00  0.00000000000E+00  0.20039406542E+04  0.20039406542E+04  0.50400001928E-02 0.  1.
       -1   -1    0    0    0  501  0.00000000000E+00  0.00000000000E+00 -0.84935530401E+03  0.84935530402E+03  0.50400001928E-02 0. -1.
    10030    2    1    2    0    0  0.00000000000E+00  0.00000000000E+00  0.11545853502E+04  0.28532959582E+04  0.26092586101E+04 0.  0.
        5    1    3    3  502    0  0.68681993020E+03  0.18398642521E+03 -0.61883989587E+03  0.94263329450E+03  0.46999998093E+01 0. -1.
       -5    1    3    3    0  502 -0.68681993020E+03 -0.18398642521E+03  0.17734252461E+04  0.19106626637E+04  0.46999998093E+01 0.  1.
</event>
<event>
 5   0  0.2820028E-06  0.2609375E+04  0.7818609E-02  0.8365024E-01
       -2   -1    0    0    0  501  0.00000000000E+00  0.00000000000E+00  0.10622148940E+04  0.10622148940E+04  0.25500000920E-02 0. -1.
        2   -1    0    0  501    0  0.00000000000E+00  0.00000000000E+00 -0.16025089624E+04  0.16025089624E+04  0.25500000920E-02 0.  1.
    10030    2    1    2    0    0  0.00000000000E+00  0.00000000000E+00 -0.54029406839E+03  0.26647238564E+04  0.26093745516E+04 0.  0.
        3    1    3    3  502    0  0.63343319500E+03 -0.66841027855E+03  0.67368629163E+03  0.11409921747E+04  0.10100000352E+00 0. -1.
       -3    1    3    3    0  502 -0.63343319500E+03  0.66841027855E+03 -0.12139803600E+04  0.15237316817E+04  0.10100000352E+00 0.  1.
</event>
<event>
 5   0  0.2623368E-06  0.2588757E+04  0.7818609E-02  0.8372030E-01
       -2   -1    0    0    0  501  0.00000000000E+00  0.00000000000E+00  0.13577542939E+04  0.13577542939E+04  0.25500000920E-02 0.  1.
        2   -1    0    0  501    0  0.00000000000E+00  0.00000000000E+00 -0.12339610712E+04  0.12339610712E+04  0.25500000920E-02 0. -1.
    10030    2    1    2    0    0  0.00000000000E+00  0.00000000000E+00  0.12379322276E+03  0.25917153651E+04  0.25887571867E+04 0.  0.
        5    1    3    3  502    0 -0.51017578228E+03 -0.92678811389E+03 -0.68472922172E+03  0.12601951174E+04  0.46999998093E+01 0. -1.
       -5    1    3    3    0  502  0.51017578228E+03  0.92678811389E+03  0.80852244448E+03  0.13315202477E+04  0.46999998093E+01 0.  1.
</event>
<event>
 5   0  0.1100104E-06  0.2601550E+04  0.7818609E-02  0.8367675E-01
       -1   -1    0    0    0  501  0.00000000000E+00  0.00000000000E+00  0.75504958407E+03  0.75504958409E+03  0.50400001928E-02 0. -1.
        1   -1    0    0  501    0  0.00000000000E+00  0.00000000000E+00 -0.22409337764E+04  0.22409337764E+04  0.50400001928E-02 0.  1.
    10030    2    1    2    0    0  0.00000000000E+00  0.00000000000E+00 -0.14858841923E+04  0.29959833605E+04  0.26015503961E+04 0.  0.
        4    1    3    3  502    0  0.41658543025E+03 -0.10958019916E+04 -0.93847048869E+02  0.11760673055E+04  0.12699999809E+01 0. -1.
       -4    1    3    3    0  502 -0.41658543025E+03  0.10958019916E+04 -0.13920371434E+04  0.18199160550E+04  0.12699999809E+01 0.  1.
</event>
<event>
 5   0  0.2820028E-06  0.2613317E+04  0.7818609E-02  0.8363692E-01
        2   -1    0    0  501    0  0.00000000000E+00  0.00000000000E+00  0.15512296626E+04  0.15512296626E+04  0.25500000920E-02 0.  1.
       -2   -1    0    0    0  501  0.00000000000E+00  0.00000000000E+00 -0.11006474192E+04  0.11006474192E+04  0.25500000920E-02 0. -1.
    10030    2    1    2    0    0  0.00000000000E+00  0.00000000000E+00  0.45058224341E+03  0.26518770818E+04  0.26133173743E+04 0.  0.
        3    1    3    3  502    0  0.71624976849E+02 -0.34596948258E+03 -0.10512578203E+04  0.11090392396E+04  0.10100000352E+00 0. -1.
       -3    1    3    3    0  502 -0.71624976849E+02  0.34596948258E+03  0.15018400637E+04  0.15428378422E+04  0.10100000352E+00 0.  1.
</event>
<event>
 5   0  0.2746631E-06  0.2654380E+04  0.7818609E-02  0.8349961E-01
       -2   -1    0    0    0  501  0.00000000000E+00  0.00000000000E+00  0.84414859743E+03  0.84414859743E+03  0.25500000920E-02 0.  1.
        2   -1    0    0  501    0  0.00000000000E+00  0.00000000000E+00 -0.20866393449E+04  0.20866393449E+04  0.25500000920E-02 0. -1.
    10030    2    1    2    0    0  0.00000000000E+00  0.00000000000E+00 -0.12424907475E+04  0.29307879423E+04  0.26543802865E+04 0.  0.
        2    1    3    3  502    0  0.51506227083E+03 -0.62749806927E+03 -0.17805271918E+04  0.19568648524E+04  0.25500000920E-02 0. -1.
       -2    1    3    3    0  502 -0.51506227083E+03  0.62749806927E+03  0.53803644430E+03  0.97392308997E+03  0.25500000920E-02 0.  1.
</event>
<event>
 5   0  0.2705807E-06  0.2602251E+04  0.7818609E-02  0.8367437E-01
        2   -1    0    0  501    0  0.00000000000E+00  0.00000000000E+00  0.25800729641E+04  0.25800729641E+04  0.25500000920E-02 0.  1.
       -2   -1    0    0    0  501  0.00000000000E+00  0.00000000000E+00 -0.65615481087E+03  0.65615481088E+03  0.25500000920E-02 0. -1.
    10030    2    1    2    0    0  0.00000000000E+00  0.00000000000E+00  0.19239181532E+04  0.32362277750E+04  0.26022507856E+04 0.  0.
        4    1    3    3  502    0 -0.42722587618E+03 -0.62754868883E+03 -0.35216415631E+03  0.83687544595E+03  0.12699999809E+01 0. -1.
       -4    1    3    3    0  502  0.42722587618E+03  0.62754868883E+03  0.22760823095E+04  0.23993523290E+04  0.12699999809E+01 0.  1.
</event>
<event>
 5   0  0.2820028E-06  0.2603293E+04  0.7818609E-02  0.8367084E-01
        2   -1    0    0  501    0  0.00000000000E+00  0.00000000000E+00  0.99408909959E+03  0.99408909959E+03  0.25500000920E-02 0.  1.
       -2   -1    0    0    0  501  0.00000000000E+00  0.00000000000E+00 -0.17043578489E+04  0.17043578489E+04  0.25500000920E-02 0. -1.
    10030    2    1    2    0    0  0.00000000000E+00  0.00000000000E+00 -0.71026874936E+03  0.26984469485E+04  0.26032929604E+04 0.  0.
        3    1    3    3  502    0  0.45014204255E+02 -0.49437232229E+03 -0.16023832387E+04  0.16775167139E+04  0.10100000352E+00 0. -1.
       -3    1    3    3    0  502 -0.45014204255E+02  0.49437232229E+03  0.89211448935E+03  0.10209302346E+04  0.10100000352E+00 0.  1.
</event>
<event>
 5   0  0.2586775E-06  0.2597244E+04  0.7818609E-02  0.8369138E-01
        2   -1    0    0  501    0  0.00000000000E+00  0.00000000000E+00  0.13935782633E+04  0.13935782633E+04  0.25500000920E-02 0. -1.
       -2   -1    0    0    0  501  0.00000000000E+00  0.00000000000E+00 -0.12101356118E+04  0.12101356118E+04  0.25500000920E-02 0.  1.
    10030    2    1    2    0    0  0.00000000000E+00  0.00000000000E+00  0.18344265157E+03  0.26037138751E+04  0.25972436807E+04 0.  0.
        1    1    3    3  502    0  0.58683139972E+03  0.33519145064E+03 -0.10199569947E+04  0.12235344995E+04  0.50400001928E-02 0.  1.
       -1    1    3    3    0  502 -0.58683139972E+03 -0.33519145064E+03  0.12033996463E+04  0.13801793757E+04  0.50400001928E-02 0. -1.
</event>
<event>
 5   0  0.2586775E-06  0.2597358E+04  0.7818609E-02  0.8369099E-01
        2   -1    0    0  501    0  0.00000000000E+00  0.00000000000E+00  0.15925744846E+04  0.15925744846E+04  0.25500000920E-02 0.  1.
       -2   -1    0    0    0  501  0.00000000000E+00  0.00000000000E+00 -0.10590194281E+04  0.10590194281E+04  0.25500000920E-02 0. -1.
    10030    2    1    2    0    0  0.00000000000E+00  0.00000000000E+00  0.53355505651E+03  0.26515939127E+04  0.25973581346E+04 0.  0.
        1    1    3    3  502    0 -0.47218790420E+03  0.63548327481E+03 -0.78416835869E+03  0.11143250981E+04  0.50400001928E-02 0. -1.
       -1    1    3    3    0  502  0.47218790420E+03 -0.63548327481E+03  0.13177234152E+04  0.15372688146E+04  0.50400001928E-02 0.  1.
</event>
<event>
 5   0  0.1032076E-06  0.2601151E+04  0.7818609E-02  0.8367810E-01
        1   -1    0    0  501    0  0.00000000000E+00  0.00000000000E+00  0.15454487434E+04  0.15454487434E+04  0.50400001928E-02 0. -1.
       -1   -1    0    0    0  501  0.00000000000E+00  0.00000000000E+00 -0.10945018560E+04  0.10945018560E+04  0.50400001928E-02 0.  1.
    10030    2    1    2    0    0  0.00000000000E+00  0.00000000000E+00  0.45094688745E+03  0.26399505994E+04  0.26011509130E+04 0.  0.
        1    1    3    3  502    0  0.68341941558E+03  0.60414130399E+02  0.13468455865E+04  0.15115240649E+04  0.50400001928E-02 0. -1.
       -1    1    3    3    0  502 -0.68341941558E+03 -0.60414130399E+02 -0.89589869909E+03  0.11284265345E+04  0.50400001928E-02 0.  1.
</event>
<event>
 5   0  0.1122628E-06  0.2599297E+04  0.7818609E-02  0.8368440E-01
        1   -1    0    0  501    0  0.00000000000E+00  0.00000000000E+00  0.23477127360E+04  0.23477127360E+04  0.50400001928E-02 0. -1.
       -1   -1    0    0    0  501  0.00000000000E+00  0.00000000000E+00 -0.71946024384E+03  0.71946024386E+03  0.50400001928E-02 0.  1.
    10030    2    1    2    0    0  0.00000000000E+00  0.00000000000E+00  0.16282524922E+04  0.30671729799E+04  0.25992968107E+04 0.  0.
        2    1    3    3  502    0 -0.10724874201E+04 -0.45932504912E+01 -0.52058520653E+02  0.10737599610E+04  0.25500000920E-02 0.  1.
       -2    1    3    3    0  502  0.10724874201E+04  0.45932504912E+01  0.16803110128E+04  0.19934130189E+04  0.25500000920E-02 0. -1.
</event>
<event>
 5   0  0.2586775E-06  0.2600776E+04  0.7818609E-02  0.8367938E-01
        2   -1    0    0  501    0  0.00000000000E+00  0.00000000000E+00  0.29453259327E+04  0.29453259327E+04  0.25500000920E-02 0.  1.
       -2   -1    0    0    0  501  0.00000000000E+00  0.00000000000E+00 -0.57413310574E+03  0.57413310574E+03  0.25500000920E-02 0. -1.
    10030    2    1    2    0    0  0.00000000000E+00  0.00000000000E+00  0.23711928270E+04  0.35194590385E+04  0.26007761343E+04 0.  0.
        1    1    3    3  502    0 -0.10077501558E+04 -0.26682804348E+03  0.22375142717E+04  0.24684464137E+04  0.50400001928E-02 0.  1.
       -1    1    3    3    0  502  0.10077501558E+04  0.26682804348E+03  0.13367855533E+03  0.10510126248E+04  0.50400001928E-02 0. -1.
</event>
<event>
 5   0  0.1055179E-06  0.2599500E+04  0.7818609E-02  0.8368371E-01
        1   -1    0    0  501    0  0.00000000000E+00  0.00000000000E+00  0.85837089613E+03  0.85837089615E+03  0.50400001928E-02 0. -1.
       -1   -1    0    0    0  501  0.00000000000E+00  0.00000000000E+00 -0.19680893727E+04  0.19680893727E+04  0.50400001928E-02 0.  1.
    10030    2    1    2    0    0  0.00000000000E+00  0.00000000000E+00 -0.11097184766E+04  0.28264602689E+04  0.25995004432E+04 0.  0.
        3    1    3    3  502    0  0.67090115317E+03 -0.63588469861E+03  0.43864192189E+03  0.10231639424E+04  0.10100000352E+00 0. -1.
       -3    1    3    3    0  502 -0.67090115317E+03  0.63588469861E+03 -0.15483603985E+04  0.18032963265E+04  0.10100000352E+00 0.  1.
</event>
<event>
 5   0  0.2623368E-06  0.2600965E+04  0.7818609E-02  0.8367874E-01
        2   -1    0    0  501    0  0.00000000000E+00  0.00000000000E+00  0.12883695678E+04  0.12883695678E+04  0.25500000920E-02 0.  1.
       -2   -1    0    0    0  501  0.00000000000E+00  0.00000000000E+00 -0.13127091825E+04  0.13127091825E+04  0.25500000920E-02 0. -1.
    10030    2    1    2    0    0  0.00000000000E+00  0.00000000000E+00 -0.24339614708E+02  0.26010787503E+04  0.26009648688E+04 0.  0.
        5    1    3    3  502    0  0.27484940332E+03 -0.11679508504E+04  0.48943075070E+03  0.12958456440E+04  0.46999998093E+01 0.  1.
       -5    1    3    3    0  502 -0.27484940332E+03  0.11679508504E+04 -0.51377036541E+03  0.13052331063E+04  0.46999998093E+01 0. -1.
</event>
<event>
 5   0  0.1055179E-06  0.2601925E+04  0.7818609E-02  0.8367548E-01
       -1   -1    0    0    0  501  0.00000000000E+00  0.00000000000E+00  0.15156646427E+04  0.15156646427E+04  0.50400001928E-02 0.  1.
        1   -1    0    0  501    0  0.00000000000E+00  0.00000000000E+00 -0.11166742242E+04  0.11166742242E+04  0.50400001928E-02 0. -1.
    10030    2    1    2    0    0  0.00000000000E+00  0.00000000000E+00  0.39899041845E+03  0.26323388669E+04  0.26019251634E+04 0.  0.
        3    1    3    3  502    0 -0.11093926127E+03 -0.12127909875E+03  0.15051178795E+04  0.15140660425E+04  0.10100000352E+00 0.  1.
       -3    1    3    3    0  502  0.11093926127E+03  0.12127909875E+03 -0.11061274611E+04  0.11182728244E+04  0.10100000352E+00 0. -1.
</event>
<event>
 5   0  0.2746631E-06  0.2603571E+04  0.7818609E-02  0.8366989E-01
        2   -1    0    0  501    0  0.00000000000E+00  0.00000000000E+00  0.14965555578E+04  0.14965555578E+04  0.25500000920E-02 0.  1.
       -2   -1    0    0    0  501  0.00000000000E+00  0.00000000000E+00 -0.11323635454E+04  0.11323635454E+04  0.25500000920E-02 0. -1.
    10030    2    1    2    0    0  0.00000000000E+00  0.00000000000E+00  0.36419201233E+03  0.26289191032E+04  0.26035705924E+04 0.  0.
        2    1    3    3  502    0 -0.83411225535E+03 -0.75073798276E+03 -0.48409581580E+03  0.12221700095E+04  0.25500000920E-02 0. -1.
       -2    1    3    3    0  502  0.83411225535E+03  0.75073798276E+03  0.84828782813E+03  0.14067490937E+04  0.25500000920E-02 0.  1.
</event>
<event>
 5   0  0.1100104E-06  0.2600661E+04  0.7818609E-02  0.8367977E-01
       -1   -1    0    0    0  501  0.00000000000E+00  0.00000000000E+00  0.13211101597E+04  0.13211101597E+04  0.50400001928E-02 0.  1.
        1   -1    0    0  501    0  0.00000000000E+00  0.00000000000E+00 -0.12798778702E+04  0.12798778702E+04  0.50400001928E-02 0. -1.
    10030    2    1    2    0    0  0.00000000000E+00  0.00000000000E+00  0.41232289448E+02  0.26009880299E+04  0.26006611909E+04 0.  0.
        4    1    3    3  502    0 -0.11807280296E+04 -0.50965277349E+03  0.21297704033E+03  0.13035434254E+04  0.12699999809E+01 0.  1.
       -4    1    3    3    0  502  0.11807280296E+04  0.50965277349E+03 -0.17174475089E+03  0.12974446045E+04  0.12699999809E+01 0. -1.
</event>
<event>
 5   0  0.1088757E-06  0.2591049E+04  0.7818609E-02  0.8371248E-01
       -1   -1    0    0    0  501  0.00000000000E+00  0.00000000000E+00  0.67465384528E+03  0.67465384530E+03  0.50400001928E-02 0.  1.
        1   -1    0    0  501    0  0.00000000000E+00  0.00000000000E+00 -0.24877696594E+04  0.24877696594E+04  0.50400001928E-02 0. -1.
    10030    2    1    2    0    0  0.00000000000E+00  0.00000000000E+00 -0.18131158141E+04  0.31624235047E+04  0.25910487197E+04 0.  0.
        5    1    3    3  502    0  0.37376347804E+03  0.74063374056E+03  0.30791883007E+03  0.88491444280E+03  0.46999998093E+01 0.  1.
       -5    1    3    3    0  502 -0.37376347804E+03 -0.74063374056E+03 -0.21210346442E+04  0.22775090619E+04  0.46999998093E+01 0. -1.
</event>
<event>
 5   0  0.1032076E-06  0.2597246E+04  0.7818609E-02  0.8369137E-01
       -1   -1    0    0    0  501  0.00000000000E+00  0.00000000000E+00  0.76658244394E+03  0.76658244396E+03  0.50400001928E-02 0.  1.
        1   -1    0    0  501    0  0.00000000000E+00  0.00000000000E+00 -0.21999226448E+04  0.21999226448E+04  0.50400001928E-02 0. -1.
    10030    2    1    2    0    0  0.00000000000E+00  0.00000000000E+00 -0.14333402009E+04  0.29665050888E+04  0.25972462937E+04 0.  0.
        1    1    3    3  502    0 -0.11120637647E+04 -0.42002477960E+03 -0.13137934445E+04  0.17717674359E+04  0.50400001928E-02 0.  1.
       -1    1    3    3    0  502  0.11120637647E+04  0.42002477960E+03 -0.11954675637E+03  0.11947376528E+04  0.50400001928E-02 0. -1.
</event>
<event>
 5   0  0.1122628E-06  0.2601427E+04  0.7818609E-02  0.8367717E-01
        1   -1    0    0  501    0  0.00000000000E+00  0.00000000000E+00  0.23921691923E+04  0.23921691923E+04  0.50400001928E-02 0.  1.
       -1   -1    0    0    0  501  0.00000000000E+00  0.00000000000E+00 -0.70724755224E+03  0.70724755225E+03  0.50400001928E-02 0. -1.
    10030    2    1    2    0    0  0.00000000000E+00  0.00000000000E+00  0.16849216401E+04  0.30994167446E+04  0.26014271513E+04 0.  0.
        2    1    3    3  502    0  0.62655953021E+03 -0.12250287089E+03 -0.50773517236E+03  0.81570754780E+03  0.25500000920E-02 0. -1.
       -2    1    3    3    0  502 -0.62655953021E+03  0.12250287089E+03  0.21926568125E+04  0.22837091968E+04  0.25500000920E-02 0.  1.
</event>
<event>
 5   0  0.2820028E-06  0.2600589E+04  0.7818609E-02  0.8368001E-01
       -2   -1    0    0    0  501  0.00000000000E+00  0.00000000000E+00  0.13833204431E+04  0.13833204431E+04  0.25500000920E-02 0.  1.
        2   -1    0    0  501    0  0.00000000000E+00  0.00000000000E+00 -0.12222515240E+04  0.12222515240E+04  0.25500000920E-02 0. -1.
    10030    2    1    2    0    0  0.00000000000E+00  0.00000000000E+00  0.16106891906E+03  0.26055719671E+04  0.26005887947E+04 0.  0.
        3    1    3    3  502    0  0.27506577962E+02  0.11079938654E+03  0.13782895202E+04  0.13830094460E+04  0.10100000352E+00 0.  1.
       -3    1    3    3    0  502 -0.27506577962E+02 -0.11079938654E+03 -0.12172206012E+04  0.12225625211E+04  0.10100000352E+00 0. -1.
</event>
<event>
 5   0  0.2586775E-06  0.2602893E+04  0.7818609E-02  0.8367219E-01
        2   -1    0    0  501    0  0.00000000000E+00  0.00000000000E+00  0.26725941983E+04  0.26725941983E+04  0.25500000920E-02 0.  1.
       -2   -1    0    0    0  501  0.00000000000E+00  0.00000000000E+00 -0.63375236816E+03  0.63375236817E+03  0.25500000920E-02 0. -1.
    10030    2    1    2    0    0  0.00000000000E+00  0.00000000000E+00  0.20388418301E+04  0.33063465665E+04  0.26028929308E+04 0.  0.
        1    1    3    3  502    0 -0.67583715104E+03  0.12914205899E+03  0.24226565428E+04  0.25184714115E+04  0.50400001928E-02 0.  1.
       -1    1    3    3    0  502  0.67583715104E+03 -0.12914205899E+03 -0.38381471267E+03  0.78787515497E+03  0.50400001928E-02 0. -1.
</event>
<event>
 5   0  0.1122628E-06  0.2636524E+04  0.7818609E-02  0.8355900E-01
        1   -1    0    0  501    0  0.00000000000E+00  0.00000000000E+00  0.99117448093E+03  0.99117448094E+03  0.50400001928E-02 0. -1.
       -1   -1    0    0    0  501  0.00000000000E+00  0.00000000000E+00 -0.17532878821E+04  0.17532878821E+04  0.50400001928E-02 0.  1.
    10030    2    1    2    0    0  0.00000000000E+00  0.00000000000E+00 -0.76211340116E+03  0.27444623630E+04  0.26365236251E+04 0.  0.
        2    1    3    3  502    0 -0.42132051684E+03 -0.30645456162E+03  0.87946458581E+03  0.10221953502E+04  0.25500000920E-02 0. -1.
       -2    1    3    3    0  502  0.42132051684E+03  0.30645456162E+03 -0.16415779870E+04  0.17222670128E+04  0.25500000920E-02 0.  1.
</event>
<event>
 5   0  0.1100104E-06  0.2604455E+04  0.7818609E-02  0.8366690E-01
        1   -1    0    0  501    0  0.00000000000E+00  0.00000000000E+00  0.25666504649E+04  0.25666504649E+04  0.50400001928E-02 0.  1.
       -1   -1    0    0    0  501  0.00000000000E+00  0.00000000000E+00 -0.66070411118E+03  0.66070411120E+03  0.50400001928E-02 0. -1.
    10030    2    1    2    0    0  0.00000000000E+00  0.00000000000E+00  0.19059463537E+04  0.32273545761E+04  0.26044550402E+04 0.  0.
        4    1    3    3  502    0 -0.53135082361E+02 -0.13009897896E+04  0.92827886023E+03  0.15990938137E+04  0.12699999809E+01 0.  1.
       -4    1    3    3    0  502  0.53135082361E+02  0.13009897896E+04  0.97766749349E+03  0.16282607624E+04  0.12699999809E+01 0. -1.
</event>
<event>
 5   0  0.1055179E-06  0.2601038E+04  0.7818609E-02  0.8367849E-01
       -1   -1    0    0    0  501  0.00000000000E+00  0.00000000000E+00  0.96417153980E+03  0.96417153981E+03  0.50400001928E-02 0. -1.
        1   -1    0    0  501    0  0.00000000000E+00  0.00000000000E+00 -0.17541998954E+04  0.17541998954E+04  0.50400001928E-02 0.  1.
    10030    2    1    2    0    0  0.00000000000E+00  0.00000000000E+00 -0.79002835563E+03  0.27183714352E+04  0.26010379577E+04 0.  0.
        3    1    3    3  502    0 -0.10657258439E+04  0.27919707796E+03  0.32726742365E+03  0.11492721869E+04  0.10100000352E+00 0. -1.
       -3    1    3    3    0  502  0.10657258439E+04 -0.27919707796E+03 -0.11172957793E+04  0.15690992484E+04  0.10100000352E+00 0.  1.
</event>
<event>
 5   0  0.1100104E-06  0.2600934E+04  0.7818609E-02  0.8367884E-01
       -1   -1    0    0    0  501  0.00000000000E+00  0.00000000000E+00  0.13236868451E+04  0.13236868451E+04  0.50400001928E-02 0.  1.
        1   -1    0    0  501    0  0.00000000000E+00  0.00000000000E+00 -0.12776549585E+04  0.12776549585E+04  0.50400001928E-02 0. -1.
    10030    2    1    2    0    0  0.00000000000E+00  0.00000000000E+00  0.46031886576E+02  0.26013418037E+04  0.26009344945E+04 0.  0.
        4    1    3    3  502    0  0.56294160443E+03  0.33370050291E+03 -0.11009723857E+04  0.12807814343E+04  0.12699999809E+01 0. -1.
       -4    1    3    3    0  502 -0.56294160443E+03 -0.33370050291E+03  0.11470042722E+04  0.13205603693E+04  0.12699999809E+01 0.  1.
</event>
<event>
 5   0  0.2746631E-06  0.2608698E+04  0.7818609E-02  0.8365253E-01
        2   -1    0    0  501    0  0.00000000000E+00  0.00000000000E+00  0.13811767733E+04  0.13811767733E+04  0.25500000920E-02 0.  1.
       -2   -1    0    0    0  501  0.00000000000E+00  0.00000000000E+00 -0.12317950477E+04  0.12317950477E+04  0.25500000920E-02 0. -1.
    10030    2    1    2    0    0  0.00000000000E+00  0.00000000000E+00  0.14938172564E+03  0.26129718211E+04  0.26086983033E+04 0.  0.
        2    1    3    3  502    0  0.45831786676E+03 -0.71403506313E+03  0.10669829105E+04  0.13632145355E+04  0.25500000920E-02 0.  1.
       -2    1    3    3    0  502 -0.45831786676E+03  0.71403506313E+03 -0.91760118489E+03  0.12497572856E+04  0.25500000920E-02 0. -1.
</event>
<event>
 5   0  0.2586775E-06  0.2598795E+04  0.7818609E-02  0.8368611E-01
       -2   -1    0    0    0  501  0.00000000000E+00  0.00000000000E+00  0.88746635560E+03  0.88746635561E+03  0.25500000920E-02 0. -1.
        2   -1    0    0  501    0  0.00000000000E+00  0.00000000000E+00 -0.19025326472E+04  0.19025326472E+04  0.25500000920E-02 0.  1.
    10030    2    1    2    0    0  0.00000000000E+00  0.00000000000E+00 -0.10150662916E+04  0.27899990028E+04  0.25987948860E+04 0.  0.
        1    1    3    3  502    0 -0.66561882350E+03 -0.39535277062E+03 -0.16279051075E+04  0.18026167841E+04  0.50400001928E-02 0.  1.
       -1    1    3    3    0  502  0.66561882350E+03  0.39535277062E+03  0.61283881590E+03  0.98738221866E+03  0.50400001928E-02 0. -1.
</event>
<event>
 5   0  0.1032076E-06  0.2612018E+04  0.7818609E-02  0.8364130E-01
       -1   -1    0    0    0  501  0.00000000000E+00  0.00000000000E+00  0.77883228331E+03  0.77883228333E+03  0.50400001928E-02 0.  1.
        1   -1    0    0  501    0  0.00000000000E+00  0.00000000000E+00 -0.21900211514E+04  0.21900211514E+04  0.50400001928E-02 0. -1.
    10030    2    1    2    0    0  0.00000000000E+00  0.00000000000E+00 -0.14111888681E+04  0.29688534348E+04  0.26120177441E+04 0.  0.
        1    1    3    3  502    0  0.24871920575E+03 -0.12200083026E+04 -0.11536242744E+04  0.16973893096E+04  0.50400001928E-02 0. -1.
       -1    1    3    3    0  502 -0.24871920575E+03  0.12200083026E+04 -0.25756459373E+03  0.12714641252E+04  0.50400001928E-02 0.  1.
</event>
<event>
 5   0  0.2746631E-06  0.2589858E+04  0.7818609E-02  0.8371654E-01
        2   -1    0    0  501    0  0.00000000000E+00  0.00000000000E+00  0.17206910475E+04  0.17206910475E+04  0.25500000920E-02 0. -1.
       -2   -1    0    0    0  501  0.00000000000E+00  0.00000000000E+00 -0.97451619708E+03  0.97451619708E+03  0.25500000920E-02 0.  1.
    10030    2    1    2    0    0  0.00000000000E+00  0.00000000000E+00  0.74617485039E+03  0.26952072446E+04  0.25898581397E+04 0.  0.
        2    1    3    3  502    0  0.12489657947E+04 -0.27809554302E+03  0.58014985623E+03  0.14049293729E+04  0.25500000920E-02 0. -1.
       -2    1    3    3    0  502 -0.12489657947E+04  0.27809554302E+03  0.16602499415E+03  0.12902778716E+04  0.25500000920E-02 0.  1.
</event>
<event>
 5   0  0.1055179E-06  0.2595683E+04  0.7818609E-02  0.8369669E-01
        1   -1    0    0  501    0  0.00000000000E+00  0.00000000000E+00  0.13651481661E+04  0.13651481661E+04  0.50400001928E-02 0. -1.
       -1   -1    0    0    0  501  0.00000000000E+00  0.00000000000E+00 -0.12338536769E+04  0.12338536769E+04  0.50400001928E-02 0.  1.
    10030    2    1    2    0    0  0.00000000000E+00  0.00000000000E+00  0.13129448918E+03  0.25990018431E+04  0.25956834047E+04 0.  0.
        3    1    3    3  502    0 -0.87734429708E+02  0.28643938793E+03  0.13300554727E+04  0.13633753789E+04  0.10100000352E+00 0. -1.
       -3    1    3    3    0  502  0.87734429708E+02 -0.28643938793E+03 -0.11987609835E+04  0.12356264642E+04  0.10100000352E+00 0.  1.
</event>
<event>
 5   0  0.2586775E-06  0.2600262E+04  0.7818609E-02  0.8368112E-01
        2   -1    0    0  501    0  0.00000000000E+00  0.00000000000E+00  0.11456234070E+04  0.11456234070E+04  0.25500000920E-02 0. -1.
       -2   -1    0    0    0  501  0.00000000000E+00  0.00000000000E+00 -0.14754772068E+04  0.14754772068E+04  0.25500000920E-02 0.  1.
    10030    2    1    2    0    0  0.00000000000E+00  0.00000000000E+00 -0.32985379983E+03  0.26211006138E+04  0.26002624672E+04 0.  0.
        1    1    3    3  502    0  0.11754029111E+04 -0.25474566760E+03  0.33286650255E+03  0.12479052316E+04  0.50400001928E-02 0. -1.
       -1    1    3    3    0  502 -0.11754029111E+04  0.25474566760E+03 -0.66272030238E+03  0.13731953822E+04  0.50400001928E-02 0.  1.
</event>
<event>
 5   0  0.1055179E-06  0.2599619E+04  0.7818609E-02  0.8368331E-01
       -1   -1    0    0    0  501  0.00000000000E+00  0.00000000000E+00  0.63212356604E+03  0.63212356606E+03  0.50400001928E-02 0. -1.
        1   -1    0    0  501    0  0.00000000000E+00  0.00000000000E+00 -0.26727436647E+04  0.26727436647E+04  0.50400001928E-02 0.  1.
    10030    2    1    2    0    0  0.00000000000E+00  0.00000000000E+00 -0.20406200986E+04  0.33048672307E+04  0.25996186308E+04 0.  0.
        3    1    3    3  502    0  0.10062916274E+04  0.74884412591E+03 -0.58711204366E+03  0.13849515971E+04  0.10100000352E+00 0. -1.
       -3    1    3    3    0  502 -0.10062916274E+04 -0.74884412591E+03 -0.14535080550E+04  0.19199156337E+04  0.10100000352E+00 0.  1.
</event>
<event>
 5   0  0.2623368E-06  0.2601809E+04  0.7818609E-02  0.8367587E-01
       -2   -1    0    0    0  501  0.00000000000E+00  0.00000000000E+00  0.10289419056E+04  0.10289419056E+04  0.25500000920E-02 0.  1.
        2   -1    0    0  501    0  0.00000000000E+00  0.00000000000E+00 -0.16447500765E+04  0.16447500765E+04  0.25500000920E-02 0. -1.
    10030    2    1    2    0    0  0.00000000000E+00  0.00000000000E+00 -0.61580817093E+03  0.26736919821E+04  0.26018088154E+04 0.  0.
        5    1    3    3  502    0 -0.33320649026E+03  0.78223557703E+03 -0.13196931763E+04  0.15698825538E+04  0.46999998093E+01 0. -1.
       -5    1    3    3    0  502  0.33320649026E+03 -0.78223557703E+03  0.70388500540E+03  0.11038094283E+04  0.46999998093E+01 0.  1.
</event>
<event>
 5   0  0.2586775E-06  0.2630997E+04  0.7818609E-02  0.8357748E-01
       -2   -1    0    0    0  501  0.00000000000E+00  0.00000000000E+00  0.74593408986E+03  0.74593408986E+03  0.25500000920E-02 0.  1.
        2   -1    0    0  501    0  0.00000000000E+00  0.00000000000E+00 -0.23199592190E+04  0.23199592190E+04  0.25500000920E-02 0. -1.
    10030    2    1    2    0    0  0.00000000000E+00  0.00000000000E+00 -0.15740251291E+04  0.30658933088E+04  0.26309972775E+04 0.  0.
        1    1    3    3  502    0  0.20764447882E+03  0.10252431040E+04  0.14252422351E+03  0.10557238304E+04  0.50400001928E-02 0.  1.
       -1    1    3    3    0  502 -0.20764447882E+03 -0.10252431040E+04 -0.17165493526E+04  0.20101694784E+04  0.50400001928E-02 0. -1.
</event>
<event>
 5   0  0.1122628E-06  0.2593666E+04  0.7818609E-02  0.8370356E-01
        1   -1    0    0  501    0  0.00000000000E+00  0.00000000000E+00  0.11855982487E+04  0.11855982487E+04  0.50400001928E-02 0. -1.
       -1   -1    0    0    0  501  0.00000000000E+00  0.00000000000E+00 -0.14185036003E+04  0.14185036003E+04  0.50400001928E-02 0.  1.
    10030    2    1    2    0    0  0.00000000000E+00  0.00000000000E+00 -0.23290535158E+03  0.26041018490E+04  0.25936656563E+04 0.  0.
        2    1    3    3  502    0  0.52906965460E+03  0.56921075944E+03 -0.11588303741E+04  0.13952789771E+04  0.25500000920E-02 0.  1.
       -2    1    3    3    0  502 -0.52906965460E+03 -0.56921075944E+03  0.92592502252E+03  0.12088228718E+04  0.25500000920E-02 0. -1.
</event>
<event>
 5   0  0.2746631E-06  0.2604976E+04  0.7818609E-02  0.8366513E-01
       -2   -1    0    0    0  501  0.00000000000E+00  0.00000000000E+00  0.84292844677E+03  0.84292844677E+03  0.25500000920E-02 0. -1.
        2   -1    0    0  501    0  0.00000000000E+00  0.00000000000E+00 -0.20125964129E+04  0.20125964129E+04  0.25500000920E-02 0.  1.
    10030    2    1    2    0    0  0.00000000000E+00  0.00000000000E+00 -0.11696679661E+04  0.28555248596E+04  0.26049758297E+04 0.  0.
        2    1    3    3  502    0  0.51805637363E+03 -0.61255287468E+03 -0.17096199747E+04  0.18884924909E+04  0.25500000920E-02 0.  1.
       -2    1    3    3    0  502 -0.51805637363E+03  0.61255287468E+03  0.53995200858E+03  0.96703236870E+03  0.25500000920E-02 0. -1.
</event>
<event>
 5   0  0.2586775E-06  0.2597159E+04  0.7818609E-02  0.8369167E-01
       -2   -1    0    0    0  501  0.00000000000E+00  0.00000000000E+00  0.91296718213E+03  0.91296718214E+03  0.25500000920E-02 0.  1.
        2   -1    0    0  501    0  0.00000000000E+00  0.00000000000E+00 -0.18470638345E+04  0.18470638345E+04  0.25500000920E-02 0. -1.
    10030    2    1    2    0    0  0.00000000000E+00  0.00000000000E+00 -0.93409665235E+03  0.27600310166E+04  0.25971589587E+04 0.  0.
        1    1    3    3  502    0  0.24738035575E+03  0.42314315089E+03  0.81088681489E+03  0.94751495668E+03  0.50400001928E-02 0.  1.
       -1    1    3    3    0  502 -0.24738035575E+03 -0.42314315089E+03 -0.17449834672E+04  0.18125160599E+04  0.50400001928E-02 0. -1.
</event>
<event>
 5   0  0.1122628E-06  0.2600989E+04  0.7818609E-02  0.8367865E-01
        1   -1    0    0  501    0  0.00000000000E+00  0.00000000000E+00  0.16713415699E+04  0.16713415699E+04  0.50400001928E-02 0.  1.
       -1   -1    0    0    0  501  0.00000000000E+00  0.00000000000E+00 -0.10119333729E+04  0.10119333729E+04  0.50400001928E-02 0. -1.
    10030    2    1    2    0    0  0.00000000000E+00  0.00000000000E+00  0.65940819700E+03  0.26832749428E+04  0.26009892827E+04 0.  0.
        2    1    3    3  502    0 -0.29881017400E+03 -0.71948303648E+03  0.14039654289E+04  0.16056345429E+04  0.25500000920E-02 0.  1.
       -2    1    3    3    0  502  0.29881017400E+03  0.71948303648E+03 -0.74455723193E+03  0.10776403999E+04  0.25500000920E-02 0. -1.
</event>
<event>
 5   0  0.1100104E-06  0.2598691E+04  0.7818609E-02  0.8368646E-01
        1   -1    0    0  501    0  0.00000000000E+00  0.00000000000E+00  0.11895883312E+04  0.11895883312E+04  0.50400001928E-02 0.  1.
       -1   -1    0    0    0  501  0.00000000000E+00  0.00000000000E+00 -0.14192297257E+04  0.14192297257E+04  0.50400001928E-02 0. -1.
    10030    2    1    2    0    0  0.00000000000E+00  0.00000000000E+00 -0.22964139455E+03  0.26088180569E+04  0.25986913022E+04 0.  0.
        4    1    3    3  502    0  0.91258538287E+02 -0.99929010677E+02  0.11824935854E+04  0.11902128467E+04  0.12699999809E+01 0.  1.
       -4    1    3    3    0  502 -0.91258538287E+02  0.99929010677E+02 -0.14121349799E+04  0.14186052102E+04  0.12699999809E+01 0. -1.
</event>
<event>
 5   0  0.2623368E-06  0.2600642E+04  0.7818609E-02  0.8367983E-01
       -2   -1    0    0    0  501  0.00000000000E+00  0.00000000000E+00  0.16905418955E+04  0.16905418955E+04  0.25500000920E-02 0. -1.
        2   -1    0    0  501    0  0.00000000000E+00  0.00000000000E+00 -0.10001728207E+04  0.10001728207E+04  0.25500000920E-02 0.  1.
    10030    2    1    2    0    0  0.00000000000E+00  0.00000000000E+00  0.69036907478E+03  0.26907147161E+04  0.26006415024E+04 0.  0.
        5    1    3    3  502    0 -0.11422381384E+04 -0.60533663854E+03  0.20007147269E+03  0.13081250303E+04  0.46999998093E+01 0. -1.
       -5    1    3    3    0  502  0.11422381384E+04  0.60533663854E+03  0.49029760210E+03  0.13825896858E+04  0.46999998093E+01 0.  1.
</event>
<event>
 5   0  0.1055179E-06  0.2601382E+04  0.7818609E-02  0.8367732E-01
        1   -1    0    0  501    0  0.00000000000E+00  0.00000000000E+00  0.76827187545E+03  0.76827187547E+03  0.50400001928E-02 0. -1.
       -1   -1    0    0    0  501  0.00000000000E+00  0.00000000000E+00 -0.22020804687E+04  0.22020804687E+04  0.50400001928E-02 0.  1.
    10030    2    1    2    0    0  0.00000000000E+00  0.00000000000E+00 -0.14338085932E+04  0.29703523441E+04  0.26013815496E+04 0.  0.
        3    1    3    3  502    0  0.11658381808E+04  0.54627582330E+03 -0.92806855414E+03  0.15871065466E+04  0.10100000352E+00 0. -1.
       -3    1    3    3    0  502 -0.11658381808E+04 -0.54627582330E+03 -0.50574003908E+03  0.13832457975E+04  0.10100000352E+00 0.  1.
</event>
<event>
 5   0  0.1055179E-06  0.2586819E+04  0.7818609E-02  0.8372692E-01
       -1   -1    0    0    0  501  0.00000000000E+00  0.00000000000E+00  0.10685846261E+04  0.10685846261E+04  0.50400001928E-02 0.  1.
        1   -1    0    0  501    0  0.00000000000E+00  0.00000000000E+00 -0.15655365930E+04  0.15655365931E+04  0.50400001928E-02 0. -1.
    10030    2    1    2    0    0  0.00000000000E+00  0.00000000000E+00 -0.49695196695E+03  0.26341212192E+04  0.25868191548E+04 0.  0.
        3    1    3    3  502    0 -0.87128357262E+03 -0.75074598728E+03 -0.85103426963E+03  0.14307389488E+04  0.10100000352E+00 0. -1.
       -3    1    3    3    0  502  0.87128357262E+03  0.75074598728E+03  0.35408230268E+03  0.12033822704E+04  0.10100000352E+00 0.  1.
</event>
<event>
 5   0  0.2820028E-06  0.2609097E+04  0.7818609E-02  0.8365118E-01
       -2   -1    0    0    0  501  0.00000000000E+00  0.00000000000E+00  0.10342843789E+04  0.10342843789E+04  0.25500000920E-02 0.  1.
        2   -1    0    0  501    0  0.00000000000E+00  0.00000000000E+00 -0.16454346036E+04  0.16454346036E+04  0.25500000920E-02 0. -1.
    10030    2    1    2    0    0  0.00000000000E+00  0.00000000000E+00 -0.61115022468E+03  0.26797189824E+04  0.26090973971E+04 0.  0.
        3    1    3    3  502    0 -0.62995019450E+03  0.84363902740E+03 -0.10966725928E+04  0.15202811720E+04  0.10100000352E+00 0. -1.
       -3    1    3    3    0  502  0.62995019450E+03 -0.84363902740E+03  0.48552236808E+03  0.11594378104E+04  0.10100000352E+00 0.  1.
</event>
<event>
 5   0  0.2623368E-06  0.2601388E+04  0.7818609E-02  0.8367730E-01
       -2   -1    0    0    0  501  0.00000000000E+00  0.00000000000E+00  0.12850839537E+04  0.12850839537E+04  0.25500000920E-02 0.  1.
        2   -1    0    0  501    0  0.00000000000E+00  0.00000000000E+00 -0.13164933425E+04  0.13164933425E+04  0.25500000920E-02 0. -1.
    10030    2    1    2    0    0  0.00000000000E+00  0.00000000000E+00 -0.31409388841E+02  0.26015772961E+04  0.26013876832E+04 0.  0.
        5    1    3    3  502    0 -0.62782232867E+03  0.86825184622E+03  0.72175005405E+03  0.12918852021E+04  0.46999998093E+01 0.  1.
       -5    1    3    3    0  502  0.62782232867E+03 -0.86825184622E+03 -0.75315944289E+03  0.13096920941E+04  0.46999998093E+01 0. -1.
</event>
<event>
 5   0  0.1088757E-06  0.2612334E+04  0.7818609E-02  0.8364024E-01
       -1   -1    0    0    0  501  0.00000000000E+00  0.00000000000E+00  0.56009480545E+03  0.56009480547E+03  0.50400001928E-02 0.  1.
        1   -1    0    0  501    0  0.00000000000E+00  0.00000000000E+00 -0.30460407863E+04  0.30460407863E+04  0.50400001928E-02 0. -1.
    10030    2    1    2    0    0  0.00000000000E+00  0.00000000000E+00 -0.24859459808E+04  0.36061355918E+04  0.26123335328E+04 0.  0.
        5    1    3    3  502    0 -0.48242619120E+03 -0.33342247521E+03  0.36813603562E+03  0.69242458625E+03  0.46999998093E+01 0.  1.
       -5    1    3    3    0  502  0.48242619120E+03  0.33342247521E+03 -0.28540820165E+04  0.29137110055E+04  0.46999998093E+01 0. -1.
</event>
<event>
 5   0  0.1122628E-06  0.2602409E+04  0.7818609E-02  0.8367384E-01
       -1   -1    0    0    0  501  0.00000000000E+00  0.00000000000E+00  0.11120806634E+04  0.11120806634E+04  0.50400001928E-02 0.  1.
        1   -1    0    0  501    0  0.00000000000E+00  0.00000000000E+00 -0.15224907846E+04  0.15224907846E+04  0.50400001928E-02 0. -1.
    10030    2    1    2    0    0  0.00000000000E+00  0.00000000000E+00 -0.41041012113E+03  0.26345714480E+04  0.26024085473E+04 0.  0.
        2    1    3    3  502    0  0.30093186063E+03  0.11827883773E+03  0.10707618665E+04  0.11185172520E+04  0.25500000920E-02 0.  1.
       -2    1    3    3    0  502 -0.30093186063E+03 -0.11827883773E+03 -0.14811719877E+04  0.15160541960E+04  0.25500000920E-02 0. -1.
</event>
<event>
 5   0  0.2705807E-06  0.2601527E+04  0.7818609E-02  0.8367683E-01
       -2   -1    0    0    0  501  0.00000000000E+00  0.00000000000E+00  0.15006763295E+04  0.15006763295E+04  0.25500000920E-02 0. -1.
        2   -1    0    0  501    0  0.00000000000E+00  0.00000000000E+00 -0.11274823596E+04  0.11274823596E+04  0.25500000920E-02 0.  1.
    10030    2    1    2    0    0  0.00000000000E+00  0.00000000000E+00  0.37319396994E+03  0.26281586891E+04  0.26015273122E+04 0.  0.
        4    1    3    3  502    0 -0.11519097166E+04 -0.12926012163E+03  0.78287663844E+03  0.13987500199E+04  0.12699999809E+01 0. -1.
       -4    1    3    3    0  502  0.11519097166E+04  0.12926012163E+03 -0.40968266850E+03  0.12294086692E+04  0.12699999809E+01 0.  1.
</event>
<event>
 5   0  0.2623368E-06  0.2598815E+04  0.7818609E-02  0.8368604E-01
        2   -1    0    0  501    0  0.00000000000E+00  0.00000000000E+00  0.16660041573E+04  0.16660041573E+04  0.25500000920E-02 0.  1.
       -2   -1    0    0    0  501  0.00000000000E+00  0.00000000000E+00 -0.10134786694E+04  0.10134786695E+04  0.25500000920E-02 0. -1.
    10030    2    1    2    0    0  0.00000000000E+00  0.00000000000E+00  0.65252548783E+03  0.26794828267E+04  0.25988148658E+04 0.  0.
        5    1    3    3  502    0  0.50816984737E+02 -0.12070736838E+04  0.81947123310E+03  0.14598508266E+04  0.46999998093E+01 0. -1.
       -5    1    3    3    0  502 -0.50816984737E+02  0.12070736838E+04 -0.16694574527E+03  0.12196320002E+04  0.46999998093E+01 0.  1.
</event>
<event>
 5   0  0.1032076E-06  0.2598811E+04  0.7818609E-02  0.8368605E-01
       -1   -1    0    0    0  501  0.00000000000E+00  0.00000000000E+00  0.95611929008E+03  0.95611929009E+03  0.50400001928E-02 0.  1.
        1   -1    0    0  501    0  0.00000000000E+00  0.00000000000E+00 -0.17659457445E+04  0.17659457445E+04  0.50400001928E-02 0. -1.
    10030    2    1    2    0    0  0.00000000000E+00  0.00000000000E+00 -0.80982645444E+03  0.27220650346E+04  0.25988111063E+04 0.  0.
        1    1    3    3  502    0  0.78806773727E+03 -0.77039248046E+03  0.31613927683E+03  0.11465161904E+04  0.50400001928E-02 0.  1.
       -1    1    3    3    0  502 -0.78806773727E+03  0.77039248046E+03 -0.11259657313E+04  0.15755488442E+04  0.50400001928E-02 0. -1.
</event>
<event>
 5   0  0.2746631E-06  0.2594248E+04  0.7818609E-02  0.8370158E-01
       -2   -1    0    0    0  501  0.00000000000E+00  0.00000000000E+00  0.98588831438E+03  0.98588831438E+03  0.25500000920E-02 0.  1.
        2   -1    0    0  501    0  0.00000000000E+00  0.00000000000E+00 -0.17066144142E+04  0.17066144142E+04  0.25500000920E-02 0. -1.
    10030    2    1    2    0    0  0.00000000000E+00  0.00000000000E+00 -0.72072609978E+03  0.26925027285E+04  0.25942484138E+04 0.  0.
        2    1    3    3  502    0  0.71723279016E+03  0.92877808863E+03 -0.93399812056E+03  0.14998013543E+04  0.25500000920E-02 0. -1.
       -2    1    3    3    0  502 -0.71723279016E+03 -0.92877808863E+03  0.21327202078E+03  0.11927013742E+04  0.25500000920E-02 0.  1.
</event>
<event>
 5   0  0.1122628E-06  0.2599246E+04  0.7818609E-02  0.8368457E-01
        1   -1    0    0  501    0  0.00000000000E+00  0.00000000000E+00  0.11260221041E+04  0.11260221042E+04  0.50400001928E-02 0. -1.
       -1   -1    0    0    0  501  0.00000000000E+00  0.00000000000E+00 -0.14999887689E+04  0.14999887689E+04  0.50400001928E-02 0.  1.
    10030    2    1    2    0    0  0.00000000000E+00  0.00000000000E+00 -0.37396666476E+03  0.26260108731E+04  0.25992464368E+04 0.  0.
        2    1    3    3  502    0  0.42915829498E+02  0.62543967667E+03 -0.13371273522E+04  0.14767958943E+04  0.25500000920E-02 0.  1.
       -2    1    3    3    0  502 -0.42915829498E+02 -0.62543967667E+03  0.96316068741E+03  0.11492149787E+04  0.25500000920E-02 0. -1.
</event>
<event>
 5   0  0.2586775E-06  0.2587270E+04  0.7818609E-02  0.8372538E-01
       -2   -1    0    0    0  501  0.00000000000E+00  0.00000000000E+00  0.83692554272E+03  0.83692554272E+03  0.25500000920E-02 0.  1.
        2   -1    0    0  501    0  0.00000000000E+00  0.00000000000E+00 -0.19995710605E+04  0.19995710605E+04  0.25500000920E-02 0. -1.
    10030    2    1    2    0    0  0.00000000000E+00  0.00000000000E+00 -0.11626455177E+04  0.28364966032E+04  0.25872704497E+04 0.  0.
        1    1    3    3  502    0  0.10656529945E+03 -0.25079073006E+02 -0.19944833688E+04  0.19974856774E+04  0.50400001928E-02 0. -1.
       -1    1    3    3    0  502 -0.10656529945E+03  0.25079073006E+02  0.83183785111E+03  0.83901092574E+03  0.50400001928E-02 0.  1.
</event>
<event>
 5   0  0.1055179E-06  0.2602432E+04  0.7818609E-02  0.8367375E-01
       -1   -1    0    0    0  501  0.00000000000E+00  0.00000000000E+00  0.94337461605E+03  0.94337461606E+03  0.50400001928E-02 0.  1.
        1   -1    0    0  501    0  0.00000000000E+00  0.00000000000E+00 -0.17947945379E+04  0.17947945379E+04  0.50400001928E-02 0. -1.
    10030    2    1    2    0    0  0.00000000000E+00  0.00000000000E+00 -0.85141992189E+03  0.27381691540E+04  0.26024324069E+04 0.  0.
        3    1    3    3  502    0 -0.94781273666E+03 -0.83256554767E+03 -0.90256059680E+02  0.12647768742E+04  0.10100000352E+00 0.  1.
       -3    1    3    3    0  502  0.94781273666E+03  0.83256554767E+03 -0.76116386221E+03  0.14733922798E+04  0.10100000352E+00 0. -1.
</event>
<event>
 5   0  0.1055179E-06  0.2601083E+04  0.7818609E-02  0.8367833E-01
       -1   -1    0    0    0  501  0.00000000000E+00  0.00000000000E+00  0.89931608679E+03  0.89931608680E+03  0.50400001928E-02 0. -1.
        1   -1    0    0  501    0  0.00000000000E+00  0.00000000000E+00 -0.18807717362E+04  0.18807717362E+04  0.50400001928E-02 0.  1.
    10030    2    1    2    0    0  0.00000000000E+00  0.00000000000E+00 -0.98145564945E+03  0.27800878230E+04  0.26010830652E+04 0.  0.
        3    1    3    3  502    0  0.14217051191E+03 -0.10914418670E+04  0.24973370855E+03  0.11286384448E+04  0.10100000352E+00 0. -1.
       -3    1    3    3    0  502 -0.14217051191E+03  0.10914418670E+04 -0.12311893580E+04  0.16514493783E+04  0.10100000352E+00 0.  1.
</event>
<event>
 5   0  0.2705807E-06  0.2590528E+04  0.7818609E-02  0.8371426E-01
        2   -1    0    0  501    0  0.00000000000E+00  0.00000000000E+00  0.20408221041E+04  0.20408221041E+04  0.25500000920E-02 0. -1.
       -2   -1    0    0    0  501  0.00000000000E+00  0.00000000000E+00 -0.82207491947E+03  0.82207491947E+03  0.25500000920E-02 0.  1.
    10030    2    1    2    0    0  0.00000000000E+00  0.00000000000E+00  0.12187471846E+04  0.28628970236E+04  0.25905278743E+04 0.  0.
        4    1    3    3  502    0  0.99155205048E+02 -0.74133057513E+03  0.17780585398E+04  0.19289625606E+04  0.12699999809E+01 0. -1.
       -4    1    3    3    0  502 -0.99155205048E+02  0.74133057513E+03 -0.55931135513E+03  0.93393446301E+03  0.12699999809E+01 0.  1.
</event>
<event>
 5   0  0.2586775E-06  0.2629974E+04  0.7818609E-02  0.8358090E-01
        2   -1    0    0  501    0  0.00000000000E+00  0.00000000000E+00  0.16795238603E+04  0.16795238603E+04  0.25500000920E-02 0. -1.
       -2   -1    0    0    0  501  0.00000000000E+00  0.00000000000E+00 -0.10295721204E+04  0.10295721204E+04  0.25500000920E-02 0.  1.
    10030    2    1    2    0    0  0.00000000000E+00  0.00000000000E+00  0.64995173987E+03  0.27090959807E+04  0.26299741003E+04 0.  0.
        1    1    3    3  502    0 -0.98813160878E+02 -0.12396261714E+04 -0.11538243909E+03  0.12488995928E+04  0.50400001928E-02 0. -1.
       -1    1    3    3    0  502  0.98813160878E+02  0.12396261714E+04  0.76533417896E+03  0.14601963879E+04  0.50400001928E-02 0.  1.
</event>
<event>
 5   0  0.9197000E-07  0.2599929E+04  0.7818609E-02  0.8368225E-01
        4   -1    0    0  501    0  0.00000000000E+00  0.00000000000E+00  0.18500874003E+04  0.18500878362E+04  0.12699999809E+01 0. -1.
       -4   -1    0    0    0  501  0.00000000000E+00  0.00000000000E+00 -0.91341933028E+03  0.91342021317E+03  0.12699999809E+01 0.  1.
    10030    2    1    2    0    0  0.00000000000E+00  0.00000000000E+00  0.93666807003E+03  0.27635080494E+04  0.25999287809E+04 0.  0.
        4    1    3    3  502    0  0.84557596274E+03  0.91126268772E+03  0.64275449702E+02  0.12448017276E+04  0.12699999809E+01 0.  1.
       -4    1    3    3    0  502 -0.84557596274E+03 -0.91126268772E+03  0.87239262033E+03  0.15187063217E+04  0.12699999809E+01 0. -1.
</event>
<event>
 5   0  0.1100104E-06  0.2599018E+04  0.7818609E-02  0.8368535E-01
       -1   -1    0    0    0  501  0.00000000000E+00  0.00000000000E+00  0.17184260216E+04  0.17184260217E+04  0.50400001928E-02 0. -1.
        1   -1    0    0  501    0  0.00000000000E+00  0.00000000000E+00 -0.98271537524E+03  0.98271537525E+03  0.50400001928E-02 0.  1.
    10030    2    1    2    0    0  0.00000000000E+00  0.00000000000E+00  0.73571064640E+03  0.27011413969E+04  0.25990180243E+04 0.  0.
        4    1    3    3  502    0  0.86498921428E+03  0.84454331038E+03 -0.12759685429E+03  0.12156242487E+04  0.12699999809E+01 0.  1.
       -4    1    3    3    0  502 -0.86498921428E+03 -0.84454331038E+03  0.86330750070E+03  0.14855171482E+04  0.12699999809E+01 0. -1.
</event>
<event>
 5   0  0.1088757E-06  0.2603694E+04  0.7818609E-02  0.8366948E-01
       -1   -1    0    0    0  501  0.00000000000E+00  0.00000000000E+00  0.12440487134E+04  0.12440487134E+04  0.50400001928E-02 0. -1.
        1   -1    0    0  501    0  0.00000000000E+00  0.00000000000E+00 -0.13623304893E+04  0.13623304893E+04  0.50400001928E-02 0.  1.
    10030    2    1    2    0    0  0.00000000000E+00  0.00000000000E+00 -0.11828177592E+03  0.26063792028E+04  0.26036939087E+04 0.  0.
        5    1    3    3  502    0  0.10447547052E+04  0.67804817094E+03  0.32009238906E+03  0.12859793714E+04  0.46999998093E+01 0. -1.
       -5    1    3    3    0  502 -0.10447547052E+04 -0.67804817094E+03 -0.43837416498E+03  0.13203998314E+04  0.46999998093E+01 0.  1.
</event>
<event>
 5   0  0.2746631E-06  0.2590738E+04  0.7818609E-02  0.8371354E-01
       -2   -1    0    0    0  501  0.00000000000E+00  0.00000000000E+00  0.93729344656E+03  0.93729344657E+03  0.25500000920E-02 0. -1.
        2   -1    0    0  501    0  0.00000000000E+00  0.00000000000E+00 -0.17902408018E+04  0.17902408018E+04  0.25500000920E-02 0.  1.
    10030    2    1    2    0    0  0.00000000000E+00  0.00000000000E+00 -0.85294735524E+03  0.27275342484E+04  0.25907380966E+04 0.  0.
        2    1    3    3  502    0  0.80270086663E+03  0.57357084798E+03 -0.13102435941E+04  0.16401373342E+04  0.25500000920E-02 0.  1.
       -2    1    3    3    0  502 -0.80270086663E+03 -0.57357084798E+03  0.45729623889E+03  0.10873969142E+04  0.25500000920E-02 0. -1.
</event>
<event>
 5   0  0.1100104E-06  0.2592482E+04  0.7818609E-02  0.8370759E-01
       -1   -1    0    0    0  501  0.00000000000E+00  0.00000000000E+00  0.88752015220E+03  0.88752015221E+03  0.50400001928E-02 0.  1.
        1   -1    0    0  501    0  0.00000000000E+00  0.00000000000E+00 -0.18931854722E+04  0.18931854723E+04  0.50400001928E-02 0. -1.
    10030    2    1    2    0    0  0.00000000000E+00  0.00000000000E+00 -0.10056653200E+04  0.27807056245E+04  0.25924816362E+04 0.  0.
        4    1    3    3  502    0 -0.89705054379E+03 -0.11780519464E+03 -0.14984845456E+04  0.17504385989E+04  0.12699999809E+01 0. -1.
       -4    1    3    3    0  502  0.89705054379E+03  0.11780519464E+03  0.49281922560E+03  0.10302670256E+04  0.12699999809E+01 0.  1.
</event>
<event>
 5   0  0.2623368E-06  0.2607900E+04  0.7818609E-02  0.8365523E-01
       -2   -1    0    0    0  501  0.00000000000E+00  0.00000000000E+00  0.12755296594E+04  0.12755296594E+04  0.25500000920E-02 0.  1.
        2   -1    0    0  501    0  0.00000000000E+00  0.00000000000E+00 -0.13330038220E+04  0.13330038220E+04  0.25500000920E-02 0. -1.
    10030    2    1    2    0    0  0.00000000000E+00  0.00000000000E+00 -0.57474162543E+02  0.26085334814E+04  0.26079002367E+04 0.  0.
        5    1    3    3  502    0  0.11695088628E+04  0.15121945414E+03 -0.58533020994E+03  0.13165302306E+04  0.46999998093E+01 0.  1.
       -5    1    3    3    0  502 -0.11695088628E+04 -0.15121945414E+03  0.52785604740E+03  0.12920032508E+04  0.46999998093E+01 0. -1.
</event>
<event>
 5   0  0.1088757E-06  0.2597464E+04  0.7818609E-02  0.8369063E-01
       -1   -1    0    0    0  501  0.00000000000E+00  0.00000000000E+00  0.16356201793E+04  0.16356201793E+04  0.50400001928E-02 0. -1.
        1   -1    0    0  501    0  0.00000000000E+00  0.00000000000E+00 -0.10312324221E+04  0.10312324222E+04  0.50400001928E-02 0.  1.
    10030    2    1    2    0    0  0.00000000000E+00  0.00000000000E+00  0.60438775713E+03  0.26668526014E+04  0.25974638086E+04 0.  0.
        5    1    3    3  502    0 -0.12167638754E+04  0.73737789325E+02  0.76219257507E+03  0.14376756246E+04  0.46999998093E+01 0. -1.
       -5    1    3    3    0  502  0.12167638754E+04 -0.73737789325E+02 -0.15780481794E+03  0.12291769769E+04  0.46999998093E+01 0.  1.
</event>
<event>
 5   0  0.1032076E-06  0.2603194E+04  0.7818609E-02  0.8367117E-01
        1   -1    0    0  501    0  0.00000000000E+00  0.00000000000E+00  0.20325291975E+04  0.20325291975E+04  0.50400001928E-02 0. -1.
       -1   -1    0    0    0  501  0.00000000000E+00  0.00000000000E+00 -0.83352042740E+03  0.83352042741E+03  0.50400001928E-02 0.  1.
    10030    2    1    2    0    0  0.00000000000E+00  0.00000000000E+00  0.11990087701E+04  0.28660496249E+04  0.26031938886E+04 0.  0.
        1    1    3    3  502    0  0.32408415817E+03 -0.12321865174E+04  0.89253827213E+03  0.15556152231E+04  0.50400001928E-02 0. -1.
       -1    1    3    3    0  502 -0.32408415817E+03  0.12321865174E+04  0.30647049798E+03  0.13104344018E+04  0.50400001928E-02 0.  1.
</event>
<event>
 5   0  0.2746631E-06  0.2599749E+04  0.7818609E-02  0.8368286E-01
        2   -1    0    0  501    0  0.00000000000E+00  0.00000000000E+00  0.13596075475E+04  0.13596075475E+04  0.25500000920E-02 0. -1.
       -2   -1    0    0    0  501  0.00000000000E+00  0.00000000000E+00 -0.12427661369E+04  0.12427661369E+04  0.25500000920E-02 0.  1.
    10030    2    1    2    0    0  0.00000000000E+00  0.00000000000E+00  0.11684141060E+03  0.26023736844E+04  0.25997493876E+04 0.  0.
        2    1    3    3  502    0  0.60673665102E+03 -0.97437403204E+03 -0.55222795689E+03  0.12737699299E+04  0.25500000920E-02 0. -1.
       -2    1    3    3    0  502 -0.60673665102E+03  0.97437403204E+03  0.66906936749E+03  0.13286037545E+04  0.25500000920E-02 0.  1.
</event>
<event>
 5   0  0.1088757E-06  0.2614729E+04  0.7818609E-02  0.8363215E-01
        1   -1    0    0  501    0  0.00000000000E+00  0.00000000000E+00  0.19494507621E+04  0.19494507621E+04  0.50400001928E-02 0.  1.
       -1   -1    0    0    0  501  0.00000000000E+00  0.00000000000E+00 -0.87676066088E+03  0.87676066090E+03  0.50400001928E-02 0. -1.
    10030    2    1    2    0    0  0.00000000000E+00  0.00000000000E+00  0.10726901012E+04  0.28262114230E+04  0.26147288491E+04 0.  0.
        5    1    3    3  502    0 -0.12366119907E+03  0.90715851277E+03 -0.47238474044E+03  0.10302417641E+04  0.46999998093E+01 0. -1.
       -5    1    3    3    0  502  0.12366119907E+03 -0.90715851277E+03  0.15450748416E+04  0.17959696589E+04  0.46999998093E+01 0.  1.
</event>
<event>
 5   0  0.2586775E-06  0.2603720E+04  0.7818609E-02  0.8366939E-01
       -2   -1    0    0    0  501  0.00000000000E+00  0.00000000000E+00  0.11973639139E+04  0.11973639139E+04  0.25500000920E-02 0.  1.
        2   -1    0    0  501    0  0.00000000000E+00  0.00000000000E+00 -0.14154754978E+04  0.14154754978E+04  0.25500000920E-02 0. -1.
    10030    2    1    2    0    0  0.00000000000E+00  0.00000000000E+00 -0.21811158384E+03  0.26128394117E+04  0.26037198636E+04 0.  0.
        1    1    3    3  502    0 -0.86317650764E+03 -0.89604894664E+03  0.27551208924E+03  0.12743171934E+04  0.50400001928E-02 0. -1.
       -1    1    3    3    0  502  0.86317650764E+03  0.89604894664E+03 -0.49362367308E+03  0.13385222183E+04  0.50400001928E-02 0.  1.
</event>
<event>
 5   0  0.1032076E-06  0.2602331E+04  0.7818609E-02  0.8367410E-01
       -1   -1    0    0    0  501  0.00000000000E+00  0.00000000000E+00  0.65450403185E+03  0.65450403187E+03  0.50400001928E-02 0. -1.
        1   -1    0    0  501    0  0.00000000000E+00  0.00000000000E+00 -0.25867405780E+04  0.25867405780E+04  0.50400001928E-02 0.  1.
    10030    2    1    2    0    0  0.00000000000E+00  0.00000000000E+00 -0.19322365461E+04  0.32412446098E+04  0.26023313683E+04 0.  0.
        1    1    3    3  502    0  0.58552334174E+02  0.10182922793E+04  0.40120139594E+02  0.10207630320E+04  0.50400001928E-02 0. -1.
       -1    1    3    3    0  502 -0.58552334174E+02 -0.10182922793E+04 -0.19723566857E+04  0.22204815778E+04  0.50400001928E-02 0.  1.
</event>
<event>
 5   0  0.1122628E-06  0.2592166E+04  0.7818609E-02  0.8370867E-01
       -1   -1    0    0    0  501  0.00000000000E+00  0.00000000000E+00  0.93381148768E+03  0.93381148769E+03  0.50400001928E-02 0. -1.
        1   -1    0    0  501    0  0.00000000000E+00  0.00000000000E+00 -0.17988977731E+04  0.17988977731E+04  0.50400001928E-02 0.  1.
    10030    2    1    2    0    0  0.00000000000E+00  0.00000000000E+00 -0.86508628546E+03  0.27327092608E+04  0.25921662028E+04 0.  0.
        2    1    3    3  502    0 -0.18744234025E+03  0.11924738194E+04 -0.93004371441E+03  0.15238470237E+04  0.25500000920E-02 0.  1.
       -2    1    3    3    0  502  0.18744234025E+03 -0.11924738194E+04  0.64957428954E+02  0.12088622372E+04  0.25500000920E-02 0. -1.
</event>
<event>
 5   0  0.2705807E-06  0.2610992E+04  0.7818609E-02  0.8364477E-01
       -2   -1    0    0    0  501  0.00000000000E+00  0.00000000000E+00  0.96152969698E+03  0.96152969698E+03  0.25500000920E-02 0. -1.
        2   -1    0    0  501    0  0.00000000000E+00  0.00000000000E+00 -0.17725092051E+04  0.17725092051E+04  0.25500000920E-02 0.  1.
    10030    2    1    2    0    0  0.00000000000E+00  0.00000000000E+00 -0.81097950816E+03  0.27340389021E+04  0.26109923316E+04 0.  0.
        4    1    3    3  502    0 -0.10178837460E+04  0.15276393386E+03 -0.12463879588E+04  0.16164494105E+04  0.12699999809E+01 0.  1.
       -4    1    3    3    0  502  0.10178837460E+04 -0.15276393386E+03  0.43540845065E+03  0.11175894916E+04  0.12699999809E+01 0. -1.
</event>
<event>
 5   0  0.2746631E-06  0.2599295E+04  0.7818609E-02  0.8368441E-01
        2   -1    0    0  501    0  0.00000000000E+00  0.00000000000E+00  0.24435314778E+04  0.24435314778E+04  0.25500000920E-02 0.  1.
       -2   -1    0    0    0  501  0.00000000000E+00  0.00000000000E+00 -0.69124668528E+03  0.69124668528E+03  0.25500000920E-02 0. -1.
    10030    2    1    2    0    0  0.00000000000E+00  0.00000000000E+00  0.17522847925E+04  0.31347781631E+04  0.25992945461E+04 0.  0.
        2    1    3    3  502    0 -0.20836916187E+03 -0.12647028887E+04  0.61694276946E+03  0.14225011371E+04  0.25500000920E-02 0. -1.
       -2    1    3    3    0  502  0.20836916187E+03  0.12647028887E+04  0.11353420230E+04  0.17122770260E+04  0.25500000920E-02 0.  1.
</event>
<event>
 5   0  0.2705807E-06  0.2597456E+04  0.7818609E-02  0.8369066E-01
       -2   -1    0    0    0  501  0.00000000000E+00  0.00000000000E+00  0.10672415113E+04  0.10672415113E+04  0.25500000920E-02 0.  1.
        2   -1    0    0  501    0  0.00000000000E+00  0.00000000000E+00 -0.15804245433E+04  0.15804245433E+04  0.25500000920E-02 0. -1.
    10030    2    1    2    0    0  0.00000000000E+00  0.00000000000E+00 -0.51318303201E+03  0.26476660546E+04  0.25974562003E+04 0.  0.
        4    1    3    3  502    0  0.35490851376E+03  0.40759757131E+03 -0.14603500357E+04  0.15571511400E+04  0.12699999809E+01 0. -1.
       -4    1    3    3    0  502 -0.35490851376E+03 -0.40759757131E+03  0.94716700364E+03  0.10905149146E+04  0.12699999809E+01 0.  1.
</event>
<event>
 5   0  0.1122628E-06  0.2598408E+04  0.7818609E-02  0.8368742E-01
        1   -1    0    0  501    0  0.00000000000E+00  0.00000000000E+00  0.11113926789E+04  0.11113926789E+04  0.50400001928E-02 0. -1.
       -1   -1    0    0    0  501  0.00000000000E+00  0.00000000000E+00 -0.15187529813E+04  0.15187529813E+04  0.50400001928E-02 0.  1.
    10030    2    1    2    0    0  0.00000000000E+00  0.00000000000E+00 -0.40736030247E+03  0.26301456602E+04  0.25984079314E+04 0.  0.
        2    1    3    3  502    0 -0.54947778743E+03  0.99799012725E+03 -0.83582464358E+03  0.14129801725E+04  0.25500000920E-02 0.  1.
       -2    1    3    3    0  502  0.54947778743E+03 -0.99799012725E+03  0.42846434111E+03  0.12171654878E+04  0.25500000920E-02 0. -1.
</event>
<event>
 5   0  0.2586775E-06  0.2624254E+04  0.7818609E-02  0.8360009E-01
        2   -1    0    0  501    0  0.00000000000E+00  0.00000000000E+00  0.14398623700E+04  0.14398623700E+04  0.25500000920E-02 0. -1.
       -2   -1    0    0    0  501  0.00000000000E+00  0.00000000000E+00 -0.11957237063E+04  0.11957237063E+04  0.25500000920E-02 0.  1.
    10030    2    1    2    0    0  0.00000000000E+00  0.00000000000E+00  0.24413866369E+03  0.26355860763E+04  0.26242542328E+04 0.  0.
        1    1    3    3  502    0 -0.79042013623E+03 -0.39360164872E+03 -0.85268404555E+03  0.12275000331E+04  0.50400001928E-02 0.  1.
       -1    1    3    3    0  502  0.79042013623E+03  0.39360164872E+03  0.10968227092E+04  0.14080860432E+04  0.50400001928E-02 0. -1.
</event>
<event>
 5   0  0.1100104E-06  0.2600540E+04  0.7818609E-02  0.8368018E-01
       -1   -1    0    0    0  501  0.00000000000E+00  0.00000000000E+00  0.61221845440E+03  0.61221845442E+03  0.50400001928E-02 0. -1.
        1   -1    0    0  501    0  0.00000000000E+00  0.00000000000E+00 -0.27615990067E+04  0.27615990068E+04  0.50400001928E-02 0.  1.
    10030    2    1    2    0    0  0.00000000000E+00  0.00000000000E+00 -0.21493805523E+04  0.33738174612E+04  0.26005398483E+04 0.  0.
        4    1    3    3  502    0 -0.84402772927E+03  0.24814630102E+03 -0.23168612164E+04  0.24782669153E+04  0.12699999809E+01 0.  1.
       -4    1    3    3    0  502  0.84402772927E+03 -0.24814630102E+03  0.16748066405E+03  0.89555054587E+03  0.12699999809E+01 0. -1.
</event>
<event>
 5   0  0.1122628E-06  0.2599802E+04  0.7818609E-02  0.8368268E-01
        1   -1    0    0  501    0  0.00000000000E+00  0.00000000000E+00  0.10612876952E+04  0.10612876952E+04  0.50400001928E-02 0.  1.
       -1   -1    0    0    0  501  0.00000000000E+00  0.00000000000E+00 -0.15921631767E+04  0.15921631767E+04  0.50400001928E-02 0. -1.
    10030    2    1    2    0    0  0.00000000000E+00  0.00000000000E+00 -0.53087548152E+03  0.26534508720E+04  0.25998024450E+04 0.  0.
        2    1    3    3  502    0 -0.41928466722E+03 -0.72445734002E+03  0.74962275921E+03  0.11236424479E+04  0.25500000920E-02 0.  1.
       -2    1    3    3    0  502  0.41928466722E+03  0.72445734002E+03 -0.12804982407E+04  0.15298084240E+04  0.25500000920E-02 0. -1.
</event>
<event>
 5   0  0.1032076E-06  0.2596134E+04  0.7818609E-02  0.8369516E-01
       -1   -1    0    0    0  501  0.00000000000E+00  0.00000000000E+00  0.16067367197E+04  0.16067367197E+04  0.50400001928E-02 0.  1.
        1   -1    0    0  501    0  0.00000000000E+00  0.00000000000E+00 -0.10486956805E+04  0.10486956806E+04  0.50400001928E-02 0. -1.
    10030    2    1    2    0    0  0.00000000000E+00  0.00000000000E+00  0.55804103915E+03  0.26554324002E+04  0.25961339393E+04 0.  0.
        1    1    3    3  502    0  0.28873889903E+03  0.38431871866E+03 -0.95430138059E+03  0.10685327109E+04  0.50400001928E-02 0. -1.
       -1    1    3    3    0  502 -0.28873889903E+03 -0.38431871866E+03  0.15123424197E+04  0.15868996893E+04  0.50400001928E-02 0.  1.
</event>
<event>
 5   0  0.2586775E-06  0.2600676E+04  0.7818609E-02  0.8367972E-01
        2   -1    0    0  501    0  0.00000000000E+00  0.00000000000E+00  0.19558462291E+04  0.19558462291E+04  0.25500000920E-02 0.  1.
       -2   -1    0    0    0  501  0.00000000000E+00  0.00000000000E+00 -0.86452521338E+03  0.86452521339E+03  0.25500000920E-02 0. -1.
    10030    2    1    2    0    0  0.00000000000E+00  0.00000000000E+00  0.10913210157E+04  0.28203714425E+04  0.26006755880E+04 0.  0.
        1    1    3    3  502    0  0.83851806516E+03 -0.91736245724E+03  0.96033905618E+03  0.15706423929E+04  0.50400001928E-02 0.  1.
       -1    1    3    3    0  502 -0.83851806516E+03  0.91736245724E+03  0.13098195952E+03  0.12497290496E+04  0.50400001928E-02 0. -1.
</event>
<event>
 5   0  0.1055179E-06  0.2602053E+04  0.7818609E-02  0.8367504E-01
       -1   -1    0    0    0  501  0.00000000000E+00  0.00000000000E+00  0.11968042363E+04  0.11968042363E+04  0.50400001928E-02 0. -1.
        1   -1    0    0  501    0  0.00000000000E+00  0.00000000000E+00 -0.14143246410E+04  0.14143246410E+04  0.50400001928E-02 0.  1.
    10030    2    1    2    0    0  0.00000000000E+00  0.00000000000E+00 -0.21752040473E+03  0.26111288772E+04  0.26020528217E+04 0.  0.
        3    1    3    3  502    0  0.48714757443E+03 -0.54735073570E+03  0.97005436979E+03  0.12156936611E+04  0.10100000352E+00 0. -1.
       -3    1    3    3    0  502 -0.48714757443E+03  0.54735073570E+03 -0.11875747745E+04  0.13954352161E+04  0.10100000352E+00 0.  1.
</event>
<event>
 5   0  0.1088757E-06  0.2593301E+04  0.7818609E-02  0.8370480E-01
        1   -1    0    0  501    0  0.00000000000E+00  0.00000000000E+00  0.10849395938E+04  0.10849395938E+04  0.50400001928E-02 0.  1.
       -1   -1    0    0    0  501  0.00000000000E+00  0.00000000000E+00 -0.15496736471E+04  0.15496736471E+04  0.50400001928E-02 0. -1.
    10030    2    1    2    0    0  0.00000000000E+00  0.00000000000E+00 -0.46473405327E+03  0.26346132408E+04  0.25933008288E+04 0.  0.
        5    1    3    3  502    0  0.90317795420E+03 -0.13217623201E+03 -0.11679497337E+04  0.14823392472E+04  0.46999998093E+01 0. -1.
       -5    1    3    3    0  502 -0.90317795420E+03  0.13217623201E+03  0.70321568044E+03  0.11522739937E+04  0.46999998093E+01 0.  1.
</event>
<event>
 5   0  0.1055179E-06  0.2595784E+04  0.7818609E-02  0.8369635E-01
       -1   -1    0    0    0  501  0.00000000000E+00  0.00000000000E+00  0.81779560394E+03  0.81779560395E+03  0.50400001928E-02 0.  1.
        1   -1    0    0  501    0  0.00000000000E+00  0.00000000000E+00 -0.20598342473E+04  0.20598342473E+04  0.50400001928E-02 0. -1.
    10030    2    1    2    0    0  0.00000000000E+00  0.00000000000E+00 -0.12420386433E+04  0.28776298512E+04  0.25957838063E+04 0.  0.
        3    1    3    3  502    0 -0.89377889631E+03 -0.52917804298E+03 -0.14837563591E+04  0.18111883006E+04  0.10100000352E+00 0. -1.
       -3    1    3    3    0  502  0.89377889631E+03  0.52917804298E+03  0.24171771580E+03  0.10664415507E+04  0.10100000352E+00 0.  1.
</event>
<event>
 5   0  0.2746631E-06  0.2599229E+04  0.7818609E-02  0.8368463E-01
        2   -1    0    0  501    0  0.00000000000E+00  0.00000000000E+00  0.26877959057E+04  0.26877959057E+04  0.25500000920E-02 0.  1.
       -2   -1    0    0    0  501  0.00000000000E+00  0.00000000000E+00 -0.62839527632E+03  0.62839527633E+03  0.25500000920E-02 0. -1.
    10030    2    1    2    0    0  0.00000000000E+00  0.00000000000E+00  0.20594006294E+04  0.33161911821E+04  0.25992293095E+04 0.  0.
        2    1    3    3  502    0  0.80132521381E+03 -0.10106688984E+04  0.82626730024E+03  0.15317608730E+04  0.25500000920E-02 0. -1.
       -2    1    3    3    0  502 -0.80132521381E+03  0.10106688984E+04  0.12331333292E+04  0.17844303091E+04  0.25500000920E-02 0.  1.
</event>
<event>
 5   0  0.2746631E-06  0.2598767E+04  0.7818609E-02  0.8368620E-01
        2   -1    0    0  501    0  0.00000000000E+00  0.00000000000E+00  0.13288248017E+04  0.13288248017E+04  0.25500000920E-02 0. -1.
       -2   -1    0    0    0  501  0.00000000000E+00  0.00000000000E+00 -0.12705941744E+04  0.12705941744E+04  0.25500000920E-02 0.  1.
    10030    2    1    2    0    0  0.00000000000E+00  0.00000000000E+00  0.58230627329E+02  0.25994189761E+04  0.25987666704E+04 0.  0.
        2    1    3    3  502    0  0.13967998431E+02  0.11195767470E+04 -0.63040582430E+03  0.12849352904E+04  0.25500000920E-02 0.  1.
       -2    1    3    3    0  502 -0.13967998431E+02 -0.11195767470E+04  0.68863645163E+03  0.13144836857E+04  0.25500000920E-02 0. -1.
</event>
<event>
 5   0  0.2705807E-06  0.2599418E+04  0.7818609E-02  0.8368399E-01
       -2   -1    0    0    0  501  0.00000000000E+00  0.00000000000E+00  0.13166558446E+04  0.13166558446E+04  0.25500000920E-02 0.  1.
        2   -1    0    0  501    0  0.00000000000E+00  0.00000000000E+00 -0.12829806640E+04  0.12829806640E+04  0.25500000920E-02 0. -1.
    10030    2    1    2    0    0  0.00000000000E+00  0.00000000000E+00  0.33675180570E+02  0.25996365086E+04  0.25994183886E+04 0.  0.
        4    1    3    3  502    0  0.44207892168E+03 -0.48659803913E+03  0.11381055862E+04  0.13143429396E+04  0.12699999809E+01 0.  1.
       -4    1    3    3    0  502 -0.44207892168E+03  0.48659803913E+03 -0.11044304056E+04  0.12852935690E+04  0.12699999809E+01 0. -1.
</event>
<event>
 5   0  0.9197000E-07  0.2588298E+04  0.7818609E-02  0.8372187E-01
        3   -1    0    0  501    0  0.00000000000E+00  0.00000000000E+00  0.17802590629E+04  0.17802590658E+04  0.10100000352E+00 0. -1.
       -3   -1    0    0    0  501  0.00000000000E+00  0.00000000000E+00 -0.94077391257E+03  0.94077391800E+03  0.10100000352E+00 0.  1.
    10030    2    1    2    0    0  0.00000000000E+00  0.00000000000E+00  0.83948515036E+03  0.27210329838E+04  0.25882977381E+04 0.  0.
        2    1    3    3  502    0 -0.10368644796E+04  0.67153291148E+03  0.14245880301E+02  0.12354138357E+04  0.25500000920E-02 0.  1.
       -2    1    3    3    0  502  0.10368644796E+04 -0.67153291148E+03  0.82523927006E+03  0.14856191481E+04  0.25500000920E-02 0. -1.
</event>
<event>
 5   0  0.1055179E-06  0.2544617E+04  0.7818609E-02  0.8387261E-01
       -1   -1    0    0    0  501  0.00000000000E+00  0.00000000000E+00  0.11850746416E+04  0.11850746416E+04  0.50400001928E-02 0.  1.
        1   -1    0    0  501    0  0.00000000000E+00  0.00000000000E+00 -0.13659639194E+04  0.13659639194E+04  0.50400001928E-02 0. -1.
    10030    2    1    2    0    0  0.00000000000E+00  0.00000000000E+00 -0.18088927784E+03  0.25510385610E+04  0.25446172225E+04 0.  0.
        3    1    3    3  502    0 -0.28717472933E+03 -0.16088680038E+03 -0.13225355386E+04  0.13628844958E+04  0.10100000352E+00 0. -1.
       -3    1    3    3    0  502  0.28717472933E+03  0.16088680038E+03  0.11416462608E+04  0.11881540652E+04  0.10100000352E+00 0.  1.
</event>
<event>
 5   0  0.1100104E-06  0.2595342E+04  0.7818609E-02  0.8369785E-01
       -1   -1    0    0    0  501  0.00000000000E+00  0.00000000000E+00  0.12940619672E+04  0.12940619672E+04  0.50400001928E-02 0.  1.
        1   -1    0    0  501    0  0.00000000000E+00  0.00000000000E+00 -0.13012897545E+04  0.13012897545E+04  0.50400001928E-02 0. -1.
    10030    2    1    2    0    0  0.00000000000E+00  0.00000000000E+00 -0.72277872948E+01  0.25953517217E+04  0.25953416574E+04 0.  0.
        4    1    3    3  502    0 -0.63909577160E+03 -0.91912221622E+03 -0.65990822823E+03  0.12995035730E+04  0.12699999809E+01 0. -1.
       -4    1    3    3    0  502  0.63909577160E+03  0.91912221622E+03  0.65268044094E+03  0.12958481487E+04  0.12699999809E+01 0.  1.
</event>
<event>
 5   0  0.2623368E-06  0.2583647E+04  0.7818609E-02  0.8373777E-01
       -2   -1    0    0    0  501  0.00000000000E+00  0.00000000000E+00  0.85169786444E+03  0.85169786444E+03  0.25500000920E-02 0. -1.
        2   -1    0    0  501    0  0.00000000000E+00  0.00000000000E+00 -0.19593899735E+04  0.19593899735E+04  0.25500000920E-02 0.  1.
    10030    2    1    2    0    0  0.00000000000E+00  0.00000000000E+00 -0.11076921091E+04  0.28110878379E+04  0.25836472329E+04 0.  0.
        5    1    3    3  502    0  0.91351814822E+03 -0.82814980489E+03 -0.13465238775E+03  0.12403631976E+04  0.46999998093E+01 0. -1.
       -5    1    3    3    0  502 -0.91351814822E+03  0.82814980489E+03 -0.97303972131E+03  0.15707246403E+04  0.46999998093E+01 0.  1.
</event>
<event>
 5   0  0.1055179E-06  0.2603218E+04  0.7818609E-02  0.8367109E-01
        1   -1    0    0  501    0  0.00000000000E+00  0.00000000000E+00  0.27479494910E+04  0.27479494910E+04  0.50400001928E-02 0.  1.
       -1   -1    0    0    0  501  0.00000000000E+00  0.00000000000E+00 -0.61652726092E+03  0.61652726094E+03  0.50400001928E-02 0. -1.
    10030    2    1    2    0    0  0.00000000000E+00  0.00000000000E+00  0.21314222301E+04  0.33644767520E+04  0.26032178341E+04 0.  0.
        3    1    3    3  502    0 -0.59807489132E+03 -0.50073970488E+03 -0.28099343326E+03  0.82909055441E+03  0.10100000352E+00 0. -1.
       -3    1    3    3    0  502  0.59807489132E+03  0.50073970488E+03  0.24124156634E+04  0.25353861976E+04  0.10100000352E+00 0.  1.
</event>
<event>
 5   0  0.1122628E-06  0.2604854E+04  0.7818609E-02  0.8366554E-01
        1   -1    0    0  501    0  0.00000000000E+00  0.00000000000E+00  0.14916559476E+04  0.14916559476E+04  0.50400001928E-02 0. -1.
       -1   -1    0    0    0  501  0.00000000000E+00  0.00000000000E+00 -0.11372035039E+04  0.11372035039E+04  0.50400001928E-02 0.  1.
    10030    2    1    2    0    0  0.00000000000E+00  0.00000000000E+00  0.35445244364E+03  0.26288594515E+04  0.26048542149E+04 0.  0.
        2    1    3    3  502    0 -0.10791563333E+04 -0.29435415042E+03 -0.49607534703E+03  0.12236476240E+04  0.25500000920E-02 0.  1.
       -2    1    3    3    0  502  0.10791563333E+04  0.29435415042E+03  0.85052779066E+03  0.14052118276E+04  0.25500000920E-02 0. -1.
</event>
<event>
 5   0  0.2820028E-06  0.2600090E+04  0.7818609E-02  0.8368171E-01
       -2   -1    0    0    0  501  0.00000000000E+00  0.00000000000E+00  0.10430031183E+04  0.10430031183E+04  0.25500000920E-02 0.  1.
        2   -1    0    0  501    0  0.00000000000E+00  0.00000000000E+00 -0.16204333290E+04  0.16204333290E+04  0.25500000920E-02 0. -1.
    10030    2    1    2    0    0  0.00000000000E+00  0.00000000000E+00 -0.57743021065E+03  0.26634364473E+04  0.26000900101E+04 0.  0.
        3    1    3    3  502    0  0.10192050333E+04  0.27482435509E+03 -0.10660236400E+04  0.15002378935E+04  0.10100000352E+00 0.  1.
       -3    1    3    3    0  502 -0.10192050333E+04 -0.27482435509E+03  0.48859342933E+03  0.11631985537E+04  0.10100000352E+00 0. -1.
</event>
<event>
 5   0  0.1055179E-06  0.2600874E+04  0.7818609E-02  0.8367905E-01
        1   -1    0    0  501    0  0.00000000000E+00  0.00000000000E+00  0.17708224099E+04  0.17708224099E+04  0.50400001928E-02 0. -1.
       -1   -1    0    0    0  501  0.00000000000E+00  0.00000000000E+00 -0.95500021563E+03  0.95500021564E+03  0.50400001928E-02 0.  1.
    10030    2    1    2    0    0  0.00000000000E+00  0.00000000000E+00  0.81582219425E+03  0.27258226255E+04  0.26008735327E+04 0.  0.
        3    1    3    3  502    0  0.10919628520E+04 -0.70335107593E+03  0.34121278813E+03  0.13429489131E+04  0.10100000352E+00 0.  1.
       -3    1    3    3    0  502 -0.10919628520E+04  0.70335107593E+03  0.47460940611E+03  0.13828737125E+04  0.10100000352E+00 0. -1.
</event>
<event>
 5   0  0.1055179E-06  0.2603259E+04  0.7818609E-02  0.8367095E-01
       -1   -1    0    0    0  501  0.00000000000E+00  0.00000000000E+00  0.85333184610E+03  0.85333184612E+03  0.50400001928E-02 0.  1.
        1   -1    0    0  501    0  0.00000000000E+00  0.00000000000E+00 -0.19854397192E+04  0.19854397192E+04  0.50400001928E-02 0. -1.
    10030    2    1    2    0    0  0.00000000000E+00  0.00000000000E+00 -0.11321078731E+04  0.28387715654E+04  0.26032586817E+04 0.  0.
        3    1    3    3  502    0 -0.35300362841E+03 -0.13778242905E+03  0.79185011629E+03  0.87785088500E+03  0.10100000352E+00 0.  1.
       -3    1    3    3    0  502  0.35300362841E+03  0.13778242905E+03 -0.19239579894E+04  0.19609206804E+04  0.10100000352E+00 0. -1.
</event>
<event>
 5   0  0.1055179E-06  0.2600522E+04  0.7818609E-02  0.8368024E-01
        1   -1    0    0  501    0  0.00000000000E+00  0.00000000000E+00  0.29225515390E+04  0.29225515390E+04  0.50400001928E-02 0. -1.
       -1   -1    0    0    0  501  0.00000000000E+00  0.00000000000E+00 -0.57849386190E+03  0.57849386192E+03  0.50400001928E-02 0.  1.
    10030    2    1    2    0    0  0.00000000000E+00  0.00000000000E+00  0.23440576771E+04  0.35010454009E+04  0.26005215834E+04 0.  0.
        3    1    3    3  502    0 -0.35836342924E+03  0.11307133249E+04  0.18891597437E+04  0.22306639186E+04  0.10100000352E+00 0. -1.
       -3    1    3    3    0  502  0.35836342924E+03 -0.11307133249E+04  0.45489793341E+03  0.12703814823E+04  0.10100000352E+00 0.  1.
</event>
<event>
 5   0  0.9197000E-07  0.2597720E+04  0.7818609E-02  0.8368976E-01
       -4   -1    0    0    0  501  0.00000000000E+00  0.00000000000E+00  0.17343775694E+04  0.17343780344E+04  0.12699999809E+01 0. -1.
        4   -1    0    0  501    0  0.00000000000E+00  0.00000000000E+00 -0.97270385756E+03  0.97270468664E+03  0.12699999809E+01 0.  1.
    10030    2    1    2    0    0  0.00000000000E+00  0.00000000000E+00  0.76167371189E+03  0.27070827211E+04  0.25977201572E+04 0.  0.
        4    1    3    3  502    0  0.28636195022E+02 -0.30373933605E+03  0.16965088701E+04  0.17237231724E+04  0.12699999809E+01 0. -1.
       -4    1    3    3    0  502 -0.28636195022E+02  0.30373933605E+03 -0.93483515822E+03  0.98335954863E+03  0.12699999809E+01 0.  1.
</event>
<event>
 5   0  0.1100104E-06  0.2600976E+04  0.7818609E-02  0.8367870E-01
        1   -1    0    0  501    0  0.00000000000E+00  0.00000000000E+00  0.18811945586E+04  0.18811945586E+04  0.50400001928E-02 0.  1.
       -1   -1    0    0    0  501  0.00000000000E+00  0.00000000000E+00 -0.89903965691E+03  0.89903965692E+03  0.50400001928E-02 0. -1.
    10030    2    1    2    0    0  0.00000000000E+00  0.00000000000E+00  0.98215490170E+03  0.27802342155E+04  0.26009755943E+04 0.  0.
        4    1    3    3  502    0  0.51490101484E+03  0.11868501850E+04  0.63260533813E+03  0.14401137258E+04  0.12699999809E+01 0. -1.
       -4    1    3    3    0  502 -0.51490101484E+03 -0.11868501850E+04  0.34954956357E+03  0.13401204897E+04  0.12699999809E+01 0.  1.
</event>
<event>
 5   0  0.1100104E-06  0.2596111E+04  0.7818609E-02  0.8369523E-01
       -1   -1    0    0    0  501  0.00000000000E+00  0.00000000000E+00  0.82198373470E+03  0.82198373472E+03  0.50400001928E-02 0.  1.
        1   -1    0    0  501    0  0.00000000000E+00  0.00000000000E+00 -0.20498563155E+04  0.20498563155E+04  0.50400001928E-02 0. -1.
    10030    2    1    2    0    0  0.00000000000E+00  0.00000000000E+00 -0.12278725808E+04  0.28718400502E+04  0.25961113611E+04 0.  0.
        4    1    3    3  502    0  0.10436635267E+04  0.60060873145E+03 -0.11501707501E+04  0.16651903112E+04  0.12699999809E+01 0.  1.
       -4    1    3    3    0  502 -0.10436635267E+04 -0.60060873145E+03 -0.77701830685E+02  0.12066497390E+04  0.12699999809E+01 0. -1.
</event>
<event>
 5   0  0.2820028E-06  0.2597938E+04  0.7818609E-02  0.8368902E-01
       -2   -1    0    0    0  501  0.00000000000E+00  0.00000000000E+00  0.76763720102E+03  0.76763720102E+03  0.25500000920E-02 0. -1.
        2   -1    0    0  501    0  0.00000000000E+00  0.00000000000E+00 -0.21980700262E+04  0.21980700262E+04  0.25500000920E-02 0.  1.
    10030    2    1    2    0    0  0.00000000000E+00  0.00000000000E+00 -0.14304328252E+04  0.29657072272E+04  0.25979378919E+04 0.  0.
        3    1    3    3  502    0  0.10776846724E+04  0.34565026100E+03 -0.14429941689E+04  0.18338785504E+04  0.10100000352E+00 0. -1.
       -3    1    3    3    0  502 -0.10776846724E+04 -0.34565026100E+03  0.12561343737E+02  0.11318286768E+04  0.10100000352E+00 0.  1.
</event>
<event>
 5   0  0.2705807E-06  0.2600043E+04  0.7818609E-02  0.8368187E-01
        2   -1    0    0  501    0  0.00000000000E+00  0.00000000000E+00  0.19555312560E+04  0.19555312560E+04  0.25500000920E-02 0.  1.
       -2   -1    0    0    0  501  0.00000000000E+00  0.00000000000E+00 -0.86424376407E+03  0.86424376407E+03  0.25500000920E-02 0. -1.
    10030    2    1    2    0    0  0.00000000000E+00  0.00000000000E+00  0.10912874919E+04  0.28197750200E+04  0.26000428407E+04 0.  0.
        4    1    3    3  502    0 -0.77679039753E+03 -0.85633122308E+03  0.11903101305E+04  0.16593813019E+04  0.12699999809E+01 0. -1.
       -4    1    3    3    0  502  0.77679039753E+03  0.85633122308E+03 -0.99022638601E+02  0.11603937182E+04  0.12699999809E+01 0.  1.
</event>
<event>
 5   0  0.2705807E-06  0.2603573E+04  0.7818609E-02  0.8366989E-01
       -2   -1    0    0    0  501  0.00000000000E+00  0.00000000000E+00  0.10501001365E+04  0.10501001365E+04  0.25500000920E-02 0. -1.
        2   -1    0    0  501    0  0.00000000000E+00  0.00000000000E+00 -0.16137960419E+04  0.16137960419E+04  0.25500000920E-02 0.  1.
    10030    2    1    2    0    0  0.00000000000E+00  0.00000000000E+00 -0.56369590537E+03  0.26638961784E+04  0.26035725025E+04 0.  0.
        4    1    3    3  502    0 -0.18235986222E+03 -0.12886534432E+04 -0.25358522171E+03  0.13259675312E+04  0.12699999809E+01 0.  1.
       -4    1    3    3    0  502  0.18235986222E+03  0.12886534432E+04 -0.31011068366E+03  0.13379286473E+04  0.12699999809E+01 0. -1.
</event>
<event>
 5   0  0.1088757E-06  0.2591583E+04  0.7818609E-02  0.8371066E-01
        1   -1    0    0  501    0  0.00000000000E+00  0.00000000000E+00  0.13880233142E+04  0.13880233142E+04  0.50400001928E-02 0.  1.
       -1   -1    0    0    0  501  0.00000000000E+00  0.00000000000E+00 -0.12096880680E+04  0.12096880680E+04  0.50400001928E-02 0. -1.
    10030    2    1    2    0    0  0.00000000000E+00  0.00000000000E+00  0.17833524624E+03  0.25977113822E+04  0.25915827143E+04 0.  0.
        5    1    3    3  502    0 -0.75315227485E+03 -0.10018441934E+04 -0.24043062523E+03  0.12762284719E+04  0.46999998093E+01 0. -1.
       -5    1    3    3    0  502  0.75315227485E+03  0.10018441934E+04  0.41876587148E+03  0.13214829103E+04  0.46999998093E+01 0.  1.
</event>
<event>
 5   0  0.1055179E-06  0.2605529E+04  0.7818609E-02  0.8366326E-01
        1   -1    0    0  501    0  0.00000000000E+00  0.00000000000E+00  0.11773371656E+04  0.11773371656E+04  0.50400001928E-02 0. -1.
       -1   -1    0    0    0  501  0.00000000000E+00  0.00000000000E+00 -0.14415537092E+04  0.14415537092E+04  0.50400001928E-02 0.  1.
    10030    2    1    2    0    0  0.00000000000E+00  0.00000000000E+00 -0.26421654360E+03  0.26188908747E+04  0.26055285514E+04 0.  0.
        3    1    3    3  502    0  0.22704919191E+03  0.98186569354E+03 -0.96192272642E+03  0.13931643541E+04  0.10100000352E+00 0.  1.
       -3    1    3    3    0  502 -0.22704919191E+03 -0.98186569354E+03  0.69770618282E+03  0.12257265207E+04  0.10100000352E+00 0. -1.
</event>
<event>
 5   0  0.2705807E-06  0.2604411E+04  0.7818609E-02  0.8366704E-01
        2   -1    0    0  501    0  0.00000000000E+00  0.00000000000E+00  0.12252333511E+04  0.12252333511E+04  0.25500000920E-02 0.  1.
       -2   -1    0    0    0  501  0.00000000000E+00  0.00000000000E+00 -0.13840131570E+04  0.13840131570E+04  0.25500000920E-02 0. -1.
    10030    2    1    2    0    0  0.00000000000E+00  0.00000000000E+00 -0.15877980585E+03  0.26092465081E+04  0.26044109340E+04 0.  0.
        4    1    3    3  502    0 -0.11357063542E+04 -0.44729189680E+03  0.37514674707E+03  0.12769634523E+04  0.12699999809E+01 0.  1.
       -4    1    3    3    0  502  0.11357063542E+04  0.44729189680E+03 -0.53392655292E+03  0.13322830558E+04  0.12699999809E+01 0. -1.
</event>
<event>
 5   0  0.2623368E-06  0.2600367E+04  0.7818609E-02  0.8368076E-01
        2   -1    0    0  501    0  0.00000000000E+00  0.00000000000E+00  0.80226851039E+03  0.80226851039E+03  0.25500000920E-02 0. -1.
       -2   -1    0    0    0  501  0.00000000000E+00  0.00000000000E+00 -0.21071218792E+04  0.21071218792E+04  0.25500000920E-02 0.  1.
    10030    2    1    2    0    0  0.00000000000E+00  0.00000000000E+00 -0.13048533688E+04  0.29093903896E+04  0.26003673058E+04 0.  0.
        5    1    3    3  502    0  0.66610039573E+03 -0.99526400215E+03 -0.12187569970E+04  0.17086927398E+04  0.46999998093E+01 0.  1.
       -5    1    3    3    0  502 -0.66610039573E+03  0.99526400215E+03 -0.86096371836E+02  0.12006976499E+04  0.46999998093E+01 0. -1.
</event>
<event>
 5   0  0.1088757E-06  0.2598373E+04  0.7818609E-02  0.8368754E-01
        1   -1    0    0  501    0  0.00000000000E+00  0.00000000000E+00  0.27975681642E+04  0.27975681642E+04  0.50400001928E-02 0. -1.
       -1   -1    0    0    0  501  0.00000000000E+00  0.00000000000E+00 -0.60334019534E+03  0.60334019536E+03  0.50400001928E-02 0.  1.
    10030    2    1    2    0    0  0.00000000000E+00  0.00000000000E+00  0.21942279689E+04  0.34009083596E+04  0.25983728160E+04 0.  0.
        5    1    3    3  502    0  0.73026842751E+03  0.54153067742E+03 -0.11760178089E+03  0.91673317801E+03  0.46999998093E+01 0.  1.
       -5    1    3    3    0  502 -0.73026842751E+03 -0.54153067742E+03  0.23118297498E+04  0.24841751816E+04  0.46999998093E+01 0. -1.
</event>
<event>
 5   0  0.1055179E-06  0.2566103E+04  0.7818609E-02  0.8379807E-01
        1   -1    0    0  501    0  0.00000000000E+00  0.00000000000E+00  0.24037615032E+04  0.24037615032E+04  0.50400001928E-02 0.  1.
       -1   -1    0    0    0  501  0.00000000000E+00  0.00000000000E+00 -0.68485195376E+03  0.68485195378E+03  0.50400001928E-02 0. -1.
    10030    2    1    2    0    0  0.00000000000E+00  0.00000000000E+00  0.17189095494E+04  0.30886134570E+04  0.25661026962E+04 0.  0.
        3    1    3    3  502    0  0.79080130482E+03  0.43199458158E+03 -0.23988934862E+03  0.93248749697E+03  0.10100000352E+00 0. -1.
       -3    1    3    3    0  502 -0.79080130482E+03 -0.43199458158E+03  0.19587988981E+04  0.21561259600E+04  0.10100000352E+00 0.  1.
</event>
<event>
 5   0  0.2746631E-06  0.2661475E+04  0.7818609E-02  0.8347614E-01
       -2   -1    0    0    0  501  0.00000000000E+00  0.00000000000E+00  0.58774625570E+03  0.58774625570E+03  0.25500000920E-02 0.  1.
        2   -1    0    0  501    0  0.00000000000E+00  0.00000000000E+00 -0.30129709611E+04  0.30129709611E+04  0.25500000920E-02 0. -1.
    10030    2    1    2    0    0  0.00000000000E+00  0.00000000000E+00 -0.24252247054E+04  0.36007172168E+04  0.26614750804E+04 0.  0.
        2    1    3    3  502    0 -0.52965978954E+03 -0.12207768836E+04 -0.12196042112E+04  0.18050679002E+04  0.25500000920E-02 0.  1.
       -2    1    3    3    0  502  0.52965978954E+03  0.12207768836E+04 -0.12056204942E+04  0.17956493166E+04  0.25500000920E-02 0. -1.
</event>
<event>
 5   0  0.2623368E-06  0.2586475E+04  0.7818609E-02  0.8372810E-01
       -2   -1    0    0    0  501  0.00000000000E+00  0.00000000000E+00  0.21940384220E+04  0.21940384220E+04  0.25500000920E-02 0.  1.
        2   -1    0    0  501    0  0.00000000000E+00  0.00000000000E+00 -0.76227624013E+03  0.76227624013E+03  0.25500000920E-02 0. -1.
    10030    2    1    2    0    0  0.00000000000E+00  0.00000000000E+00  0.14317621819E+04  0.29563146622E+04  0.25864750987E+04 0.  0.
        5    1    3    3  502    0 -0.80748695860E+03  0.44296027778E+03  0.17535447926E+04  0.19807045276E+04  0.46999998093E+01 0.  1.
       -5    1    3    3    0  502  0.80748695860E+03 -0.44296027778E+03 -0.32178261075E+03  0.97561013452E+03  0.46999998093E+01 0. -1.
</event>
<event>
 5   0  0.2586775E-06  0.2600570E+04  0.7818609E-02  0.8368008E-01
       -2   -1    0    0    0  501  0.00000000000E+00  0.00000000000E+00  0.75519987777E+03  0.75519987777E+03  0.25500000920E-02 0. -1.
        2   -1    0    0  501    0  0.00000000000E+00  0.00000000000E+00 -0.22387997299E+04  0.22387997299E+04  0.25500000920E-02 0.  1.
    10030    2    1    2    0    0  0.00000000000E+00  0.00000000000E+00 -0.14835998521E+04  0.29939996076E+04  0.26005701547E+04 0.  0.
        1    1    3    3  502    0 -0.56034237372E+03 -0.51695205543E+03  0.47089174771E+03  0.89608149266E+03  0.50400001928E-02 0. -1.
       -1    1    3    3    0  502  0.56034237372E+03  0.51695205543E+03 -0.19544915998E+04  0.20979181150E+04  0.50400001928E-02 0.  1.
</event>
<event>
 5   0  0.2705807E-06  0.2556830E+04  0.7818609E-02  0.8383015E-01
        2   -1    0    0  501    0  0.00000000000E+00  0.00000000000E+00  0.20667768298E+04  0.20667768298E+04  0.25500000920E-02 0.  1.
       -2   -1    0    0    0  501  0.00000000000E+00  0.00000000000E+00 -0.79076989383E+03  0.79076989383E+03  0.25500000920E-02 0. -1.
    10030    2    1    2    0    0  0.00000000000E+00  0.00000000000E+00  0.12760069360E+04  0.28575467236E+04  0.25568299860E+04 0.  0.
        4    1    3    3  502    0  0.57152314097E+03  0.11191382496E+04  0.37534260783E+03  0.13114849631E+04  0.12699999809E+01 0. -1.
       -4    1    3    3    0  502 -0.57152314097E+03 -0.11191382496E+04  0.90066432814E+03  0.15460617605E+04  0.12699999809E+01 0.  1.
</event>
<event>
 5   0  0.2623368E-06  0.2589484E+04  0.7818609E-02  0.8371782E-01
       -2   -1    0    0    0  501  0.00000000000E+00  0.00000000000E+00  0.11292205571E+04  0.11292205571E+04  0.25500000920E-02 0.  1.
        2   -1    0    0  501    0  0.00000000000E+00  0.00000000000E+00 -0.14845253889E+04  0.14845253889E+04  0.25500000920E-02 0. -1.
    10030    2    1    2    0    0  0.00000000000E+00  0.00000000000E+00 -0.35530483172E+03  0.26137459460E+04  0.25894837993E+04 0.  0.
        5    1    3    3  502    0 -0.63810606836E+03  0.35650485085E+03  0.90103230382E+03  0.11602397880E+04  0.46999998093E+01 0.  1.
       -5    1    3    3    0  502  0.63810606836E+03 -0.35650485085E+03 -0.12563371355E+04  0.14535061580E+04  0.46999998093E+01 0. -1.
</event>
<event>
 5   0  0.2820028E-06  0.2598478E+04  0.7818609E-02  0.8368718E-01
        2   -1    0    0  501    0  0.00000000000E+00  0.00000000000E+00  0.17638354893E+04  0.17638354893E+04  0.25500000920E-02 0. -1.
       -2   -1    0    0    0  501  0.00000000000E+00  0.00000000000E+00 -0.95701761900E+03  0.95701761900E+03  0.25500000920E-02 0.  1.
    10030    2    1    2    0    0  0.00000000000E+00  0.00000000000E+00  0.80681787029E+03  0.27208531083E+04  0.25984777392E+04 0.  0.
        3    1    3    3  502    0 -0.98069526009E+03 -0.54805268423E+03  0.10867511153E+04  0.15630588391E+04  0.10100000352E+00 0. -1.
       -3    1    3    3    0  502  0.98069526009E+03  0.54805268423E+03 -0.27993324497E+03  0.11577942692E+04  0.10100000352E+00 0.  1.
</event>
<event>
 5   0  0.1100104E-06  0.2594083E+04  0.7818609E-02  0.8370214E-01
        1   -1    0    0  501    0  0.00000000000E+00  0.00000000000E+00  0.10973577254E+04  0.10973577254E+04  0.50400001928E-02 0. -1.
       -1   -1    0    0    0  501  0.00000000000E+00  0.00000000000E+00 -0.15330613383E+04  0.15330613383E+04  0.50400001928E-02 0.  1.
    10030    2    1    2    0    0  0.00000000000E+00  0.00000000000E+00 -0.43570361291E+03  0.26304190638E+04  0.25940830389E+04 0.  0.
        4    1    3    3  502    0 -0.44277502618E+03 -0.67645458235E+03  0.81059082275E+03  0.11448579041E+04  0.12699999809E+01 0. -1.
       -4    1    3    3    0  502  0.44277502618E+03  0.67645458235E+03 -0.12462944357E+04  0.14855611596E+04  0.12699999809E+01 0.  1.
</event>
<event>
 5   0  0.2623368E-06  0.2597114E+04  0.7818609E-02  0.8369182E-01
        2   -1    0    0  501    0  0.00000000000E+00  0.00000000000E+00  0.11046828054E+04  0.11046828054E+04  0.25500000920E-02 0. -1.
       -2   -1    0    0    0  501  0.00000000000E+00  0.00000000000E+00 -0.15264570492E+04  0.15264570492E+04  0.25500000920E-02 0.  1.
    10030    2    1    2    0    0  0.00000000000E+00  0.00000000000E+00 -0.42177424371E+03  0.26311398546E+04  0.25971144414E+04 0.  0.
        5    1    3    3  502    0  0.10267621284E+04  0.25232758135E+03 -0.97463315507E+03  0.14379991494E+04  0.46999998093E+01 0.  1.
       -5    1    3    3    0  502 -0.10267621284E+04 -0.25232758135E+03  0.55285891136E+03  0.11931407052E+04  0.46999998093E+01 0. -1.
</event>
<event>
 5   0  0.1088757E-06  0.2609548E+04  0.7818609E-02  0.8364965E-01
        1   -1    0    0  501    0  0.00000000000E+00  0.00000000000E+00  0.11972447092E+04  0.11972447092E+04  0.50400001928E-02 0.  1.
       -1   -1    0    0    0  501  0.00000000000E+00  0.00000000000E+00 -0.14219610680E+04  0.14219610680E+04  0.50400001928E-02 0. -1.
    10030    2    1    2    0    0  0.00000000000E+00  0.00000000000E+00 -0.22471635878E+03  0.26192057772E+04  0.26095481336E+04 0.  0.
        5    1    3    3  502    0 -0.63402002945E+03  0.10423812247E+04  0.35181768277E+03  0.12697786371E+04  0.46999998093E+01 0.  1.
       -5    1    3    3    0  502  0.63402002945E+03 -0.10423812247E+04 -0.57653404155E+03  0.13494271401E+04  0.46999998093E+01 0. -1.
</event>
<event>
 5   0  0.1088757E-06  0.2597532E+04  0.7818609E-02  0.8369040E-01
        1   -1    0    0  501    0  0.00000000000E+00  0.00000000000E+00  0.18079521136E+04  0.18079521136E+04  0.50400001928E-02 0.  1.
       -1   -1    0    0    0  501  0.00000000000E+00  0.00000000000E+00 -0.93298564568E+03  0.93298564570E+03  0.50400001928E-02 0. -1.
    10030    2    1    2    0    0  0.00000000000E+00  0.00000000000E+00  0.87496646793E+03  0.27409377593E+04  0.25975321905E+04 0.  0.
        5    1    3    3  502    0 -0.33796494392E+03 -0.91002194135E+03 -0.47294273909E+03  0.10798412668E+04  0.46999998093E+01 0. -1.
       -5    1    3    3    0  502  0.33796494392E+03  0.91002194135E+03  0.13479092070E+04  0.16610964925E+04  0.46999998093E+01 0.  1.
</event>
<event>
 5   0  0.1088757E-06  0.2600959E+04  0.7818609E-02  0.8367875E-01
        1   -1    0    0  501    0  0.00000000000E+00  0.00000000000E+00  0.13273073821E+04  0.13273073821E+04  0.50400001928E-02 0.  1.
       -1   -1    0    0    0  501  0.00000000000E+00  0.00000000000E+00 -0.12741939547E+04  0.12741939547E+04  0.50400001928E-02 0. -1.
    10030    2    1    2    0    0  0.00000000000E+00  0.00000000000E+00  0.53113427422E+02  0.26015013367E+04  0.26009590864E+04 0.  0.
        5    1    3    3  502    0 -0.93206090992E+03  0.35759705394E+03 -0.80705075762E+03  0.12837313614E+04  0.46999998093E+01 0. -1.
       -5    1    3    3    0  502  0.93206090992E+03 -0.35759705394E+03  0.86016418504E+03  0.13177699754E+04  0.46999998093E+01 0.  1.
</event>
<event>
 5   0  0.1032076E-06  0.2600034E+04  0.7818609E-02  0.8368190E-01
       -1   -1    0    0    0  501  0.00000000000E+00  0.00000000000E+00  0.13440369177E+04  0.13440369177E+04  0.50400001928E-02 0.  1.
        1   -1    0    0  501    0  0.00000000000E+00  0.00000000000E+00 -0.12574389575E+04  0.12574389575E+04  0.50400001928E-02 0. -1.
    10030    2    1    2    0    0  0.00000000000E+00  0.00000000000E+00  0.86597960222E+02  0.26014758752E+04  0.26000341387E+04 0.  0.
        1    1    3    3  502    0 -0.26276857438E+03 -0.63167162867E+03 -0.10627496569E+04  0.12639197773E+04  0.50400001928E-02 0. -1.
       -1    1    3    3    0  502  0.26276857438E+03  0.63167162867E+03  0.11493476171E+04  0.13375560979E+04  0.50400001928E-02 0.  1.
</event>
<event>
 5   0  0.2820028E-06  0.2642366E+04  0.7818609E-02  0.8353951E-01
        2   -1    0    0  501    0  0.00000000000E+00  0.00000000000E+00  0.99944050911E+03  0.99944050911E+03  0.25500000920E-02 0.  1.
       -2   -1    0    0    0  501  0.00000000000E+00  0.00000000000E+00 -0.17465020292E+04  0.17465020292E+04  0.25500000920E-02 0. -1.
    10030    2    1    2    0    0  0.00000000000E+00  0.00000000000E+00 -0.74706152010E+03  0.27459425383E+04  0.26423662708E+04 0.  0.
        3    1    3    3  502    0  0.33878205289E+03 -0.12456791653E+04 -0.81379226759E+02  0.12934884812E+04  0.10100000352E+00 0.  1.
       -3    1    3    3    0  502 -0.33878205289E+03  0.12456791653E+04 -0.66568229335E+03  0.14524540571E+04  0.10100000352E+00 0. -1.
</event>
<event>
 5   0  0.2623368E-06  0.2600870E+04  0.7818609E-02  0.8367906E-01
        2   -1    0    0  501    0  0.00000000000E+00  0.00000000000E+00  0.17749628869E+04  0.17749628869E+04  0.25500000920E-02 0. -1.
       -2   -1    0    0    0  501  0.00000000000E+00  0.00000000000E+00 -0.95276959082E+03  0.95276959082E+03  0.25500000920E-02 0.  1.
    10030    2    1    2    0    0  0.00000000000E+00  0.00000000000E+00  0.82219329606E+03  0.27277324777E+04  0.26008695957E+04 0.  0.
        5    1    3    3  502    0  0.78974551080E+03  0.54615809189E+03  0.13308699454E+04  0.16411043643E+04  0.46999998093E+01 0. -1.
       -5    1    3    3    0  502 -0.78974551080E+03 -0.54615809189E+03 -0.50867664932E+03  0.10866281134E+04  0.46999998093E+01 0.  1.
</event>
<event>
 5   0  0.1100104E-06  0.2597885E+04  0.7818609E-02  0.8368920E-01
        1   -1    0    0  501    0  0.00000000000E+00  0.00000000000E+00  0.11390126634E+04  0.11390126634E+04  0.50400001928E-02 0. -1.
       -1   -1    0    0    0  501  0.00000000000E+00  0.00000000000E+00 -0.14813281617E+04  0.14813281617E+04  0.50400001928E-02 0.  1.
    10030    2    1    2    0    0  0.00000000000E+00  0.00000000000E+00 -0.34231549829E+03  0.26203408252E+04  0.25978849358E+04 0.  0.
        4    1    3    3  502    0  0.11081449240E+04 -0.28554945280E+03  0.44874913680E+03  0.12291871555E+04  0.12699999809E+01 0. -1.
       -4    1    3    3    0  502 -0.11081449240E+04  0.28554945280E+03 -0.79106463509E+03  0.13911536696E+04  0.12699999809E+01 0.  1.
</event>
<event>
 5   0  0.2746631E-06  0.2601579E+04  0.7818609E-02  0.8367665E-01
       -2   -1    0    0    0  501  0.00000000000E+00  0.00000000000E+00  0.78554608301E+03  0.78554608301E+03  0.25500000920E-02 0. -1.
        2   -1    0    0  501    0  0.00000000000E+00  0.00000000000E+00 -0.21539840889E+04  0.21539840889E+04  0.25500000920E-02 0.  1.
    10030    2    1    2    0    0  0.00000000000E+00  0.00000000000E+00 -0.13684380059E+04  0.29395301720E+04  0.26015793387E+04 0.  0.
        2    1    3    3  502    0 -0.10890160098E+03  0.78355202658E+03  0.48250577150E+03  0.92662028717E+03  0.25500000920E-02 0. -1.
       -2    1    3    3    0  502  0.10890160098E+03 -0.78355202658E+03 -0.18509437774E+04  0.20129098848E+04  0.25500000920E-02 0.  1.
</event>
<event>
 5   0  0.2746631E-06  0.2602531E+04  0.7818609E-02  0.8367342E-01
       -2   -1    0    0    0  501  0.00000000000E+00  0.00000000000E+00  0.88621484892E+03  0.88621484893E+03  0.25500000920E-02 0.  1.
        2   -1    0    0  501    0  0.00000000000E+00  0.00000000000E+00 -0.19107007977E+04  0.19107007977E+04  0.25500000920E-02 0. -1.
    10030    2    1    2    0    0  0.00000000000E+00  0.00000000000E+00 -0.10244859488E+04  0.27969156466E+04  0.26025306290E+04 0.  0.
        2    1    3    3  502    0  0.35001303307E+03 -0.15292194438E+03 -0.18490983257E+04  0.18881363464E+04  0.25500000920E-02 0. -1.
       -2    1    3    3    0  502 -0.35001303307E+03  0.15292194438E+03  0.82461237692E+03  0.90877930025E+03  0.25500000920E-02 0.  1.
</event>
<event>
 5   0  0.1032076E-06  0.2597944E+04  0.7818609E-02  0.8368900E-01
       -1   -1    0    0    0  501  0.00000000000E+00  0.00000000000E+00  0.82421353742E+03  0.82421353744E+03  0.50400001928E-02 0. -1.
        1   -1    0    0  501    0  0.00000000000E+00  0.00000000000E+00 -0.20471981048E+04  0.20471981048E+04  0.50400001928E-02 0.  1.
    10030    2    1    2    0    0  0.00000000000E+00  0.00000000000E+00 -0.12229845673E+04  0.28714116422E+04  0.25979441039E+04 0.  0.
        1    1    3    3  502    0  0.11427372067E+04 -0.34545436261E+03 -0.45600457223E+02  0.11946825696E+04  0.50400001928E-02 0. -1.
       -1    1    3    3    0  502 -0.11427372067E+04  0.34545436261E+03 -0.11773841101E+04  0.16767290726E+04  0.50400001928E-02 0.  1.
</event>
<event>
 5   0  0.2623368E-06  0.2601260E+04  0.7818609E-02  0.8367773E-01
        2   -1    0    0  501    0  0.00000000000E+00  0.00000000000E+00  0.18114935171E+04  0.18114935171E+04  0.25500000920E-02 0.  1.
       -2   -1    0    0    0  501  0.00000000000E+00  0.00000000000E+00 -0.93383600342E+03  0.93383600342E+03  0.25500000920E-02 0. -1.
    10030    2    1    2    0    0  0.00000000000E+00  0.00000000000E+00  0.87765751372E+03  0.27453295206E+04  0.26012595920E+04 0.  0.
        5    1    3    3  502    0 -0.12048244363E+04  0.32606800737E+03  0.52936605510E+02  0.12492984600E+04  0.46999998093E+01 0.  1.
       -5    1    3    3    0  502  0.12048244363E+04 -0.32606800737E+03  0.82472090821E+03  0.14960310606E+04  0.46999998093E+01 0. -1.
</event>
<event>
 5   0  0.1055179E-06  0.2595814E+04  0.7818609E-02  0.8369624E-01
       -1   -1    0    0    0  501  0.00000000000E+00  0.00000000000E+00  0.10278538778E+04  0.10278538778E+04  0.50400001928E-02 0. -1.
        1   -1    0    0  501    0  0.00000000000E+00  0.00000000000E+00 -0.16389129259E+04  0.16389129259E+04  0.50400001928E-02 0.  1.
    10030    2    1    2    0    0  0.00000000000E+00  0.00000000000E+00 -0.61105904807E+03  0.26667668037E+04  0.25958143280E+04 0.  0.
        3    1    3    3  502    0 -0.13703022545E+01 -0.25547080776E+02 -0.16386538560E+04  0.16388535630E+04  0.10100000352E+00 0.  1.
       -3    1    3    3    0  502  0.13703022545E+01  0.25547080776E+02  0.10275948079E+04  0.10279132407E+04  0.10100000352E+00 0. -1.
</event>
<event>
 5   0  0.2705807E-06  0.2598816E+04  0.7818609E-02  0.8368603E-01
        2   -1    0    0  501    0  0.00000000000E+00  0.00000000000E+00  0.18769919265E+04  0.18769919265E+04  0.25500000920E-02 0.  1.
       -2   -1    0    0    0  501  0.00000000000E+00  0.00000000000E+00 -0.89955699260E+03  0.89955699260E+03  0.25500000920E-02 0. -1.
    10030    2    1    2    0    0  0.00000000000E+00  0.00000000000E+00  0.97743493391E+03  0.27765489191E+04  0.25988160478E+04 0.  0.
        4    1    3    3  502    0  0.98400260062E+03 -0.68131109587E+03 -0.51864269860E+02  0.11979722212E+04  0.12699999809E+01 0.  1.
       -4    1    3    3    0  502 -0.98400260062E+03  0.68131109587E+03  0.10292992038E+04  0.15785766979E+04  0.12699999809E+01 0. -1.
</event>
<event>
 5   0  0.9197000E-07  0.2603778E+04  0.7818609E-02  0.8366919E-01
       -3   -1    0    0    0  501  0.00000000000E+00  0.00000000000E+00  0.17844593755E+04  0.17844593783E+04  0.10100000352E+00 0. -1.
        3   -1    0    0  501    0  0.00000000000E+00  0.00000000000E+00 -0.94981952909E+03  0.94981953446E+03  0.10100000352E+00 0.  1.
    10030    2    1    2    0    0  0.00000000000E+00  0.00000000000E+00  0.83463984639E+03  0.27342789128E+04  0.26037775442E+04 0.  0.
        5    1    3    3  502    0 -0.82153990329E+03  0.80813304803E+03  0.10533888496E+04  0.15612997773E+04  0.46999998093E+01 0. -1.
       -5    1    3    3    0  502  0.82153990329E+03 -0.80813304803E+03 -0.21874900321E+03  0.11729791355E+04  0.46999998093E+01 0.  1.
</event>
<event>
 5   0  0.2623368E-06  0.2599799E+04  0.7818609E-02  0.8368270E-01
       -2   -1    0    0    0  501  0.00000000000E+00  0.00000000000E+00  0.12958036471E+04  0.12958036471E+04  0.25500000920E-02 0.  1.
        2   -1    0    0  501    0  0.00000000000E+00  0.00000000000E+00 -0.13040078178E+04  0.13040078178E+04  0.25500000920E-02 0. -1.
    10030    2    1    2    0    0  0.00000000000E+00  0.00000000000E+00 -0.82041707414E+01  0.25998114649E+04  0.25997985200E+04 0.  0.
        5    1    3    3  502    0  0.31944222758E+03 -0.24277638212E+03  0.12323232101E+04  0.12960039710E+04  0.46999998093E+01 0.  1.
       -5    1    3    3    0  502 -0.31944222758E+03  0.24277638212E+03 -0.12405273809E+04  0.13038074939E+04  0.46999998093E+01 0. -1.
</event>
<event>
 5   0  0.1032076E-06  0.2595777E+04  0.7818609E-02  0.8369637E-01
        1   -1    0    0  501    0  0.00000000000E+00  0.00000000000E+00  0.24069965056E+04  0.24069965056E+04  0.50400001928E-02 0.  1.
       -1   -1    0    0    0  501  0.00000000000E+00  0.00000000000E+00 -0.69984082660E+03  0.69984082662E+03  0.50400001928E-02 0. -1.
    10030    2    1    2    0    0  0.00000000000E+00  0.00000000000E+00  0.17071556790E+04  0.31068373322E+04  0.25957768965E+04 0.  0.
        1    1    3    3  502    0  0.37192095175E+03 -0.48553448450E+03 -0.51654855660E+03  0.80055689450E+03  0.50400001928E-02 0. -1.
       -1    1    3    3    0  502 -0.37192095175E+03  0.48553448450E+03  0.22237042356E+04  0.23062804377E+04  0.50400001928E-02 0.  1.
</event>
<event>
 5   0  0.1032076E-06  0.2599014E+04  0.7818609E-02  0.8368536E-01
       -1   -1    0    0    0  501  0.00000000000E+00  0.00000000000E+00  0.94979378716E+03  0.94979378718E+03  0.50400001928E-02 0. -1.
        1   -1    0    0  501    0  0.00000000000E+00  0.00000000000E+00 -0.17779847011E+04  0.17779847011E+04  0.50400001928E-02 0.  1.
    10030    2    1    2    0    0  0.00000000000E+00  0.00000000000E+00 -0.82819091389E+03  0.27277784882E+04  0.25990142922E+04 0.  0.
        1    1    3    3  502    0  0.10038154087E+04  0.74013083319E+03 -0.79725760116E+03  0.14802225196E+04  0.50400001928E-02 0.  1.
       -1    1    3    3    0  502 -0.10038154087E+04 -0.74013083319E+03 -0.30933312737E+02  0.12475559686E+04  0.50400001928E-02 0. -1.
</event>
<event>
 5   0  0.1055179E-06  0.2592444E+04  0.7818609E-02  0.8370772E-01
       -1   -1    0    0    0  501  0.00000000000E+00  0.00000000000E+00  0.14942933447E+04  0.14942933447E+04  0.50400001928E-02 0. -1.
        1   -1    0    0  501    0  0.00000000000E+00  0.00000000000E+00 -0.11244056783E+04  0.11244056783E+04  0.50400001928E-02 0.  1.
    10030    2    1    2    0    0  0.00000000000E+00  0.00000000000E+00  0.36988766634E+03  0.26186990230E+04  0.25924443461E+04 0.  0.
        3    1    3    3  502    0  0.48237772727E+03  0.11086187664E+04 -0.28719544427E+03  0.12426604823E+04  0.10100000352E+00 0.  1.
       -3    1    3    3    0  502 -0.48237772727E+03 -0.11086187664E+04  0.65708311061E+03  0.13760385407E+04  0.10100000352E+00 0. -1.
</event>
<event>
 5   0  0.2705807E-06  0.2608339E+04  0.7818609E-02  0.8365374E-01
       -2   -1    0    0    0  501  0.00000000000E+00  0.00000000000E+00  0.79252067742E+03  0.79252067742E+03  0.25500000920E-02 0. -1.
        2   -1    0    0  501    0  0.00000000000E+00  0.00000000000E+00 -0.21461378307E+04  0.21461378307E+04  0.25500000920E-02 0.  1.
    10030    2    1    2    0    0  0.00000000000E+00  0.00000000000E+00 -0.13536171533E+04  0.29386585082E+04  0.26083394008E+04 0.  0.
        4    1    3    3  502    0 -0.69084184176E+02 -0.95155599088E+02  0.78653529818E+03  0.79527768780E+03  0.12699999809E+01 0. -1.
       -4    1    3    3    0  502  0.69084184176E+02  0.95155599088E+02 -0.21401524515E+04  0.21433808204E+04  0.12699999809E+01 0.  1.
</event>
<event>
 5   0  0.2586775E-06  0.2600535E+04  0.7818609E-02  0.8368020E-01
       -2   -1    0    0    0  501  0.00000000000E+00  0.00000000000E+00  0.11618647441E+04  0.11618647441E+04  0.25500000920E-02 0. -1.
        2   -1    0    0  501    0  0.00000000000E+00  0.00000000000E+00 -0.14551564739E+04  0.14551564739E+04  0.25500000920E-02 0.  1.
    10030    2    1    2    0    0  0.00000000000E+00  0.00000000000E+00 -0.29329172977E+03  0.26170212180E+04  0.26005345636E+04 0.  0.
        1    1    3    3  502    0 -0.52249518726E+03  0.91427926466E+03 -0.91423125158E+03  0.13945345374E+04  0.50400001928E-02 0.  1.
       -1    1    3    3    0  502  0.52249518726E+03 -0.91427926466E+03  0.62093952181E+03  0.12224866806E+04  0.50400001928E-02 0. -1.
</event>
<event>
 5   0  0.2623368E-06  0.2577923E+04  0.7818609E-02  0.8375739E-01
        2   -1    0    0  501    0  0.00000000000E+00  0.00000000000E+00  0.18571392196E+04  0.18571392196E+04  0.25500000920E-02 0.  1.
       -2   -1    0    0    0  501  0.00000000000E+00  0.00000000000E+00 -0.89461366825E+03  0.89461366826E+03  0.25500000920E-02 0. -1.
    10030    2    1    2    0    0  0.00000000000E+00  0.00000000000E+00  0.96252555132E+03  0.27517528878E+04  0.25779232957E+04 0.  0.
        5    1    3    3  502    0 -0.49263875061E+03  0.91988343874E+02 -0.78635045060E+03  0.93248266213E+03  0.46999998093E+01 0. -1.
       -5    1    3    3    0  502  0.49263875061E+03 -0.91988343874E+02  0.17488760019E+04  0.18192702257E+04  0.46999998093E+01 0.  1.
</event>
<event>
 5   0  0.1122628E-06  0.2603051E+04  0.7818609E-02  0.8367166E-01
        1   -1    0    0  501    0  0.00000000000E+00  0.00000000000E+00  0.11924465393E+04  0.11924465393E+04  0.50400001928E-02 0.  1.
       -1   -1    0    0    0  501  0.00000000000E+00  0.00000000000E+00 -0.14205820647E+04  0.14205820647E+04  0.50400001928E-02 0. -1.
    10030    2    1    2    0    0  0.00000000000E+00  0.00000000000E+00 -0.22813552537E+03  0.26130286041E+04  0.26030506464E+04 0.  0.
        2    1    3    3  502    0 -0.12959270817E+04 -0.56911616899E+02 -0.22078723943E+03  0.13158316527E+04  0.25500000920E-02 0. -1.
       -2    1    3    3    0  502  0.12959270817E+04  0.56911616899E+02 -0.73482859453E+01  0.12971969513E+04  0.25500000920E-02 0.  1.
</event>
<event>
 5   0  0.1088757E-06  0.2599534E+04  0.7818609E-02  0.8368359E-01
        1   -1    0    0  501    0  0.00000000000E+00  0.00000000000E+00  0.15744219340E+04  0.15744219340E+04  0.50400001928E-02 0. -1.
       -1   -1    0    0    0  501  0.00000000000E+00  0.00000000000E+00 -0.10730255095E+04  0.10730255095E+04  0.50400001928E-02 0.  1.
    10030    2    1    2    0    0  0.00000000000E+00  0.00000000000E+00  0.50139642454E+03  0.26474474436E+04  0.25995344952E+04 0.  0.
        5    1    3    3  502    0 -0.85358918761E+02 -0.66378978274E+03 -0.88405086961E+03  0.11088151563E+04  0.46999998093E+01 0.  1.
       -5    1    3    3    0  502  0.85358918761E+02  0.66378978274E+03  0.13854472942E+04  0.15386322873E+04  0.46999998093E+01 0. -1.
</event>
<event>
 5   0  0.2705807E-06  0.2599589E+04  0.7818609E-02  0.8368341E-01
        2   -1    0    0  501    0  0.00000000000E+00  0.00000000000E+00  0.13064833146E+04  0.13064833146E+04  0.25500000920E-02 0. -1.
       -2   -1    0    0    0  501  0.00000000000E+00  0.00000000000E+00 -0.12931394805E+04  0.12931394805E+04  0.25500000920E-02 0.  1.
    10030    2    1    2    0    0  0.00000000000E+00  0.00000000000E+00  0.13343834106E+02  0.25996227951E+04  0.25995885480E+04 0.  0.
        4    1    3    3  502    0  0.29686628018E+03  0.11544407562E+04 -0.51160172798E+03  0.12971511049E+04  0.12699999809E+01 0.  1.
       -4    1    3    3    0  502 -0.29686628018E+03 -0.11544407562E+04  0.52494556209E+03  0.13024716903E+04  0.12699999809E+01 0. -1.
</event>
<event>
 5   0  0.1055179E-06  0.2599892E+04  0.7818609E-02  0.8368238E-01
        1   -1    0    0  501    0  0.00000000000E+00  0.00000000000E+00  0.20518722651E+04  0.20518722651E+04  0.50400001928E-02 0. -1.
       -1   -1    0    0    0  501  0.00000000000E+00  0.00000000000E+00 -0.82356961520E+03  0.82356961522E+03  0.50400001928E-02 0.  1.
    10030    2    1    2    0    0  0.00000000000E+00  0.00000000000E+00  0.12283026499E+04  0.28754418804E+04  0.25998920377E+04 0.  0.
        3    1    3    3  502    0 -0.91863060990E+03 -0.90169989765E+02 -0.39820078419E+03  0.10052744398E+04  0.10100000352E+00 0.  1.
       -3    1    3    3    0  502  0.91863060990E+03  0.90169989765E+02  0.16265034341E+04  0.18701674406E+04  0.10100000352E+00 0. -1.
</event>
<event>
 5   0  0.2705807E-06  0.2603158E+04  0.7818609E-02  0.8367129E-01
       -2   -1    0    0    0  501  0.00000000000E+00  0.00000000000E+00  0.84152341143E+03  0.84152341143E+03  0.25500000920E-02 0. -1.
        2   -1    0    0  501    0  0.00000000000E+00  0.00000000000E+00 -0.20131434797E+04  0.20131434798E+04  0.25500000920E-02 0.  1.
    10030    2    1    2    0    0  0.00000000000E+00  0.00000000000E+00 -0.11716200683E+04  0.28546668912E+04  0.26031575971E+04 0.  0.
        4    1    3    3  502    0  0.58804050818E+02  0.74546950660E+02 -0.20093399669E+04  0.20115824318E+04  0.12699999809E+01 0.  1.
       -4    1    3    3    0  502 -0.58804050818E+02 -0.74546950660E+02  0.83771989862E+03  0.84308445940E+03  0.12699999809E+01 0. -1.
</event>
<event>
 5   0  0.1055179E-06  0.2553998E+04  0.7818609E-02  0.8383997E-01
       -1   -1    0    0    0  501  0.00000000000E+00  0.00000000000E+00  0.17396115038E+04  0.17396115038E+04  0.50400001928E-02 0.  1.
        1   -1    0    0  501    0  0.00000000000E+00  0.00000000000E+00 -0.93740832781E+03  0.93740832782E+03  0.50400001928E-02 0. -1.
    10030    2    1    2    0    0  0.00000000000E+00  0.00000000000E+00  0.80220317602E+03  0.26770198317E+04  0.25539978942E+04 0.  0.
        3    1    3    3  502    0  0.45420703051E+03 -0.10455429693E+04  0.10043788784E+04  0.15192896593E+04  0.10100000352E+00 0.  1.
       -3    1    3    3    0  502 -0.45420703051E+03  0.10455429693E+04 -0.20217570241E+03  0.11577301724E+04  0.10100000352E+00 0. -1.
</event>
<event>
 5   0  0.1032076E-06  0.2606362E+04  0.7818609E-02  0.8366043E-01
        1   -1    0    0  501    0  0.00000000000E+00  0.00000000000E+00  0.60456278286E+03  0.60456278288E+03  0.50400001928E-02 0. -1.
       -1   -1    0    0    0  501  0.00000000000E+00  0.00000000000E+00 -0.28091060639E+04  0.28091060639E+04  0.50400001928E-02 0.  1.
    10030    2    1    2    0    0  0.00000000000E+00  0.00000000000E+00 -0.22045432810E+04  0.34136688468E+04  0.26063622000E+04 0.  0.
        1    1    3    3  502    0 -0.74642018624E+03 -0.25305882509E+03  0.25702566200E+03  0.82900184218E+03  0.50400001928E-02 0. -1.
       -1    1    3    3    0  502  0.74642018624E+03  0.25305882509E+03 -0.24615689430E+04  0.25846670046E+04  0.50400001928E-02 0.  1.
</event>
<event>
 5   0  0.2705807E-06  0.2602523E+04  0.7818609E-02  0.8367345E-01
       -2   -1    0    0    0  501  0.00000000000E+00  0.00000000000E+00  0.14089949707E+04  0.14089949707E+04  0.25500000920E-02 0.  1.
        2   -1    0    0  501    0  0.00000000000E+00  0.00000000000E+00 -0.12017652841E+04  0.12017652841E+04  0.25500000920E-02 0. -1.
    10030    2    1    2    0    0  0.00000000000E+00  0.00000000000E+00  0.20722968662E+03  0.26107602548E+04  0.26025228078E+04 0.  0.
        4    1    3    3  502    0 -0.10594354790E+04 -0.74336171385E+03 -0.32051728288E+02  0.12946115626E+04  0.12699999809E+01 0. -1.
       -4    1    3    3    0  502  0.10594354790E+04  0.74336171385E+03  0.23928141491E+03  0.13161486923E+04  0.12699999809E+01 0.  1.
</event>
<event>
 5   0  0.2586775E-06  0.2596783E+04  0.7818609E-02  0.8369295E-01
       -2   -1    0    0    0  501  0.00000000000E+00  0.00000000000E+00  0.64762680394E+03  0.64762680394E+03  0.25500000920E-02 0.  1.
        2   -1    0    0  501    0  0.00000000000E+00  0.00000000000E+00 -0.26030730094E+04  0.26030730094E+04  0.25500000920E-02 0. -1.
    10030    2    1    2    0    0  0.00000000000E+00  0.00000000000E+00 -0.19554462055E+04  0.32506998133E+04  0.25967825119E+04 0.  0.
        1    1    3    3  502    0 -0.27381191413E+03 -0.91890387447E+03  0.11821685349E+03  0.96609136178E+03  0.50400001928E-02 0.  1.
       -1    1    3    3    0  502  0.27381191413E+03  0.91890387447E+03 -0.20736630590E+04  0.22846084516E+04  0.50400001928E-02 0. -1.
</event>
<event>
 5   0  0.2746631E-06  0.2601764E+04  0.7818609E-02  0.8367602E-01
       -2   -1    0    0    0  501  0.00000000000E+00  0.00000000000E+00  0.10344580945E+04  0.10344580945E+04  0.25500000920E-02 0.  1.
        2   -1    0    0  501    0  0.00000000000E+00  0.00000000000E+00 -0.16359237531E+04  0.16359237531E+04  0.25500000920E-02 0. -1.
    10030    2    1    2    0    0  0.00000000000E+00  0.00000000000E+00 -0.60146565858E+03  0.26703818475E+04  0.26017644538E+04 0.  0.
        2    1    3    3  502    0 -0.31256727079E+03  0.45384830209E+03 -0.15102075195E+04  0.16076079535E+04  0.25500000920E-02 0. -1.
       -2    1    3    3    0  502  0.31256727079E+03 -0.45384830209E+03  0.90874186093E+03  0.10627738941E+04  0.25500000920E-02 0.  1.
</event>
<event>
 5   0  0.2705807E-06  0.2623652E+04  0.7818609E-02  0.8360211E-01
       -2   -1    0    0    0  501  0.00000000000E+00  0.00000000000E+00  0.86086949553E+03  0.86086949553E+03  0.25500000920E-02 0. -1.
        2   -1    0    0  501    0  0.00000000000E+00  0.00000000000E+00 -0.19990102120E+04  0.19990102120E+04  0.25500000920E-02 0.  1.
    10030    2    1    2    0    0  0.00000000000E+00  0.00000000000E+00 -0.11381407165E+04  0.28598797075E+04  0.26236515872E+04 0.  0.
        4    1    3    3  502    0 -0.43794482100E+03  0.75177410437E+03 -0.16392663028E+04  0.18558436342E+04  0.12699999809E+01 0.  1.
       -4    1    3    3    0  502  0.43794482100E+03 -0.75177410437E+03  0.50112558637E+03  0.10040360733E+04  0.12699999809E+01 0. -1.
</event>
<event>
 5   0  0.1032076E-06  0.2596270E+04  0.7818609E-02  0.8369469E-01
        1   -1    0    0  501    0  0.00000000000E+00  0.00000000000E+00  0.13105146140E+04  0.13105146140E+04  0.50400001928E-02 0. -1.
       -1   -1    0    0    0  501  0.00000000000E+00  0.00000000000E+00 -0.12858726171E+04  0.12858726171E+04  0.50400001928E-02 0.  1.
    10030    2    1    2    0    0  0.00000000000E+00  0.00000000000E+00  0.24641996928E+02  0.25963872311E+04  0.25962702913E+04 0.  0.
        1    1    3    3  502    0 -0.12581157943E+04 -0.31709620260E+03  0.54149942362E+02  0.12985906090E+04  0.50400001928E-02 0.  1.
       -1    1    3    3    0  502  0.12581157943E+04  0.31709620260E+03 -0.29507945433E+02  0.12977966221E+04  0.50400001928E-02 0. -1.
</event>
<event>
 5   0  0.1055179E-06  0.2598621E+04  0.7818609E-02  0.8368670E-01
        1   -1    0    0  501    0  0.00000000000E+00  0.00000000000E+00  0.22829462915E+04  0.22829462915E+04  0.50400001928E-02 0.  1.
       -1   -1    0    0    0  501  0.00000000000E+00  0.00000000000E+00 -0.73948627351E+03  0.73948627352E+03  0.50400001928E-02 0. -1.
    10030    2    1    2    0    0  0.00000000000E+00  0.00000000000E+00  0.15434600180E+04  0.30224325650E+04  0.25986207463E+04 0.  0.
        3    1    3    3  502    0  0.64839233004E+03  0.27676470789E+03 -0.49769004032E+03  0.86296390633E+03  0.10100000352E+00 0. -1.
       -3    1    3    3    0  502 -0.64839233004E+03 -0.27676470789E+03  0.20411500583E+04  0.21594686587E+04  0.10100000352E+00 0.  1.
</event>
<event>
 5   0  0.2746631E-06  0.2599862E+04  0.7818609E-02  0.8368248E-01
        2   -1    0    0  501    0  0.00000000000E+00  0.00000000000E+00  0.18788023233E+04  0.18788023233E+04  0.25500000920E-02 0.  1.
       -2   -1    0    0    0  501  0.00000000000E+00  0.00000000000E+00 -0.89941348005E+03  0.89941348005E+03  0.25500000920E-02 0. -1.
    10030    2    1    2    0    0  0.00000000000E+00  0.00000000000E+00  0.97938884324E+03  0.27782158033E+04  0.25998616393E+04 0.  0.
        2    1    3    3  502    0 -0.86440492882E+03  0.74257477860E+03  0.11580676160E+04  0.16247257572E+04  0.25500000920E-02 0. -1.
       -2    1    3    3    0  502  0.86440492882E+03 -0.74257477860E+03 -0.17867877275E+03  0.11534900462E+04  0.25500000920E-02 0.  1.
</event>
<event>
 5   0  0.1122628E-06  0.2600606E+04  0.7818609E-02  0.8367995E-01
       -1   -1    0    0    0  501  0.00000000000E+00  0.00000000000E+00  0.91800359550E+03  0.91800359552E+03  0.50400001928E-02 0. -1.
        1   -1    0    0  501    0  0.00000000000E+00  0.00000000000E+00 -0.18418102514E+04  0.18418102514E+04  0.50400001928E-02 0.  1.
    10030    2    1    2    0    0  0.00000000000E+00  0.00000000000E+00 -0.92380665589E+03  0.27598138469E+04  0.26006064162E+04 0.  0.
        2    1    3    3  502    0  0.45635545457E+03 -0.12034760785E+04 -0.26572562735E+03  0.13142393547E+04  0.25500000920E-02 0. -1.
       -2    1    3    3    0  502 -0.45635545457E+03  0.12034760785E+04 -0.65808102854E+03  0.14455744922E+04  0.25500000920E-02 0.  1.
</event>
<event>
 5   0  0.1100104E-06  0.2599649E+04  0.7818609E-02  0.8368320E-01
       -1   -1    0    0    0  501  0.00000000000E+00  0.00000000000E+00  0.14306164439E+04  0.14306164439E+04  0.50400001928E-02 0. -1.
        1   -1    0    0  501    0  0.00000000000E+00  0.00000000000E+00 -0.11809904361E+04  0.11809904361E+04  0.50400001928E-02 0.  1.
    10030    2    1    2    0    0  0.00000000000E+00  0.00000000000E+00  0.24962600784E+03  0.26116068800E+04  0.25996494672E+04 0.  0.
        4    1    3    3  502    0 -0.87647378538E+03  0.91852463672E+03 -0.15512426587E+03  0.12790461116E+04  0.12699999809E+01 0.  1.
       -4    1    3    3    0  502  0.87647378538E+03 -0.91852463672E+03  0.40475027371E+03  0.13325607685E+04  0.12699999809E+01 0. -1.
</event>
<event>
 5   0  0.1100104E-06  0.2602044E+04  0.7818609E-02  0.8367507E-01
        1   -1    0    0  501    0  0.00000000000E+00  0.00000000000E+00  0.17601034031E+04  0.17601034031E+04  0.50400001928E-02 0.  1.
       -1   -1    0    0    0  501  0.00000000000E+00  0.00000000000E+00 -0.96168140340E+03  0.96168140341E+03  0.50400001928E-02 0. -1.
    10030    2    1    2    0    0  0.00000000000E+00  0.00000000000E+00  0.79842199968E+03  0.27217848065E+04  0.26020443584E+04 0.  0.
        4    1    3    3  502    0  0.34068096356E+03  0.87542036217E+03  0.13407623083E+04  0.16370917842E+04  0.12699999809E+01 0.  1.
       -4    1    3    3    0  502 -0.34068096356E+03 -0.87542036217E+03 -0.54234030864E+03  0.10846930223E+04  0.12699999809E+01 0. -1.
</event>
<event>
 5   0  0.2746631E-06  0.2596772E+04  0.7818609E-02  0.8369299E-01
       -2   -1    0    0    0  501  0.00000000000E+00  0.00000000000E+00  0.10618225970E+04  0.10618225970E+04  0.25500000920E-02 0.  1.
        2   -1    0    0  501    0  0.00000000000E+00  0.00000000000E+00 -0.15876528567E+04  0.15876528567E+04  0.25500000920E-02 0. -1.
    10030    2    1    2    0    0  0.00000000000E+00  0.00000000000E+00 -0.52583025972E+03  0.26494754538E+04  0.25967715953E+04 0.  0.
        2    1    3    3  502    0  0.13834493097E+03  0.12803609819E+04 -0.94204593248E+02  0.12912544556E+04  0.25500000920E-02 0. -1.
       -2    1    3    3    0  502 -0.13834493097E+03 -0.12803609819E+04 -0.43162566647E+03  0.13582209981E+04  0.25500000920E-02 0.  1.
</event>
<event>
 5   0  0.1032076E-06  0.2597561E+04  0.7818609E-02  0.8369030E-01
        1   -1    0    0  501    0  0.00000000000E+00  0.00000000000E+00  0.95432616202E+03  0.95432616203E+03  0.50400001928E-02 0. -1.
       -1   -1    0    0    0  501  0.00000000000E+00  0.00000000000E+00 -0.17675626329E+04  0.17675626329E+04  0.50400001928E-02 0.  1.
    10030    2    1    2    0    0  0.00000000000E+00  0.00000000000E+00 -0.81323647091E+03  0.27218887950E+04  0.25975613668E+04 0.  0.
        1    1    3    3  502    0 -0.67176184602E+03  0.87933636890E+03 -0.11191149570E+04  0.15738216908E+04  0.50400001928E-02 0. -1.
       -1    1    3    3    0  502  0.67176184602E+03 -0.87933636890E+03  0.30587848606E+03  0.11480671042E+04  0.50400001928E-02 0.  1.
</event>
<event>
 5   0  0.2746631E-06  0.2602635E+04  0.7818609E-02  0.8367307E-01
        2   -1    0    0  501    0  0.00000000000E+00  0.00000000000E+00  0.21645501973E+04  0.21645501973E+04  0.25500000920E-02 0. -1.
       -2   -1    0    0    0  501  0.00000000000E+00  0.00000000000E+00 -0.78234581404E+03  0.78234581405E+03  0.25500000920E-02 0.  1.
    10030    2    1    2    0    0  0.00000000000E+00  0.00000000000E+00  0.13822043833E+04  0.29468960114E+04  0.26026346545E+04 0.  0.
        2    1    3    3  502    0  0.15054851872E+03  0.12925280025E+04  0.70417456759E+03  0.14795794387E+04  0.25500000920E-02 0. -1.
       -2    1    3    3    0  502 -0.15054851872E+03 -0.12925280025E+04  0.67802981570E+03  0.14673165727E+04  0.25500000920E-02 0.  1.
</event>
<event>
 5   0  0.2746631E-06  0.2602780E+04  0.7818609E-02  0.8367258E-01
       -2   -1    0    0    0  501  0.00000000000E+00  0.00000000000E+00  0.16190421527E+04  0.16190421527E+04  0.25500000920E-02 0.  1.
        2   -1    0    0  501    0  0.00000000000E+00  0.00000000000E+00 -0.10460604558E+04  0.10460604558E+04  0.25500000920E-02 0. -1.
    10030    2    1    2    0    0  0.00000000000E+00  0.00000000000E+00  0.57298169686E+03  0.26651026085E+04  0.26027800309E+04 0.  0.
        2    1    3    3  502    0 -0.24159243217E+03 -0.12452122507E+04  0.58448427691E+03  0.13966181735E+04  0.25500000920E-02 0. -1.
       -2    1    3    3    0  502  0.24159243217E+03  0.12452122507E+04 -0.11502580058E+02  0.12684844350E+04  0.25500000920E-02 0.  1.
</event>
<event>
 5   0  0.2746631E-06  0.2593444E+04  0.7818609E-02  0.8370432E-01
       -2   -1    0    0    0  501  0.00000000000E+00  0.00000000000E+00  0.68574860283E+03  0.68574860284E+03  0.25500000920E-02 0. -1.
        2   -1    0    0  501    0  0.00000000000E+00  0.00000000000E+00 -0.24520469891E+04  0.24520469891E+04  0.25500000920E-02 0.  1.
    10030    2    1    2    0    0  0.00000000000E+00  0.00000000000E+00 -0.17662983862E+04  0.31377955919E+04  0.25934438855E+04 0.  0.
        2    1    3    3  502    0  0.10908169831E+04  0.30101042994E+03 -0.11698942281E+03  0.11376183431E+04  0.25500000920E-02 0. -1.
       -2    1    3    3    0  502 -0.10908169831E+04 -0.30101042994E+03 -0.16493089634E+04  0.20001772487E+04  0.25500000920E-02 0.  1.
</event>
<event>
 5   0  0.2586775E-06  0.2666125E+04  0.7818609E-02  0.8346080E-01
       -2   -1    0    0    0  501  0.00000000000E+00  0.00000000000E+00  0.63429327101E+03  0.63429327102E+03  0.25500000920E-02 0. -1.
        2   -1    0    0  501    0  0.00000000000E+00  0.00000000000E+00 -0.28016318812E+04  0.28016318812E+04  0.25500000920E-02 0.  1.
    10030    2    1    2    0    0  0.00000000000E+00  0.00000000000E+00 -0.21673386101E+04  0.34359251522E+04  0.26661254660E+04 0.  0.
        1    1    3    3  502    0 -0.96593903661E+03  0.89750454723E+03 -0.83078966406E+03  0.15584492615E+04  0.50400001928E-02 0.  1.
       -1    1    3    3    0  502  0.96593903661E+03 -0.89750454723E+03 -0.13365489461E+04  0.18774758907E+04  0.50400001928E-02 0. -1.
</event>
<event>
 5   0  0.1122628E-06  0.2598810E+04  0.7818609E-02  0.8368605E-01
       -1   -1    0    0    0  501  0.00000000000E+00  0.00000000000E+00  0.21275258534E+04  0.21275258534E+04  0.50400001928E-02 0.  1.
        1   -1    0    0  501    0  0.00000000000E+00  0.00000000000E+00 -0.79362314464E+03  0.79362314466E+03  0.50400001928E-02 0. -1.
    10030    2    1    2    0    0  0.00000000000E+00  0.00000000000E+00  0.13339027088E+04  0.29211489981E+04  0.25988103110E+04 0.  0.
        2    1    3    3  502    0 -0.36574174743E+03  0.24678908711E+03  0.20407488540E+04  0.20879003243E+04  0.25500000920E-02 0.  1.
       -2    1    3    3    0  502  0.36574174743E+03 -0.24678908711E+03 -0.70684614519E+03  0.83324867376E+03  0.25500000920E-02 0. -1.
</event>
<event>
 5   0  0.2705807E-06  0.2595227E+04  0.7818609E-02  0.8369824E-01
        2   -1    0    0  501    0  0.00000000000E+00  0.00000000000E+00  0.16218400814E+04  0.16218400814E+04  0.25500000920E-02 0. -1.
       -2   -1    0    0    0  501  0.00000000000E+00  0.00000000000E+00 -0.10382043531E+04  0.10382043531E+04  0.25500000920E-02 0.  1.
    10030    2    1    2    0    0  0.00000000000E+00  0.00000000000E+00  0.58363572831E+03  0.26600444346E+04  0.25952274911E+04 0.  0.
        4    1    3    3  502    0 -0.51351967791E+03  0.93821662637E+02  0.15094674842E+04  0.15971846051E+04  0.12699999809E+01 0. -1.
       -4    1    3    3    0  502  0.51351967791E+03 -0.93821662637E+02 -0.92583175589E+03  0.10628598295E+04  0.12699999809E+01 0.  1.
</event>
<event>
 5   0  0.2623368E-06  0.2562144E+04  0.7818609E-02  0.8381175E-01
       -2   -1    0    0    0  501  0.00000000000E+00  0.00000000000E+00  0.75032676254E+03  0.75032676254E+03  0.25500000920E-02 0. -1.
        2   -1    0    0  501    0  0.00000000000E+00  0.00000000000E+00 -0.21872407444E+04  0.21872407444E+04  0.25500000920E-02 0.  1.
    10030    2    1    2    0    0  0.00000000000E+00  0.00000000000E+00 -0.14369139818E+04  0.29375675069E+04  0.25621438419E+04 0.  0.
        5    1    3    3  502    0 -0.17832548926E+03  0.12630379232E+04 -0.85439857024E+03  0.15352797082E+04  0.46999998093E+01 0. -1.
       -5    1    3    3    0  502  0.17832548926E+03 -0.12630379232E+04 -0.58251541158E+03  0.14022877987E+04  0.46999998093E+01 0.  1.
</event>
<event>
 5   0  0.1055179E-06  0.2598139E+04  0.7818609E-02  0.8368834E-01
       -1   -1    0    0    0  501  0.00000000000E+00  0.00000000000E+00  0.15369216316E+04  0.15369216316E+04  0.50400001928E-02 0.  1.
        1   -1    0    0  501    0  0.00000000000E+00  0.00000000000E+00 -0.10980272627E+04  0.10980272627E+04  0.50400001928E-02 0. -1.
    10030    2    1    2    0    0  0.00000000000E+00  0.00000000000E+00  0.43889436885E+03  0.26349488943E+04  0.25981392204E+04 0.  0.
        3    1    3    3  502    0 -0.10093427603E+04  0.35358343300E+03 -0.52842004502E+03  0.11929047766E+04  0.10100000352E+00 0. -1.
       -3    1    3    3    0  502  0.10093427603E+04 -0.35358343300E+03  0.96731441388E+03  0.14420441177E+04  0.10100000352E+00 0.  1.
</event>
<event>
 5   0  0.2623368E-06  0.2598304E+04  0.7818609E-02  0.8368778E-01
       -2   -1    0    0    0  501  0.00000000000E+00  0.00000000000E+00  0.80226343780E+03  0.80226343780E+03  0.25500000920E-02 0.  1.
        2   -1    0    0  501    0  0.00000000000E+00  0.00000000000E+00 -0.21037922654E+04  0.21037922654E+04  0.25500000920E-02 0. -1.
    10030    2    1    2    0    0  0.00000000000E+00  0.00000000000E+00 -0.13015288276E+04  0.29060557032E+04  0.25983037661E+04 0.  0.
        5    1    3    3  502    0  0.12282474516E+04 -0.34588653682E+03 -0.92368345750E+03  0.15752595083E+04  0.46999998093E+01 0.  1.
       -5    1    3    3    0  502 -0.12282474516E+04  0.34588653682E+03 -0.37784537010E+03  0.13307961949E+04  0.46999998093E+01 0. -1.
</event>
<event>
 5   0  0.1088757E-06  0.2596947E+04  0.7818609E-02  0.8369239E-01
       -1   -1    0    0    0  501  0.00000000000E+00  0.00000000000E+00  0.75134818413E+03  0.75134818415E+03  0.50400001928E-02 0.  1.
        1   -1    0    0  501    0  0.00000000000E+00  0.00000000000E+00 -0.22440100191E+04  0.22440100191E+04  0.50400001928E-02 0. -1.
    10030    2    1    2    0    0  0.00000000000E+00  0.00000000000E+00 -0.14926618350E+04  0.29953582032E+04  0.25969465555E+04 0.  0.
        5    1    3    3  502    0 -0.91518772148E+03 -0.91584181371E+03 -0.63287347111E+03  0.14411404212E+04  0.46999998093E+01 0.  1.
       -5    1    3    3    0  502  0.91518772148E+03  0.91584181371E+03 -0.85978836384E+03  0.15542177820E+04  0.46999998093E+01 0. -1.
</event>
<event>
 5   0  0.2623368E-06  0.2597240E+04  0.7818609E-02  0.8369139E-01
       -2   -1    0    0    0  501  0.00000000000E+00  0.00000000000E+00  0.92142169750E+03  0.92142169750E+03  0.25500000920E-02 0. -1.
        2   -1    0    0  501    0  0.00000000000E+00  0.00000000000E+00 -0.18302306725E+04  0.18302306725E+04  0.25500000920E-02 0.  1.
    10030    2    1    2    0    0  0.00000000000E+00  0.00000000000E+00 -0.90880897497E+03  0.27516523700E+04  0.25972402685E+04 0.  0.
        5    1    3    3  502    0  0.86064320489E+03 -0.86551959145E+03 -0.92411514866E+03  0.15309610665E+04  0.46999998093E+01 0.  1.
       -5    1    3    3    0  502 -0.86064320489E+03  0.86551959145E+03  0.15306173693E+02  0.12206913034E+04  0.46999998093E+01 0. -1.
</event>
<event>
 5   0  0.2746631E-06  0.2594141E+04  0.7818609E-02  0.8370194E-01
       -2   -1    0    0    0  501  0.00000000000E+00  0.00000000000E+00  0.13933527546E+04  0.13933527546E+04  0.25500000920E-02 0. -1.
        2   -1    0    0  501    0  0.00000000000E+00  0.00000000000E+00 -0.12074413470E+04  0.12074413470E+04  0.25500000920E-02 0.  1.
    10030    2    1    2    0    0  0.00000000000E+00  0.00000000000E+00  0.18591140761E+03  0.26007941016E+04  0.25941408804E+04 0.  0.
        2    1    3    3  502    0 -0.12157944248E+04 -0.40435767522E+03 -0.10937992299E+03  0.12859335832E+04  0.25500000920E-02 0. -1.
       -2    1    3    3    0  502  0.12157944248E+04  0.40435767522E+03  0.29529133060E+03  0.13148605184E+04  0.25500000920E-02 0.  1.
</event>
<event>
 5   0  0.1032076E-06  0.2583729E+04  0.7818609E-02  0.8373749E-01
        1   -1    0    0  501    0  0.00000000000E+00  0.00000000000E+00  0.23805486960E+04  0.23805486960E+04  0.50400001928E-02 0.  1.
       -1   -1    0    0    0  501  0.00000000000E+00  0.00000000000E+00 -0.70106253014E+03  0.70106253016E+03  0.50400001928E-02 0. -1.
    10030    2    1    2    0    0  0.00000000000E+00  0.00000000000E+00  0.16794861659E+04  0.30816112262E+04  0.25837286947E+04 0.  0.
        1    1    3    3  502    0  0.63165949084E+02 -0.91125680021E+03 -0.24982183798E+03  0.94698988580E+03  0.50400001928E-02 0. -1.
       -1    1    3    3    0  502 -0.63165949084E+02  0.91125680021E+03  0.19293080038E+04  0.21346213404E+04  0.50400001928E-02 0.  1.
</event>
<event>
 5   0  0.1055179E-06  0.2599126E+04  0.7818609E-02  0.8368498E-01
        1   -1    0    0  501    0  0.00000000000E+00  0.00000000000E+00  0.13333773347E+04  0.13333773347E+04  0.50400001928E-02 0. -1.
       -1   -1    0    0    0  501  0.00000000000E+00  0.00000000000E+00 -0.12666057636E+04  0.12666057636E+04  0.50400001928E-02 0.  1.
    10030    2    1    2    0    0  0.00000000000E+00  0.00000000000E+00  0.66771571094E+02  0.25999830983E+04  0.25991255584E+04 0.  0.
        3    1    3    3  502    0  0.16560062240E+03 -0.18697482962E+03 -0.12423703405E+04  0.12672281666E+04  0.10100000352E+00 0.  1.
       -3    1    3    3    0  502 -0.16560062240E+03  0.18697482962E+03  0.13091419116E+04  0.13327549317E+04  0.10100000352E+00 0. -1.
</event>
<event>
 5   0  0.2705807E-06  0.2620052E+04  0.7818609E-02  0.8361422E-01
       -2   -1    0    0    0  501  0.00000000000E+00  0.00000000000E+00  0.11989918958E+04  0.11989918958E+04  0.25500000920E-02 0.  1.
        2   -1    0    0  501    0  0.00000000000E+00  0.00000000000E+00 -0.14313423188E+04  0.14313423188E+04  0.25500000920E-02 0. -1.
    10030    2    1    2    0    0  0.00000000000E+00  0.00000000000E+00 -0.23235042306E+03  0.26303342146E+04  0.26200517860E+04 0.  0.
        4    1    3    3  502    0  0.32828046307E+03 -0.56531193275E+03  0.10235424822E+04  0.12144902097E+04  0.12699999809E+01 0.  1.
       -4    1    3    3    0  502 -0.32828046307E+03  0.56531193275E+03 -0.12558929053E+04  0.14158440049E+04  0.12699999809E+01 0. -1.
</event>
<event>
 5   0  0.2705807E-06  0.2598804E+04  0.7818609E-02  0.8368607E-01
       -2   -1    0    0    0  501  0.00000000000E+00  0.00000000000E+00  0.97364540562E+03  0.97364540563E+03  0.25500000920E-02 0. -1.
        2   -1    0    0  501    0  0.00000000000E+00  0.00000000000E+00 -0.17341486785E+04  0.17341486785E+04  0.25500000920E-02 0.  1.
    10030    2    1    2    0    0  0.00000000000E+00  0.00000000000E+00 -0.76050327290E+03  0.27077940841E+04  0.25988042585E+04 0.  0.
        4    1    3    3  502    0 -0.72050181371E+03 -0.97121913819E+03 -0.87564357431E+03  0.14930313996E+04  0.12699999809E+01 0. -1.
       -4    1    3    3    0  502  0.72050181371E+03  0.97121913819E+03  0.11514030141E+03  0.12147626846E+04  0.12699999809E+01 0.  1.
</event>
<event>
 5   0  0.2586775E-06  0.2622951E+04  0.7818609E-02  0.8360447E-01
       -2   -1    0    0    0  501  0.00000000000E+00  0.00000000000E+00  0.84078738284E+03  0.84078738284E+03  0.25500000920E-02 0.  1.
        2   -1    0    0  501    0  0.00000000000E+00  0.00000000000E+00 -0.20456630763E+04  0.20456630763E+04  0.25500000920E-02 0. -1.
    10030    2    1    2    0    0  0.00000000000E+00  0.00000000000E+00 -0.12048756935E+04  0.28864504591E+04  0.26229507842E+04 0.  0.
        1    1    3    3  502    0  0.86303091858E+03 -0.98627154165E+03 -0.54837198263E+03  0.14206568029E+04  0.50400001928E-02 0.  1.
       -1    1    3    3    0  502 -0.86303091858E+03  0.98627154165E+03 -0.65650371082E+03  0.14657936562E+04  0.50400001928E-02 0. -1.
</event>
<event>
 5   0  0.2623368E-06  0.2589930E+04  0.7818609E-02  0.8371630E-01
       -2   -1    0    0    0  501  0.00000000000E+00  0.00000000000E+00  0.94948321587E+03  0.94948321588E+03  0.25500000920E-02 0. -1.
        2   -1    0    0  501    0  0.00000000000E+00  0.00000000000E+00 -0.17661549172E+04  0.17661549172E+04  0.25500000920E-02 0.  1.
    10030    2    1    2    0    0  0.00000000000E+00  0.00000000000E+00 -0.81667170134E+03  0.27156381331E+04  0.25899300767E+04 0.  0.
        5    1    3    3  502    0 -0.11397126798E+04 -0.80589615651E+02  0.23073248528E+03  0.11656325529E+04  0.46999998093E+01 0. -1.
       -5    1    3    3    0  502  0.11397126798E+04  0.80589615651E+02 -0.10474041866E+04  0.15500055802E+04  0.46999998093E+01 0.  1.
</event>
<event>
 5   0  0.1055179E-06  0.2599723E+04  0.7818609E-02  0.8368295E-01
       -1   -1    0    0    0  501  0.00000000000E+00  0.00000000000E+00  0.97150823610E+03  0.97150823611E+03  0.50400001928E-02 0.  1.
        1   -1    0    0  501    0  0.00000000000E+00  0.00000000000E+00 -0.17391931776E+04  0.17391931776E+04  0.50400001928E-02 0. -1.
    10030    2    1    2    0    0  0.00000000000E+00  0.00000000000E+00 -0.76768494149E+03  0.27107014137E+04  0.25997234439E+04 0.  0.
        3    1    3    3  502    0 -0.71244766550E+03 -0.37877063262E+03  0.67877496649E+03  0.10544118425E+04  0.10100000352E+00 0. -1.
       -3    1    3    3    0  502  0.71244766550E+03  0.37877063262E+03 -0.14464599080E+04  0.16562895712E+04  0.10100000352E+00 0.  1.
</event>
<event>
 5   0  0.1032076E-06  0.2600568E+04  0.7818609E-02  0.8368008E-01
        1   -1    0    0  501    0  0.00000000000E+00  0.00000000000E+00  0.19089496346E+04  0.19089496346E+04  0.50400001928E-02 0.  1.
       -1   -1    0    0    0  501  0.00000000000E+00  0.00000000000E+00 -0.88569022026E+03  0.88569022027E+03  0.50400001928E-02 0. -1.
    10030    2    1    2    0    0  0.00000000000E+00  0.00000000000E+00  0.10232594143E+04  0.27946398549E+04  0.26005676475E+04 0.  0.
        1    1    3    3  502    0  0.84023507568E+03 -0.53385759879E+03  0.14105594813E+04  0.17264637177E+04  0.50400001928E-02 0.  1.
       -1    1    3    3    0  502 -0.84023507568E+03  0.53385759879E+03 -0.38730006694E+03  0.10681761372E+04  0.50400001928E-02 0. -1.
</event>
<event>
 5   0  0.2746631E-06  0.2596635E+04  0.7818609E-02  0.8369345E-01
        2   -1    0    0  501    0  0.00000000000E+00  0.00000000000E+00  0.17903319407E+04  0.17903319407E+04  0.25500000920E-02 0. -1.
       -2   -1    0    0    0  501  0.00000000000E+00  0.00000000000E+00 -0.94151702914E+03  0.94151702914E+03  0.25500000920E-02 0.  1.
    10030    2    1    2    0    0  0.00000000000E+00  0.00000000000E+00  0.84881491161E+03  0.27318489699E+04  0.25966347529E+04 0.  0.
        2    1    3    3  502    0  0.64073386344E+03 -0.25704457020E+03  0.15812170536E+04  0.17253576920E+04  0.25500000920E-02 0. -1.
       -2    1    3    3    0  502 -0.64073386344E+03  0.25704457020E+03 -0.73240214199E+03  0.10064912779E+04  0.25500000920E-02 0.  1.
</event>
<event>
 5   0  0.1088757E-06  0.2610518E+04  0.7818609E-02  0.8364637E-01
        1   -1    0    0  501    0  0.00000000000E+00  0.00000000000E+00  0.15038249966E+04  0.15038249966E+04  0.50400001928E-02 0.  1.
       -1   -1    0    0    0  501  0.00000000000E+00  0.00000000000E+00 -0.11329119621E+04  0.11329119621E+04  0.50400001928E-02 0. -1.
    10030    2    1    2    0    0  0.00000000000E+00  0.00000000000E+00  0.37091303452E+03  0.26367369587E+04  0.26105182072E+04 0.  0.
        5    1    3    3  502    0 -0.10108602523E+04 -0.46630666651E+03  0.87376902632E+03  0.14151942475E+04  0.46999998093E+01 0.  1.
       -5    1    3    3    0  502  0.10108602523E+04  0.46630666651E+03 -0.50285599180E+03  0.12215427112E+04  0.46999998093E+01 0. -1.
</event>
<event>
 5   0  0.1032076E-06  0.2597940E+04  0.7818609E-02  0.8368901E-01
       -1   -1    0    0    0  501  0.00000000000E+00  0.00000000000E+00  0.10206965985E+04  0.10206965985E+04  0.50400001928E-02 0.  1.
        1   -1    0    0  501    0  0.00000000000E+00  0.00000000000E+00 -0.16531090593E+04  0.16531090593E+04  0.50400001928E-02 0. -1.
    10030    2    1    2    0    0  0.00000000000E+00  0.00000000000E+00 -0.63241246083E+03  0.26738056578E+04  0.25979397944E+04 0.  0.
        1    1    3    3  502    0  0.84244901401E+03 -0.95818886580E+03 -0.56720618340E+03  0.13962697083E+04  0.50400001928E-02 0.  1.
       -1    1    3    3    0  502 -0.84244901401E+03  0.95818886580E+03 -0.65206277433E+02  0.12775359495E+04  0.50400001928E-02 0. -1.
</event>
<event>
 5   0  0.1122628E-06  0.2595101E+04  0.7818609E-02  0.8369867E-01
       -1   -1    0    0    0  501  0.00000000000E+00  0.00000000000E+00  0.11474936390E+04  0.11474936390E+04  0.50400001928E-02 0. -1.
        1   -1    0    0  501    0  0.00000000000E+00  0.00000000000E+00 -0.14672302669E+04  0.14672302669E+04  0.50400001928E-02 0.  1.
    10030    2    1    2    0    0  0.00000000000E+00  0.00000000000E+00 -0.31973662796E+03  0.26147239059E+04  0.25951010757E+04 0.  0.
        2    1    3    3  502    0 -0.83567058154E+03  0.49556947725E+03  0.70669488444E+03  0.12013958912E+04  0.25500000920E-02 0. -1.
       -2    1    3    3    0  502  0.83567058154E+03 -0.49556947725E+03 -0.10264315124E+04  0.14133280148E+04  0.25500000920E-02 0.  1.
</event>
<event>
 5   0  0.2746631E-06  0.2605303E+04  0.7818609E-02  0.8366402E-01
        2   -1    0    0  501    0  0.00000000000E+00  0.00000000000E+00  0.21201248491E+04  0.21201248491E+04  0.25500000920E-02 0.  1.
       -2   -1    0    0    0  501  0.00000000000E+00  0.00000000000E+00 -0.80037799054E+03  0.80037799055E+03  0.25500000920E-02 0. -1.
    10030    2    1    2    0    0  0.00000000000E+00  0.00000000000E+00  0.13197468586E+04  0.29205028397E+04  0.26053032579E+04 0.  0.
        2    1    3    3  502    0  0.83023175338E+02 -0.67174499436E+03 -0.58778061382E+03  0.89644867956E+03  0.25500000920E-02 0. -1.
       -2    1    3    3    0  502 -0.83023175338E+02  0.67174499436E+03  0.19075274724E+04  0.20240541601E+04  0.25500000920E-02 0.  1.
</event>
<event>
 5   0  0.2820028E-06  0.2614338E+04  0.7818609E-02  0.8363347E-01
       -2   -1    0    0    0  501  0.00000000000E+00  0.00000000000E+00  0.88015500928E+03  0.88015500928E+03  0.25500000920E-02 0.  1.
        2   -1    0    0  501    0  0.00000000000E+00  0.00000000000E+00 -0.19413521203E+04  0.19413521203E+04  0.25500000920E-02 0. -1.
    10030    2    1    2    0    0  0.00000000000E+00  0.00000000000E+00 -0.10611971110E+04  0.28215071295E+04  0.26143379991E+04 0.  0.
        3    1    3    3  502    0 -0.46480304817E+03 -0.11573938912E+04 -0.10832838570E+03  0.12519335216E+04  0.10100000352E+00 0.  1.
       -3    1    3    3    0  502  0.46480304817E+03  0.11573938912E+04 -0.95286872529E+03  0.15695736080E+04  0.10100000352E+00 0. -1.
</event>
<event>
 5   0  0.1088757E-06  0.2598589E+04  0.7818609E-02  0.8368681E-01
        1   -1    0    0  501    0  0.00000000000E+00  0.00000000000E+00  0.12829819137E+04  0.12829819137E+04  0.50400001928E-02 0. -1.
       -1   -1    0    0    0  501  0.00000000000E+00  0.00000000000E+00 -0.13158146427E+04  0.13158146427E+04  0.50400001928E-02 0.  1.
    10030    2    1    2    0    0  0.00000000000E+00  0.00000000000E+00 -0.32832728972E+02  0.25987965564E+04  0.25985891467E+04 0.  0.
        5    1    3    3  502    0 -0.91580781092E+03  0.42268798291E+03  0.80265768756E+03  0.12890502437E+04  0.46999998093E+01 0. -1.
       -5    1    3    3    0  502  0.91580781092E+03 -0.42268798291E+03 -0.83549041653E+03  0.13097463127E+04  0.46999998093E+01 0.  1.
</event>
<event>
 5   0  0.1032076E-06  0.2599873E+04  0.7818609E-02  0.8368244E-01
        1   -1    0    0  501    0  0.00000000000E+00  0.00000000000E+00  0.10738224544E+04  0.10738224544E+04  0.50400001928E-02 0. -1.
       -1   -1    0    0    0  501  0.00000000000E+00  0.00000000000E+00 -0.15736627147E+04  0.15736627147E+04  0.50400001928E-02 0.  1.
    10030    2    1    2    0    0  0.00000000000E+00  0.00000000000E+00 -0.49984026023E+03  0.26474851691E+04  0.25998725805E+04 0.  0.
        1    1    3    3  502    0  0.98119462511E+03  0.76843409511E+03 -0.62628374317E+03  0.13947993325E+04  0.50400001928E-02 0.  1.
       -1    1    3    3    0  502 -0.98119462511E+03 -0.76843409511E+03  0.12644348293E+03  0.12526858366E+04  0.50400001928E-02 0. -1.
</event>
<event>
 5   0  0.1055179E-06  0.2606998E+04  0.7818609E-02  0.8365828E-01
        1   -1    0    0  501    0  0.00000000000E+00  0.00000000000E+00  0.82855097945E+03  0.82855097946E+03  0.50400001928E-02 0.  1.
       -1   -1    0    0    0  501  0.00000000000E+00  0.00000000000E+00 -0.20507000437E+04  0.20507000437E+04  0.50400001928E-02 0. -1.
    10030    2    1    2    0    0  0.00000000000E+00  0.00000000000E+00 -0.12221490643E+04  0.28792510232E+04  0.26069979132E+04 0.  0.
        3    1    3    3  502    0 -0.42035246846E+03  0.11957542266E+04 -0.94712887860E+03  0.15822697277E+04  0.10100000352E+00 0. -1.
       -3    1    3    3    0  502  0.42035246846E+03 -0.11957542266E+04 -0.27502018569E+03  0.12969812955E+04  0.10100000352E+00 0.  1.
</event>
<event>
 5   0  0.2623368E-06  0.2596936E+04  0.7818609E-02  0.8369243E-01
        2   -1    0    0  501    0  0.00000000000E+00  0.00000000000E+00  0.12949575245E+04  0.12949575245E+04  0.25500000920E-02 0.  1.
       -2   -1    0    0    0  501  0.00000000000E+00  0.00000000000E+00 -0.13019883564E+04  0.13019883564E+04  0.25500000920E-02 0. -1.
    10030    2    1    2    0    0  0.00000000000E+00  0.00000000000E+00 -0.70308319302E+01  0.25969458809E+04  0.25969363634E+04 0.  0.
        5    1    3    3  502    0  0.10448388564E+04 -0.45716499149E+03 -0.62425069608E+03  0.13001534858E+04  0.46999998093E+01 0. -1.
       -5    1    3    3    0  502 -0.10448388564E+04  0.45716499149E+03  0.61721986415E+03  0.12967923951E+04  0.46999998093E+01 0.  1.
</event>
<event>
 5   0  0.9197000E-07  0.2600866E+04  0.7818609E-02  0.8367907E-01
        3   -1    0    0  501    0  0.00000000000E+00  0.00000000000E+00  0.88602877723E+03  0.88602878298E+03  0.10100000352E+00 0.  1.
       -3   -1    0    0    0  501  0.00000000000E+00  0.00000000000E+00 -0.19086580896E+04  0.19086580923E+04  0.10100000352E+00 0. -1.
    10030    2    1    2    0    0  0.00000000000E+00  0.00000000000E+00 -0.10226293124E+04  0.27946868753E+04  0.26008660135E+04 0.  0.
        4    1    3    3  502    0  0.96829611258E+03  0.20241192762E+03  0.39572194262E+03  0.10654414197E+04  0.12699999809E+01 0.  1.
       -4    1    3    3    0  502 -0.96829611258E+03 -0.20241192762E+03 -0.14183512550E+04  0.17292454556E+04  0.12699999809E+01 0. -1.
</event>
<event>
 5   0  0.2746631E-06  0.2623892E+04  0.7818609E-02  0.8360131E-01
       -2   -1    0    0    0  501  0.00000000000E+00  0.00000000000E+00  0.12104888050E+04  0.12104888050E+04  0.25500000920E-02 0.  1.
        2   -1    0    0  501    0  0.00000000000E+00  0.00000000000E+00 -0.14219069216E+04  0.14219069216E+04  0.25500000920E-02 0. -1.
    10030    2    1    2    0    0  0.00000000000E+00  0.00000000000E+00 -0.21141811658E+03  0.26323957266E+04  0.26238920789E+04 0.  0.
        2    1    3    3  502    0 -0.45427651634E+03 -0.21433236166E+03 -0.13216174762E+04  0.14138522794E+04  0.25500000920E-02 0. -1.
       -2    1    3    3    0  502  0.45427651634E+03  0.21433236166E+03  0.11101993596E+04  0.12185434472E+04  0.25500000920E-02 0.  1.
</event>
<event>
 5   0  0.2746631E-06  0.2599263E+04  0.7818609E-02  0.8368452E-01
       -2   -1    0    0    0  501  0.00000000000E+00  0.00000000000E+00  0.87041642835E+03  0.87041642835E+03  0.25500000920E-02 0.  1.
        2   -1    0    0  501    0  0.00000000000E+00  0.00000000000E+00 -0.19404985265E+04  0.19404985265E+04  0.25500000920E-02 0. -1.
    10030    2    1    2    0    0  0.00000000000E+00  0.00000000000E+00 -0.10700820982E+04  0.28109149549E+04  0.25992628160E+04 0.  0.
        2    1    3    3  502    0 -0.61214570795E+03  0.11406682159E+04 -0.41081587453E+03  0.13581664218E+04  0.25500000920E-02 0. -1.
       -2    1    3    3    0  502  0.61214570795E+03 -0.11406682159E+04 -0.65926622366E+03  0.14527485331E+04  0.25500000920E-02 0.  1.
</event>
<event>
 5   0  0.2623368E-06  0.2602874E+04  0.7818609E-02  0.8367226E-01
        2   -1    0    0  501    0  0.00000000000E+00  0.00000000000E+00  0.11857665162E+04  0.11857665162E+04  0.25500000920E-02 0. -1.
       -2   -1    0    0    0  501  0.00000000000E+00  0.00000000000E+00 -0.14283911614E+04  0.14283911614E+04  0.25500000920E-02 0.  1.
    10030    2    1    2    0    0  0.00000000000E+00  0.00000000000E+00 -0.24262464519E+03  0.26141576776E+04  0.26028741124E+04 0.  0.
        5    1    3    3  502    0 -0.11327177424E+04 -0.38041634926E+03 -0.63925155330E+03  0.13551497043E+04  0.46999998093E+01 0.  1.
       -5    1    3    3    0  502  0.11327177424E+04  0.38041634926E+03  0.39662690811E+03  0.12590079733E+04  0.46999998093E+01 0. -1.
</event>
<event>
 5   0  0.2586775E-06  0.2621855E+04  0.7818609E-02  0.8360815E-01
        2   -1    0    0  501    0  0.00000000000E+00  0.00000000000E+00  0.16912656453E+04  0.16912656453E+04  0.25500000920E-02 0.  1.
       -2   -1    0    0    0  501  0.00000000000E+00  0.00000000000E+00 -0.10161209243E+04  0.10161209243E+04  0.25500000920E-02 0. -1.
    10030    2    1    2    0    0  0.00000000000E+00  0.00000000000E+00  0.67514472097E+03  0.27073865696E+04  0.26218546190E+04 0.  0.
        1    1    3    3  502    0 -0.39702438039E+03 -0.10952955098E+04 -0.28305861598E+03  0.11989256827E+04  0.50400001928E-02 0. -1.
       -1    1    3    3    0  502  0.39702438039E+03  0.10952955098E+04  0.95820333694E+03  0.15084608869E+04  0.50400001928E-02 0.  1.
</event>
<event>
 5   0  0.2746631E-06  0.2598963E+04  0.7818609E-02  0.8368553E-01
        2   -1    0    0  501    0  0.00000000000E+00  0.00000000000E+00  0.12706501696E+04  0.12706501696E+04  0.25500000920E-02 0.  1.
       -2   -1    0    0    0  501  0.00000000000E+00  0.00000000000E+00 -0.13289673439E+04  0.13289673439E+04  0.25500000920E-02 0. -1.
    10030    2    1    2    0    0  0.00000000000E+00  0.00000000000E+00 -0.58317174332E+02  0.25996175135E+04  0.25989633171E+04 0.  0.
        2    1    3    3  502    0  0.16378050150E+03  0.12185278040E+04  0.39168300597E+03  0.12903680246E+04  0.25500000920E-02 0.  1.
       -2    1    3    3    0  502 -0.16378050150E+03 -0.12185278040E+04 -0.45000018030E+03  0.13092494889E+04  0.25500000920E-02 0. -1.
</event>
<event>
 5   0  0.2586775E-06  0.2600008E+04  0.7818609E-02  0.8368199E-01
        2   -1    0    0  501    0  0.00000000000E+00  0.00000000000E+00  0.17271789427E+04  0.17271789427E+04  0.25500000920E-02 0.  1.
       -2   -1    0    0    0  501  0.00000000000E+00  0.00000000000E+00 -0.97847989650E+03  0.97847989650E+03  0.25500000920E-02 0. -1.
    10030    2    1    2    0    0  0.00000000000E+00  0.00000000000E+00  0.74869904618E+03  0.27056588392E+04  0.26000075947E+04 0.  0.
        1    1    3    3  502    0 -0.94371120144E+03  0.73539460688E+03  0.90355493577E+03  0.14992690157E+04  0.50400001928E-02 0.  1.
       -1    1    3    3    0  502  0.94371120144E+03 -0.73539460688E+03 -0.15485588959E+03  0.12063898234E+04  0.50400001928E-02 0. -1.
</event>
<event>
 5   0  0.1100104E-06  0.2597806E+04  0.7818609E-02  0.8368947E-01
       -1   -1    0    0    0  501  0.00000000000E+00  0.00000000000E+00  0.12094824590E+04  0.12094824590E+04  0.50400001928E-02 0. -1.
        1   -1    0    0  501    0  0.00000000000E+00  0.00000000000E+00 -0.13949347284E+04  0.13949347284E+04  0.50400001928E-02 0.  1.
    10030    2    1    2    0    0  0.00000000000E+00  0.00000000000E+00 -0.18545226939E+03  0.26044171875E+04  0.25978060632E+04 0.  0.
        4    1    3    3  502    0 -0.74500198184E+03 -0.13582199106E+03  0.96526604796E+03  0.12268723334E+04  0.12699999809E+01 0. -1.
       -4    1    3    3    0  502  0.74500198184E+03  0.13582199106E+03 -0.11507183173E+04  0.13775448541E+04  0.12699999809E+01 0.  1.
</event>
<event>
 5   0  0.1100104E-06  0.2609666E+04  0.7818609E-02  0.8364925E-01
        1   -1    0    0  501    0  0.00000000000E+00  0.00000000000E+00  0.25039732162E+04  0.25039732162E+04  0.50400001928E-02 0.  1.
       -1   -1    0    0    0  501  0.00000000000E+00  0.00000000000E+00 -0.67995481449E+03  0.67995481450E+03  0.50400001928E-02 0. -1.
    10030    2    1    2    0    0  0.00000000000E+00  0.00000000000E+00  0.18240184017E+04  0.31839280307E+04  0.26096656060E+04 0.  0.
        4    1    3    3  502    0  0.12125450079E+03  0.36405907248E+03 -0.60956032207E+03  0.72028262603E+03  0.12699999809E+01 0. -1.
       -4    1    3    3    0  502 -0.12125450079E+03 -0.36405907248E+03  0.24335787238E+04  0.24636454047E+04  0.12699999809E+01 0.  1.
</event>
<event>
 5   0  0.1100104E-06  0.2602572E+04  0.7818609E-02  0.8367328E-01
       -1   -1    0    0    0  501  0.00000000000E+00  0.00000000000E+00  0.18445689875E+04  0.18445689875E+04  0.50400001928E-02 0. -1.
        1   -1    0    0  501    0  0.00000000000E+00  0.00000000000E+00 -0.91801708758E+03  0.91801708759E+03  0.50400001928E-02 0.  1.
    10030    2    1    2    0    0  0.00000000000E+00  0.00000000000E+00  0.92655189994E+03  0.27625860751E+04  0.26025724580E+04 0.  0.
        4    1    3    3  502    0  0.92876127327E+03  0.33722195530E+03 -0.43556132183E+03  0.10798293513E+04  0.12699999809E+01 0.  1.
       -4    1    3    3    0  502 -0.92876127327E+03 -0.33722195530E+03  0.13621132218E+04  0.16827567239E+04  0.12699999809E+01 0. -1.
</event>
<event>
 5   0  0.2705807E-06  0.2602091E+04  0.7818609E-02  0.8367491E-01
       -2   -1    0    0    0  501  0.00000000000E+00  0.00000000000E+00  0.10089759944E+04  0.10089759944E+04  0.25500000920E-02 0.  1.
        2   -1    0    0  501    0  0.00000000000E+00  0.00000000000E+00 -0.16776613627E+04  0.16776613627E+04  0.25500000920E-02 0. -1.
    10030    2    1    2    0    0  0.00000000000E+00  0.00000000000E+00 -0.66868536838E+03  0.26866373571E+04  0.26020914985E+04 0.  0.
        4    1    3    3  502    0  0.79765659414E+03  0.79181570602E+03  0.34230586089E+03  0.11749055578E+04  0.12699999809E+01 0.  1.
       -4    1    3    3    0  502 -0.79765659414E+03 -0.79181570602E+03 -0.10109912293E+04  0.15117317993E+04  0.12699999809E+01 0. -1.
</event>
<event>
 5   0  0.1088757E-06  0.2579718E+04  0.7818609E-02  0.8375123E-01
        1   -1    0    0  501    0  0.00000000000E+00  0.00000000000E+00  0.19824932646E+04  0.19824932646E+04  0.50400001928E-02 0. -1.
       -1   -1    0    0    0  501  0.00000000000E+00  0.00000000000E+00 -0.83921390804E+03  0.83921390806E+03  0.50400001928E-02 0.  1.
    10030    2    1    2    0    0  0.00000000000E+00  0.00000000000E+00  0.11432793566E+04  0.28217071727E+04  0.25797177522E+04 0.  0.
        5    1    3    3  502    0 -0.97238604546E+03  0.14045029752E+03  0.14857704308E+04  0.17812346197E+04  0.46999998093E+01 0. -1.
       -5    1    3    3    0  502  0.97238604546E+03 -0.14045029752E+03 -0.34249107423E+03  0.10404725529E+04  0.46999998093E+01 0.  1.
</event>
<event>
 5   0  0.1122628E-06  0.2607960E+04  0.7818609E-02  0.8365502E-01
        1   -1    0    0  501    0  0.00000000000E+00  0.00000000000E+00  0.22720995136E+04  0.22720995136E+04  0.50400001928E-02 0.  1.
       -1   -1    0    0    0  501  0.00000000000E+00  0.00000000000E+00 -0.74836670832E+03  0.74836670834E+03  0.50400001928E-02 0. -1.
    10030    2    1    2    0    0  0.00000000000E+00  0.00000000000E+00  0.15237328053E+04  0.30204662219E+04  0.26079598417E+04 0.  0.
        2    1    3    3  502    0  0.82850997709E+03  0.79017053118E+03  0.38991306472E+02  0.11455647395E+04  0.25500000920E-02 0.  1.
       -2    1    3    3    0  502 -0.82850997709E+03 -0.79017053118E+03  0.14847414988E+04  0.18749014824E+04  0.25500000920E-02 0. -1.
</event>
<event>
 5   0  0.1100104E-06  0.2600191E+04  0.7818609E-02  0.8368136E-01
        1   -1    0    0  501    0  0.00000000000E+00  0.00000000000E+00  0.12884972454E+04  0.12884972454E+04  0.50400001928E-02 0. -1.
       -1   -1    0    0    0  501  0.00000000000E+00  0.00000000000E+00 -0.13117978087E+04  0.13117978087E+04  0.50400001928E-02 0.  1.
    10030    2    1    2    0    0  0.00000000000E+00  0.00000000000E+00 -0.23300563310E+02  0.26002950541E+04  0.26001906569E+04 0.  0.
        4    1    3    3  502    0  0.17625454522E+03 -0.68276271783E+03 -0.11039466962E+04  0.13099353093E+04  0.12699999809E+01 0.  1.
       -4    1    3    3    0  502 -0.17625454522E+03  0.68276271783E+03  0.10806461329E+04  0.12903597448E+04  0.12699999809E+01 0. -1.
</event>
<event>
 5   0  0.1100104E-06  0.2606557E+04  0.7818609E-02  0.8365977E-01
       -1   -1    0    0    0  501  0.00000000000E+00  0.00000000000E+00  0.94526396151E+03  0.94526396153E+03  0.50400001928E-02 0. -1.
        1   -1    0    0  501    0  0.00000000000E+00  0.00000000000E+00 -0.17968898657E+04  0.17968898657E+04  0.50400001928E-02 0.  1.
    10030    2    1    2    0    0  0.00000000000E+00  0.00000000000E+00 -0.85162590421E+03  0.27421538273E+04  0.26065572949E+04 0.  0.
        4    1    3    3  502    0 -0.12528485726E+04 -0.12817778537E+03 -0.72994223409E+02  0.12615026199E+04  0.12699999809E+01 0. -1.
       -4    1    3    3    0  502  0.12528485726E+04  0.12817778537E+03 -0.77863168080E+03  0.14806512073E+04  0.12699999809E+01 0.  1.
</event>
<event>
 5   0  0.2820028E-06  0.2546866E+04  0.7818609E-02  0.8386477E-01
       -2   -1    0    0    0  501  0.00000000000E+00  0.00000000000E+00  0.67013940972E+03  0.67013940973E+03  0.25500000920E-02 0. -1.
        2   -1    0    0  501    0  0.00000000000E+00  0.00000000000E+00 -0.24198415541E+04  0.24198415541E+04  0.25500000920E-02 0.  1.
    10030    2    1    2    0    0  0.00000000000E+00  0.00000000000E+00 -0.17497021444E+04  0.30899809638E+04  0.25468656743E+04 0.  0.
        3    1    3    3  502    0  0.39886135281E+03  0.43312250276E+03  0.49507019500E+03  0.76927237657E+03  0.10100000352E+00 0. -1.
       -3    1    3    3    0  502 -0.39886135281E+03 -0.43312250276E+03 -0.22447723394E+04  0.23207085873E+04  0.10100000352E+00 0.  1.
</event>
<event>
 5   0  0.1122628E-06  0.2615518E+04  0.7818609E-02  0.8362949E-01
       -1   -1    0    0    0  501  0.00000000000E+00  0.00000000000E+00  0.18037834599E+04  0.18037834599E+04  0.50400001928E-02 0.  1.
        1   -1    0    0  501    0  0.00000000000E+00  0.00000000000E+00 -0.94813652690E+03  0.94813652691E+03  0.50400001928E-02 0. -1.
    10030    2    1    2    0    0  0.00000000000E+00  0.00000000000E+00  0.85564693298E+03  0.27519199868E+04  0.26155175281E+04 0.  0.
        2    1    3    3  502    0 -0.97013237262E+03 -0.82262434925E+03  0.74758976886E+03  0.14753840527E+04  0.25500000920E-02 0. -1.
       -2    1    3    3    0  502  0.97013237262E+03  0.82262434925E+03  0.10805716413E+03  0.12765359341E+04  0.25500000920E-02 0.  1.
</event>
<event>
 5   0  0.2820028E-06  0.2600942E+04  0.7818609E-02  0.8367881E-01
        2   -1    0    0  501    0  0.00000000000E+00  0.00000000000E+00  0.14099992577E+04  0.14099992577E+04  0.25500000920E-02 0. -1.
       -2   -1    0    0    0  501  0.00000000000E+00  0.00000000000E+00 -0.11994505998E+04  0.11994505998E+04  0.25500000920E-02 0.  1.
    10030    2    1    2    0    0  0.00000000000E+00  0.00000000000E+00  0.21054865785E+03  0.26094498575E+04  0.26009417182E+04 0.  0.
        3    1    3    3  502    0  0.64992901292E+03  0.42618597797E+03  0.11513654334E+04  0.13891308726E+04  0.10100000352E+00 0. -1.
       -3    1    3    3    0  502 -0.64992901292E+03 -0.42618597797E+03 -0.94081677557E+03  0.12203189850E+04  0.10100000352E+00 0.  1.
</event>
<event>
 5   0  0.1088757E-06  0.2601434E+04  0.7818609E-02  0.8367714E-01
       -1   -1    0    0    0  501  0.00000000000E+00  0.00000000000E+00  0.99104786104E+03  0.99104786105E+03  0.50400001928E-02 0.  1.
        1   -1    0    0  501    0  0.00000000000E+00  0.00000000000E+00 -0.17071470901E+04  0.17071470901E+04  0.50400001928E-02 0. -1.
    10030    2    1    2    0    0  0.00000000000E+00  0.00000000000E+00 -0.71609922906E+03  0.26981949511E+04  0.26014338140E+04 0.  0.
        5    1    3    3  502    0 -0.31993704781E+03  0.12062295031E+03 -0.16596916169E+04  0.16945524376E+04  0.46999998093E+01 0. -1.
       -5    1    3    3    0  502  0.31993704781E+03 -0.12062295031E+03  0.94359238780E+03  0.10036425136E+04  0.46999998093E+01 0.  1.
</event>
<event>
 5   0  0.2820028E-06  0.2601238E+04  0.7818609E-02  0.8367781E-01
        2   -1    0    0  501    0  0.00000000000E+00  0.00000000000E+00  0.18316163512E+04  0.18316163512E+04  0.25500000920E-02 0. -1.
       -2   -1    0    0    0  501  0.00000000000E+00  0.00000000000E+00 -0.92356140076E+03  0.92356140076E+03  0.25500000920E-02 0.  1.
    10030    2    1    2    0    0  0.00000000000E+00  0.00000000000E+00  0.90805495045E+03  0.27551777520E+04  0.26012382920E+04 0.  0.
        3    1    3    3  502    0  0.67888663291E+03 -0.85894809308E+03  0.11976673468E+04  0.16226786406E+04  0.10100000352E+00 0.  1.
       -3    1    3    3    0  502 -0.67888663291E+03  0.85894809308E+03 -0.28961239632E+03  0.11324991114E+04  0.10100000352E+00 0. -1.
</event>
<event>
 5   0  0.1055179E-06  0.2594749E+04  0.7818609E-02  0.8369987E-01
       -1   -1    0    0    0  501  0.00000000000E+00  0.00000000000E+00  0.90894271411E+03  0.90894271412E+03  0.50400001928E-02 0. -1.
        1   -1    0    0  501    0  0.00000000000E+00  0.00000000000E+00 -0.18518011928E+04  0.18518011928E+04  0.50400001928E-02 0.  1.
    10030    2    1    2    0    0  0.00000000000E+00  0.00000000000E+00 -0.94285847869E+03  0.27607439069E+04  0.25947494694E+04 0.  0.
        3    1    3    3  502    0  0.45192565516E+03 -0.10971171748E+04  0.86805267371E+02  0.11897218405E+04  0.10100000352E+00 0.  1.
       -3    1    3    3    0  502 -0.45192565516E+03  0.10971171748E+04 -0.10296637461E+04  0.15710220664E+04  0.10100000352E+00 0. -1.
</event>
<event>
 5   0  0.1088757E-06  0.2600795E+04  0.7818609E-02  0.8367931E-01
        1   -1    0    0  501    0  0.00000000000E+00  0.00000000000E+00  0.17877379702E+04  0.17877379702E+04  0.50400001928E-02 0. -1.
       -1   -1    0    0    0  501  0.00000000000E+00  0.00000000000E+00 -0.94590715083E+03  0.94590715084E+03  0.50400001928E-02 0.  1.
    10030    2    1    2    0    0  0.00000000000E+00  0.00000000000E+00  0.84183081935E+03  0.27336451210E+04  0.26007953628E+04 0.  0.
        5    1    3    3  502    0  0.11655770434E+03  0.49478773963E+03 -0.83714112702E+03  0.97940183903E+03  0.46999998093E+01 0.  1.
       -5    1    3    3    0  502 -0.11655770434E+03 -0.49478773963E+03  0.16789719464E+04  0.17542432820E+04  0.46999998093E+01 0. -1.
</event>
<event>
 5   0  0.2623368E-06  0.2614853E+04  0.7818609E-02  0.8363174E-01
        2   -1    0    0  501    0  0.00000000000E+00  0.00000000000E+00  0.12987332193E+04  0.12987332193E+04  0.25500000920E-02 0. -1.
       -2   -1    0    0    0  501  0.00000000000E+00  0.00000000000E+00 -0.13161774783E+04  0.13161774783E+04  0.25500000920E-02 0.  1.
    10030    2    1    2    0    0  0.00000000000E+00  0.00000000000E+00 -0.17444259040E+02  0.26149106976E+04  0.26148525110E+04 0.  0.
        5    1    3    3  502    0 -0.87274764416E+03  0.18905388688E+03 -0.96368395383E+03  0.13138259685E+04  0.46999998093E+01 0.  1.
       -5    1    3    3    0  502  0.87274764416E+03 -0.18905388688E+03  0.94623969479E+03  0.13010847292E+04  0.46999998093E+01 0. -1.
</event>
<event>
 5   0  0.1055179E-06  0.2596032E+04  0.7818609E-02  0.8369550E-01
        1   -1    0    0  501    0  0.00000000000E+00  0.00000000000E+00  0.18778381702E+04  0.18778381702E+04  0.50400001928E-02 0.  1.
       -1   -1    0    0    0  501  0.00000000000E+00  0.00000000000E+00 -0.89722614446E+03  0.89722614448E+03  0.50400001928E-02 0. -1.
    10030    2    1    2    0    0  0.00000000000E+00  0.00000000000E+00  0.98061202572E+03  0.27750643147E+04  0.25960319731E+04 0.  0.
        3    1    3    3  502    0 -0.84611989144E+03  0.55719501147E+03 -0.37711078186E+03  0.10810169765E+04  0.10100000352E+00 0. -1.
       -3    1    3    3    0  502  0.84611989144E+03 -0.55719501147E+03  0.13577228076E+04  0.16940473382E+04  0.10100000352E+00 0.  1.
</event>
<event>
 5   0  0.1122628E-06  0.2599605E+04  0.7818609E-02  0.8368335E-01
        1   -1    0    0  501    0  0.00000000000E+00  0.00000000000E+00  0.14527387339E+04  0.14527387339E+04  0.50400001928E-02 0. -1.
       -1   -1    0    0    0  501  0.00000000000E+00  0.00000000000E+00 -0.11629662908E+04  0.11629662908E+04  0.50400001928E-02 0.  1.
    10030    2    1    2    0    0  0.00000000000E+00  0.00000000000E+00  0.28977244307E+03  0.26157050247E+04  0.25996047214E+04 0.  0.
        2    1    3    3  502    0 -0.82339771510E+03 -0.60938901321E+03  0.94993361093E+03  0.13970370904E+04  0.25500000920E-02 0. -1.
       -2    1    3    3    0  502  0.82339771510E+03  0.60938901321E+03 -0.66016116786E+03  0.12186679344E+04  0.25500000920E-02 0.  1.
</event>
<event>
 5   0  0.2746631E-06  0.2599995E+04  0.7818609E-02  0.8368203E-01
        2   -1    0    0  501    0  0.00000000000E+00  0.00000000000E+00  0.15596303601E+04  0.15596303601E+04  0.25500000920E-02 0.  1.
       -2   -1    0    0    0  501  0.00000000000E+00  0.00000000000E+00 -0.10835858997E+04  0.10835858997E+04  0.25500000920E-02 0. -1.
    10030    2    1    2    0    0  0.00000000000E+00  0.00000000000E+00  0.47604446039E+03  0.26432162597E+04  0.25999949745E+04 0.  0.
        2    1    3    3  502    0  0.10826374862E+04  0.16244462177E+03 -0.47470363117E+03  0.11932458754E+04  0.25500000920E-02 0. -1.
       -2    1    3    3    0  502 -0.10826374862E+04 -0.16244462177E+03  0.95074809156E+03  0.14499703843E+04  0.25500000920E-02 0.  1.
</event>
<event>
 5   0  0.2746631E-06  0.2597357E+04  0.7818609E-02  0.8369099E-01
       -2   -1    0    0    0  501  0.00000000000E+00  0.00000000000E+00  0.76872252811E+03  0.76872252812E+03  0.25500000920E-02 0.  1.
        2   -1    0    0  501    0  0.00000000000E+00  0.00000000000E+00 -0.21939856701E+04  0.21939856701E+04  0.25500000920E-02 0. -1.
    10030    2    1    2    0    0  0.00000000000E+00  0.00000000000E+00 -0.14252631419E+04  0.29627081982E+04  0.25973572807E+04 0.  0.
        2    1    3    3  502    0 -0.66763159751E+03  0.10341056284E+04 -0.24030937455E+03  0.12541351586E+04  0.25500000920E-02 0.  1.
       -2    1    3    3    0  502  0.66763159751E+03 -0.10341056284E+04 -0.11849537674E+04  0.17085730395E+04  0.25500000920E-02 0. -1.
</event>
<event>
 5   0  0.2705807E-06  0.2605567E+04  0.7818609E-02  0.8366313E-01
        2   -1    0    0  501    0  0.00000000000E+00  0.00000000000E+00  0.22942052095E+04  0.22942052095E+04  0.25500000920E-02 0.  1.
       -2   -1    0    0    0  501  0.00000000000E+00  0.00000000000E+00 -0.73979630376E+03  0.73979630377E+03  0.25500000920E-02 0. -1.
    10030    2    1    2    0    0  0.00000000000E+00  0.00000000000E+00  0.15544089057E+04  0.30340015132E+04  0.26055667591E+04 0.  0.
        4    1    3    3  502    0 -0.36131331977E+03  0.51828808100E+03 -0.54946631004E+03  0.83730800110E+03  0.12699999809E+01 0. -1.
       -4    1    3    3    0  502  0.36131331977E+03 -0.51828808100E+03  0.21038752157E+04  0.21966935121E+04  0.12699999809E+01 0.  1.
</event>
<event>
 5   0  0.2586775E-06  0.2602126E+04  0.7818609E-02  0.8367479E-01
       -2   -1    0    0    0  501  0.00000000000E+00  0.00000000000E+00  0.86141838126E+03  0.86141838127E+03  0.25500000920E-02 0.  1.
        2   -1    0    0  501    0  0.00000000000E+00  0.00000000000E+00 -0.19650900558E+04  0.19650900558E+04  0.25500000920E-02 0. -1.
    10030    2    1    2    0    0  0.00000000000E+00  0.00000000000E+00 -0.11036716745E+04  0.28265084370E+04  0.26021258193E+04 0.  0.
        1    1    3    3  502    0  0.25164471348E+03  0.57522062787E+03 -0.17896434487E+04  0.18965831134E+04  0.50400001928E-02 0. -1.
       -1    1    3    3    0  502 -0.25164471348E+03 -0.57522062787E+03  0.68597177418E+03  0.92992532364E+03  0.50400001928E-02 0.  1.
</event>
<event>
 5   0  0.2623368E-06  0.2604981E+04  0.7818609E-02  0.8366511E-01
        2   -1    0    0  501    0  0.00000000000E+00  0.00000000000E+00  0.10472203989E+04  0.10472203989E+04  0.25500000920E-02 0.  1.
       -2   -1    0    0    0  501  0.00000000000E+00  0.00000000000E+00 -0.16199857068E+04  0.16199857068E+04  0.25500000920E-02 0. -1.
    10030    2    1    2    0    0  0.00000000000E+00  0.00000000000E+00 -0.57276530784E+03  0.26672061057E+04  0.26049814419E+04 0.  0.
        5    1    3    3  502    0 -0.10823849082E+04 -0.67703135416E+02  0.45217918180E+03  0.11750016623E+04  0.46999998093E+01 0.  1.
       -5    1    3    3    0  502  0.10823849082E+04  0.67703135416E+02 -0.10249444896E+04  0.14922044434E+04  0.46999998093E+01 0. -1.
</event>
<event>
 5   0  0.2705807E-06  0.2613710E+04  0.7818609E-02  0.8363559E-01
       -2   -1    0    0    0  501  0.00000000000E+00  0.00000000000E+00  0.13815541136E+04  0.13815541136E+04  0.25500000920E-02 0.  1.
        2   -1    0    0  501    0  0.00000000000E+00  0.00000000000E+00 -0.12361952066E+04  0.12361952066E+04  0.25500000920E-02 0. -1.
    10030    2    1    2    0    0  0.00000000000E+00  0.00000000000E+00  0.14535890704E+03  0.26177493202E+04  0.26137104453E+04 0.  0.
        4    1    3    3  502    0  0.80452845926E+03  0.96137709461E+03 -0.29715664692E+03  0.12883383273E+04  0.12699999809E+01 0. -1.
       -4    1    3    3    0  502 -0.80452845926E+03 -0.96137709461E+03  0.44251555395E+03  0.13294109930E+04  0.12699999809E+01 0.  1.
</event>
<event>
 5   0  0.2586775E-06  0.2626285E+04  0.7818609E-02  0.8359327E-01
        2   -1    0    0  501    0  0.00000000000E+00  0.00000000000E+00  0.12006321039E+04  0.12006321039E+04  0.25500000920E-02 0. -1.
       -2   -1    0    0    0  501  0.00000000000E+00  0.00000000000E+00 -0.14361964371E+04  0.14361964371E+04  0.25500000920E-02 0.  1.
    10030    2    1    2    0    0  0.00000000000E+00  0.00000000000E+00 -0.23556433325E+03  0.26368285410E+04  0.26262852472E+04 0.  0.
        1    1    3    3  502    0  0.83559160520E+03 -0.46276470978E+03 -0.10224984497E+04  0.13992382166E+04  0.50400001928E-02 0.  1.
       -1    1    3    3    0  502 -0.83559160520E+03  0.46276470978E+03  0.78693411641E+03  0.12375903243E+04  0.50400001928E-02 0. -1.
</event>
<event>
 5   0  0.9197000E-07  0.2602738E+04  0.7818609E-02  0.8367272E-01
       -3   -1    0    0    0  501  0.00000000000E+00  0.00000000000E+00  0.17059201090E+04  0.17059201120E+04  0.10100000352E+00 0. -1.
        3   -1    0    0  501    0  0.00000000000E+00  0.00000000000E+00 -0.99275511531E+03  0.99275512045E+03  0.10100000352E+00 0.  1.
    10030    2    1    2    0    0  0.00000000000E+00  0.00000000000E+00  0.71316499373E+03  0.26986752325E+04  0.26027377321E+04 0.  0.
        1    1    3    3  502    0  0.39249160858E+03  0.63064307346E+03 -0.75135521256E+03  0.10565486285E+04  0.50400001928E-02 0. -1.
       -1    1    3    3    0  502 -0.39249160858E+03 -0.63064307346E+03  0.14645202063E+04  0.16421266040E+04  0.50400001928E-02 0.  1.
</event>
<event>
 5   0  0.9197000E-07  0.2603027E+04  0.7818609E-02  0.8367174E-01
        3   -1    0    0  501    0  0.00000000000E+00  0.00000000000E+00  0.12458865167E+04  0.12458865208E+04  0.10100000352E+00 0.  1.
       -3   -1    0    0    0  501  0.00000000000E+00  0.00000000000E+00 -0.13596238811E+04  0.13596238849E+04  0.10100000352E+00 0. -1.
    10030    2    1    2    0    0  0.00000000000E+00  0.00000000000E+00 -0.11373736444E+03  0.26055104057E+04  0.26030267547E+04 0.  0.
        1    1    3    3  502    0  0.97472206498E+03 -0.38118319183E+03  0.71753179142E+03  0.12689505906E+04  0.50400001928E-02 0.  1.
       -1    1    3    3    0  502 -0.97472206498E+03  0.38118319183E+03 -0.83126915587E+03  0.13365598150E+04  0.50400001928E-02 0. -1.
</event>
<event>
 5   0  0.1055179E-06  0.2593363E+04  0.7818609E-02  0.8370459E-01
        1   -1    0    0  501    0  0.00000000000E+00  0.00000000000E+00  0.19998272515E+04  0.19998272515E+04  0.50400001928E-02 0. -1.
       -1   -1    0    0    0  501  0.00000000000E+00  0.00000000000E+00 -0.84076402686E+03  0.84076402688E+03  0.50400001928E-02 0.  1.
    10030    2    1    2    0    0  0.00000000000E+00  0.00000000000E+00  0.11590632246E+04  0.28405912784E+04  0.25933629233E+04 0.  0.
        3    1    3    3  502    0 -0.44196763082E+03  0.38701582819E+03  0.18457013742E+04  0.19369383601E+04  0.10100000352E+00 0. -1.
       -3    1    3    3    0  502  0.44196763082E+03 -0.38701582819E+03 -0.68663814960E+03  0.90365291824E+03  0.10100000352E+00 0.  1.
</event>
<event>
 5   0  0.2623368E-06  0.2601502E+04  0.7818609E-02  0.8367691E-01
        2   -1    0    0  501    0  0.00000000000E+00  0.00000000000E+00  0.27614243787E+04  0.27614243787E+04  0.25500000920E-02 0. -1.
       -2   -1    0    0    0  501  0.00000000000E+00  0.00000000000E+00 -0.61271047299E+03  0.61271047300E+03  0.25500000920E-02 0.  1.
    10030    2    1    2    0    0  0.00000000000E+00  0.00000000000E+00  0.21487139057E+04  0.33741348517E+04  0.26015023638E+04 0.  0.
        5    1    3    3  502    0 -0.26520487253E+03 -0.69216447338E+03  0.24606897763E+04  0.25699108055E+04  0.46999998093E+01 0. -1.
       -5    1    3    3    0  502  0.26520487253E+03  0.69216447338E+03 -0.31197587067E+03  0.80422404621E+03  0.46999998093E+01 0.  1.
</event>
<event>
 5   0  0.1100104E-06  0.2604531E+04  0.7818609E-02  0.8366664E-01
        1   -1    0    0  501    0  0.00000000000E+00  0.00000000000E+00  0.10462070712E+04  0.10462070712E+04  0.50400001928E-02 0.  1.
       -1   -1    0    0    0  501  0.00000000000E+00  0.00000000000E+00 -0.16209938459E+04  0.16209938459E+04  0.50400001928E-02 0. -1.
    10030    2    1    2    0    0  0.00000000000E+00  0.00000000000E+00 -0.57478677474E+03  0.26672009171E+04  0.26045308399E+04 0.  0.
        4    1    3    3  502    0  0.35369329360E+03  0.11511678523E+04 -0.79490596616E+03  0.14429703663E+04  0.12699999809E+01 0. -1.
       -4    1    3    3    0  502 -0.35369329360E+03 -0.11511678523E+04  0.22011919142E+03  0.12242305508E+04  0.12699999809E+01 0.  1.
</event>
<event>
 5   0  0.2586775E-06  0.2602433E+04  0.7818609E-02  0.8367375E-01
       -2   -1    0    0    0  501  0.00000000000E+00  0.00000000000E+00  0.21068819918E+04  0.21068819918E+04  0.25500000920E-02 0. -1.
        2   -1    0    0  501    0  0.00000000000E+00  0.00000000000E+00 -0.80363504582E+03  0.80363504583E+03  0.25500000920E-02 0.  1.
    10030    2    1    2    0    0  0.00000000000E+00  0.00000000000E+00  0.13032469460E+04  0.29105170377E+04  0.26024328664E+04 0.  0.
        1    1    3    3  502    0 -0.71961552189E+03  0.75871576124E+03  0.15176796914E+04  0.18430539198E+04  0.50400001928E-02 0. -1.
       -1    1    3    3    0  502  0.71961552189E+03 -0.75871576124E+03 -0.21443274535E+03  0.10674631179E+04  0.50400001928E-02 0.  1.
</event>
<event>
 5   0  0.2746631E-06  0.2596105E+04  0.7818609E-02  0.8369525E-01
        2   -1    0    0  501    0  0.00000000000E+00  0.00000000000E+00  0.93600034385E+03  0.93600034385E+03  0.25500000920E-02 0.  1.
       -2   -1    0    0    0  501  0.00000000000E+00  0.00000000000E+00 -0.18001495285E+04  0.18001495285E+04  0.25500000920E-02 0. -1.
    10030    2    1    2    0    0  0.00000000000E+00  0.00000000000E+00 -0.86414918467E+03  0.27361498724E+04  0.25961052195E+04 0.  0.
        2    1    3    3  502    0  0.50238497172E+03 -0.11336100034E+04 -0.27329472586E+02  0.12402456207E+04  0.25500000920E-02 0. -1.
       -2    1    3    3    0  502 -0.50238497172E+03  0.11336100034E+04 -0.83681971208E+03  0.14959042517E+04  0.25500000920E-02 0.  1.
</event>
<event>
 5   0  0.1088757E-06  0.2598988E+04  0.7818609E-02  0.8368545E-01
        1   -1    0    0  501    0  0.00000000000E+00  0.00000000000E+00  0.14695398110E+04  0.14695398111E+04  0.50400001928E-02 0.  1.
       -1   -1    0    0    0  501  0.00000000000E+00  0.00000000000E+00 -0.11491248818E+04  0.11491248818E+04  0.50400001928E-02 0. -1.
    10030    2    1    2    0    0  0.00000000000E+00  0.00000000000E+00  0.32041492928E+03  0.26186646928E+04  0.25989880813E+04 0.  0.
        5    1    3    3  502    0 -0.68865327637E+03  0.93515958822E+03  0.74762723040E+03  0.13812079337E+04  0.46999998093E+01 0.  1.
       -5    1    3    3    0  502  0.68865327637E+03 -0.93515958822E+03 -0.42721230112E+03  0.12374567591E+04  0.46999998093E+01 0. -1.
</event>
<event>
 5   0  0.2705807E-06  0.2588668E+04  0.7818609E-02  0.8372061E-01
       -2   -1    0    0    0  501  0.00000000000E+00  0.00000000000E+00  0.85351248122E+03  0.85351248122E+03  0.25500000920E-02 0. -1.
        2   -1    0    0  501    0  0.00000000000E+00  0.00000000000E+00 -0.19628310556E+04  0.19628310556E+04  0.25500000920E-02 0.  1.
    10030    2    1    2    0    0  0.00000000000E+00  0.00000000000E+00 -0.11093185743E+04  0.28163435368E+04  0.25886682325E+04 0.  0.
        4    1    3    3  502    0 -0.33486047012E+03 -0.31734079054E+03  0.76102473641E+03  0.88994211841E+03  0.12699999809E+01 0. -1.
       -4    1    3    3    0  502  0.33486047012E+03  0.31734079054E+03 -0.18703433107E+04  0.19264014184E+04  0.12699999809E+01 0.  1.
</event>
<event>
 5   0  0.2623368E-06  0.2602244E+04  0.7818609E-02  0.8367439E-01
       -2   -1    0    0    0  501  0.00000000000E+00  0.00000000000E+00  0.11675202712E+04  0.11675202712E+04  0.25500000920E-02 0.  1.
        2   -1    0    0  501    0  0.00000000000E+00  0.00000000000E+00 -0.14500123893E+04  0.14500123893E+04  0.25500000920E-02 0. -1.
    10030    2    1    2    0    0  0.00000000000E+00  0.00000000000E+00 -0.28249211813E+03  0.26175326605E+04  0.26022443068E+04 0.  0.
        5    1    3    3  502    0  0.43032130000E+03  0.76664048898E+03 -0.11060384605E+04  0.14128896725E+04  0.46999998093E+01 0. -1.
       -5    1    3    3    0  502 -0.43032130000E+03 -0.76664048898E+03  0.82354634237E+03  0.12046429880E+04  0.46999998093E+01 0.  1.
</event>
<event>
 5   0  0.1100104E-06  0.2588791E+04  0.7818609E-02  0.8372019E-01
        1   -1    0    0  501    0  0.00000000000E+00  0.00000000000E+00  0.12479359041E+04  0.12479359041E+04  0.50400001928E-02 0. -1.
       -1   -1    0    0    0  501  0.00000000000E+00  0.00000000000E+00 -0.13425848780E+04  0.13425848780E+04  0.50400001928E-02 0.  1.
    10030    2    1    2    0    0  0.00000000000E+00  0.00000000000E+00 -0.94648973899E+02  0.25905207821E+04  0.25887911260E+04 0.  0.
        4    1    3    3  502    0  0.29550510531E+03 -0.10594850961E+03 -0.13039142294E+04  0.13411719817E+04  0.12699999809E+01 0.  1.
       -4    1    3    3    0  502 -0.29550510531E+03  0.10594850961E+03  0.12092652555E+04  0.12493488004E+04  0.12699999809E+01 0. -1.
</event>
<event>
 5   0  0.2586775E-06  0.2600585E+04  0.7818609E-02  0.8368002E-01
       -2   -1    0    0    0  501  0.00000000000E+00  0.00000000000E+00  0.13620971939E+04  0.13620971939E+04  0.25500000920E-02 0.  1.
        2   -1    0    0  501    0  0.00000000000E+00  0.00000000000E+00 -0.12412925879E+04  0.12412925879E+04  0.25500000920E-02 0. -1.
    10030    2    1    2    0    0  0.00000000000E+00  0.00000000000E+00  0.12080460605E+03  0.26033897818E+04  0.26005854347E+04 0.  0.
        1    1    3    3  502    0 -0.38324523747E+03 -0.13749357168E+03 -0.11758300620E+04  0.12443302331E+04  0.50400001928E-02 0. -1.
       -1    1    3    3    0  502  0.38324523747E+03  0.13749357168E+03  0.12966346681E+04  0.13590595486E+04  0.50400001928E-02 0.  1.
</event>
<event>
 5   0  0.1088757E-06  0.2598885E+04  0.7818609E-02  0.8368580E-01
       -1   -1    0    0    0  501  0.00000000000E+00  0.00000000000E+00  0.12585210617E+04  0.12585210617E+04  0.50400001928E-02 0.  1.
        1   -1    0    0  501    0  0.00000000000E+00  0.00000000000E+00 -0.13416948279E+04  0.13416948279E+04  0.50400001928E-02 0. -1.
    10030    2    1    2    0    0  0.00000000000E+00  0.00000000000E+00 -0.83173766193E+02  0.26002158896E+04  0.25988852990E+04 0.  0.
        5    1    3    3  502    0 -0.93244753925E+03 -0.29500040546E+03 -0.89762148597E+03  0.13274901411E+04  0.46999998093E+01 0. -1.
       -5    1    3    3    0  502  0.93244753925E+03  0.29500040546E+03  0.81444771977E+03  0.12727257485E+04  0.46999998093E+01 0.  1.
</event>
<event>
 5   0  0.1055179E-06  0.2600820E+04  0.7818609E-02  0.8367923E-01
       -1   -1    0    0    0  501  0.00000000000E+00  0.00000000000E+00  0.19469850159E+04  0.19469850159E+04  0.50400001928E-02 0. -1.
        1   -1    0    0  501    0  0.00000000000E+00  0.00000000000E+00 -0.86855620905E+03  0.86855620906E+03  0.50400001928E-02 0.  1.
    10030    2    1    2    0    0  0.00000000000E+00  0.00000000000E+00  0.10784288069E+04  0.28155412250E+04  0.26008198127E+04 0.  0.
        3    1    3    3  502    0 -0.10284006068E+04 -0.69599043872E+03  0.12126327194E+03  0.12476839705E+04  0.10100000352E+00 0.  1.
       -3    1    3    3    0  502  0.10284006068E+04  0.69599043872E+03  0.95716553495E+03  0.15678572545E+04  0.10100000352E+00 0. -1.
</event>
<event>
 5   0  0.1055179E-06  0.2624781E+04  0.7818609E-02  0.8359832E-01
       -1   -1    0    0    0  501  0.00000000000E+00  0.00000000000E+00  0.18528905613E+04  0.18528905613E+04  0.50400001928E-02 0. -1.
        1   -1    0    0  501    0  0.00000000000E+00  0.00000000000E+00 -0.92955742350E+03  0.92955742352E+03  0.50400001928E-02 0.  1.
    10030    2    1    2    0    0  0.00000000000E+00  0.00000000000E+00  0.92333313778E+03  0.27824479848E+04  0.26247805060E+04 0.  0.
        3    1    3    3  502    0  0.11317730398E+04  0.38287280671E+03 -0.11396775401E+03  0.12002043405E+04  0.10100000352E+00 0.  1.
       -3    1    3    3    0  502 -0.11317730398E+04 -0.38287280671E+03  0.10373008918E+04  0.15822436443E+04  0.10100000352E+00 0. -1.
</event>
<event>
 5   0  0.1032076E-06  0.2594619E+04  0.7818609E-02  0.8370031E-01
        1   -1    0    0  501    0  0.00000000000E+00  0.00000000000E+00  0.14777645403E+04  0.14777645403E+04  0.50400001928E-02 0.  1.
       -1   -1    0    0    0  501  0.00000000000E+00  0.00000000000E+00 -0.11388906310E+04  0.11388906310E+04  0.50400001928E-02 0. -1.
    10030    2    1    2    0    0  0.00000000000E+00  0.00000000000E+00  0.33887390928E+03  0.26166551713E+04  0.25946191934E+04 0.  0.
        1    1    3    3  502    0 -0.12597341043E+04 -0.30992421453E+03  0.17488257701E+03  0.13090328293E+04  0.50400001928E-02 0. -1.
       -1    1    3    3    0  502  0.12597341043E+04  0.30992421453E+03  0.16399133227E+03  0.13076223420E+04  0.50400001928E-02 0.  1.
</event>
<event>
 5   0  0.2820028E-06  0.2597639E+04  0.7818609E-02  0.8369004E-01
        2   -1    0    0  501    0  0.00000000000E+00  0.00000000000E+00  0.21037876405E+04  0.21037876405E+04  0.25500000920E-02 0.  1.
       -2   -1    0    0    0  501  0.00000000000E+00  0.00000000000E+00 -0.80185492784E+03  0.80185492784E+03  0.25500000920E-02 0. -1.
    10030    2    1    2    0    0  0.00000000000E+00  0.00000000000E+00  0.13019327126E+04  0.29056425683E+04  0.25976393026E+04 0.  0.
        3    1    3    3  502    0 -0.11515056875E+03 -0.10038507442E+04  0.15637887293E+04  0.18618300594E+04  0.10100000352E+00 0.  1.
       -3    1    3    3    0  502  0.11515056875E+03  0.10038507442E+04 -0.26185601667E+03  0.10438125089E+04  0.10100000352E+00 0. -1.
</event>
<event>
 5   0  0.9197000E-07  0.2597327E+04  0.7818609E-02  0.8369110E-01
        3   -1    0    0  501    0  0.00000000000E+00  0.00000000000E+00  0.12910368428E+04  0.12910368468E+04  0.10100000352E+00 0.  1.
       -3   -1    0    0    0  501  0.00000000000E+00  0.00000000000E+00 -0.13063351496E+04  0.13063351535E+04  0.10100000352E+00 0. -1.
    10030    2    1    2    0    0  0.00000000000E+00  0.00000000000E+00 -0.15298306773E+02  0.25973720003E+04  0.25973269470E+04 0.  0.
        2    1    3    3  502    0  0.10706073472E+04 -0.35440756445E+03  0.63635115052E+03  0.12948928915E+04  0.25500000920E-02 0.  1.
       -2    1    3    3    0  502 -0.10706073472E+04  0.35440756445E+03 -0.65164945729E+03  0.13024791088E+04  0.25500000920E-02 0. -1.
</event>
<event>
 5   0  0.2820028E-06  0.2600228E+04  0.7818609E-02  0.8368124E-01
        2   -1    0    0  501    0  0.00000000000E+00  0.00000000000E+00  0.12944787787E+04  0.12944787787E+04  0.25500000920E-02 0. -1.
       -2   -1    0    0    0  501  0.00000000000E+00  0.00000000000E+00 -0.13057742358E+04  0.13057742358E+04  0.25500000920E-02 0.  1.
    10030    2    1    2    0    0  0.00000000000E+00  0.00000000000E+00 -0.11295457176E+02  0.26002530145E+04  0.26002284808E+04 0.  0.
        3    1    3    3  502    0  0.53044970679E+03  0.46590854409E+03  0.10860811094E+04  0.12953840548E+04  0.10100000352E+00 0. -1.
       -3    1    3    3    0  502 -0.53044970679E+03 -0.46590854409E+03 -0.10973765666E+04  0.13048689597E+04  0.10100000352E+00 0.  1.
</event>
<event>
 5   0  0.2623368E-06  0.2595348E+04  0.7818609E-02  0.8369783E-01
        2   -1    0    0  501    0  0.00000000000E+00  0.00000000000E+00  0.92228378303E+03  0.92228378303E+03  0.25500000920E-02 0.  1.
       -2   -1    0    0    0  501  0.00000000000E+00  0.00000000000E+00 -0.18258560783E+04  0.18258560783E+04  0.25500000920E-02 0. -1.
    10030    2    1    2    0    0  0.00000000000E+00  0.00000000000E+00 -0.90357229532E+03  0.27481398614E+04  0.25953477233E+04 0.  0.
        5    1    3    3  502    0 -0.40796468650E+03 -0.29688253479E+03  0.81415709040E+03  0.95783520646E+03  0.46999998093E+01 0.  1.
       -5    1    3    3    0  502  0.40796468650E+03  0.29688253479E+03 -0.17177293857E+04  0.17903046549E+04  0.46999998093E+01 0. -1.
</event>
<event>
 5   0  0.1122628E-06  0.2607857E+04  0.7818609E-02  0.8365537E-01
        1   -1    0    0  501    0  0.00000000000E+00  0.00000000000E+00  0.12657016469E+04  0.12657016470E+04  0.50400001928E-02 0. -1.
       -1   -1    0    0    0  501  0.00000000000E+00  0.00000000000E+00 -0.13433101883E+04  0.13433101883E+04  0.50400001928E-02 0.  1.
    10030    2    1    2    0    0  0.00000000000E+00  0.00000000000E+00 -0.77608541383E+02  0.26090118353E+04  0.26078572950E+04 0.  0.
        2    1    3    3  502    0  0.56230614068E+03 -0.10577516729E+04 -0.55401101732E+03  0.13198314304E+04  0.25500000920E-02 0.  1.
       -2    1    3    3    0  502 -0.56230614068E+03  0.10577516729E+04  0.47640247594E+03  0.12891804049E+04  0.25500000920E-02 0. -1.
</event>
<event>
 5   0  0.1100104E-06  0.2599166E+04  0.7818609E-02  0.8368485E-01
        1   -1    0    0  501    0  0.00000000000E+00  0.00000000000E+00  0.12765524000E+04  0.12765524000E+04  0.50400001928E-02 0. -1.
       -1   -1    0    0    0  501  0.00000000000E+00  0.00000000000E+00 -0.13230287120E+04  0.13230287120E+04  0.50400001928E-02 0.  1.
    10030    2    1    2    0    0  0.00000000000E+00  0.00000000000E+00 -0.46476311977E+02  0.25995811120E+04  0.25991656181E+04 0.  0.
        4    1    3    3  502    0  0.11665367285E+04  0.56197217535E+03 -0.13413058363E+03  0.13017731335E+04  0.12699999809E+01 0.  1.
       -4    1    3    3    0  502 -0.11665367285E+04 -0.56197217535E+03  0.87654271655E+02  0.12978079785E+04  0.12699999809E+01 0. -1.
</event>
<event>
 5   0  0.2746631E-06  0.2598890E+04  0.7818609E-02  0.8368578E-01
       -2   -1    0    0    0  501  0.00000000000E+00  0.00000000000E+00  0.92076758672E+03  0.92076758672E+03  0.25500000920E-02 0. -1.
        2   -1    0    0  501    0  0.00000000000E+00  0.00000000000E+00 -0.18338581926E+04  0.18338581926E+04  0.25500000920E-02 0.  1.
    10030    2    1    2    0    0  0.00000000000E+00  0.00000000000E+00 -0.91309060590E+03  0.27546257793E+04  0.25988899033E+04 0.  0.
        2    1    3    3  502    0  0.95773265929E+03 -0.87170810745E+03 -0.34322603723E+03  0.13397503439E+04  0.25500000920E-02 0. -1.
       -2    1    3    3    0  502 -0.95773265929E+03  0.87170810745E+03 -0.56986456867E+03  0.14148754355E+04  0.25500000920E-02 0.  1.
</event>
<event>
 5   0  0.2820028E-06  0.2603548E+04  0.7818609E-02  0.8366997E-01
        2   -1    0    0  501    0  0.00000000000E+00  0.00000000000E+00  0.15290940156E+04  0.15290940156E+04  0.25500000920E-02 0.  1.
       -2   -1    0    0    0  501  0.00000000000E+00  0.00000000000E+00 -0.11082478976E+04  0.11082478976E+04  0.25500000920E-02 0. -1.
    10030    2    1    2    0    0  0.00000000000E+00  0.00000000000E+00  0.42084611800E+03  0.26373419133E+04  0.26035477550E+04 0.  0.
        3    1    3    3  502    0  0.34043748825E+03  0.68442276643E+03  0.12777998026E+04  0.14889944770E+04  0.10100000352E+00 0.  1.
       -3    1    3    3    0  502 -0.34043748825E+03 -0.68442276643E+03 -0.85695368464E+03  0.11483474363E+04  0.10100000352E+00 0. -1.
</event>
<event>
 5   0  0.1032076E-06  0.2597935E+04  0.7818609E-02  0.8368903E-01
        1   -1    0    0  501    0  0.00000000000E+00  0.00000000000E+00  0.25605953375E+04  0.25605953375E+04  0.50400001928E-02 0.  1.
       -1   -1    0    0    0  501  0.00000000000E+00  0.00000000000E+00 -0.65895465331E+03  0.65895465333E+03  0.50400001928E-02 0. -1.
    10030    2    1    2    0    0  0.00000000000E+00  0.00000000000E+00  0.19016406842E+04  0.32195499908E+04  0.25979347281E+04 0.  0.
        1    1    3    3  502    0  0.17791567867E+03  0.85984802259E+03  0.21371117202E+04  0.23104629656E+04  0.50400001928E-02 0.  1.
       -1    1    3    3    0  502 -0.17791567867E+03 -0.85984802259E+03 -0.23547103601E+03  0.90908702526E+03  0.50400001928E-02 0. -1.
</event>
<event>
 5   0  0.2623368E-06  0.2593225E+04  0.7818609E-02  0.8370506E-01
       -2   -1    0    0    0  501  0.00000000000E+00  0.00000000000E+00  0.10660945699E+04  0.10660945699E+04  0.25500000920E-02 0. -1.
        2   -1    0    0  501    0  0.00000000000E+00  0.00000000000E+00 -0.15769741234E+04  0.15769741234E+04  0.25500000920E-02 0.  1.
    10030    2    1    2    0    0  0.00000000000E+00  0.00000000000E+00 -0.51087955354E+03  0.26430686933E+04  0.25932246719E+04 0.  0.
        5    1    3    3  502    0 -0.11761269469E+04  0.22515007672E+02 -0.81126563002E+03  0.14289700953E+04  0.46999998093E+01 0.  1.
       -5    1    3    3    0  502  0.11761269469E+04 -0.22515007672E+02  0.30038607648E+03  0.12140985980E+04  0.46999998093E+01 0. -1.
</event>
<event>
 5   0  0.1100104E-06  0.2601861E+04  0.7818609E-02  0.8367569E-01
        1   -1    0    0  501    0  0.00000000000E+00  0.00000000000E+00  0.13746989799E+04  0.13746989799E+04  0.50400001928E-02 0.  1.
       -1   -1    0    0    0  501  0.00000000000E+00  0.00000000000E+00 -0.12311208949E+04  0.12311208950E+04  0.50400001928E-02 0. -1.
    10030    2    1    2    0    0  0.00000000000E+00  0.00000000000E+00  0.14357808499E+03  0.26058198749E+04  0.26018613633E+04 0.  0.
        4    1    3    3  502    0  0.42600176856E+03  0.12043522737E+04  0.31808415243E+03  0.13164805532E+04  0.12699999809E+01 0. -1.
       -4    1    3    3    0  502 -0.42600176856E+03 -0.12043522737E+04 -0.17450606744E+03  0.12893393217E+04  0.12699999809E+01 0.  1.
</event>
<event>
 5   0  0.1088757E-06  0.2596840E+04  0.7818609E-02  0.8369275E-01
        1   -1    0    0  501    0  0.00000000000E+00  0.00000000000E+00  0.14711600357E+04  0.14711600357E+04  0.50400001928E-02 0.  1.
       -1   -1    0    0    0  501  0.00000000000E+00  0.00000000000E+00 -0.11459631182E+04  0.11459631182E+04  0.50400001928E-02 0. -1.
    10030    2    1    2    0    0  0.00000000000E+00  0.00000000000E+00  0.32519691749E+03  0.26171231539E+04  0.25968404971E+04 0.  0.
        5    1    3    3  502    0 -0.12325723572E+04 -0.18379498155E+03  0.52994206026E+03  0.13542067376E+04  0.46999998093E+01 0.  1.
       -5    1    3    3    0  502  0.12325723572E+04  0.18379498155E+03 -0.20474514277E+03  0.12629164163E+04  0.46999998093E+01 0. -1.
</event>
<event>
 5   0  0.2746631E-06  0.2591610E+04  0.7818609E-02  0.8371057E-01
        2   -1    0    0  501    0  0.00000000000E+00  0.00000000000E+00  0.13249524349E+04  0.13249524349E+04  0.25500000920E-02 0. -1.
       -2   -1    0    0    0  501  0.00000000000E+00  0.00000000000E+00 -0.12672985111E+04  0.12672985111E+04  0.25500000920E-02 0.  1.
    10030    2    1    2    0    0  0.00000000000E+00  0.00000000000E+00  0.57653923722E+02  0.25922509460E+04  0.25916097299E+04 0.  0.
        2    1    3    3  502    0  0.98249124745E+03 -0.16477139800E+03 -0.80003455716E+03  0.12776908693E+04  0.25500000920E-02 0.  1.
       -2    1    3    3    0  502 -0.98249124745E+03  0.16477139800E+03  0.85768848088E+03  0.13145600767E+04  0.25500000920E-02 0. -1.
</event>
<event>
 5   0  0.1032076E-06  0.2606183E+04  0.7818609E-02  0.8366104E-01
        1   -1    0    0  501    0  0.00000000000E+00  0.00000000000E+00  0.16032449793E+04  0.16032449793E+04  0.50400001928E-02 0.  1.
       -1   -1    0    0    0  501  0.00000000000E+00  0.00000000000E+00 -0.10591319909E+04  0.10591319909E+04  0.50400001928E-02 0. -1.
    10030    2    1    2    0    0  0.00000000000E+00  0.00000000000E+00  0.54411298843E+03  0.26623769703E+04  0.26061834524E+04 0.  0.
        1    1    3    3  502    0  0.66040047235E+02  0.11204932955E+04 -0.40416909430E+03  0.11929874978E+04  0.50400001928E-02 0. -1.
       -1    1    3    3    0  502 -0.66040047235E+02 -0.11204932955E+04  0.94828208273E+03  0.14693894724E+04  0.50400001928E-02 0.  1.
</event>
<event>
 5   0  0.1122628E-06  0.2597991E+04  0.7818609E-02  0.8368884E-01
       -1   -1    0    0    0  501  0.00000000000E+00  0.00000000000E+00  0.76500633661E+03  0.76500633663E+03  0.50400001928E-02 0.  1.
        1   -1    0    0  501    0  0.00000000000E+00  0.00000000000E+00 -0.22057189396E+04  0.22057189396E+04  0.50400001928E-02 0. -1.
    10030    2    1    2    0    0  0.00000000000E+00  0.00000000000E+00 -0.14407126029E+04  0.29707252762E+04  0.25979907356E+04 0.  0.
        2    1    3    3  502    0 -0.12449622213E+04 -0.28426506941E+03 -0.44819258304E+03  0.13533714027E+04  0.25500000920E-02 0. -1.
       -2    1    3    3    0  502  0.12449622213E+04  0.28426506941E+03 -0.99252001991E+03  0.16173538735E+04  0.25500000920E-02 0.  1.
</event>
<event>
 5   0  0.2623368E-06  0.2597881E+04  0.7818609E-02  0.8368921E-01
       -2   -1    0    0    0  501  0.00000000000E+00  0.00000000000E+00  0.11354956896E+04  0.11354956896E+04  0.25500000920E-02 0.  1.
        2   -1    0    0  501    0  0.00000000000E+00  0.00000000000E+00 -0.14859117205E+04  0.14859117205E+04  0.25500000920E-02 0. -1.
    10030    2    1    2    0    0  0.00000000000E+00  0.00000000000E+00 -0.35041603091E+03  0.26214074100E+04  0.25978809470E+04 0.  0.
        5    1    3    3  502    0  0.82897107905E+03 -0.97611596665E+03 -0.39449804552E+03  0.13400172492E+04  0.46999998093E+01 0. -1.
       -5    1    3    3    0  502 -0.82897107905E+03  0.97611596665E+03  0.44082014613E+02  0.12813901608E+04  0.46999998093E+01 0.  1.
</event>
<event>
 5   0  0.2705807E-06  0.2676321E+04  0.7818609E-02  0.8342729E-01
        2   -1    0    0  501    0  0.00000000000E+00  0.00000000000E+00  0.78440909125E+03  0.78440909125E+03  0.25500000920E-02 0.  1.
       -2   -1    0    0    0  501  0.00000000000E+00  0.00000000000E+00 -0.22828307302E+04  0.22828307302E+04  0.25500000920E-02 0. -1.
    10030    2    1    2    0    0  0.00000000000E+00  0.00000000000E+00 -0.14984216389E+04  0.30672398214E+04  0.26763207420E+04 0.  0.
        4    1    3    3  502    0 -0.11608344057E+04 -0.65181405883E+03 -0.59428627890E+03  0.14579354851E+04  0.12699999809E+01 0. -1.
       -4    1    3    3    0  502  0.11608344057E+04  0.65181405883E+03 -0.90413536001E+03  0.16093043363E+04  0.12699999809E+01 0.  1.
</event>
<event>
 5   0  0.1122628E-06  0.2597252E+04  0.7818609E-02  0.8369135E-01
       -1   -1    0    0    0  501  0.00000000000E+00  0.00000000000E+00  0.10067029442E+04  0.10067029442E+04  0.50400001928E-02 0.  1.
        1   -1    0    0  501    0  0.00000000000E+00  0.00000000000E+00 -0.16752005590E+04  0.16752005590E+04  0.50400001928E-02 0. -1.
    10030    2    1    2    0    0  0.00000000000E+00  0.00000000000E+00 -0.66849761483E+03  0.26819035032E+04  0.25972518822E+04 0.  0.
        2    1    3    3  502    0  0.11982273812E+04 -0.13148081798E+03 -0.83310256122E+03  0.14652972190E+04  0.25500000920E-02 0. -1.
       -2    1    3    3    0  502 -0.11982273812E+04  0.13148081798E+03  0.16460494639E+03  0.12166062842E+04  0.25500000920E-02 0.  1.
</event>
<event>
 5   0  0.1055179E-06  0.2674254E+04  0.7818609E-02  0.8343407E-01
        1   -1    0    0  501    0  0.00000000000E+00  0.00000000000E+00  0.18933025605E+04  0.18933025605E+04  0.50400001928E-02 0.  1.
       -1   -1    0    0    0  501  0.00000000000E+00  0.00000000000E+00 -0.94433312685E+03  0.94433312687E+03  0.50400001928E-02 0. -1.
    10030    2    1    2    0    0  0.00000000000E+00  0.00000000000E+00  0.94896943368E+03  0.28376356874E+04  0.26742537853E+04 0.  0.
        3    1    3    3  502    0 -0.44473172402E+01  0.13365086394E+04  0.43160291125E+03  0.14044771999E+04  0.10100000352E+00 0. -1.
       -3    1    3    3    0  502  0.44473172402E+01 -0.13365086394E+04  0.51736652243E+03  0.14331584876E+04  0.10100000352E+00 0.  1.
</event>
<event>
 5   0  0.1122628E-06  0.2595346E+04  0.7818609E-02  0.8369784E-01
       -1   -1    0    0    0  501  0.00000000000E+00  0.00000000000E+00  0.15970432043E+04  0.15970432043E+04  0.50400001928E-02 0. -1.
        1   -1    0    0  501    0  0.00000000000E+00  0.00000000000E+00 -0.10544209663E+04  0.10544209663E+04  0.50400001928E-02 0.  1.
    10030    2    1    2    0    0  0.00000000000E+00  0.00000000000E+00  0.54262223805E+03  0.26514641706E+04  0.25953464807E+04 0.  0.
        2    1    3    3  502    0 -0.10961703034E+04 -0.66712076229E+03  0.73959702228E+02  0.12853441108E+04  0.25500000920E-02 0.  1.
       -2    1    3    3    0  502  0.10961703034E+04  0.66712076229E+03  0.46866253582E+03  0.13661200599E+04  0.25500000920E-02 0. -1.
</event>
<event>
 5   0  0.2820028E-06  0.2588545E+04  0.7818609E-02  0.8372103E-01
        2   -1    0    0  501    0  0.00000000000E+00  0.00000000000E+00  0.18345082112E+04  0.18345082112E+04  0.25500000920E-02 0.  1.
       -2   -1    0    0    0  501  0.00000000000E+00  0.00000000000E+00 -0.91312843579E+03  0.91312843580E+03  0.25500000920E-02 0. -1.
    10030    2    1    2    0    0  0.00000000000E+00  0.00000000000E+00  0.92137977538E+03  0.27476366470E+04  0.25885452388E+04 0.  0.
        3    1    3    3  502    0 -0.89166302371E+03  0.74590584665E+03  0.10646065132E+04  0.15763329338E+04  0.10100000352E+00 0.  1.
       -3    1    3    3    0  502  0.89166302371E+03 -0.74590584665E+03 -0.14322673783E+03  0.11713037132E+04  0.10100000352E+00 0. -1.
</event>
<event>
 5   0  0.1088757E-06  0.2601200E+04  0.7818609E-02  0.8367794E-01
        1   -1    0    0  501    0  0.00000000000E+00  0.00000000000E+00  0.17330142244E+04  0.17330142244E+04  0.50400001928E-02 0. -1.
       -1   -1    0    0    0  501  0.00000000000E+00  0.00000000000E+00 -0.97607966539E+03  0.97607966541E+03  0.50400001928E-02 0.  1.
    10030    2    1    2    0    0  0.00000000000E+00  0.00000000000E+00  0.75693455905E+03  0.27090938899E+04  0.26011996804E+04 0.  0.
        5    1    3    3  502    0  0.52246921953E+03  0.98397562511E+03  0.10773884815E+04  0.15498290700E+04  0.46999998093E+01 0. -1.
       -5    1    3    3    0  502 -0.52246921953E+03 -0.98397562511E+03 -0.32045392243E+03  0.11592648199E+04  0.46999998093E+01 0.  1.
</event>
<event>
 5   0  0.1100104E-06  0.2605474E+04  0.7818609E-02  0.8366344E-01
       -1   -1    0    0    0  501  0.00000000000E+00  0.00000000000E+00  0.98259206049E+03  0.98259206050E+03  0.50400001928E-02 0. -1.
        1   -1    0    0  501    0  0.00000000000E+00  0.00000000000E+00 -0.17271911029E+04  0.17271911029E+04  0.50400001928E-02 0.  1.
    10030    2    1    2    0    0  0.00000000000E+00  0.00000000000E+00 -0.74459904236E+03  0.27097831634E+04  0.26054744402E+04 0.  0.
        4    1    3    3  502    0  0.65969024404E+03 -0.81071833113E+03 -0.11810339578E+04  0.15771170701E+04  0.12699999809E+01 0.  1.
       -4    1    3    3    0  502 -0.65969024404E+03  0.81071833113E+03  0.43643491541E+03  0.11326660933E+04  0.12699999809E+01 0. -1.
</event>
<event>
 5   0  0.1055179E-06  0.2601909E+04  0.7818609E-02  0.8367553E-01
        1   -1    0    0  501    0  0.00000000000E+00  0.00000000000E+00  0.66392837200E+03  0.66392837202E+03  0.50400001928E-02 0. -1.
       -1   -1    0    0    0  501  0.00000000000E+00  0.00000000000E+00 -0.25491955247E+04  0.25491955248E+04  0.50400001928E-02 0.  1.
    10030    2    1    2    0    0  0.00000000000E+00  0.00000000000E+00 -0.18852671527E+04  0.32131238968E+04  0.26019094794E+04 0.  0.
        3    1    3    3  502    0 -0.99893510541E-01 -0.12303545428E+04 -0.42058510780E+03  0.13002554188E+04  0.10100000352E+00 0. -1.
       -3    1    3    3    0  502  0.99893510541E-01  0.12303545428E+04 -0.14646820449E+04  0.19128684780E+04  0.10100000352E+00 0.  1.
</event>
<event>
 5   0  0.2586775E-06  0.2590510E+04  0.7818609E-02  0.8371432E-01
        2   -1    0    0  501    0  0.00000000000E+00  0.00000000000E+00  0.22620298730E+04  0.22620298730E+04  0.25500000920E-02 0. -1.
       -2   -1    0    0    0  501  0.00000000000E+00  0.00000000000E+00 -0.74167229725E+03  0.74167229726E+03  0.25500000920E-02 0.  1.
    10030    2    1    2    0    0  0.00000000000E+00  0.00000000000E+00  0.15203575757E+04  0.30037021702E+04  0.25905095193E+04 0.  0.
        1    1    3    3  502    0  0.26028414359E+03  0.12665843229E+04  0.84772859390E+03  0.15461654024E+04  0.50400001928E-02 0. -1.
       -1    1    3    3    0  502 -0.26028414359E+03 -0.12665843229E+04  0.67262898181E+03  0.14575367679E+04  0.50400001928E-02 0.  1.
</event>
<event>
 5   0  0.1032076E-06  0.2588859E+04  0.7818609E-02  0.8371996E-01
        1   -1    0    0  501    0  0.00000000000E+00  0.00000000000E+00  0.17424220572E+04  0.17424220572E+04  0.50400001928E-02 0. -1.
       -1   -1    0    0    0  501  0.00000000000E+00  0.00000000000E+00 -0.96161961867E+03  0.96161961869E+03  0.50400001928E-02 0.  1.
    10030    2    1    2    0    0  0.00000000000E+00  0.00000000000E+00  0.78080243856E+03  0.27040416759E+04  0.25888586167E+04 0.  0.
        1    1    3    3  502    0 -0.17814042403E+03 -0.91458240077E+02  0.17261460406E+04  0.17377222948E+04  0.50400001928E-02 0. -1.
       -1    1    3    3    0  502  0.17814042403E+03  0.91458240077E+02 -0.94534360205E+03  0.96631938111E+03  0.50400001928E-02 0.  1.
</event>
<event>
 5   0  0.2820028E-06  0.2601624E+04  0.7818609E-02  0.8367650E-01
        2   -1    0    0  501    0  0.00000000000E+00  0.00000000000E+00  0.90497445720E+03  0.90497445721E+03  0.25500000920E-02 0.  1.
       -2   -1    0    0    0  501  0.00000000000E+00  0.00000000000E+00 -0.18697902374E+04  0.18697902374E+04  0.25500000920E-02 0. -1.
    10030    2    1    2    0    0  0.00000000000E+00  0.00000000000E+00 -0.96481578022E+03  0.27747646946E+04  0.26016244196E+04 0.  0.
        3    1    3    3  502    0  0.10641056443E+03 -0.44917951535E+03 -0.17794963737E+04  0.18383940817E+04  0.10100000352E+00 0. -1.
       -3    1    3    3    0  502 -0.10641056443E+03  0.44917951535E+03  0.81468059349E+03  0.93637061297E+03  0.10100000352E+00 0.  1.
</event>
<event>
 5   0  0.2820028E-06  0.2583624E+04  0.7818609E-02  0.8373785E-01
       -2   -1    0    0    0  501  0.00000000000E+00  0.00000000000E+00  0.16596211711E+04  0.16596211711E+04  0.25500000920E-02 0. -1.
        2   -1    0    0  501    0  0.00000000000E+00  0.00000000000E+00 -0.10055178436E+04  0.10055178436E+04  0.25500000920E-02 0.  1.
    10030    2    1    2    0    0  0.00000000000E+00  0.00000000000E+00  0.65410332748E+03  0.26651390147E+04  0.25836243544E+04 0.  0.
        3    1    3    3  502    0  0.12013308908E+04  0.16883759436E+03 -0.13088781042E+03  0.12201777213E+04  0.10100000352E+00 0.  1.
       -3    1    3    3    0  502 -0.12013308908E+04 -0.16883759436E+03  0.78499113790E+03  0.14449612934E+04  0.10100000352E+00 0. -1.
</event>
<event>
 5   0  0.2705807E-06  0.2602349E+04  0.7818609E-02  0.8367404E-01
        2   -1    0    0  501    0  0.00000000000E+00  0.00000000000E+00  0.15650593722E+04  0.15650593722E+04  0.25500000920E-02 0. -1.
       -2   -1    0    0    0  501  0.00000000000E+00  0.00000000000E+00 -0.10817832362E+04  0.10817832362E+04  0.25500000920E-02 0.  1.
    10030    2    1    2    0    0  0.00000000000E+00  0.00000000000E+00  0.48327613599E+03  0.26468426085E+04  0.26023489333E+04 0.  0.
        4    1    3    3  502    0 -0.25777971726E+03  0.82740905211E+03  0.12287977477E+04  0.15036627414E+04  0.12699999809E+01 0. -1.
       -4    1    3    3    0  502  0.25777971726E+03 -0.82740905211E+03 -0.74552161172E+03  0.11431798671E+04  0.12699999809E+01 0.  1.
</event>
<event>
 5   0  0.1055179E-06  0.2599594E+04  0.7818609E-02  0.8368339E-01
       -1   -1    0    0    0  501  0.00000000000E+00  0.00000000000E+00  0.14208608444E+04  0.14208608444E+04  0.50400001928E-02 0.  1.
        1   -1    0    0  501    0  0.00000000000E+00  0.00000000000E+00 -0.11890479884E+04  0.11890479884E+04  0.50400001928E-02 0. -1.
    10030    2    1    2    0    0  0.00000000000E+00  0.00000000000E+00  0.23181285600E+03  0.26099088327E+04  0.25995936057E+04 0.  0.
        3    1    3    3  502    0  0.25840446673E+03 -0.12369611065E+04 -0.18964653424E+03  0.12778151140E+04  0.10100000352E+00 0.  1.
       -3    1    3    3    0  502 -0.25840446673E+03  0.12369611065E+04  0.42145939024E+03  0.13320937187E+04  0.10100000352E+00 0. -1.
</event>
<event>
 5   0  0.2705807E-06  0.2596396E+04  0.7818609E-02  0.8369427E-01
        2   -1    0    0  501    0  0.00000000000E+00  0.00000000000E+00  0.96674318952E+03  0.96674318952E+03  0.25500000920E-02 0. -1.
       -2   -1    0    0    0  501  0.00000000000E+00  0.00000000000E+00 -0.17432938256E+04  0.17432938256E+04  0.25500000920E-02 0.  1.
    10030    2    1    2    0    0  0.00000000000E+00  0.00000000000E+00 -0.77655063610E+03  0.27100370151E+04  0.25963955271E+04 0.  0.
        4    1    3    3  502    0 -0.25426624089E+03 -0.84536467030E+03 -0.13817893365E+04  0.16397061110E+04  0.12699999809E+01 0.  1.
       -4    1    3    3    0  502  0.25426624089E+03  0.84536467030E+03  0.60523870039E+03  0.10703309042E+04  0.12699999809E+01 0. -1.
</event>
<event>
 5   0  0.1088757E-06  0.2597974E+04  0.7818609E-02  0.8368890E-01
       -1   -1    0    0    0  501  0.00000000000E+00  0.00000000000E+00  0.15117754020E+04  0.15117754020E+04  0.50400001928E-02 0. -1.
        1   -1    0    0  501    0  0.00000000000E+00  0.00000000000E+00 -0.11161497527E+04  0.11161497527E+04  0.50400001928E-02 0.  1.
    10030    2    1    2    0    0  0.00000000000E+00  0.00000000000E+00  0.39562564934E+03  0.26279251547E+04  0.25979743964E+04 0.  0.
        5    1    3    3  502    0 -0.12242689450E+02  0.76982529531E+03  0.12560886139E+04  0.14732825814E+04  0.46999998093E+01 0. -1.
       -5    1    3    3    0  502  0.12242689450E+02 -0.76982529531E+03 -0.86046296452E+03  0.11546425733E+04  0.46999998093E+01 0.  1.
</event>
<event>
 5   0  0.2586775E-06  0.2603923E+04  0.7818609E-02  0.8366870E-01
        2   -1    0    0  501    0  0.00000000000E+00  0.00000000000E+00  0.13203752727E+04  0.13203752727E+04  0.25500000920E-02 0.  1.
       -2   -1    0    0    0  501  0.00000000000E+00  0.00000000000E+00 -0.12838045305E+04  0.12838045305E+04  0.25500000920E-02 0. -1.
    10030    2    1    2    0    0  0.00000000000E+00  0.00000000000E+00  0.36570742144E+02  0.26041798032E+04  0.26039230073E+04 0.  0.
        1    1    3    3  502    0 -0.21233810834E+03  0.59978660733E+02 -0.12649697076E+04  0.12840690297E+04  0.50400001928E-02 0. -1.
       -1    1    3    3    0  502  0.21233810834E+03 -0.59978660733E+02  0.13015404497E+04  0.13201107735E+04  0.50400001928E-02 0.  1.
</event>
<event>
 5   0  0.1122628E-06  0.2605289E+04  0.7818609E-02  0.8366407E-01
       -1   -1    0    0    0  501  0.00000000000E+00  0.00000000000E+00  0.14601250011E+04  0.14601250011E+04  0.50400001928E-02 0.  1.
        1   -1    0    0  501    0  0.00000000000E+00  0.00000000000E+00 -0.11621489523E+04  0.11621489523E+04  0.50400001928E-02 0. -1.
    10030    2    1    2    0    0  0.00000000000E+00  0.00000000000E+00  0.29797604886E+03  0.26222739534E+04  0.26052890360E+04 0.  0.
        2    1    3    3  502    0  0.11884349261E+04 -0.50656688402E+03 -0.19119273299E+02  0.12920344919E+04  0.25500000920E-02 0.  1.
       -2    1    3    3    0  502 -0.11884349261E+04  0.50656688402E+03  0.31709532216E+03  0.13302394615E+04  0.25500000920E-02 0. -1.
</event>
<event>
 5   0  0.2623368E-06  0.2600518E+04  0.7818609E-02  0.8368025E-01
       -2   -1    0    0    0  501  0.00000000000E+00  0.00000000000E+00  0.61392927846E+03  0.61392927847E+03  0.25500000920E-02 0.  1.
        2   -1    0    0  501    0  0.00000000000E+00  0.00000000000E+00 -0.27538563529E+04  0.27538563529E+04  0.25500000920E-02 0. -1.
    10030    2    1    2    0    0  0.00000000000E+00  0.00000000000E+00 -0.21399270744E+04  0.33677856313E+04  0.26005176744E+04 0.  0.
        5    1    3    3  502    0  0.12884309239E+04  0.16928509254E+03 -0.11269935238E+04  0.17201302802E+04  0.46999998093E+01 0. -1.
       -5    1    3    3    0  502 -0.12884309239E+04 -0.16928509254E+03 -0.10129335506E+04  0.16476553511E+04  0.46999998093E+01 0.  1.
</event>
<event>
 5   0  0.1055179E-06  0.2596752E+04  0.7818609E-02  0.8369305E-01
        1   -1    0    0  501    0  0.00000000000E+00  0.00000000000E+00  0.20869183895E+04  0.20869183895E+04  0.50400001928E-02 0.  1.
       -1   -1    0    0    0  501  0.00000000000E+00  0.00000000000E+00 -0.80778427589E+03  0.80778427591E+03  0.50400001928E-02 0. -1.
    10030    2    1    2    0    0  0.00000000000E+00  0.00000000000E+00  0.12791341136E+04  0.28947026654E+04  0.25967517095E+04 0.  0.
        3    1    3    3  502    0  0.61473121298E+03  0.11047908912E+04  0.31015723285E+03  0.13017891138E+04  0.10100000352E+00 0. -1.
       -3    1    3    3    0  502 -0.61473121298E+03 -0.11047908912E+04  0.96897688078E+03  0.15929135517E+04  0.10100000352E+00 0.  1.
</event>
<event>
 5   0  0.1055179E-06  0.2598135E+04  0.7818609E-02  0.8368835E-01
        1   -1    0    0  501    0  0.00000000000E+00  0.00000000000E+00  0.16240179916E+04  0.16240179916E+04  0.50400001928E-02 0.  1.
       -1   -1    0    0    0  501  0.00000000000E+00  0.00000000000E+00 -0.10391362762E+04  0.10391362763E+04  0.50400001928E-02 0. -1.
    10030    2    1    2    0    0  0.00000000000E+00  0.00000000000E+00  0.58488171539E+03  0.26631542679E+04  0.25981347220E+04 0.  0.
        3    1    3    3  502    0 -0.20718035072E+03 -0.64009890645E+03 -0.84664135505E+03  0.10814119946E+04  0.10100000352E+00 0. -1.
       -3    1    3    3    0  502  0.20718035072E+03  0.64009890645E+03  0.14315230704E+04  0.15817422733E+04  0.10100000352E+00 0.  1.
</event>
<event>
 5   0  0.9197000E-07  0.2607536E+04  0.7818609E-02  0.8365646E-01
       -3   -1    0    0    0  501  0.00000000000E+00  0.00000000000E+00  0.12939985570E+04  0.12939985609E+04  0.10100000352E+00 0. -1.
        3   -1    0    0  501    0  0.00000000000E+00  0.00000000000E+00 -0.13136114534E+04  0.13136114573E+04  0.10100000352E+00 0.  1.
    10030    2    1    2    0    0  0.00000000000E+00  0.00000000000E+00 -0.19612896457E+02  0.26076100182E+04  0.26075362589E+04 0.  0.
        4    1    3    3  502    0  0.92164067240E+03  0.17841572358E+03 -0.91457290022E+03  0.13106101259E+04  0.12699999809E+01 0.  1.
       -4    1    3    3    0  502 -0.92164067240E+03 -0.17841572358E+03  0.89496000376E+03  0.12969998923E+04  0.12699999809E+01 0. -1.
</event>
<event>
 5   0  0.1032076E-06  0.2597393E+04  0.7818609E-02  0.8369087E-01
        1   -1    0    0  501    0  0.00000000000E+00  0.00000000000E+00  0.24949850167E+04  0.24949850167E+04  0.50400001928E-02 0.  1.
       -1   -1    0    0    0  501  0.00000000000E+00  0.00000000000E+00 -0.67600098059E+03  0.67600098061E+03  0.50400001928E-02 0. -1.
    10030    2    1    2    0    0  0.00000000000E+00  0.00000000000E+00  0.18189840361E+04  0.31709859973E+04  0.25973927835E+04 0.  0.
        1    1    3    3  502    0 -0.13736227034E+03  0.49561884462E+03 -0.54637819851E+03  0.75035696058E+03  0.50400001928E-02 0. -1.
       -1    1    3    3    0  502  0.13736227034E+03 -0.49561884462E+03  0.23653622346E+04  0.24206290367E+04  0.50400001928E-02 0.  1.
</event>
<event>
 5   0  0.1122628E-06  0.2595178E+04  0.7818609E-02  0.8369841E-01
       -1   -1    0    0    0  501  0.00000000000E+00  0.00000000000E+00  0.14887100011E+04  0.14887100012E+04  0.50400001928E-02 0.  1.
        1   -1    0    0  501    0  0.00000000000E+00  0.00000000000E+00 -0.11310045863E+04  0.11310045863E+04  0.50400001928E-02 0. -1.
    10030    2    1    2    0    0  0.00000000000E+00  0.00000000000E+00  0.35770541486E+03  0.26197145875E+04  0.25951784825E+04 0.  0.
        2    1    3    3  502    0  0.67942847195E+03  0.83857469642E+03 -0.54831004353E+03  0.12105678311E+04  0.25500000920E-02 0.  1.
       -2    1    3    3    0  502 -0.67942847195E+03 -0.83857469642E+03  0.90601545839E+03  0.14091467563E+04  0.25500000920E-02 0. -1.
</event>
<event>
 5   0  0.1088757E-06  0.2603553E+04  0.7818609E-02  0.8366995E-01
       -1   -1    0    0    0  501  0.00000000000E+00  0.00000000000E+00  0.11626438127E+04  0.11626438127E+04  0.50400001928E-02 0.  1.
        1   -1    0    0  501    0  0.00000000000E+00  0.00000000000E+00 -0.14575586535E+04  0.14575586535E+04  0.50400001928E-02 0. -1.
    10030    2    1    2    0    0  0.00000000000E+00  0.00000000000E+00 -0.29491484084E+03  0.26202024662E+04  0.26035526115E+04 0.  0.
        5    1    3    3  502    0 -0.41815439882E+03  0.76418801997E+03 -0.11209921170E+04  0.14196766701E+04  0.46999998093E+01 0. -1.
       -5    1    3    3    0  502  0.41815439882E+03 -0.76418801997E+03  0.82607727616E+03  0.12005257962E+04  0.46999998093E+01 0.  1.
</event>
<event>
 5   0  0.2623368E-06  0.2598956E+04  0.7818609E-02  0.8368556E-01
        2   -1    0    0  501    0  0.00000000000E+00  0.00000000000E+00  0.22279658080E+04  0.22279658080E+04  0.25500000920E-02 0. -1.
       -2   -1    0    0    0  501  0.00000000000E+00  0.00000000000E+00 -0.75793070252E+03  0.75793070252E+03  0.25500000920E-02 0.  1.
    10030    2    1    2    0    0  0.00000000000E+00  0.00000000000E+00  0.14700351055E+04  0.29858965105E+04  0.25989564752E+04 0.  0.
        5    1    3    3  502    0 -0.22888745094E+03 -0.11950774816E+04  0.21101871436E+03  0.12349698943E+04  0.46999998093E+01 0.  1.
       -5    1    3    3    0  502  0.22888745094E+03  0.11950774816E+04  0.12590163911E+04  0.17509266162E+04  0.46999998093E+01 0. -1.
</event>
<event>
 5   0  0.1088757E-06  0.2602848E+04  0.7818609E-02  0.8367235E-01
       -1   -1    0    0    0  501  0.00000000000E+00  0.00000000000E+00  0.15720456600E+04  0.15720456600E+04  0.50400001928E-02 0. -1.
        1   -1    0    0  501    0  0.00000000000E+00  0.00000000000E+00 -0.10773884810E+04  0.10773884810E+04  0.50400001928E-02 0.  1.
    10030    2    1    2    0    0  0.00000000000E+00  0.00000000000E+00  0.49465717901E+03  0.26494341411E+04  0.26028475835E+04 0.  0.
        5    1    3    3  502    0 -0.11573903337E+04  0.12770704773E+03  0.83895462298E+03  0.14351753983E+04  0.46999998093E+01 0. -1.
       -5    1    3    3    0  502  0.11573903337E+04 -0.12770704773E+03 -0.34429744397E+03  0.12142587428E+04  0.46999998093E+01 0.  1.
</event>
<event>
 5   0  0.2586775E-06  0.2602206E+04  0.7818609E-02  0.8367452E-01
       -2   -1    0    0    0  501  0.00000000000E+00  0.00000000000E+00  0.11221899652E+04  0.11221899652E+04  0.25500000920E-02 0. -1.
        2   -1    0    0  501    0  0.00000000000E+00  0.00000000000E+00 -0.15085409624E+04  0.15085409624E+04  0.25500000920E-02 0.  1.
    10030    2    1    2    0    0  0.00000000000E+00  0.00000000000E+00 -0.38635099727E+03  0.26307309276E+04  0.26022063947E+04 0.  0.
        1    1    3    3  502    0 -0.80877659364E+03  0.35713616098E+03  0.77185809419E+03  0.11736399505E+04  0.50400001928E-02 0. -1.
       -1    1    3    3    0  502  0.80877659364E+03 -0.35713616098E+03 -0.11582090915E+04  0.14570909771E+04  0.50400001928E-02 0.  1.
</event>
<event>
 5   0  0.1032076E-06  0.2597850E+04  0.7818609E-02  0.8368932E-01
       -1   -1    0    0    0  501  0.00000000000E+00  0.00000000000E+00  0.12646554170E+04  0.12646554170E+04  0.50400001928E-02 0. -1.
        1   -1    0    0  501    0  0.00000000000E+00  0.00000000000E+00 -0.13341231693E+04  0.13341231694E+04  0.50400001928E-02 0.  1.
    10030    2    1    2    0    0  0.00000000000E+00  0.00000000000E+00 -0.69467752346E+02  0.25987785864E+04  0.25978499519E+04 0.  0.
        1    1    3    3  502    0  0.96723597677E+02  0.28447528424E+03  0.12294126095E+04  0.12655974898E+04  0.50400001928E-02 0. -1.
       -1    1    3    3    0  502 -0.96723597677E+02 -0.28447528424E+03 -0.12988803619E+04  0.13331810966E+04  0.50400001928E-02 0.  1.
</event>
<event>
 5   0  0.2705807E-06  0.2598241E+04  0.7818609E-02  0.8368799E-01
       -2   -1    0    0    0  501  0.00000000000E+00  0.00000000000E+00  0.11877664136E+04  0.11877664136E+04  0.25500000920E-02 0.  1.
        2   -1    0    0  501    0  0.00000000000E+00  0.00000000000E+00 -0.14209138635E+04  0.14209138635E+04  0.25500000920E-02 0. -1.
    10030    2    1    2    0    0  0.00000000000E+00  0.00000000000E+00 -0.23314744991E+03  0.26086802771E+04  0.25982407615E+04 0.  0.
        4    1    3    3  502    0 -0.19656527608E+02  0.12176732010E+02  0.11875591725E+04  0.11877849355E+04  0.12699999809E+01 0.  1.
       -4    1    3    3    0  502  0.19656527608E+02 -0.12176732010E+02 -0.14207066224E+04  0.14208953416E+04  0.12699999809E+01 0. -1.
</event>
<event>
 5   0  0.2820028E-06  0.2599996E+04  0.7818609E-02  0.8368202E-01
        2   -1    0    0  501    0  0.00000000000E+00  0.00000000000E+00  0.20855104806E+04  0.20855104806E+04  0.25500000920E-02 0.  1.
       -2   -1    0    0    0  501  0.00000000000E+00  0.00000000000E+00 -0.81035095927E+03  0.81035095928E+03  0.25500000920E-02 0. -1.
    10030    2    1    2    0    0  0.00000000000E+00  0.00000000000E+00  0.12751595213E+04  0.28958614399E+04  0.25999964758E+04 0.  0.
        3    1    3    3  502    0 -0.50958003043E+03 -0.68414217750E+03 -0.45500260671E+03  0.96682454911E+03  0.10100000352E+00 0. -1.
       -3    1    3    3    0  502  0.50958003043E+03  0.68414217750E+03  0.17301621280E+04  0.19290368908E+04  0.10100000352E+00 0.  1.
</event>
<event>
 5   0  0.1055179E-06  0.2598193E+04  0.7818609E-02  0.8368815E-01
        1   -1    0    0  501    0  0.00000000000E+00  0.00000000000E+00  0.12483366228E+04  0.12483366228E+04  0.50400001928E-02 0.  1.
       -1   -1    0    0    0  501  0.00000000000E+00  0.00000000000E+00 -0.13519200305E+04  0.13519200306E+04  0.50400001928E-02 0. -1.
    10030    2    1    2    0    0  0.00000000000E+00  0.00000000000E+00 -0.10358340774E+03  0.26002566534E+04  0.25981926682E+04 0.  0.
        3    1    3    3  502    0  0.75622090785E+03  0.84236280095E+03  0.58605761676E+03  0.12747190633E+04  0.10100000352E+00 0.  1.
       -3    1    3    3    0  502 -0.75622090785E+03 -0.84236280095E+03 -0.68964102450E+03  0.13255375901E+04  0.10100000352E+00 0. -1.
</event>
<event>
 5   0  0.1088757E-06  0.2598431E+04  0.7818609E-02  0.8368734E-01
        1   -1    0    0  501    0  0.00000000000E+00  0.00000000000E+00  0.18492420172E+04  0.18492420172E+04  0.50400001928E-02 0. -1.
       -1   -1    0    0    0  501  0.00000000000E+00  0.00000000000E+00 -0.91278550322E+03  0.91278550323E+03  0.50400001928E-02 0.  1.
    10030    2    1    2    0    0  0.00000000000E+00  0.00000000000E+00  0.93645651402E+03  0.27620275205E+04  0.25984313001E+04 0.  0.
        5    1    3    3  502    0  0.12087206214E+04  0.47479529194E+03  0.42701741605E+03  0.13670413577E+04  0.46999998093E+01 0. -1.
       -5    1    3    3    0  502 -0.12087206214E+04 -0.47479529194E+03  0.50943909797E+03  0.13949861628E+04  0.46999998093E+01 0.  1.
</event>
<event>
 5   0  0.9197000E-07  0.2579913E+04  0.7818609E-02  0.8375056E-01
       -3   -1    0    0    0  501  0.00000000000E+00  0.00000000000E+00  0.89360975948E+03  0.89360976518E+03  0.10100000352E+00 0. -1.
        3   -1    0    0  501    0  0.00000000000E+00  0.00000000000E+00 -0.18620966854E+04  0.18620966882E+04  0.10100000352E+00 0.  1.
    10030    2    1    2    0    0  0.00000000000E+00  0.00000000000E+00 -0.96848692597E+03  0.27557064534E+04  0.25799130085E+04 0.  0.
        3    1    3    3  502    0  0.49263598151E+03 -0.11622746318E+04 -0.20080340308E+03  0.12782388458E+04  0.10100000352E+00 0. -1.
       -3    1    3    3    0  502 -0.49263598151E+03  0.11622746318E+04 -0.76768352289E+03  0.14774676076E+04  0.10100000352E+00 0.  1.
</event>
<event>
 5   0  0.1100104E-06  0.2596812E+04  0.7818609E-02  0.8369285E-01
        1   -1    0    0  501    0  0.00000000000E+00  0.00000000000E+00  0.15625951636E+04  0.15625951636E+04  0.50400001928E-02 0.  1.
       -1   -1    0    0    0  501  0.00000000000E+00  0.00000000000E+00 -0.10788835336E+04  0.10788835336E+04  0.50400001928E-02 0. -1.
    10030    2    1    2    0    0  0.00000000000E+00  0.00000000000E+00  0.48371162999E+03  0.26414786972E+04  0.25968120392E+04 0.  0.
        4    1    3    3  502    0 -0.50785789793E+03 -0.95735653876E+03  0.96928253231E+03  0.14539468447E+04  0.12699999809E+01 0.  1.
       -4    1    3    3    0  502  0.50785789793E+03  0.95735653876E+03 -0.48557090232E+03  0.11875318526E+04  0.12699999809E+01 0. -1.
</event>
<event>
 5   0  0.2820028E-06  0.2603119E+04  0.7818609E-02  0.8367143E-01
       -2   -1    0    0    0  501  0.00000000000E+00  0.00000000000E+00  0.92470174363E+03  0.92470174364E+03  0.25500000920E-02 0.  1.
        2   -1    0    0  501    0  0.00000000000E+00  0.00000000000E+00 -0.18320038731E+04  0.18320038731E+04  0.25500000920E-02 0. -1.
    10030    2    1    2    0    0  0.00000000000E+00  0.00000000000E+00 -0.90730212946E+03  0.27567056167E+04  0.26031190336E+04 0.  0.
        3    1    3    3  502    0 -0.55243444145E+03  0.69308148109E+02  0.79222645434E+03  0.96830274019E+03  0.10100000352E+00 0.  1.
       -3    1    3    3    0  502  0.55243444145E+03 -0.69308148109E+02 -0.16995285838E+04  0.17884028766E+04  0.10100000352E+00 0. -1.
</event>
<event>
 5   0  0.2746631E-06  0.2615606E+04  0.7818609E-02  0.8362920E-01
       -2   -1    0    0    0  501  0.00000000000E+00  0.00000000000E+00  0.10047832574E+04  0.10047832574E+04  0.25500000920E-02 0.  1.
        2   -1    0    0  501    0  0.00000000000E+00  0.00000000000E+00 -0.17022063871E+04  0.17022063871E+04  0.25500000920E-02 0. -1.
    10030    2    1    2    0    0  0.00000000000E+00  0.00000000000E+00 -0.69742312969E+03  0.27069896445E+04  0.26156058406E+04 0.  0.
        2    1    3    3  502    0  0.94398868468E+03  0.80141398090E+03  0.86663422085E+02  0.12413257245E+04  0.25500000920E-02 0.  1.
       -2    1    3    3    0  502 -0.94398868468E+03 -0.80141398090E+03 -0.78408655178E+03  0.14656639200E+04  0.25500000920E-02 0. -1.
</event>
<event>
 5   0  0.2820028E-06  0.2599221E+04  0.7818609E-02  0.8368466E-01
        2   -1    0    0  501    0  0.00000000000E+00  0.00000000000E+00  0.22643920745E+04  0.22643920745E+04  0.25500000920E-02 0. -1.
       -2   -1    0    0    0  501  0.00000000000E+00  0.00000000000E+00 -0.74589002582E+03  0.74589002582E+03  0.25500000920E-02 0.  1.
    10030    2    1    2    0    0  0.00000000000E+00  0.00000000000E+00  0.15185020487E+04  0.30102821003E+04  0.25992210086E+04 0.  0.
        3    1    3    3  502    0 -0.11609551499E+04 -0.10258271942E+03  0.14252085474E+04  0.18410756335E+04  0.10100000352E+00 0. -1.
       -3    1    3    3    0  502  0.11609551499E+04  0.10258271942E+03  0.93293501213E+02  0.11692064668E+04  0.10100000352E+00 0.  1.
</event>
<event>
 5   0  0.2746631E-06  0.2597508E+04  0.7818609E-02  0.8369048E-01
       -2   -1    0    0    0  501  0.00000000000E+00  0.00000000000E+00  0.77956758669E+03  0.77956758669E+03  0.25500000920E-02 0. -1.
        2   -1    0    0  501    0  0.00000000000E+00  0.00000000000E+00 -0.21637154347E+04  0.21637154347E+04  0.25500000920E-02 0.  1.
    10030    2    1    2    0    0  0.00000000000E+00  0.00000000000E+00 -0.13841478480E+04  0.29432830214E+04  0.25975083597E+04 0.  0.
        2    1    3    3  502    0  0.54581527708E+03  0.11350838391E+04 -0.10511717831E+04  0.16405156982E+04  0.25500000920E-02 0.  1.
       -2    1    3    3    0  502 -0.54581527708E+03 -0.11350838391E+04 -0.33297606490E+03  0.13027673232E+04  0.25500000920E-02 0. -1.
</event>
<event>
 5   0  0.2820028E-06  0.2597387E+04  0.7818609E-02  0.8369089E-01
        2   -1    0    0  501    0  0.00000000000E+00  0.00000000000E+00  0.14333036450E+04  0.14333036450E+04  0.25500000920E-02 0. -1.
       -2   -1    0    0    0  501  0.00000000000E+00  0.00000000000E+00 -0.11767251893E+04  0.11767251893E+04  0.25500000920E-02 0.  1.
    10030    2    1    2    0    0  0.00000000000E+00  0.00000000000E+00  0.25657845567E+03  0.26100288344E+04  0.25973867660E+04 0.  0.
        3    1    3    3  502    0  0.83576723823E+03  0.59557812662E+02 -0.86878542664E+03  0.12069971571E+04  0.10100000352E+00 0.  1.
       -3    1    3    3    0  502 -0.83576723823E+03 -0.59557812662E+02  0.11253638823E+04  0.14030316772E+04  0.10100000352E+00 0. -1.
</event>
<event>
 5   0  0.2623368E-06  0.2595550E+04  0.7818609E-02  0.8369714E-01
       -2   -1    0    0    0  501  0.00000000000E+00  0.00000000000E+00  0.15868578042E+04  0.15868578042E+04  0.25500000920E-02 0. -1.
        2   -1    0    0  501    0  0.00000000000E+00  0.00000000000E+00 -0.10613554207E+04  0.10613554207E+04  0.25500000920E-02 0.  1.
    10030    2    1    2    0    0  0.00000000000E+00  0.00000000000E+00  0.52550238352E+03  0.26482132249E+04  0.25955501400E+04 0.  0.
        5    1    3    3  502    0 -0.87153086810E+03  0.70933376739E+03  0.92513662582E+03  0.14555481146E+04  0.46999998093E+01 0. -1.
       -5    1    3    3    0  502  0.87153086810E+03 -0.70933376739E+03 -0.39963424230E+03  0.11926651103E+04  0.46999998093E+01 0.  1.
</event>
<event>
 5   0  0.2705807E-06  0.2600121E+04  0.7818609E-02  0.8368160E-01
        2   -1    0    0  501    0  0.00000000000E+00  0.00000000000E+00  0.13161351844E+04  0.13161351844E+04  0.25500000920E-02 0.  1.
       -2   -1    0    0    0  501  0.00000000000E+00  0.00000000000E+00 -0.12841818354E+04  0.12841818354E+04  0.25500000920E-02 0. -1.
    10030    2    1    2    0    0  0.00000000000E+00  0.00000000000E+00  0.31953349043E+02  0.26003170198E+04  0.26001206870E+04 0.  0.
        4    1    3    3  502    0 -0.65988872527E+03  0.25613356754E+03  0.11065166013E+04  0.13135593386E+04  0.12699999809E+01 0.  1.
       -4    1    3    3    0  502  0.65988872527E+03 -0.25613356754E+03 -0.10745632523E+04  0.12867576812E+04  0.12699999809E+01 0. -1.
</event>
<event>
 5   0  0.2705807E-06  0.2601137E+04  0.7818609E-02  0.8367815E-01
       -2   -1    0    0    0  501  0.00000000000E+00  0.00000000000E+00  0.88759687880E+03  0.88759687881E+03  0.25500000920E-02 0.  1.
        2   -1    0    0  501    0  0.00000000000E+00  0.00000000000E+00 -0.19056825492E+04  0.19056825492E+04  0.25500000920E-02 0. -1.
    10030    2    1    2    0    0  0.00000000000E+00  0.00000000000E+00 -0.10180856704E+04  0.27932794280E+04  0.26011365844E+04 0.  0.
        4    1    3    3  502    0 -0.14268531310E+03 -0.88636682762E+03  0.50146201190E+03  0.10283340965E+04  0.12699999809E+01 0.  1.
       -4    1    3    3    0  502  0.14268531310E+03  0.88636682762E+03 -0.15195476823E+04  0.17649453316E+04  0.12699999809E+01 0. -1.
</event>
<event>
 5   0  0.1032076E-06  0.2599177E+04  0.7818609E-02  0.8368481E-01
        1   -1    0    0  501    0  0.00000000000E+00  0.00000000000E+00  0.11741768924E+04  0.11741768925E+04  0.50400001928E-02 0.  1.
       -1   -1    0    0    0  501  0.00000000000E+00  0.00000000000E+00 -0.14383950169E+04  0.14383950170E+04  0.50400001928E-02 0. -1.
    10030    2    1    2    0    0  0.00000000000E+00  0.00000000000E+00 -0.26421812450E+03  0.26125719094E+04  0.25991769398E+04 0.  0.
        1    1    3    3  502    0 -0.74624245989E+03 -0.10625080418E+04 -0.18833519164E+03  0.13119722910E+04  0.50400001928E-02 0. -1.
       -1    1    3    3    0  502  0.74624245989E+03  0.10625080418E+04 -0.75882932858E+02  0.13005996184E+04  0.50400001928E-02 0.  1.
</event>
<event>
 5   0  0.2746631E-06  0.2597544E+04  0.7818609E-02  0.8369036E-01
       -2   -1    0    0    0  501  0.00000000000E+00  0.00000000000E+00  0.14970709298E+04  0.14970709298E+04  0.25500000920E-02 0.  1.
        2   -1    0    0  501    0  0.00000000000E+00  0.00000000000E+00 -0.11267395688E+04  0.11267395688E+04  0.25500000920E-02 0. -1.
    10030    2    1    2    0    0  0.00000000000E+00  0.00000000000E+00  0.37033136095E+03  0.26238104986E+04  0.25975442664E+04 0.  0.
        2    1    3    3  502    0  0.28857957693E+03  0.10585512764E+03  0.14597995172E+04  0.14918103468E+04  0.25500000920E-02 0.  1.
       -2    1    3    3    0  502 -0.28857957693E+03 -0.10585512764E+03 -0.10894681563E+04  0.11320001519E+04  0.25500000920E-02 0. -1.
</event>
<event>
 5   0  0.1088757E-06  0.2594103E+04  0.7818609E-02  0.8370207E-01
        1   -1    0    0  501    0  0.00000000000E+00  0.00000000000E+00  0.13576678632E+04  0.13576678632E+04  0.50400001928E-02 0. -1.
       -1   -1    0    0    0  501  0.00000000000E+00  0.00000000000E+00 -0.12391412531E+04  0.12391412531E+04  0.50400001928E-02 0.  1.
    10030    2    1    2    0    0  0.00000000000E+00  0.00000000000E+00  0.11852661008E+03  0.25968091163E+04  0.25941027407E+04 0.  0.
        5    1    3    3  502    0 -0.11790664959E+03  0.84798367430E+03 -0.91609497252E+03  0.12538861107E+04  0.46999998093E+01 0.  1.
       -5    1    3    3    0  502  0.11790664959E+03 -0.84798367430E+03  0.10346215826E+04  0.13429230056E+04  0.46999998093E+01 0. -1.
</event>
<event>
 5   0  0.1100104E-06  0.2597664E+04  0.7818609E-02  0.8368995E-01
        1   -1    0    0  501    0  0.00000000000E+00  0.00000000000E+00  0.16902889931E+04  0.16902889931E+04  0.50400001928E-02 0. -1.
       -1   -1    0    0    0  501  0.00000000000E+00  0.00000000000E+00 -0.99803288587E+03  0.99803288588E+03  0.50400001928E-02 0.  1.
    10030    2    1    2    0    0  0.00000000000E+00  0.00000000000E+00  0.69225610718E+03  0.26883218789E+04  0.25976635669E+04 0.  0.
        4    1    3    3  502    0  0.78574537945E+03 -0.21601859969E+02 -0.72393043692E+03  0.10686156147E+04  0.12699999809E+01 0.  1.
       -4    1    3    3    0  502 -0.78574537945E+03  0.21601859969E+02  0.14161865441E+04  0.16197062642E+04  0.12699999809E+01 0. -1.
</event>
<event>
 5   0  0.1088757E-06  0.2615186E+04  0.7818609E-02  0.8363061E-01
        1   -1    0    0  501    0  0.00000000000E+00  0.00000000000E+00  0.20396297765E+04  0.20396297765E+04  0.50400001928E-02 0.  1.
       -1   -1    0    0    0  501  0.00000000000E+00  0.00000000000E+00 -0.83828931213E+03  0.83828931214E+03  0.50400001928E-02 0. -1.
    10030    2    1    2    0    0  0.00000000000E+00  0.00000000000E+00  0.12013404644E+04  0.28779190887E+04  0.26151862973E+04 0.  0.
        5    1    3    3  502    0  0.55194842151E+03  0.10583438284E+04  0.13142844664E+02  0.11937058027E+04  0.46999998093E+01 0. -1.
       -5    1    3    3    0  502 -0.55194842151E+03 -0.10583438284E+04  0.11881976197E+04  0.16842132859E+04  0.46999998093E+01 0.  1.
</event>
<event>
 5   0  0.2586775E-06  0.2597367E+04  0.7818609E-02  0.8369096E-01
       -2   -1    0    0    0  501  0.00000000000E+00  0.00000000000E+00  0.98787619996E+03  0.98787619996E+03  0.25500000920E-02 0. -1.
        2   -1    0    0  501    0  0.00000000000E+00  0.00000000000E+00 -0.17072770716E+04  0.17072770716E+04  0.25500000920E-02 0.  1.
    10030    2    1    2    0    0  0.00000000000E+00  0.00000000000E+00 -0.71940087163E+03  0.26951532716E+04  0.25973666555E+04 0.  0.
        1    1    3    3  502    0 -0.97988727824E+03  0.37977067899E+03 -0.11514292272E+04  0.15589079870E+04  0.50400001928E-02 0. -1.
       -1    1    3    3    0  502  0.97988727824E+03 -0.37977067899E+03  0.43202835555E+03  0.11362452846E+04  0.50400001928E-02 0.  1.
</event>
<event>
 5   0  0.2820028E-06  0.2601130E+04  0.7818609E-02  0.8367817E-01
       -2   -1    0    0    0  501  0.00000000000E+00  0.00000000000E+00  0.94791025389E+03  0.94791025389E+03  0.25500000920E-02 0.  1.
        2   -1    0    0  501    0  0.00000000000E+00  0.00000000000E+00 -0.17844191968E+04  0.17844191968E+04  0.25500000920E-02 0. -1.
    10030    2    1    2    0    0  0.00000000000E+00  0.00000000000E+00 -0.83650894287E+03  0.27323294506E+04  0.26011299497E+04 0.  0.
        3    1    3    3  502    0 -0.21172395621E+03 -0.76039341168E+03 -0.15040471527E+04  0.16985826509E+04  0.10100000352E+00 0. -1.
       -3    1    3    3    0  502  0.21172395621E+03  0.76039341168E+03  0.66753820985E+03  0.10337467997E+04  0.10100000352E+00 0.  1.
</event>
<event>
 5   0  0.2623368E-06  0.2632365E+04  0.7818609E-02  0.8357290E-01
        2   -1    0    0  501    0  0.00000000000E+00  0.00000000000E+00  0.17212056274E+04  0.17212056274E+04  0.25500000920E-02 0.  1.
       -2   -1    0    0    0  501  0.00000000000E+00  0.00000000000E+00 -0.10064671714E+04  0.10064671714E+04  0.25500000920E-02 0. -1.
    10030    2    1    2    0    0  0.00000000000E+00  0.00000000000E+00  0.71473845603E+03  0.27276727988E+04  0.26323654451E+04 0.  0.
        5    1    3    3  502    0 -0.25855040461E+03  0.87775511595E+03  0.13376729361E+04  0.16207076631E+04  0.46999998093E+01 0.  1.
       -5    1    3    3    0  502  0.25855040461E+03 -0.87775511595E+03 -0.62293448003E+03  0.11069651357E+04  0.46999998093E+01 0. -1.
</event>
<event>
 5   0  0.1088757E-06  0.2602308E+04  0.7818609E-02  0.8367418E-01
        1   -1    0    0  501    0  0.00000000000E+00  0.00000000000E+00  0.13413413350E+04  0.13413413351E+04  0.50400001928E-02 0.  1.
       -1   -1    0    0    0  501  0.00000000000E+00  0.00000000000E+00 -0.12621711294E+04  0.12621711294E+04  0.50400001928E-02 0. -1.
    10030    2    1    2    0    0  0.00000000000E+00  0.00000000000E+00  0.79170205632E+02  0.26035124645E+04  0.26023084428E+04 0.  0.
        5    1    3    3  502    0  0.72487350369E+03 -0.77285029753E+03  0.79507754691E+03  0.13247300005E+04  0.46999998093E+01 0. -1.
       -5    1    3    3    0  502 -0.72487350369E+03  0.77285029753E+03 -0.71590734128E+03  0.12787824639E+04  0.46999998093E+01 0.  1.
</event>
<event>
 5   0  0.2820028E-06  0.2600655E+04  0.7818609E-02  0.8367979E-01
        2   -1    0    0  501    0  0.00000000000E+00  0.00000000000E+00  0.13937386686E+04  0.13937386686E+04  0.25500000920E-02 0.  1.
       -2   -1    0    0    0  501  0.00000000000E+00  0.00000000000E+00 -0.12131766690E+04  0.12131766690E+04  0.25500000920E-02 0. -1.
    10030    2    1    2    0    0  0.00000000000E+00  0.00000000000E+00  0.18056199955E+03  0.26069153376E+04  0.26006547140E+04 0.  0.
        3    1    3    3  502    0  0.12004709412E+04  0.40708485842E+03  0.38081084826E+03  0.13235805510E+04  0.10100000352E+00 0.  1.
       -3    1    3    3    0  502 -0.12004709412E+04 -0.40708485842E+03 -0.20024884871E+03  0.12833347865E+04  0.10100000352E+00 0. -1.
</event>
<event>
 5   0  0.2705807E-06  0.2604273E+04  0.7818609E-02  0.8366751E-01
       -2   -1    0    0    0  501  0.00000000000E+00  0.00000000000E+00  0.15356647355E+04  0.15356647355E+04  0.25500000920E-02 0.  1.
        2   -1    0    0  501    0  0.00000000000E+00  0.00000000000E+00 -0.11041209531E+04  0.11041209531E+04  0.25500000920E-02 0. -1.
    10030    2    1    2    0    0  0.00000000000E+00  0.00000000000E+00  0.43154378243E+03  0.26397856886E+04  0.26042731127E+04 0.  0.
        4    1    3    3  502    0  0.11833176727E+04 -0.10706110980E+03 -0.32427388308E+03  0.12316078759E+04  0.12699999809E+01 0.  1.
       -4    1    3    3    0  502 -0.11833176727E+04  0.10706110980E+03  0.75581766551E+03  0.14081778127E+04  0.12699999809E+01 0. -1.
</event>
<event>
 5   0  0.2623368E-06  0.2604190E+04  0.7818609E-02  0.8366779E-01
        2   -1    0    0  501    0  0.00000000000E+00  0.00000000000E+00  0.12990392620E+04  0.12990392620E+04  0.25500000920E-02 0. -1.
       -2   -1    0    0    0  501  0.00000000000E+00  0.00000000000E+00 -0.13051575535E+04  0.13051575535E+04  0.25500000920E-02 0.  1.
    10030    2    1    2    0    0  0.00000000000E+00  0.00000000000E+00 -0.61182915362E+01  0.26041968155E+04  0.26041896283E+04 0.  0.
        5    1    3    3  502    0 -0.56295217033E+03  0.21048790080E+03 -0.11581417736E+04  0.13048121551E+04  0.46999998093E+01 0.  1.
       -5    1    3    3    0  502  0.56295217033E+03 -0.21048790080E+03  0.11520234820E+04  0.12993846604E+04  0.46999998093E+01 0. -1.
</event>
<event>
 5   0  0.1088757E-06  0.2601273E+04  0.7818609E-02  0.8367769E-01
        1   -1    0    0  501    0  0.00000000000E+00  0.00000000000E+00  0.81851449664E+03  0.81851449666E+03  0.50400001928E-02 0. -1.
       -1   -1    0    0    0  501  0.00000000000E+00  0.00000000000E+00 -0.20667388827E+04  0.20667388827E+04  0.50400001928E-02 0.  1.
    10030    2    1    2    0    0  0.00000000000E+00  0.00000000000E+00 -0.12482243861E+04  0.28852533794E+04  0.26012733315E+04 0.  0.
        5    1    3    3  502    0 -0.56344512028E+03 -0.15082767409E+03  0.66530132127E+03  0.88479790287E+03  0.46999998093E+01 0. -1.
       -5    1    3    3    0  502  0.56344512028E+03  0.15082767409E+03 -0.19135257073E+04  0.20004554765E+04  0.46999998093E+01 0.  1.
</event>
<event>
 5   0  0.2820028E-06  0.2599541E+04  0.7818609E-02  0.8368357E-01
        2   -1    0    0  501    0  0.00000000000E+00  0.00000000000E+00  0.14929897851E+04  0.14929897851E+04  0.25500000920E-02 0. -1.
       -2   -1    0    0    0  501  0.00000000000E+00  0.00000000000E+00 -0.11315571446E+04  0.11315571446E+04  0.25500000920E-02 0.  1.
    10030    2    1    2    0    0  0.00000000000E+00  0.00000000000E+00  0.36143264055E+03  0.26245469297E+04  0.25995409272E+04 0.  0.
        3    1    3    3  502    0  0.94206175818E+03 -0.77603874725E+03 -0.27044547132E+03  0.12501428945E+04  0.10100000352E+00 0.  1.
       -3    1    3    3    0  502 -0.94206175818E+03  0.77603874725E+03  0.63187811187E+03  0.13744040352E+04  0.10100000352E+00 0. -1.
</event>
<event>
 5   0  0.2586775E-06  0.2591820E+04  0.7818609E-02  0.8370985E-01
       -2   -1    0    0    0  501  0.00000000000E+00  0.00000000000E+00  0.12382428563E+04  0.12382428563E+04  0.25500000920E-02 0. -1.
        2   -1    0    0  501    0  0.00000000000E+00  0.00000000000E+00 -0.13562624231E+04  0.13562624231E+04  0.25500000920E-02 0.  1.
    10030    2    1    2    0    0  0.00000000000E+00  0.00000000000E+00 -0.11801956681E+03  0.25945052794E+04  0.25918196362E+04 0.  0.
        1    1    3    3  502    0  0.12721700386E+04  0.22512063014E+03 -0.16053652851E+03  0.13018709161E+04  0.50400001928E-02 0. -1.
       -1    1    3    3    0  502 -0.12721700386E+04 -0.22512063014E+03  0.42516961702E+02  0.12926343633E+04  0.50400001928E-02 0.  1.
</event>
<event>
 5   0  0.2705807E-06  0.2665649E+04  0.7818609E-02  0.8346237E-01
       -2   -1    0    0    0  501  0.00000000000E+00  0.00000000000E+00  0.13293837308E+04  0.13293837308E+04  0.25500000920E-02 0.  1.
        2   -1    0    0  501    0  0.00000000000E+00  0.00000000000E+00 -0.13362745366E+04  0.13362745366E+04  0.25500000920E-02 0. -1.
    10030    2    1    2    0    0  0.00000000000E+00  0.00000000000E+00 -0.68908058194E+01  0.26656582674E+04  0.26656493609E+04 0.  0.
        4    1    3    3  502    0 -0.11608552641E+04 -0.38103896181E+03 -0.53602992841E+03  0.13342058805E+04  0.12699999809E+01 0.  1.
       -4    1    3    3    0  502  0.11608552641E+04  0.38103896181E+03  0.52913912259E+03  0.13314523869E+04  0.12699999809E+01 0. -1.
</event>
<event>
 5   0  0.2586775E-06  0.2597380E+04  0.7818609E-02  0.8369092E-01
        2   -1    0    0  501    0  0.00000000000E+00  0.00000000000E+00  0.16749868793E+04  0.16749868793E+04  0.25500000920E-02 0. -1.
       -2   -1    0    0    0  501  0.00000000000E+00  0.00000000000E+00 -0.10069304768E+04  0.10069304768E+04  0.25500000920E-02 0.  1.
    10030    2    1    2    0    0  0.00000000000E+00  0.00000000000E+00  0.66805640253E+03  0.26819173561E+04  0.25973797080E+04 0.  0.
        1    1    3    3  502    0  0.83760741785E+03  0.55184453972E+03  0.11857869333E+04  0.15531288529E+04  0.50400001928E-02 0. -1.
       -1    1    3    3    0  502 -0.83760741785E+03 -0.55184453972E+03 -0.51773053074E+03  0.11287885032E+04  0.50400001928E-02 0.  1.
</event>
<event>
 5   0  0.2820028E-06  0.2549648E+04  0.7818609E-02  0.8385509E-01
       -2   -1    0    0    0  501  0.00000000000E+00  0.00000000000E+00  0.61221949792E+03  0.61221949793E+03  0.25500000920E-02 0.  1.
        2   -1    0    0  501    0  0.00000000000E+00  0.00000000000E+00 -0.26545646622E+04  0.26545646622E+04  0.25500000920E-02 0. -1.
    10030    2    1    2    0    0  0.00000000000E+00  0.00000000000E+00 -0.20423451643E+04  0.32667841601E+04  0.25496480108E+04 0.  0.
        3    1    3    3  502    0  0.12800766809E+03  0.30683629026E+03 -0.25980399878E+04  0.26192262714E+04  0.10100000352E+00 0. -1.
       -3    1    3    3    0  502 -0.12800766809E+03 -0.30683629026E+03  0.55569482357E+03  0.64755788873E+03  0.10100000352E+00 0.  1.
</event>
<event>
 5   0  0.2746631E-06  0.2597495E+04  0.7818609E-02  0.8369053E-01
       -2   -1    0    0    0  501  0.00000000000E+00  0.00000000000E+00  0.16592397965E+04  0.16592397965E+04  0.25500000920E-02 0.  1.
        2   -1    0    0  501    0  0.00000000000E+00  0.00000000000E+00 -0.10165768212E+04  0.10165768212E+04  0.25500000920E-02 0. -1.
    10030    2    1    2    0    0  0.00000000000E+00  0.00000000000E+00  0.64266297531E+03  0.26758166177E+04  0.25974947298E+04 0.  0.
        2    1    3    3  502    0  0.23895420711E+03  0.11696176327E+04  0.84826267764E+03  0.14644637552E+04  0.25500000920E-02 0.  1.
       -2    1    3    3    0  502 -0.23895420711E+03 -0.11696176327E+04 -0.20559970233E+03  0.12113528625E+04  0.25500000920E-02 0. -1.
</event>
<event>
 5   0  0.2586775E-06  0.2595137E+04  0.7818609E-02  0.8369855E-01
       -2   -1    0    0    0  501  0.00000000000E+00  0.00000000000E+00  0.92526298052E+03  0.92526298052E+03  0.25500000920E-02 0.  1.
        2   -1    0    0  501    0  0.00000000000E+00  0.00000000000E+00 -0.18196811280E+04  0.18196811280E+04  0.25500000920E-02 0. -1.
    10030    2    1    2    0    0  0.00000000000E+00  0.00000000000E+00 -0.89441814749E+03  0.27449441085E+04  0.25951366701E+04 0.  0.
        1    1    3    3  502    0  0.10989922539E+03 -0.12357851047E+04 -0.84920198386E+03  0.15034582382E+04  0.50400001928E-02 0. -1.
       -1    1    3    3    0  502 -0.10989922539E+03  0.12357851047E+04 -0.45216163635E+02  0.12414858703E+04  0.50400001928E-02 0.  1.
</event>
<event>
 5   0  0.2746631E-06  0.2605556E+04  0.7818609E-02  0.8366317E-01
        2   -1    0    0  501    0  0.00000000000E+00  0.00000000000E+00  0.10506494978E+04  0.10506494978E+04  0.25500000920E-02 0. -1.
       -2   -1    0    0    0  501  0.00000000000E+00  0.00000000000E+00 -0.16154103764E+04  0.16154103764E+04  0.25500000920E-02 0.  1.
    10030    2    1    2    0    0  0.00000000000E+00  0.00000000000E+00 -0.56476087853E+03  0.26660598742E+04  0.26055556803E+04 0.  0.
        2    1    3    3  502    0 -0.10202186024E+04 -0.80986155638E+03 -0.25930995503E+03  0.13281428349E+04  0.25500000920E-02 0. -1.
       -2    1    3    3    0  502  0.10202186024E+04  0.80986155638E+03 -0.30545092350E+03  0.13379170392E+04  0.25500000920E-02 0.  1.
</event>
<event>
 5   0  0.1032076E-06  0.2600370E+04  0.7818609E-02  0.8368076E-01
       -1   -1    0    0    0  501  0.00000000000E+00  0.00000000000E+00  0.79631201041E+03  0.79631201043E+03  0.50400001928E-02 0.  1.
        1   -1    0    0  501    0  0.00000000000E+00  0.00000000000E+00 -0.21228871260E+04  0.21228871260E+04  0.50400001928E-02 0. -1.
    10030    2    1    2    0    0  0.00000000000E+00  0.00000000000E+00 -0.13265751156E+04  0.29191991364E+04  0.26003696008E+04 0.  0.
        1    1    3    3  502    0 -0.36561650398E+03  0.10633135142E+04  0.69570390678E+02  0.11265660641E+04  0.50400001928E-02 0.  1.
       -1    1    3    3    0  502  0.36561650398E+03 -0.10633135142E+04 -0.13961455062E+04  0.17926330723E+04  0.50400001928E-02 0. -1.
</event>
<event>
 5   0  0.1122628E-06  0.2571361E+04  0.7818609E-02  0.8377995E-01
        1   -1    0    0  501    0  0.00000000000E+00  0.00000000000E+00  0.15339022904E+04  0.15339022904E+04  0.50400001928E-02 0.  1.
       -1   -1    0    0    0  501  0.00000000000E+00  0.00000000000E+00 -0.10776270337E+04  0.10776270337E+04  0.50400001928E-02 0. -1.
    10030    2    1    2    0    0  0.00000000000E+00  0.00000000000E+00  0.45627525665E+03  0.26115293241E+04  0.25713611767E+04 0.  0.
        2    1    3    3  502    0  0.11236427910E+03  0.13496810681E+03 -0.10653878310E+04  0.10797654150E+04  0.25500000920E-02 0. -1.
       -2    1    3    3    0  502 -0.11236427910E+03 -0.13496810681E+03  0.15216630876E+04  0.15317639091E+04  0.25500000920E-02 0.  1.
</event>
<event>
 5   0  0.1100104E-06  0.2597102E+04  0.7818609E-02  0.8369186E-01
        1   -1    0    0  501    0  0.00000000000E+00  0.00000000000E+00  0.15538341146E+04  0.15538341146E+04  0.50400001928E-02 0.  1.
       -1   -1    0    0    0  501  0.00000000000E+00  0.00000000000E+00 -0.10852093005E+04  0.10852093005E+04  0.50400001928E-02 0. -1.
    10030    2    1    2    0    0  0.00000000000E+00  0.00000000000E+00  0.46862481412E+03  0.26390434151E+04  0.25971024104E+04 0.  0.
        4    1    3    3  502    0 -0.86248327052E+03  0.53179000614E+03 -0.59093310513E+03  0.11729797740E+04  0.12699999809E+01 0. -1.
       -4    1    3    3    0  502  0.86248327052E+03 -0.53179000614E+03  0.10595579192E+04  0.14660636411E+04  0.12699999809E+01 0.  1.
</event>
<event>
 5   0  0.1088757E-06  0.2601641E+04  0.7818609E-02  0.8367644E-01
        1   -1    0    0  501    0  0.00000000000E+00  0.00000000000E+00  0.16030986982E+04  0.16030986982E+04  0.50400001928E-02 0. -1.
       -1   -1    0    0    0  501  0.00000000000E+00  0.00000000000E+00 -0.10555392304E+04  0.10555392304E+04  0.50400001928E-02 0.  1.
    10030    2    1    2    0    0  0.00000000000E+00  0.00000000000E+00  0.54755946783E+03  0.26586379286E+04  0.26016406871E+04 0.  0.
        5    1    3    3  502    0 -0.73823018618E+03  0.99752062459E+03  0.67229808109E+03  0.14113957645E+04  0.46999998093E+01 0. -1.
       -5    1    3    3    0  502  0.73823018618E+03 -0.99752062459E+03 -0.12473861326E+03  0.12472421641E+04  0.46999998093E+01 0.  1.
</event>
<event>
 5   0  0.2820028E-06  0.2608974E+04  0.7818609E-02  0.8365159E-01
        2   -1    0    0  501    0  0.00000000000E+00  0.00000000000E+00  0.24819637811E+04  0.24819637811E+04  0.25500000920E-02 0. -1.
       -2   -1    0    0    0  501  0.00000000000E+00  0.00000000000E+00 -0.68562116201E+03  0.68562116202E+03  0.25500000920E-02 0.  1.
    10030    2    1    2    0    0  0.00000000000E+00  0.00000000000E+00  0.17963426191E+04  0.31675849431E+04  0.26089744282E+04 0.  0.
        3    1    3    3  502    0  0.10908257848E+03  0.47952552163E+03  0.23651085881E+04  0.24156950094E+04  0.10100000352E+00 0. -1.
       -3    1    3    3    0  502 -0.10908257848E+03 -0.47952552163E+03 -0.56876596897E+03  0.75188993375E+03  0.10100000352E+00 0.  1.
</event>
<event>
 5   0  0.9197000E-07  0.2600699E+04  0.7818609E-02  0.8367964E-01
        3   -1    0    0  501    0  0.00000000000E+00  0.00000000000E+00  0.96747136577E+03  0.96747137104E+03  0.10100000352E+00 0.  1.
       -3   -1    0    0    0  501  0.00000000000E+00  0.00000000000E+00 -0.17477613929E+04  0.17477613958E+04  0.10100000352E+00 0. -1.
    10030    2    1    2    0    0  0.00000000000E+00  0.00000000000E+00 -0.78029002714E+03  0.27152327669E+04  0.26006992236E+04 0.  0.
        5    1    3    3  502    0 -0.14822833114E+03 -0.83229556348E+03  0.64139534424E+03  0.10611774690E+04  0.46999998093E+01 0.  1.
       -5    1    3    3    0  502  0.14822833114E+03  0.83229556348E+03 -0.14216853714E+04  0.16540552979E+04  0.46999998093E+01 0. -1.
</event>
<event>
 5   0  0.2820028E-06  0.2601643E+04  0.7818609E-02  0.8367643E-01
        2   -1    0    0  501    0  0.00000000000E+00  0.00000000000E+00  0.19293118613E+04  0.19293118613E+04  0.25500000920E-02 0.  1.
       -2   -1    0    0    0  501  0.00000000000E+00  0.00000000000E+00 -0.87706727900E+03  0.87706727901E+03  0.25500000920E-02 0. -1.
    10030    2    1    2    0    0  0.00000000000E+00  0.00000000000E+00  0.10522445823E+04  0.28063791403E+04  0.26016427922E+04 0.  0.
        3    1    3    3  502    0  0.79332124121E+03  0.34175990074E+03  0.15752761089E+04  0.17965670739E+04  0.10100000352E+00 0.  1.
       -3    1    3    3    0  502 -0.79332124121E+03 -0.34175990074E+03 -0.52303152659E+03  0.10098120664E+04  0.10100000352E+00 0. -1.
</event>
<event>
 5   0  0.1055179E-06  0.2597201E+04  0.7818609E-02  0.8369153E-01
        1   -1    0    0  501    0  0.00000000000E+00  0.00000000000E+00  0.12980039275E+04  0.12980039275E+04  0.50400001928E-02 0.  1.
       -1   -1    0    0    0  501  0.00000000000E+00  0.00000000000E+00 -0.12991969051E+04  0.12991969051E+04  0.50400001928E-02 0. -1.
    10030    2    1    2    0    0  0.00000000000E+00  0.00000000000E+00 -0.11929775868E+01  0.25972008326E+04  0.25972005587E+04 0.  0.
        3    1    3    3  502    0 -0.13476647557E+03  0.89097914795E+03  0.93447410465E+03  0.12981709084E+04  0.10100000352E+00 0.  1.
       -3    1    3    3    0  502  0.13476647557E+03 -0.89097914795E+03 -0.93566708224E+03  0.12990299242E+04  0.10100000352E+00 0. -1.
</event>
<event>
 5   0  0.1100104E-06  0.2601174E+04  0.7818609E-02  0.8367802E-01
       -1   -1    0    0    0  501  0.00000000000E+00  0.00000000000E+00  0.25766717331E+04  0.25766717331E+04  0.50400001928E-02 0. -1.
        1   -1    0    0  501    0  0.00000000000E+00  0.00000000000E+00 -0.65647743059E+03  0.65647743061E+03  0.50400001928E-02 0.  1.
    10030    2    1    2    0    0  0.00000000000E+00  0.00000000000E+00  0.19201943025E+04  0.32331491637E+04  0.26011742263E+04 0.  0.
        4    1    3    3  502    0 -0.89996196869E+03  0.58592948012E+03  0.18720251552E+04  0.21581762429E+04  0.12699999809E+01 0. -1.
       -4    1    3    3    0  502  0.89996196869E+03 -0.58592948012E+03  0.48169147264E+02  0.10749729208E+04  0.12699999809E+01 0.  1.
</event>
<event>
 5   0  0.1088757E-06  0.2598554E+04  0.7818609E-02  0.8368693E-01
       -1   -1    0    0    0  501  0.00000000000E+00  0.00000000000E+00  0.10380537573E+04  0.10380537573E+04  0.50400001928E-02 0.  1.
        1   -1    0    0  501    0  0.00000000000E+00  0.00000000000E+00 -0.16262359828E+04  0.16262359828E+04  0.50400001928E-02 0. -1.
    10030    2    1    2    0    0  0.00000000000E+00  0.00000000000E+00 -0.58818222555E+03  0.26642897401E+04  0.25985537302E+04 0.  0.
        5    1    3    3  502    0  0.93760011602E+03 -0.58066669427E+03 -0.99836689454E+03  0.14876243926E+04  0.46999998093E+01 0. -1.
       -5    1    3    3    0  502 -0.93760011602E+03  0.58066669427E+03  0.41018466898E+03  0.11766653475E+04  0.46999998093E+01 0.  1.
</event>
<event>
 5   0  0.2705807E-06  0.2601375E+04  0.7818609E-02  0.8367734E-01
       -2   -1    0    0    0  501  0.00000000000E+00  0.00000000000E+00  0.15161257377E+04  0.15161257377E+04  0.25500000920E-02 0. -1.
        2   -1    0    0  501    0  0.00000000000E+00  0.00000000000E+00 -0.11158624368E+04  0.11158624368E+04  0.25500000920E-02 0.  1.
    10030    2    1    2    0    0  0.00000000000E+00  0.00000000000E+00  0.40026330092E+03  0.26319881746E+04  0.26013748367E+04 0.  0.
        4    1    3    3  502    0 -0.70300727460E+03 -0.10943331290E+04  0.19872895085E+03  0.13157807698E+04  0.12699999809E+01 0. -1.
       -4    1    3    3    0  502  0.70300727460E+03  0.10943331290E+04  0.20153435007E+03  0.13162074048E+04  0.12699999809E+01 0.  1.
</event>
<event>
 5   0  0.2705807E-06  0.2598111E+04  0.7818609E-02  0.8368843E-01
        2   -1    0    0  501    0  0.00000000000E+00  0.00000000000E+00  0.16122080868E+04  0.16122080868E+04  0.25500000920E-02 0.  1.
       -2   -1    0    0    0  501  0.00000000000E+00  0.00000000000E+00 -0.10467290931E+04  0.10467290931E+04  0.25500000920E-02 0. -1.
    10030    2    1    2    0    0  0.00000000000E+00  0.00000000000E+00  0.56547899371E+03  0.26589371799E+04  0.25981109357E+04 0.  0.
        4    1    3    3  502    0  0.74548488213E+03  0.75202169457E+02  0.13687815928E+04  0.15604383158E+04  0.12699999809E+01 0.  1.
       -4    1    3    3    0  502 -0.74548488213E+03 -0.75202169457E+02 -0.80330259906E+03  0.10984988641E+04  0.12699999809E+01 0. -1.
</event>
<event>
 5   0  0.2820028E-06  0.2612117E+04  0.7818609E-02  0.8364097E-01
        2   -1    0    0  501    0  0.00000000000E+00  0.00000000000E+00  0.17251226535E+04  0.17251226535E+04  0.25500000920E-02 0.  1.
       -2   -1    0    0    0  501  0.00000000000E+00  0.00000000000E+00 -0.98879255427E+03  0.98879255427E+03  0.25500000920E-02 0. -1.
    10030    2    1    2    0    0  0.00000000000E+00  0.00000000000E+00  0.73633009926E+03  0.27139152078E+04  0.26121167164E+04 0.  0.
        3    1    3    3  502    0  0.40410229955E+03  0.52126387446E+03 -0.80305314449E+03  0.10391867293E+04  0.10100000352E+00 0. -1.
       -3    1    3    3    0  502 -0.40410229955E+03 -0.52126387446E+03  0.15393832437E+04  0.16747284785E+04  0.10100000352E+00 0.  1.
</event>
<event>
 5   0  0.1032076E-06  0.2593420E+04  0.7818609E-02  0.8370440E-01
       -1   -1    0    0    0  501  0.00000000000E+00  0.00000000000E+00  0.91519833097E+03  0.91519833099E+03  0.50400001928E-02 0. -1.
        1   -1    0    0  501    0  0.00000000000E+00  0.00000000000E+00 -0.18372597591E+04  0.18372597591E+04  0.50400001928E-02 0.  1.
    10030    2    1    2    0    0  0.00000000000E+00  0.00000000000E+00 -0.92206142816E+03  0.27524580901E+04  0.25934201859E+04 0.  0.
        1    1    3    3  502    0 -0.79099731454E+03 -0.28880098153E+03  0.58553033112E+03  0.10256356698E+04  0.50400001928E-02 0. -1.
       -1    1    3    3    0  502  0.79099731454E+03  0.28880098153E+03 -0.15075917593E+04  0.17268224203E+04  0.50400001928E-02 0.  1.
</event>
<event>
 5   0  0.2705807E-06  0.2601687E+04  0.7818609E-02  0.8367628E-01
        2   -1    0    0  501    0  0.00000000000E+00  0.00000000000E+00  0.17256017008E+04  0.17256017008E+04  0.25500000920E-02 0.  1.
       -2   -1    0    0    0  501  0.00000000000E+00  0.00000000000E+00 -0.98063969419E+03  0.98063969419E+03  0.25500000920E-02 0. -1.
    10030    2    1    2    0    0  0.00000000000E+00  0.00000000000E+00  0.74496200662E+03  0.27062413950E+04  0.26016867791E+04 0.  0.
        4    1    3    3  502    0  0.13626951246E+03  0.58160820560E+03  0.15744957560E+04  0.16840059333E+04  0.12699999809E+01 0.  1.
       -4    1    3    3    0  502 -0.13626951246E+03 -0.58160820560E+03 -0.82953374939E+03  0.10222354617E+04  0.12699999809E+01 0. -1.
</event>
<event>
 5   0  0.1100104E-06  0.2598588E+04  0.7818609E-02  0.8368681E-01
       -1   -1    0    0    0  501  0.00000000000E+00  0.00000000000E+00  0.96914622268E+03  0.96914622269E+03  0.50400001928E-02 0. -1.
        1   -1    0    0  501    0  0.00000000000E+00  0.00000000000E+00 -0.17419098063E+04  0.17419098063E+04  0.50400001928E-02 0.  1.
    10030    2    1    2    0    0  0.00000000000E+00  0.00000000000E+00 -0.77276358366E+03  0.27110560290E+04  0.25985883161E+04 0.  0.
        4    1    3    3  502    0 -0.53922606074E+03  0.74842114011E+03 -0.13410059377E+04  0.16276355505E+04  0.12699999809E+01 0.  1.
       -4    1    3    3    0  502  0.53922606074E+03 -0.74842114011E+03  0.56824235399E+03  0.10834204785E+04  0.12699999809E+01 0. -1.
</event>
<event>
 5   0  0.2586775E-06  0.2601176E+04  0.7818609E-02  0.8367802E-01
       -2   -1    0    0    0  501  0.00000000000E+00  0.00000000000E+00  0.10084421505E+04  0.10084421505E+04  0.25500000920E-02 0.  1.
        2   -1    0    0  501    0  0.00000000000E+00  0.00000000000E+00 -0.16773689153E+04  0.16773689153E+04  0.25500000920E-02 0. -1.
    10030    2    1    2    0    0  0.00000000000E+00  0.00000000000E+00 -0.66892676479E+03  0.26858110659E+04  0.26011762848E+04 0.  0.
        1    1    3    3  502    0  0.54861416852E+03 -0.45221259210E+03 -0.14589601994E+04  0.16229721495E+04  0.50400001928E-02 0. -1.
       -1    1    3    3    0  502 -0.54861416852E+03  0.45221259210E+03  0.79003343463E+03  0.10628389164E+04  0.50400001928E-02 0.  1.
</event>
<event>
 5   0  0.2623368E-06  0.2604529E+04  0.7818609E-02  0.8366664E-01
       -2   -1    0    0    0  501  0.00000000000E+00  0.00000000000E+00  0.97674746212E+03  0.97674746212E+03  0.25500000920E-02 0. -1.
        2   -1    0    0  501    0  0.00000000000E+00  0.00000000000E+00 -0.17362660218E+04  0.17362660218E+04  0.25500000920E-02 0.  1.
    10030    2    1    2    0    0  0.00000000000E+00  0.00000000000E+00 -0.75951855964E+03  0.27130134839E+04  0.26045294625E+04 0.  0.
        5    1    3    3  502    0  0.11633443131E+04 -0.38098334992E+03 -0.84250731590E+03  0.14860548345E+04  0.46999998093E+01 0.  1.
       -5    1    3    3    0  502 -0.11633443131E+04  0.38098334992E+03  0.82988756267E+02  0.12269586494E+04  0.46999998093E+01 0. -1.
</event>
<event>
 5   0  0.1032076E-06  0.2594389E+04  0.7818609E-02  0.8370110E-01
        1   -1    0    0  501    0  0.00000000000E+00  0.00000000000E+00  0.13848008741E+04  0.13848008741E+04  0.50400001928E-02 0. -1.
       -1   -1    0    0    0  501  0.00000000000E+00  0.00000000000E+00 -0.12151302613E+04  0.12151302613E+04  0.50400001928E-02 0.  1.
    10030    2    1    2    0    0  0.00000000000E+00  0.00000000000E+00  0.16967061281E+03  0.25999311354E+04  0.25943889053E+04 0.  0.
        1    1    3    3  502    0  0.53897889937E+02 -0.35462157949E+02  0.13831920088E+04  0.13846958801E+04  0.50400001928E-02 0. -1.
       -1    1    3    3    0  502 -0.53897889937E+02  0.35462157949E+02 -0.12135213960E+04  0.12152352553E+04  0.50400001928E-02 0.  1.
</event>
<event>
 5   0  0.1032076E-06  0.2586684E+04  0.7818609E-02  0.8372738E-01
        1   -1    0    0  501    0  0.00000000000E+00  0.00000000000E+00  0.19533999374E+04  0.19533999374E+04  0.50400001928E-02 0.  1.
       -1   -1    0    0    0  501  0.00000000000E+00  0.00000000000E+00 -0.85631933938E+03  0.85631933940E+03  0.50400001928E-02 0. -1.
    10030    2    1    2    0    0  0.00000000000E+00  0.00000000000E+00  0.10970805980E+04  0.28097192768E+04  0.25866844755E+04 0.  0.
        1    1    3    3  502    0  0.95965908375E+03 -0.80882663430E+03  0.20921376395E+03  0.12723664882E+04  0.50400001928E-02 0.  1.
       -1    1    3    3    0  502 -0.95965908375E+03  0.80882663430E+03  0.88786683404E+03  0.15373527885E+04  0.50400001928E-02 0. -1.
</event>
<event>
 5   0  0.1100104E-06  0.2602428E+04  0.7818609E-02  0.8367377E-01
       -1   -1    0    0    0  501  0.00000000000E+00  0.00000000000E+00  0.17067842579E+04  0.17067842579E+04  0.50400001928E-02 0. -1.
        1   -1    0    0  501    0  0.00000000000E+00  0.00000000000E+00 -0.99201610588E+03  0.99201610590E+03  0.50400001928E-02 0.  1.
    10030    2    1    2    0    0  0.00000000000E+00  0.00000000000E+00  0.71476815203E+03  0.26988003638E+04  0.26024276921E+04 0.  0.
        4    1    3    3  502    0  0.87333089861E+03 -0.22061823836E+03 -0.61641951553E+03  0.10914915930E+04  0.12699999809E+01 0.  1.
       -4    1    3    3    0  502 -0.87333089861E+03  0.22061823836E+03  0.13311876676E+04  0.16073087708E+04  0.12699999809E+01 0. -1.
</event>
<event>
 5   0  0.2705807E-06  0.2600740E+04  0.7818609E-02  0.8367950E-01
        2   -1    0    0  501    0  0.00000000000E+00  0.00000000000E+00  0.15929386951E+04  0.15929386951E+04  0.25500000920E-02 0.  1.
       -2   -1    0    0    0  501  0.00000000000E+00  0.00000000000E+00 -0.10615360616E+04  0.10615360616E+04  0.25500000920E-02 0. -1.
    10030    2    1    2    0    0  0.00000000000E+00  0.00000000000E+00  0.53140263343E+03  0.26544747567E+04  0.26007397938E+04 0.  0.
        4    1    3    3  502    0  0.67011333928E+03  0.83802655064E+03 -0.48406454599E+03  0.11771408092E+04  0.12699999809E+01 0.  1.
       -4    1    3    3    0  502 -0.67011333928E+03 -0.83802655064E+03  0.10154671794E+04  0.14773339475E+04  0.12699999809E+01 0. -1.
</event>
<event>
 5   0  0.1032076E-06  0.2594165E+04  0.7818609E-02  0.8370186E-01
       -1   -1    0    0    0  501  0.00000000000E+00  0.00000000000E+00  0.17687938509E+04  0.17687938509E+04  0.50400001928E-02 0. -1.
        1   -1    0    0  501    0  0.00000000000E+00  0.00000000000E+00 -0.95116972488E+03  0.95116972490E+03  0.50400001928E-02 0.  1.
    10030    2    1    2    0    0  0.00000000000E+00  0.00000000000E+00  0.81762412603E+03  0.27199635758E+04  0.25941651147E+04 0.  0.
        1    1    3    3  502    0  0.99114749997E+03  0.55755215883E+03  0.10629114383E+04  0.15566047996E+04  0.50400001928E-02 0. -1.
       -1    1    3    3    0  502 -0.99114749997E+03 -0.55755215883E+03 -0.24528731230E+03  0.11633587762E+04  0.50400001928E-02 0.  1.
</event>
<event>
 5   0  0.2586775E-06  0.2602440E+04  0.7818609E-02  0.8367373E-01
        2   -1    0    0  501    0  0.00000000000E+00  0.00000000000E+00  0.18225516668E+04  0.18225516668E+04  0.25500000920E-02 0. -1.
       -2   -1    0    0    0  501  0.00000000000E+00  0.00000000000E+00 -0.92901238565E+03  0.92901238566E+03  0.25500000920E-02 0.  1.
    10030    2    1    2    0    0  0.00000000000E+00  0.00000000000E+00  0.89353928112E+03  0.27515640524E+04  0.26024396799E+04 0.  0.
        1    1    3    3  502    0  0.94865151021E+03 -0.81750056924E+03  0.73067379353E+02  0.12544264468E+04  0.50400001928E-02 0. -1.
       -1    1    3    3    0  502 -0.94865151021E+03  0.81750056924E+03  0.82047190177E+03  0.14971376056E+04  0.50400001928E-02 0.  1.
</event>
<event>
 5   0  0.9197000E-07  0.2599318E+04  0.7818609E-02  0.8368433E-01
       -3   -1    0    0    0  501  0.00000000000E+00  0.00000000000E+00  0.82396779783E+03  0.82396780402E+03  0.10100000352E+00 0.  1.
        3   -1    0    0  501    0  0.00000000000E+00  0.00000000000E+00 -0.20499755426E+04  0.20499755451E+04  0.10100000352E+00 0. -1.
    10030    2    1    2    0    0  0.00000000000E+00  0.00000000000E+00 -0.12260077447E+04  0.28739433491E+04  0.25993182536E+04 0.  0.
        1    1    3    3  502    0  0.10157434883E+04  0.77532188494E+03 -0.35076367730E+03  0.13251015118E+04  0.50400001928E-02 0.  1.
       -1    1    3    3    0  502 -0.10157434883E+04 -0.77532188494E+03 -0.87524406744E+03  0.15488418373E+04  0.50400001928E-02 0. -1.
</event>
<event>
 5   0  0.1088757E-06  0.2599542E+04  0.7818609E-02  0.8368357E-01
       -1   -1    0    0    0  501  0.00000000000E+00  0.00000000000E+00  0.62752740865E+03  0.62752740867E+03  0.50400001928E-02 0. -1.
        1   -1    0    0  501    0  0.00000000000E+00  0.00000000000E+00 -0.26921601121E+04  0.26921601121E+04  0.50400001928E-02 0.  1.
    10030    2    1    2    0    0  0.00000000000E+00  0.00000000000E+00 -0.20646327035E+04  0.33196875208E+04  0.25995416972E+04 0.  0.
        5    1    3    3  502    0 -0.11071535976E+04 -0.65394119209E+03 -0.79017218621E+03  0.15092456213E+04  0.46999998093E+01 0.  1.
       -5    1    3    3    0  502  0.11071535976E+04  0.65394119209E+03 -0.12744605172E+04  0.18104418995E+04  0.46999998093E+01 0. -1.
</event>
<event>
 5   0  0.2820028E-06  0.2597076E+04  0.7818609E-02  0.8369195E-01
       -2   -1    0    0    0  501  0.00000000000E+00  0.00000000000E+00  0.10749903520E+04  0.10749903520E+04  0.25500000920E-02 0.  1.
        2   -1    0    0  501    0  0.00000000000E+00  0.00000000000E+00 -0.15685726744E+04  0.15685726744E+04  0.25500000920E-02 0. -1.
    10030    2    1    2    0    0  0.00000000000E+00  0.00000000000E+00 -0.49358232247E+03  0.26435630264E+04  0.25970756565E+04 0.  0.
        3    1    3    3  502    0 -0.11171499231E+03 -0.12442292361E+04 -0.60755569016E+03  0.13891402227E+04  0.10100000352E+00 0. -1.
       -3    1    3    3    0  502  0.11171499231E+03  0.12442292361E+04  0.11397336769E+03  0.12544228036E+04  0.10100000352E+00 0.  1.
</event>
<event>
 5   0  0.1032076E-06  0.2598666E+04  0.7818609E-02  0.8368654E-01
       -1   -1    0    0    0  501  0.00000000000E+00  0.00000000000E+00  0.13667338599E+04  0.13667338599E+04  0.50400001928E-02 0. -1.
        1   -1    0    0  501    0  0.00000000000E+00  0.00000000000E+00 -0.12352564475E+04  0.12352564475E+04  0.50400001928E-02 0.  1.
    10030    2    1    2    0    0  0.00000000000E+00  0.00000000000E+00  0.13147741242E+03  0.26019903074E+04  0.25986664368E+04 0.  0.
        1    1    3    3  502    0 -0.92510173436E+03  0.10777245990E+03 -0.84142161586E+03  0.12551567463E+04  0.50400001928E-02 0.  1.
       -1    1    3    3    0  502  0.92510173436E+03 -0.10777245990E+03  0.97289902828E+03  0.13468335611E+04  0.50400001928E-02 0. -1.
</event>
<event>
 5   0  0.1088757E-06  0.2612186E+04  0.7818609E-02  0.8364074E-01
       -1   -1    0    0    0  501  0.00000000000E+00  0.00000000000E+00  0.18834505137E+04  0.18834505137E+04  0.50400001928E-02 0.  1.
        1   -1    0    0  501    0  0.00000000000E+00  0.00000000000E+00 -0.90572005796E+03  0.90572005797E+03  0.50400001928E-02 0. -1.
    10030    2    1    2    0    0  0.00000000000E+00  0.00000000000E+00  0.97773045573E+03  0.27891705717E+04  0.26121859876E+04 0.  0.
        5    1    3    3  502    0  0.25241948207E+03  0.17787744582E+03  0.18439031714E+04  0.18695873813E+04  0.46999998093E+01 0.  1.
       -5    1    3    3    0  502 -0.25241948207E+03 -0.17787744582E+03 -0.86617271569E+03  0.91958319040E+03  0.46999998093E+01 0. -1.
</event>
<event>
 5   0  0.2623368E-06  0.2587589E+04  0.7818609E-02  0.8372429E-01
        2   -1    0    0  501    0  0.00000000000E+00  0.00000000000E+00  0.23541436315E+04  0.23541436315E+04  0.25500000920E-02 0.  1.
       -2   -1    0    0    0  501  0.00000000000E+00  0.00000000000E+00 -0.71104612640E+03  0.71104612641E+03  0.25500000920E-02 0. -1.
    10030    2    1    2    0    0  0.00000000000E+00  0.00000000000E+00  0.16430975051E+04  0.30651897579E+04  0.25875893880E+04 0.  0.
        5    1    3    3  502    0  0.90715783569E+03  0.27207348032E+03  0.18656703476E+04  0.20922971236E+04  0.46999998093E+01 0.  1.
       -5    1    3    3    0  502 -0.90715783569E+03 -0.27207348032E+03 -0.22257284256E+03  0.97289263425E+03  0.46999998093E+01 0. -1.
</event>
<event>
 5   0  0.1032076E-06  0.2600770E+04  0.7818609E-02  0.8367940E-01
        1   -1    0    0  501    0  0.00000000000E+00  0.00000000000E+00  0.28069444885E+04  0.28069444885E+04  0.50400001928E-02 0. -1.
       -1   -1    0    0    0  501  0.00000000000E+00  0.00000000000E+00 -0.60243469565E+03  0.60243469567E+03  0.50400001928E-02 0.  1.
    10030    2    1    2    0    0  0.00000000000E+00  0.00000000000E+00  0.22045097928E+04  0.34093791841E+04  0.26007696927E+04 0.  0.
        1    1    3    3  502    0  0.10874593704E+04 -0.68623090470E+03  0.84833022864E+03  0.15405015137E+04  0.50400001928E-02 0.  1.
       -1    1    3    3    0  502 -0.10874593704E+04  0.68623090470E+03  0.13561795642E+04  0.18688776704E+04  0.50400001928E-02 0. -1.
</event>
<event>
 5   0  0.1088757E-06  0.2601143E+04  0.7818609E-02  0.8367813E-01
       -1   -1    0    0    0  501  0.00000000000E+00  0.00000000000E+00  0.12062911117E+04  0.12062911117E+04  0.50400001928E-02 0. -1.
        1   -1    0    0  501    0  0.00000000000E+00  0.00000000000E+00 -0.14022204594E+04  0.14022204594E+04  0.50400001928E-02 0.  1.
    10030    2    1    2    0    0  0.00000000000E+00  0.00000000000E+00 -0.19592934776E+03  0.26085115711E+04  0.26011428849E+04 0.  0.
        5    1    3    3  502    0 -0.32750684755E+03  0.11934665543E+04  0.30296890313E+03  0.12741410431E+04  0.46999998093E+01 0.  1.
       -5    1    3    3    0  502  0.32750684755E+03 -0.11934665543E+04 -0.49889825090E+03  0.13343705281E+04  0.46999998093E+01 0. -1.
</event>
<event>
 5   0  0.1055179E-06  0.2600814E+04  0.7818609E-02  0.8367925E-01
       -1   -1    0    0    0  501  0.00000000000E+00  0.00000000000E+00  0.15398026506E+04  0.15398026506E+04  0.50400001928E-02 0.  1.
        1   -1    0    0  501    0  0.00000000000E+00  0.00000000000E+00 -0.10982304121E+04  0.10982304121E+04  0.50400001928E-02 0. -1.
    10030    2    1    2    0    0  0.00000000000E+00  0.00000000000E+00  0.44157223845E+03  0.26380330627E+04  0.26008137953E+04 0.  0.
        3    1    3    3  502    0  0.51680000237E+03  0.91142292373E+03  0.10020582440E+04  0.14497912687E+04  0.10100000352E+00 0.  1.
       -3    1    3    3    0  502 -0.51680000237E+03 -0.91142292373E+03 -0.56048600552E+03  0.11882417940E+04  0.10100000352E+00 0. -1.
</event>
<event>
 5   0  0.2705807E-06  0.2568364E+04  0.7818609E-02  0.8379027E-01
       -2   -1    0    0    0  501  0.00000000000E+00  0.00000000000E+00  0.70497951999E+03  0.70497952000E+03  0.25500000920E-02 0.  1.
        2   -1    0    0  501    0  0.00000000000E+00  0.00000000000E+00 -0.23392502527E+04  0.23392502527E+04  0.25500000920E-02 0. -1.
    10030    2    1    2    0    0  0.00000000000E+00  0.00000000000E+00 -0.16342707327E+04  0.30442297727E+04  0.25683640866E+04 0.  0.
        4    1    3    3  502    0 -0.10193149091E+04 -0.49617802888E+03 -0.10209985097E+03  0.11382537120E+04  0.12699999809E+01 0.  1.
       -4    1    3    3    0  502  0.10193149091E+04  0.49617802888E+03 -0.15321708817E+04  0.19059760607E+04  0.12699999809E+01 0. -1.
</event>
<event>
 5   0  0.1122628E-06  0.2595666E+04  0.7818609E-02  0.8369675E-01
        1   -1    0    0  501    0  0.00000000000E+00  0.00000000000E+00  0.17816672458E+04  0.17816672458E+04  0.50400001928E-02 0. -1.
       -1   -1    0    0    0  501  0.00000000000E+00  0.00000000000E+00 -0.94539032047E+03  0.94539032048E+03  0.50400001928E-02 0.  1.
    10030    2    1    2    0    0  0.00000000000E+00  0.00000000000E+00  0.83627692536E+03  0.27270575663E+04  0.25956663642E+04 0.  0.
        2    1    3    3  502    0  0.36017438553E+03  0.97582799748E+03 -0.39729730341E+03  0.11134680130E+04  0.25500000920E-02 0.  1.
       -2    1    3    3    0  502 -0.36017438553E+03 -0.97582799748E+03  0.12335742288E+04  0.16135895533E+04  0.25500000920E-02 0. -1.
</event>
<event>
 5   0  0.9197000E-07  0.2600338E+04  0.7818609E-02  0.8368086E-01
        3   -1    0    0  501    0  0.00000000000E+00  0.00000000000E+00  0.25561438198E+04  0.25561438218E+04  0.10100000352E+00 0. -1.
       -3   -1    0    0    0  501  0.00000000000E+00  0.00000000000E+00 -0.66132408509E+03  0.66132409280E+03  0.10100000352E+00 0.  1.
    10030    2    1    2    0    0  0.00000000000E+00  0.00000000000E+00  0.18948197347E+04  0.32174679146E+04  0.26003380462E+04 0.  0.
        4    1    3    3  502    0 -0.69524088337E+01  0.52384130520E+03 -0.52494652914E+03  0.74163907689E+03  0.12699999809E+01 0.  1.
       -4    1    3    3    0  502  0.69524088337E+01 -0.52384130520E+03  0.24197662638E+04  0.24758288377E+04  0.12699999809E+01 0. -1.
</event>
<event>
 5   0  0.2586775E-06  0.2593266E+04  0.7818609E-02  0.8370492E-01
       -2   -1    0    0    0  501  0.00000000000E+00  0.00000000000E+00  0.19583016478E+04  0.19583016478E+04  0.25500000920E-02 0. -1.
        2   -1    0    0  501    0  0.00000000000E+00  0.00000000000E+00 -0.85852793287E+03  0.85852793287E+03  0.25500000920E-02 0.  1.
    10030    2    1    2    0    0  0.00000000000E+00  0.00000000000E+00  0.10997737150E+04  0.28168295807E+04  0.25932656367E+04 0.  0.
        1    1    3    3  502    0  0.31808241639E+03  0.37189214599E+03 -0.75436821621E+03  0.89919497192E+03  0.50400001928E-02 0.  1.
       -1    1    3    3    0  502 -0.31808241639E+03 -0.37189214599E+03  0.18541419312E+04  0.19176346088E+04  0.50400001928E-02 0. -1.
</event>
<event>
 5   0  0.2705807E-06  0.2601166E+04  0.7818609E-02  0.8367805E-01
        2   -1    0    0  501    0  0.00000000000E+00  0.00000000000E+00  0.11213425831E+04  0.11213425831E+04  0.25500000920E-02 0. -1.
       -2   -1    0    0    0  501  0.00000000000E+00  0.00000000000E+00 -0.15084744840E+04  0.15084744840E+04  0.25500000920E-02 0.  1.
    10030    2    1    2    0    0  0.00000000000E+00  0.00000000000E+00 -0.38713190092E+03  0.26298170672E+04  0.26011664111E+04 0.  0.
        4    1    3    3  502    0 -0.75059780873E+03  0.99566190612E+03 -0.56747100428E+03  0.13699506033E+04  0.12699999809E+01 0.  1.
       -4    1    3    3    0  502  0.75059780873E+03 -0.99566190612E+03  0.18033910336E+03  0.12598664639E+04  0.12699999809E+01 0. -1.
</event>
<event>
 5   0  0.2705807E-06  0.2595809E+04  0.7818609E-02  0.8369626E-01
       -2   -1    0    0    0  501  0.00000000000E+00  0.00000000000E+00  0.87839274563E+03  0.87839274563E+03  0.25500000920E-02 0.  1.
        2   -1    0    0  501    0  0.00000000000E+00  0.00000000000E+00 -0.19177711219E+04  0.19177711219E+04  0.25500000920E-02 0. -1.
    10030    2    1    2    0    0  0.00000000000E+00  0.00000000000E+00 -0.10393783763E+04  0.27961638676E+04  0.25958091157E+04 0.  0.
        4    1    3    3  502    0  0.15145405218E+02  0.12977707777E+04 -0.53130349710E+03  0.14023991563E+04  0.12699999809E+01 0.  1.
       -4    1    3    3    0  502 -0.15145405218E+02 -0.12977707777E+04 -0.50807487921E+03  0.13937647113E+04  0.12699999809E+01 0. -1.
</event>
<event>
 5   0  0.2746631E-06  0.2601807E+04  0.7818609E-02  0.8367588E-01
        2   -1    0    0  501    0  0.00000000000E+00  0.00000000000E+00  0.18004808749E+04  0.18004808749E+04  0.25500000920E-02 0.  1.
       -2   -1    0    0    0  501  0.00000000000E+00  0.00000000000E+00 -0.93994324633E+03  0.93994324633E+03  0.25500000920E-02 0. -1.
    10030    2    1    2    0    0  0.00000000000E+00  0.00000000000E+00  0.86053762857E+03  0.27404241212E+04  0.26018069402E+04 0.  0.
        2    1    3    3  502    0  0.37148582699E+03  0.17323264431E+03  0.17306881939E+04  0.17785648409E+04  0.25500000920E-02 0.  1.
       -2    1    3    3    0  502 -0.37148582699E+03 -0.17323264431E+03 -0.87015056537E+03  0.96185928031E+03  0.25500000920E-02 0. -1.
</event>
<event>
 5   0  0.2820028E-06  0.2601351E+04  0.7818609E-02  0.8367742E-01
        2   -1    0    0  501    0  0.00000000000E+00  0.00000000000E+00  0.17799992320E+04  0.17799992320E+04  0.25500000920E-02 0. -1.
       -2   -1    0    0    0  501  0.00000000000E+00  0.00000000000E+00 -0.95042550541E+03  0.95042550542E+03  0.25500000920E-02 0.  1.
    10030    2    1    2    0    0  0.00000000000E+00  0.00000000000E+00  0.82957372658E+03  0.27304247374E+04  0.26013509334E+04 0.  0.
        3    1    3    3  502    0 -0.10686605351E+04  0.64613901564E+03  0.33115838547E+02  0.12492508298E+04  0.10100000352E+00 0.  1.
       -3    1    3    3    0  502  0.10686605351E+04 -0.64613901564E+03  0.79645788804E+03  0.14811739076E+04  0.10100000352E+00 0. -1.
</event>
<event>
 5   0  0.1055179E-06  0.2600913E+04  0.7818609E-02  0.8367891E-01
       -1   -1    0    0    0  501  0.00000000000E+00  0.00000000000E+00  0.82539611953E+03  0.82539611954E+03  0.50400001928E-02 0. -1.
        1   -1    0    0  501    0  0.00000000000E+00  0.00000000000E+00 -0.20489398519E+04  0.20489398519E+04  0.50400001928E-02 0.  1.
    10030    2    1    2    0    0  0.00000000000E+00  0.00000000000E+00 -0.12235437324E+04  0.28743359715E+04  0.26009129189E+04 0.  0.
        3    1    3    3  502    0 -0.82705227852E+03  0.10022860977E+04 -0.55548526094E+03  0.14132079742E+04  0.10100000352E+00 0.  1.
       -3    1    3    3    0  502  0.82705227852E+03 -0.10022860977E+04 -0.66805847147E+03  0.14611279973E+04  0.10100000352E+00 0. -1.
</event>
<event>
 5   0  0.1100104E-06  0.2571727E+04  0.7818609E-02  0.8377869E-01
       -1   -1    0    0    0  501  0.00000000000E+00  0.00000000000E+00  0.93575388592E+03  0.93575388594E+03  0.50400001928E-02 0.  1.
        1   -1    0    0  501    0  0.00000000000E+00  0.00000000000E+00 -0.17669655667E+04  0.17669655667E+04  0.50400001928E-02 0. -1.
    10030    2    1    2    0    0  0.00000000000E+00  0.00000000000E+00 -0.83121168079E+03  0.27027194527E+04  0.25717269648E+04 0.  0.
        4    1    3    3  502    0  0.90841853043E+03  0.77227769020E+03  0.90380341134E+02  0.11957454897E+04  0.12699999809E+01 0.  1.
       -4    1    3    3    0  502 -0.90841853043E+03 -0.77227769020E+03 -0.92159202192E+03  0.15069739629E+04  0.12699999809E+01 0. -1.
</event>
<event>
 5   0  0.2820028E-06  0.2596280E+04  0.7818609E-02  0.8369466E-01
       -2   -1    0    0    0  501  0.00000000000E+00  0.00000000000E+00  0.98368337695E+03  0.98368337696E+03  0.25500000920E-02 0. -1.
        2   -1    0    0  501    0  0.00000000000E+00  0.00000000000E+00 -0.17131195346E+04  0.17131195346E+04  0.25500000920E-02 0.  1.
    10030    2    1    2    0    0  0.00000000000E+00  0.00000000000E+00 -0.72943615763E+03  0.26968029115E+04  0.25962798069E+04 0.  0.
        3    1    3    3  502    0 -0.24599854890E+02  0.10927081407E+04  0.36279328280E+03  0.11516228592E+04  0.10100000352E+00 0. -1.
       -3    1    3    3    0  502  0.24599854890E+02 -0.10927081407E+04 -0.10922294404E+04  0.15451800524E+04  0.10100000352E+00 0.  1.
</event>
<event>
 5   0  0.2746631E-06  0.2595639E+04  0.7818609E-02  0.8369684E-01
        2   -1    0    0  501    0  0.00000000000E+00  0.00000000000E+00  0.10909080761E+04  0.10909080761E+04  0.25500000920E-02 0.  1.
       -2   -1    0    0    0  501  0.00000000000E+00  0.00000000000E+00 -0.15439759682E+04  0.15439759682E+04  0.25500000920E-02 0. -1.
    10030    2    1    2    0    0  0.00000000000E+00  0.00000000000E+00 -0.45306789209E+03  0.26348840443E+04  0.25956393070E+04 0.  0.
        2    1    3    3  502    0  0.78184913432E+03 -0.68799527210E+03  0.55958437071E+03  0.11822691027E+04  0.25500000920E-02 0. -1.
       -2    1    3    3    0  502 -0.78184913432E+03  0.68799527210E+03 -0.10126522628E+04  0.14526149416E+04  0.25500000920E-02 0.  1.
</event>
<event>
 5   0  0.1032076E-06  0.2591915E+04  0.7818609E-02  0.8370953E-01
       -1   -1    0    0    0  501  0.00000000000E+00  0.00000000000E+00  0.97520308252E+03  0.97520308254E+03  0.50400001928E-02 0. -1.
        1   -1    0    0  501    0  0.00000000000E+00  0.00000000000E+00 -0.17222119755E+04  0.17222119755E+04  0.50400001928E-02 0.  1.
    10030    2    1    2    0    0  0.00000000000E+00  0.00000000000E+00 -0.74700889295E+03  0.26974150580E+04  0.25919154518E+04 0.  0.
        1    1    3    3  502    0  0.75441402106E+03 -0.78329095970E+03  0.36004095653E+03  0.11455630638E+04  0.50400001928E-02 0. -1.
       -1    1    3    3    0  502 -0.75441402106E+03  0.78329095970E+03 -0.11070498495E+04  0.15518519942E+04  0.50400001928E-02 0.  1.
</event>
<event>
 5   0  0.2586775E-06  0.2603034E+04  0.7818609E-02  0.8367171E-01
        2   -1    0    0  501    0  0.00000000000E+00  0.00000000000E+00  0.16268906667E+04  0.16268906667E+04  0.25500000920E-02 0.  1.
       -2   -1    0    0    0  501  0.00000000000E+00  0.00000000000E+00 -0.10412171876E+04  0.10412171876E+04  0.25500000920E-02 0. -1.
    10030    2    1    2    0    0  0.00000000000E+00  0.00000000000E+00  0.58567347911E+03  0.26681078544E+04  0.26030340179E+04 0.  0.
        1    1    3    3  502    0 -0.40440816025E+02 -0.69786929689E+02 -0.10386529772E+04  0.10417800547E+04  0.50400001928E-02 0. -1.
       -1    1    3    3    0  502  0.40440816025E+02  0.69786929689E+02  0.16243264564E+04  0.16263277997E+04  0.50400001928E-02 0.  1.
</event>
<event>
 5   0  0.1122628E-06  0.2610768E+04  0.7818609E-02  0.8364553E-01
        1   -1    0    0  501    0  0.00000000000E+00  0.00000000000E+00  0.99810105110E+03  0.99810105112E+03  0.50400001928E-02 0. -1.
       -1   -1    0    0    0  501  0.00000000000E+00  0.00000000000E+00 -0.17072698804E+04  0.17072698804E+04  0.50400001928E-02 0.  1.
    10030    2    1    2    0    0  0.00000000000E+00  0.00000000000E+00 -0.70916882933E+03  0.27053709316E+04  0.26107683637E+04 0.  0.
        2    1    3    3  502    0  0.51207341754E+03  0.84184221046E+03 -0.12418285947E+04  0.15852620449E+04  0.25500000920E-02 0.  1.
       -2    1    3    3    0  502 -0.51207341754E+03 -0.84184221046E+03  0.53265976542E+03  0.11201088867E+04  0.25500000920E-02 0. -1.
</event>
<event>
 5   0  0.2623368E-06  0.2596425E+04  0.7818609E-02  0.8369417E-01
        2   -1    0    0  501    0  0.00000000000E+00  0.00000000000E+00  0.14872328036E+04  0.14872328036E+04  0.25500000920E-02 0.  1.
       -2   -1    0    0    0  501  0.00000000000E+00  0.00000000000E+00 -0.11332155791E+04  0.11332155791E+04  0.25500000920E-02 0. -1.
    10030    2    1    2    0    0  0.00000000000E+00  0.00000000000E+00  0.35401722441E+03  0.26204483827E+04  0.25964247594E+04 0.  0.
        5    1    3    3  502    0  0.34811876190E+01 -0.12848858740E+04 -0.10151189953E+02  0.12849392843E+04  0.46999998093E+01 0. -1.
       -5    1    3    3    0  502 -0.34811876190E+01  0.12848858740E+04  0.36416841437E+03  0.13355090984E+04  0.46999998093E+01 0.  1.
</event>
<event>
 5   0  0.1122628E-06  0.2603359E+04  0.7818609E-02  0.8367061E-01
        1   -1    0    0  501    0  0.00000000000E+00  0.00000000000E+00  0.14948519725E+04  0.14948519725E+04  0.50400001928E-02 0.  1.
       -1   -1    0    0    0  501  0.00000000000E+00  0.00000000000E+00 -0.11334694198E+04  0.11334694198E+04  0.50400001928E-02 0. -1.
    10030    2    1    2    0    0  0.00000000000E+00  0.00000000000E+00  0.36138255276E+03  0.26283213923E+04  0.26033585984E+04 0.  0.
        2    1    3    3  502    0  0.10715225699E+04  0.63225504249E+03 -0.20568181177E+03  0.12610361075E+04  0.25500000920E-02 0. -1.
       -2    1    3    3    0  502 -0.10715225699E+04 -0.63225504249E+03  0.56706436452E+03  0.13672852849E+04  0.25500000920E-02 0.  1.
</event>
<event>
 5   0  0.1055179E-06  0.2603388E+04  0.7818609E-02  0.8367051E-01
        1   -1    0    0  501    0  0.00000000000E+00  0.00000000000E+00  0.20351772877E+04  0.20351772877E+04  0.50400001928E-02 0.  1.
       -1   -1    0    0    0  501  0.00000000000E+00  0.00000000000E+00 -0.83255976204E+03  0.83255976206E+03  0.50400001928E-02 0. -1.
    10030    2    1    2    0    0  0.00000000000E+00  0.00000000000E+00  0.12026175256E+04  0.28677370497E+04  0.26033875765E+04 0.  0.
        3    1    3    3  502    0 -0.92955217528E+03  0.14008370205E+03  0.15931333635E+04  0.18498012364E+04  0.10100000352E+00 0.  1.
       -3    1    3    3    0  502  0.92955217528E+03 -0.14008370205E+03 -0.39051583790E+03  0.10179358133E+04  0.10100000352E+00 0. -1.
</event>
<event>
 5   0  0.1088757E-06  0.2579583E+04  0.7818609E-02  0.8375170E-01
        1   -1    0    0  501    0  0.00000000000E+00  0.00000000000E+00  0.89449080884E+03  0.89449080886E+03  0.50400001928E-02 0.  1.
       -1   -1    0    0    0  501  0.00000000000E+00  0.00000000000E+00 -0.18597869242E+04  0.18597869242E+04  0.50400001928E-02 0. -1.
    10030    2    1    2    0    0  0.00000000000E+00  0.00000000000E+00 -0.96529611536E+03  0.27542777331E+04  0.25795831525E+04 0.  0.
        5    1    3    3  502    0 -0.61021325493E+03  0.50562617476E+03  0.60387238263E+03  0.99634431278E+03  0.46999998093E+01 0.  1.
       -5    1    3    3    0  502  0.61021325493E+03 -0.50562617476E+03 -0.15691684980E+04  0.17579334203E+04  0.46999998093E+01 0. -1.
</event>
<event>
 5   0  0.2586775E-06  0.2606942E+04  0.7818609E-02  0.8365847E-01
        2   -1    0    0  501    0  0.00000000000E+00  0.00000000000E+00  0.25531260700E+04  0.25531260700E+04  0.25500000920E-02 0. -1.
       -2   -1    0    0    0  501  0.00000000000E+00  0.00000000000E+00 -0.66547313580E+03  0.66547313581E+03  0.25500000920E-02 0.  1.
    10030    2    1    2    0    0  0.00000000000E+00  0.00000000000E+00  0.18876529342E+04  0.32185992058E+04  0.26069421259E+04 0.  0.
        1    1    3    3  502    0  0.12265310429E+04 -0.39689591851E+03  0.70591798337E+03  0.14697703796E+04  0.50400001928E-02 0.  1.
       -1    1    3    3    0  502 -0.12265310429E+04  0.39689591851E+03  0.11817349508E+04  0.17488288262E+04  0.50400001928E-02 0. -1.
</event>
<event>
 5   0  0.1055179E-06  0.2599395E+04  0.7818609E-02  0.8368407E-01
        1   -1    0    0  501    0  0.00000000000E+00  0.00000000000E+00  0.17389702287E+04  0.17389702287E+04  0.50400001928E-02 0. -1.
       -1   -1    0    0    0  501  0.00000000000E+00  0.00000000000E+00 -0.97138746095E+03  0.97138746096E+03  0.50400001928E-02 0.  1.
    10030    2    1    2    0    0  0.00000000000E+00  0.00000000000E+00  0.76758276771E+03  0.27103576896E+04  0.25993952182E+04 0.  0.
        3    1    3    3  502    0 -0.37689068817E+03 -0.97896167555E+03  0.11838810808E+04  0.15817670425E+04  0.10100000352E+00 0. -1.
       -3    1    3    3    0  502  0.37689068817E+03  0.97896167555E+03 -0.41629831312E+03  0.11285906471E+04  0.10100000352E+00 0.  1.
</event>
<event>
 5   0  0.2746631E-06  0.2608948E+04  0.7818609E-02  0.8365168E-01
        2   -1    0    0  501    0  0.00000000000E+00  0.00000000000E+00  0.13362890510E+04  0.13362890510E+04  0.25500000920E-02 0. -1.
       -2   -1    0    0    0  501  0.00000000000E+00  0.00000000000E+00 -0.12734159322E+04  0.12734159322E+04  0.25500000920E-02 0.  1.
    10030    2    1    2    0    0  0.00000000000E+00  0.00000000000E+00  0.62873118787E+02  0.26097049832E+04  0.26089475024E+04 0.  0.
        2    1    3    3  502    0  0.60734726144E+03  0.95115618010E+03 -0.62303391942E+03  0.12890849622E+04  0.25500000920E-02 0.  1.
       -2    1    3    3    0  502 -0.60734726144E+03 -0.95115618010E+03  0.68590703820E+03  0.13206200210E+04  0.25500000920E-02 0. -1.
</event>
<event>
 5   0  0.1100104E-06  0.2576794E+04  0.7818609E-02  0.8376127E-01
        1   -1    0    0  501    0  0.00000000000E+00  0.00000000000E+00  0.99671430361E+03  0.99671430362E+03  0.50400001928E-02 0. -1.
       -1   -1    0    0    0  501  0.00000000000E+00  0.00000000000E+00 -0.16654393378E+04  0.16654393378E+04  0.50400001928E-02 0.  1.
    10030    2    1    2    0    0  0.00000000000E+00  0.00000000000E+00 -0.66872503416E+03  0.26621536414E+04  0.25767942951E+04 0.  0.
        4    1    3    3  502    0 -0.45216023639E+02 -0.62351119460E+02 -0.16630581563E+04  0.16648411921E+04  0.12699999809E+01 0.  1.
       -4    1    3    3    0  502  0.45216023639E+02  0.62351119460E+02  0.99433312211E+03  0.99731244930E+03  0.12699999809E+01 0. -1.
</event>
<event>
 5   0  0.1088757E-06  0.2612872E+04  0.7818609E-02  0.8363842E-01
        1   -1    0    0  501    0  0.00000000000E+00  0.00000000000E+00  0.11024258509E+04  0.11024258510E+04  0.50400001928E-02 0. -1.
       -1   -1    0    0    0  501  0.00000000000E+00  0.00000000000E+00 -0.15481989947E+04  0.15481989947E+04  0.50400001928E-02 0.  1.
    10030    2    1    2    0    0  0.00000000000E+00  0.00000000000E+00 -0.44577314377E+03  0.26506248457E+04  0.26128716725E+04 0.  0.
        5    1    3    3  502    0 -0.66869514289E+03 -0.87908914586E+03  0.48490628480E+03  0.12062782082E+04  0.46999998093E+01 0. -1.
       -5    1    3    3    0  502  0.66869514289E+03  0.87908914586E+03 -0.93067942857E+03  0.14443466375E+04  0.46999998093E+01 0.  1.
</event>
<event>
 5   0  0.2623368E-06  0.2586762E+04  0.7818609E-02  0.8372712E-01
        2   -1    0    0  501    0  0.00000000000E+00  0.00000000000E+00  0.16257849253E+04  0.16257849253E+04  0.25500000920E-02 0. -1.
       -2   -1    0    0    0  501  0.00000000000E+00  0.00000000000E+00 -0.10289393226E+04  0.10289393226E+04  0.25500000920E-02 0.  1.
    10030    2    1    2    0    0  0.00000000000E+00  0.00000000000E+00  0.59684560275E+03  0.26547242479E+04  0.25867617128E+04 0.  0.
        5    1    3    3  502    0  0.47117790390E+03  0.11836431094E+04  0.52742738902E+03  0.13788478409E+04  0.46999998093E+01 0.  1.
       -5    1    3    3    0  502 -0.47117790390E+03 -0.11836431094E+04  0.69418213722E+02  0.12758764070E+04  0.46999998093E+01 0. -1.
</event>
<event>
 5   0  0.1088757E-06  0.2600383E+04  0.7818609E-02  0.8368071E-01
        1   -1    0    0  501    0  0.00000000000E+00  0.00000000000E+00  0.10544030833E+04  0.10544030833E+04  0.50400001928E-02 0. -1.
       -1   -1    0    0    0  501  0.00000000000E+00  0.00000000000E+00 -0.16032743876E+04  0.16032743876E+04  0.50400001928E-02 0.  1.
    10030    2    1    2    0    0  0.00000000000E+00  0.00000000000E+00 -0.54887130428E+03  0.26576774708E+04  0.26003826315E+04 0.  0.
        5    1    3    3  502    0 -0.12701317799E+02  0.29393589038E+03 -0.15687977656E+04  0.15961541750E+04  0.46999998093E+01 0.  1.
       -5    1    3    3    0  502  0.12701317799E+02 -0.29393589038E+03  0.10199264613E+04  0.10615232958E+04  0.46999998093E+01 0. -1.
</event>
<event>
 5   0  0.1122628E-06  0.2603514E+04  0.7818609E-02  0.8367009E-01
        1   -1    0    0  501    0  0.00000000000E+00  0.00000000000E+00  0.20070666285E+04  0.20070666285E+04  0.50400001928E-02 0. -1.
       -1   -1    0    0    0  501  0.00000000000E+00  0.00000000000E+00 -0.84430225428E+03  0.84430225429E+03  0.50400001928E-02 0.  1.
    10030    2    1    2    0    0  0.00000000000E+00  0.00000000000E+00  0.11627643742E+04  0.28513688828E+04  0.26035136865E+04 0.  0.
        2    1    3    3  502    0 -0.97707520562E+03  0.33346382040E+03  0.14497708928E+04  0.17798060901E+04  0.25500000920E-02 0. -1.
       -2    1    3    3    0  502  0.97707520562E+03 -0.33346382040E+03 -0.28700651854E+03  0.10715627927E+04  0.25500000920E-02 0.  1.
</event>
<event>
 5   0  0.2586775E-06  0.2596297E+04  0.7818609E-02  0.8369460E-01
       -2   -1    0    0    0  501  0.00000000000E+00  0.00000000000E+00  0.15248136920E+04  0.15248136920E+04  0.25500000920E-02 0. -1.
        2   -1    0    0  501    0  0.00000000000E+00  0.00000000000E+00 -0.11051775664E+04  0.11051775664E+04  0.25500000920E-02 0.  1.
    10030    2    1    2    0    0  0.00000000000E+00  0.00000000000E+00  0.41963612563E+03  0.26299912584E+04  0.25962972753E+04 0.  0.
        1    1    3    3  502    0  0.72661341185E+03 -0.31998177229E+03  0.12501981958E+04  0.14809965947E+04  0.50400001928E-02 0. -1.
       -1    1    3    3    0  502 -0.72661341185E+03  0.31998177229E+03 -0.83056207014E+03  0.11489946637E+04  0.50400001928E-02 0.  1.
</event>
<event>
 5   0  0.1100104E-06  0.2598131E+04  0.7818609E-02  0.8368836E-01
        1   -1    0    0  501    0  0.00000000000E+00  0.00000000000E+00  0.14434241448E+04  0.14434241448E+04  0.50400001928E-02 0. -1.
       -1   -1    0    0    0  501  0.00000000000E+00  0.00000000000E+00 -0.11691440615E+04  0.11691440616E+04  0.50400001928E-02 0.  1.
    10030    2    1    2    0    0  0.00000000000E+00  0.00000000000E+00  0.27428008322E+03  0.26125682063E+04  0.25981306874E+04 0.  0.
        4    1    3    3  502    0 -0.12165479789E+04 -0.48224633467E+02  0.59270786834E+03  0.13541118235E+04  0.12699999809E+01 0.  1.
       -4    1    3    3    0  502  0.12165479789E+04  0.48224633467E+02 -0.31842778512E+03  0.12584563829E+04  0.12699999809E+01 0. -1.
</event>
<event>
 5   0  0.2586775E-06  0.2607338E+04  0.7818609E-02  0.8365713E-01
       -2   -1    0    0    0  501  0.00000000000E+00  0.00000000000E+00  0.10010857955E+04  0.10010857955E+04  0.25500000920E-02 0.  1.
        2   -1    0    0  501    0  0.00000000000E+00  0.00000000000E+00 -0.16977100838E+04  0.16977100838E+04  0.25500000920E-02 0. -1.
    10030    2    1    2    0    0  0.00000000000E+00  0.00000000000E+00 -0.69662428830E+03  0.26987958794E+04  0.26073384513E+04 0.  0.
        1    1    3    3  502    0  0.68844120917E+03 -0.11064577117E+04 -0.31023195254E+03  0.13395685241E+04  0.50400001928E-02 0. -1.
       -1    1    3    3    0  502 -0.68844120917E+03  0.11064577117E+04 -0.38639233575E+03  0.13592273553E+04  0.50400001928E-02 0.  1.
</event>
<event>
 5   0  0.2586775E-06  0.2601886E+04  0.7818609E-02  0.8367561E-01
       -2   -1    0    0    0  501  0.00000000000E+00  0.00000000000E+00  0.94453526993E+03  0.94453526993E+03  0.25500000920E-02 0.  1.
        2   -1    0    0  501    0  0.00000000000E+00  0.00000000000E+00 -0.17918370876E+04  0.17918370876E+04  0.25500000920E-02 0. -1.
    10030    2    1    2    0    0  0.00000000000E+00  0.00000000000E+00 -0.84730181764E+03  0.27363723575E+04  0.26018864904E+04 0.  0.
        1    1    3    3  502    0 -0.18274896121E+03  0.12395103083E+04 -0.79199748101E+03  0.14822425568E+04  0.50400001928E-02 0.  1.
       -1    1    3    3    0  502  0.18274896121E+03 -0.12395103083E+04 -0.55304336634E+02  0.12541298007E+04  0.50400001928E-02 0. -1.
</event>
<event>
 5   0  0.1100104E-06  0.2597710E+04  0.7818609E-02  0.8368979E-01
        1   -1    0    0  501    0  0.00000000000E+00  0.00000000000E+00  0.21107589797E+04  0.21107589797E+04  0.50400001928E-02 0.  1.
       -1   -1    0    0    0  501  0.00000000000E+00  0.00000000000E+00 -0.79925037655E+03  0.79925037657E+03  0.50400001928E-02 0. -1.
    10030    2    1    2    0    0  0.00000000000E+00  0.00000000000E+00  0.13115086032E+04  0.29100093563E+04  0.25977104607E+04 0.  0.
        4    1    3    3  502    0  0.38762878951E+03 -0.87095587756E+03  0.16439662806E+04  0.19003807418E+04  0.12699999809E+01 0.  1.
       -4    1    3    3    0  502 -0.38762878951E+03  0.87095587756E+03 -0.33245767740E+03  0.10096286145E+04  0.12699999809E+01 0. -1.
</event>
<event>
 5   0  0.1055179E-06  0.2602360E+04  0.7818609E-02  0.8367400E-01
       -1   -1    0    0    0  501  0.00000000000E+00  0.00000000000E+00  0.80040818235E+03  0.80040818237E+03  0.50400001928E-02 0.  1.
        1   -1    0    0  501    0  0.00000000000E+00  0.00000000000E+00 -0.21152566802E+04  0.21152566802E+04  0.50400001928E-02 0. -1.
    10030    2    1    2    0    0  0.00000000000E+00  0.00000000000E+00 -0.13148484978E+04  0.29156648625E+04  0.26023595098E+04 0.  0.
        3    1    3    3  502    0  0.54524087550E+03  0.28877152342E+03 -0.19409427118E+04  0.20366480368E+04  0.10100000352E+00 0. -1.
       -3    1    3    3    0  502 -0.54524087550E+03 -0.28877152342E+03  0.62609421396E+03  0.87901682578E+03  0.10100000352E+00 0.  1.
</event>
<event>
 5   0  0.2705807E-06  0.2596005E+04  0.7818609E-02  0.8369559E-01
        2   -1    0    0  501    0  0.00000000000E+00  0.00000000000E+00  0.20470113638E+04  0.20470113638E+04  0.25500000920E-02 0. -1.
       -2   -1    0    0    0  501  0.00000000000E+00  0.00000000000E+00 -0.82305864269E+03  0.82305864269E+03  0.25500000920E-02 0.  1.
    10030    2    1    2    0    0  0.00000000000E+00  0.00000000000E+00  0.12239527211E+04  0.28700700065E+04  0.25960049265E+04 0.  0.
        4    1    3    3  502    0 -0.11439391331E+04 -0.31141430766E+02  0.12892167412E+04  0.17238468458E+04  0.12699999809E+01 0. -1.
       -4    1    3    3    0  502  0.11439391331E+04  0.31141430766E+02 -0.65264020136E+02  0.11462231607E+04  0.12699999809E+01 0.  1.
</event>
<event>
 5   0  0.1100104E-06  0.2599696E+04  0.7818609E-02  0.8368304E-01
        1   -1    0    0  501    0  0.00000000000E+00  0.00000000000E+00  0.26114980393E+04  0.26114980393E+04  0.50400001928E-02 0. -1.
       -1   -1    0    0    0  501  0.00000000000E+00  0.00000000000E+00 -0.64698678715E+03  0.64698678717E+03  0.50400001928E-02 0.  1.
    10030    2    1    2    0    0  0.00000000000E+00  0.00000000000E+00  0.19645112522E+04  0.32584848265E+04  0.25996959254E+04 0.  0.
        4    1    3    3  502    0  0.69371411515E+03  0.10440971546E+04  0.55128491282E+03  0.13694140388E+04  0.12699999809E+01 0.  1.
       -4    1    3    3    0  502 -0.69371411515E+03 -0.10440971546E+04  0.14132263394E+04  0.18890707877E+04  0.12699999809E+01 0. -1.
</event>
<event>
 5   0  0.1032076E-06  0.2603311E+04  0.7818609E-02  0.8367078E-01
       -1   -1    0    0    0  501  0.00000000000E+00  0.00000000000E+00  0.73963799663E+03  0.73963799665E+03  0.50400001928E-02 0.  1.
        1   -1    0    0  501    0  0.00000000000E+00  0.00000000000E+00 -0.22907240513E+04  0.22907240513E+04  0.50400001928E-02 0. -1.
    10030    2    1    2    0    0  0.00000000000E+00  0.00000000000E+00 -0.15510860546E+04  0.30303620479E+04  0.26033106216E+04 0.  0.
        1    1    3    3  502    0 -0.93832846426E+03  0.14733600471E+03  0.26047913483E+03  0.98489470748E+03  0.50400001928E-02 0.  1.
       -1    1    3    3    0  502  0.93832846426E+03 -0.14733600471E+03 -0.18115651895E+04  0.20454673404E+04  0.50400001928E-02 0. -1.
</event>
<event>
 5   0  0.1088757E-06  0.2584410E+04  0.7818609E-02  0.8373516E-01
        1   -1    0    0  501    0  0.00000000000E+00  0.00000000000E+00  0.15366877368E+04  0.15366877368E+04  0.50400001928E-02 0. -1.
       -1   -1    0    0    0  501  0.00000000000E+00  0.00000000000E+00 -0.10866191222E+04  0.10866191222E+04  0.50400001928E-02 0.  1.
    10030    2    1    2    0    0  0.00000000000E+00  0.00000000000E+00  0.45006861468E+03  0.26233068590E+04  0.25844104006E+04 0.  0.
        5    1    3    3  502    0 -0.79901363318E+03  0.36303419026E+03  0.11877579018E+04  0.14768234602E+04  0.46999998093E+01 0. -1.
       -5    1    3    3    0  502  0.79901363318E+03 -0.36303419026E+03 -0.73768928715E+03  0.11464833988E+04  0.46999998093E+01 0.  1.
</event>
<event>
 5   0  0.2705807E-06  0.2605373E+04  0.7818609E-02  0.8366378E-01
       -2   -1    0    0    0  501  0.00000000000E+00  0.00000000000E+00  0.13555407304E+04  0.13555407304E+04  0.25500000920E-02 0.  1.
        2   -1    0    0  501    0  0.00000000000E+00  0.00000000000E+00 -0.12518930699E+04  0.12518930700E+04  0.25500000920E-02 0. -1.
    10030    2    1    2    0    0  0.00000000000E+00  0.00000000000E+00  0.10364766048E+03  0.26074338004E+04  0.26053729456E+04 0.  0.
        4    1    3    3  502    0 -0.93358268518E+03  0.90849884224E+03  0.58436411473E+02  0.13039797558E+04  0.12699999809E+01 0. -1.
       -4    1    3    3    0  502  0.93358268518E+03 -0.90849884224E+03  0.45211249006E+02  0.13034540446E+04  0.12699999809E+01 0.  1.
</event>
<event>
 5   0  0.2746631E-06  0.2600402E+04  0.7818609E-02  0.8368065E-01
       -2   -1    0    0    0  501  0.00000000000E+00  0.00000000000E+00  0.11242240483E+04  0.11242240483E+04  0.25500000920E-02 0.  1.
        2   -1    0    0  501    0  0.00000000000E+00  0.00000000000E+00 -0.15037234530E+04  0.15037234530E+04  0.25500000920E-02 0. -1.
    10030    2    1    2    0    0  0.00000000000E+00  0.00000000000E+00 -0.37949940478E+03  0.26279475013E+04  0.26004015597E+04 0.  0.
        2    1    3    3  502    0  0.12279969072E+04  0.31603841474E+03  0.10081182618E+03  0.12720140361E+04  0.25500000920E-02 0.  1.
       -2    1    3    3    0  502 -0.12279969072E+04 -0.31603841474E+03 -0.48031123096E+03  0.13559334653E+04  0.25500000920E-02 0. -1.
</event>
<event>
 5   0  0.1088757E-06  0.2600695E+04  0.7818609E-02  0.8367965E-01
       -1   -1    0    0    0  501  0.00000000000E+00  0.00000000000E+00  0.13885013525E+04  0.13885013525E+04  0.50400001928E-02 0.  1.
        1   -1    0    0  501    0  0.00000000000E+00  0.00000000000E+00 -0.12177899623E+04  0.12177899623E+04  0.50400001928E-02 0. -1.
    10030    2    1    2    0    0  0.00000000000E+00  0.00000000000E+00  0.17071139014E+03  0.26062913148E+04  0.26006945301E+04 0.  0.
        5    1    3    3  502    0  0.17420927827E+03  0.87134342149E+02 -0.12030781121E+04  0.12187535846E+04  0.46999998093E+01 0. -1.
       -5    1    3    3    0  502 -0.17420927827E+03 -0.87134342149E+02  0.13737895022E+04  0.13875377302E+04  0.46999998093E+01 0.  1.
</event>
<event>
 5   0  0.1032076E-06  0.2610290E+04  0.7818609E-02  0.8364714E-01
       -1   -1    0    0    0  501  0.00000000000E+00  0.00000000000E+00  0.93595892383E+03  0.93595892384E+03  0.50400001928E-02 0.  1.
        1   -1    0    0  501    0  0.00000000000E+00  0.00000000000E+00 -0.18199560005E+04  0.18199560005E+04  0.50400001928E-02 0. -1.
    10030    2    1    2    0    0  0.00000000000E+00  0.00000000000E+00 -0.88399707664E+03  0.27559149243E+04  0.26102904510E+04 0.  0.
        1    1    3    3  502    0 -0.70404504173E+03 -0.97384275325E+03  0.95681887790E+02  0.12054891756E+04  0.50400001928E-02 0.  1.
       -1    1    3    3    0  502  0.70404504173E+03  0.97384275325E+03 -0.97967896443E+03  0.15504257487E+04  0.50400001928E-02 0. -1.
</event>
<event>
 5   0  0.2820028E-06  0.2591213E+04  0.7818609E-02  0.8371192E-01
       -2   -1    0    0    0  501  0.00000000000E+00  0.00000000000E+00  0.63007543274E+03  0.63007543275E+03  0.25500000920E-02 0. -1.
        2   -1    0    0  501    0  0.00000000000E+00  0.00000000000E+00 -0.26641189525E+04  0.26641189525E+04  0.25500000920E-02 0.  1.
    10030    2    1    2    0    0  0.00000000000E+00  0.00000000000E+00 -0.20340435198E+04  0.32941943853E+04  0.25912127677E+04 0.  0.
        3    1    3    3  502    0  0.24826080877E+03  0.75623378710E+03 -0.23166509144E+04  0.24495702561E+04  0.10100000352E+00 0.  1.
       -3    1    3    3    0  502 -0.24826080877E+03 -0.75623378710E+03  0.28260739464E+03  0.84462412920E+03  0.10100000352E+00 0. -1.
</event>
<event>
 5   0  0.2705807E-06  0.2599582E+04  0.7818609E-02  0.8368343E-01
        2   -1    0    0  501    0  0.00000000000E+00  0.00000000000E+00  0.20604360033E+04  0.20604360033E+04  0.25500000920E-02 0. -1.
       -2   -1    0    0    0  501  0.00000000000E+00  0.00000000000E+00 -0.81995099430E+03  0.81995099431E+03  0.25500000920E-02 0.  1.
    10030    2    1    2    0    0  0.00000000000E+00  0.00000000000E+00  0.12404850090E+04  0.28803869976E+04  0.25995819276E+04 0.  0.
        4    1    3    3  502    0 -0.56080902467E+03 -0.11689268085E+04  0.51773849387E+03  0.13960484972E+04  0.12699999809E+01 0.  1.
       -4    1    3    3    0  502  0.56080902467E+03  0.11689268085E+04  0.72274651514E+03  0.14843385004E+04  0.12699999809E+01 0. -1.
</event>
<event>
 5   0  0.2705807E-06  0.2591127E+04  0.7818609E-02  0.8371221E-01
       -2   -1    0    0    0  501  0.00000000000E+00  0.00000000000E+00  0.71676972433E+03  0.71676972434E+03  0.25500000920E-02 0. -1.
        2   -1    0    0  501    0  0.00000000000E+00  0.00000000000E+00 -0.23417354910E+04  0.23417354910E+04  0.25500000920E-02 0.  1.
    10030    2    1    2    0    0  0.00000000000E+00  0.00000000000E+00 -0.16249657667E+04  0.30585052154E+04  0.25911272469E+04 0.  0.
        4    1    3    3  502    0  0.12642098878E+04  0.26691225444E+03 -0.70041115722E+03  0.14697095611E+04  0.12699999809E+01 0. -1.
       -4    1    3    3    0  502 -0.12642098878E+04 -0.26691225444E+03 -0.92455460947E+03  0.15887956542E+04  0.12699999809E+01 0.  1.
</event>
<event>
 5   0  0.1055179E-06  0.2604404E+04  0.7818609E-02  0.8366707E-01
       -1   -1    0    0    0  501  0.00000000000E+00  0.00000000000E+00  0.95820847363E+03  0.95820847364E+03  0.50400001928E-02 0.  1.
        1   -1    0    0  501    0  0.00000000000E+00  0.00000000000E+00 -0.17696881945E+04  0.17696881945E+04  0.50400001928E-02 0. -1.
    10030    2    1    2    0    0  0.00000000000E+00  0.00000000000E+00 -0.81147972085E+03  0.27278966681E+04  0.26044041343E+04 0.  0.
        3    1    3    3  502    0  0.10601024561E+04  0.49480447016E+02  0.38467106800E+03  0.11288212315E+04  0.10100000352E+00 0. -1.
       -3    1    3    3    0  502 -0.10601024561E+04 -0.49480447016E+02 -0.11961507888E+04  0.15990754366E+04  0.10100000352E+00 0.  1.
</event>
<event>
 5   0  0.1055179E-06  0.2598748E+04  0.7818609E-02  0.8368627E-01
        1   -1    0    0  501    0  0.00000000000E+00  0.00000000000E+00  0.24707391465E+04  0.24707391465E+04  0.50400001928E-02 0. -1.
       -1   -1    0    0    0  501  0.00000000000E+00  0.00000000000E+00 -0.68334738820E+03  0.68334738822E+03  0.50400001928E-02 0.  1.
    10030    2    1    2    0    0  0.00000000000E+00  0.00000000000E+00  0.17873917583E+04  0.31540865347E+04  0.25987482700E+04 0.  0.
        3    1    3    3  502    0 -0.24028707035E+03 -0.30191540145E+03 -0.61220625136E+03  0.72366241454E+03  0.10100000352E+00 0.  1.
       -3    1    3    3    0  502  0.24028707035E+03  0.30191540145E+03  0.23995980096E+04  0.24304241202E+04  0.10100000352E+00 0. -1.
</event>
<event>
 5   0  0.1032076E-06  0.2592675E+04  0.7818609E-02  0.8370694E-01
       -1   -1    0    0    0  501  0.00000000000E+00  0.00000000000E+00  0.20693896820E+04  0.20693896820E+04  0.50400001928E-02 0.  1.
        1   -1    0    0  501    0  0.00000000000E+00  0.00000000000E+00 -0.81207076491E+03  0.81207076492E+03  0.50400001928E-02 0. -1.
    10030    2    1    2    0    0  0.00000000000E+00  0.00000000000E+00  0.12573189171E+04  0.28814604469E+04  0.25926749600E+04 0.  0.
        1    1    3    3  502    0 -0.80931227314E+03 -0.95837561671E+03  0.99223817325E+03  0.15993769945E+04  0.50400001928E-02 0.  1.
       -1    1    3    3    0  502  0.80931227314E+03  0.95837561671E+03  0.26508074385E+03  0.12820834524E+04  0.50400001928E-02 0. -1.
</event>
<event>
 5   0  0.1122628E-06  0.2605252E+04  0.7818609E-02  0.8366419E-01
       -1   -1    0    0    0  501  0.00000000000E+00  0.00000000000E+00  0.11846878577E+04  0.11846878577E+04  0.50400001928E-02 0. -1.
        1   -1    0    0  501    0  0.00000000000E+00  0.00000000000E+00 -0.14323055198E+04  0.14323055199E+04  0.50400001928E-02 0.  1.
    10030    2    1    2    0    0  0.00000000000E+00  0.00000000000E+00 -0.24761766213E+03  0.26169933776E+04  0.26052523547E+04 0.  0.
        2    1    3    3  502    0  0.55521281868E+03  0.10627647012E+04 -0.63512628478E+03  0.13568771064E+04  0.25500000920E-02 0.  1.
       -2    1    3    3    0  502 -0.55521281868E+03 -0.10627647012E+04  0.38750862265E+03  0.12601162712E+04  0.25500000920E-02 0. -1.
</event>
<event>
 5   0  0.2820028E-06  0.2600574E+04  0.7818609E-02  0.8368006E-01
        2   -1    0    0  501    0  0.00000000000E+00  0.00000000000E+00  0.13025200513E+04  0.13025200513E+04  0.25500000920E-02 0.  1.
       -2   -1    0    0    0  501  0.00000000000E+00  0.00000000000E+00 -0.12980574844E+04  0.12980574844E+04  0.25500000920E-02 0. -1.
    10030    2    1    2    0    0  0.00000000000E+00  0.00000000000E+00  0.44625669176E+01  0.26005775357E+04  0.26005737069E+04 0.  0.
        3    1    3    3  502    0  0.22720491163E+03  0.83042964675E+03  0.97666097148E+03  0.13019608802E+04  0.10100000352E+00 0.  1.
       -3    1    3    3    0  502 -0.22720491163E+03 -0.83042964675E+03 -0.97219840457E+03  0.12986166556E+04  0.10100000352E+00 0. -1.
</event>
<event>
 5   0  0.2820028E-06  0.2599904E+04  0.7818609E-02  0.8368234E-01
       -2   -1    0    0    0  501  0.00000000000E+00  0.00000000000E+00  0.11908432693E+04  0.11908432693E+04  0.25500000920E-02 0. -1.
        2   -1    0    0  501    0  0.00000000000E+00  0.00000000000E+00 -0.14190573549E+04  0.14190573549E+04  0.25500000920E-02 0.  1.
    10030    2    1    2    0    0  0.00000000000E+00  0.00000000000E+00 -0.22821408568E+03  0.26099006242E+04  0.25999037673E+04 0.  0.
        3    1    3    3  502    0  0.95690496719E+02 -0.12032093801E+04  0.37045534044E+03  0.12625793650E+04  0.10100000352E+00 0. -1.
       -3    1    3    3    0  502 -0.95690496719E+02  0.12032093801E+04 -0.59866942612E+03  0.13473212592E+04  0.10100000352E+00 0.  1.
</event>
<event>
 5   0  0.1055179E-06  0.2599930E+04  0.7818609E-02  0.8368225E-01
       -1   -1    0    0    0  501  0.00000000000E+00  0.00000000000E+00  0.11583952187E+04  0.11583952188E+04  0.50400001928E-02 0. -1.
        1   -1    0    0  501    0  0.00000000000E+00  0.00000000000E+00 -0.14588368340E+04  0.14588368340E+04  0.50400001928E-02 0.  1.
    10030    2    1    2    0    0  0.00000000000E+00  0.00000000000E+00 -0.30044161527E+03  0.26172320528E+04  0.25999304710E+04 0.  0.
        3    1    3    3  502    0  0.21754673021E+03  0.18762732042E+03 -0.14264822333E+04  0.14551227314E+04  0.10100000352E+00 0.  1.
       -3    1    3    3    0  502 -0.21754673021E+03 -0.18762732042E+03  0.11260406181E+04  0.11621093214E+04  0.10100000352E+00 0. -1.
</event>
<event>
 5   0  0.2746631E-06  0.2608142E+04  0.7818609E-02  0.8365441E-01
        2   -1    0    0  501    0  0.00000000000E+00  0.00000000000E+00  0.17805544176E+04  0.17805544176E+04  0.25500000920E-02 0.  1.
       -2   -1    0    0    0  501  0.00000000000E+00  0.00000000000E+00 -0.95509612688E+03  0.95509612688E+03  0.25500000920E-02 0. -1.
    10030    2    1    2    0    0  0.00000000000E+00  0.00000000000E+00  0.82545829072E+03  0.27356505445E+04  0.26081415820E+04 0.  0.
        2    1    3    3  502    0  0.69258972405E+03 -0.85023648035E+02  0.15682652947E+04  0.17164980575E+04  0.25500000920E-02 0.  1.
       -2    1    3    3    0  502 -0.69258972405E+03  0.85023648035E+02 -0.74280700402E+03  0.10191524870E+04  0.25500000920E-02 0. -1.
</event>
<event>
 5   0  0.2586775E-06  0.2600535E+04  0.7818609E-02  0.8368020E-01
        2   -1    0    0  501    0  0.00000000000E+00  0.00000000000E+00  0.16499461659E+04  0.16499461659E+04  0.25500000920E-02 0. -1.
       -2   -1    0    0    0  501  0.00000000000E+00  0.00000000000E+00 -0.10246971907E+04  0.10246971907E+04  0.25500000920E-02 0.  1.
    10030    2    1    2    0    0  0.00000000000E+00  0.00000000000E+00  0.62524897512E+03  0.26746433566E+04  0.26005347151E+04 0.  0.
        1    1    3    3  502    0 -0.11081284525E+04  0.60178403955E+03  0.63884226072E+03  0.14135813141E+04  0.50400001928E-02 0. -1.
       -1    1    3    3    0  502  0.11081284525E+04 -0.60178403955E+03 -0.13593285595E+02  0.12610620425E+04  0.50400001928E-02 0.  1.
</event>
<event>
 5   0  0.2705807E-06  0.2600453E+04  0.7818609E-02  0.8368047E-01
        2   -1    0    0  501    0  0.00000000000E+00  0.00000000000E+00  0.17517424045E+04  0.17517424045E+04  0.25500000920E-02 0. -1.
       -2   -1    0    0    0  501  0.00000000000E+00  0.00000000000E+00 -0.96508959032E+03  0.96508959033E+03  0.25500000920E-02 0.  1.
    10030    2    1    2    0    0  0.00000000000E+00  0.00000000000E+00  0.78665281422E+03  0.27168319949E+04  0.26004525449E+04 0.  0.
        4    1    3    3  502    0 -0.13122029442E+03 -0.33328424573E+03  0.16991803962E+04  0.17365231890E+04  0.12699999809E+01 0. -1.
       -4    1    3    3    0  502  0.13122029442E+03  0.33328424573E+03 -0.91252758199E+03  0.98030880589E+03  0.12699999809E+01 0.  1.
</event>
<event>
 5   0  0.1088757E-06  0.2596789E+04  0.7818609E-02  0.8369293E-01
       -1   -1    0    0    0  501  0.00000000000E+00  0.00000000000E+00  0.88475998896E+03  0.88475998898E+03  0.50400001928E-02 0.  1.
        1   -1    0    0  501    0  0.00000000000E+00  0.00000000000E+00 -0.19054068710E+04  0.19054068710E+04  0.50400001928E-02 0. -1.
    10030    2    1    2    0    0  0.00000000000E+00  0.00000000000E+00 -0.10206468820E+04  0.27901668599E+04  0.25967886030E+04 0.  0.
        5    1    3    3  502    0 -0.22615340216E+03  0.12726752951E+04 -0.37891327819E+03  0.13470134113E+04  0.46999998093E+01 0. -1.
       -5    1    3    3    0  502  0.22615340216E+03 -0.12726752951E+04 -0.64173360381E+03  0.14431534486E+04  0.46999998093E+01 0.  1.
</event>
<event>
 5   0  0.2586775E-06  0.2587883E+04  0.7818609E-02  0.8372329E-01
        2   -1    0    0  501    0  0.00000000000E+00  0.00000000000E+00  0.11220725623E+04  0.11220725623E+04  0.25500000920E-02 0.  1.
       -2   -1    0    0    0  501  0.00000000000E+00  0.00000000000E+00 -0.14921362190E+04  0.14921362190E+04  0.25500000920E-02 0. -1.
    10030    2    1    2    0    0  0.00000000000E+00  0.00000000000E+00 -0.37006365661E+03  0.26142087813E+04  0.25878833904E+04 0.  0.
        1    1    3    3  502    0  0.42460513178E+03  0.51049228920E+03  0.93684801069E+03  0.11482926850E+04  0.50400001928E-02 0.  1.
       -1    1    3    3    0  502 -0.42460513178E+03 -0.51049228920E+03 -0.13069116673E+04  0.14659160963E+04  0.50400001928E-02 0. -1.
</event>
<event>
 5   0  0.2820028E-06  0.2596257E+04  0.7818609E-02  0.8369474E-01
        2   -1    0    0  501    0  0.00000000000E+00  0.00000000000E+00  0.92405624426E+03  0.92405624426E+03  0.25500000920E-02 0.  1.
       -2   -1    0    0    0  501  0.00000000000E+00  0.00000000000E+00 -0.18236304453E+04  0.18236304453E+04  0.25500000920E-02 0. -1.
    10030    2    1    2    0    0  0.00000000000E+00  0.00000000000E+00 -0.89957420108E+03  0.27476866896E+04  0.25962566131E+04 0.  0.
        3    1    3    3  502    0  0.90150938890E+02  0.13006464906E+03 -0.18133834016E+04  0.18202756319E+04  0.10100000352E+00 0. -1.
       -3    1    3    3    0  502 -0.90150938890E+02 -0.13006464906E+03  0.91380920054E+03  0.92741105768E+03  0.10100000352E+00 0.  1.
</event>
<event>
 5   0  0.1100104E-06  0.2601481E+04  0.7818609E-02  0.8367698E-01
        1   -1    0    0  501    0  0.00000000000E+00  0.00000000000E+00  0.17704389331E+04  0.17704389331E+04  0.50400001928E-02 0.  1.
       -1   -1    0    0    0  501  0.00000000000E+00  0.00000000000E+00 -0.95565306994E+03  0.95565306995E+03  0.50400001928E-02 0. -1.
    10030    2    1    2    0    0  0.00000000000E+00  0.00000000000E+00  0.81478586319E+03  0.27260920031E+04  0.26014806566E+04 0.  0.
        4    1    3    3  502    0  0.61297837478E+03  0.97058404784E+03 -0.23358277195E+03  0.11714684828E+04  0.12699999809E+01 0. -1.
       -4    1    3    3    0  502 -0.61297837478E+03 -0.97058404784E+03  0.10483686351E+04  0.15546235203E+04  0.12699999809E+01 0.  1.
</event>
<event>
 5   0  0.2623368E-06  0.2600179E+04  0.7818609E-02  0.8368140E-01
       -2   -1    0    0    0  501  0.00000000000E+00  0.00000000000E+00  0.96151235193E+03  0.96151235193E+03  0.25500000920E-02 0.  1.
        2   -1    0    0  501    0  0.00000000000E+00  0.00000000000E+00 -0.17578903846E+04  0.17578903846E+04  0.25500000920E-02 0. -1.
    10030    2    1    2    0    0  0.00000000000E+00  0.00000000000E+00 -0.79637803266E+03  0.27194027365E+04  0.26001794693E+04 0.  0.
        5    1    3    3  502    0  0.55017085767E+03 -0.79884410404E+03 -0.13035436920E+04  0.16248347984E+04  0.46999998093E+01 0. -1.
       -5    1    3    3    0  502 -0.55017085767E+03  0.79884410404E+03  0.50716565932E+03  0.10945679381E+04  0.46999998093E+01 0.  1.
</event>
<event>
 5   0  0.2746631E-06  0.2604644E+04  0.7818609E-02  0.8366626E-01
        2   -1    0    0  501    0  0.00000000000E+00  0.00000000000E+00  0.18717912577E+04  0.18717912577E+04  0.25500000920E-02 0. -1.
       -2   -1    0    0    0  501  0.00000000000E+00  0.00000000000E+00 -0.90610646278E+03  0.90610646278E+03  0.25500000920E-02 0.  1.
    10030    2    1    2    0    0  0.00000000000E+00  0.00000000000E+00  0.96568479488E+03  0.27778977204E+04  0.26046436651E+04 0.  0.
        2    1    3    3  502    0 -0.46576628089E+03  0.85376349547E+03  0.14065916434E+04  0.17100732107E+04  0.25500000920E-02 0. -1.
       -2    1    3    3    0  502  0.46576628089E+03 -0.85376349547E+03 -0.44090684849E+03  0.10678245098E+04  0.25500000920E-02 0.  1.
</event>
<event>
 5   0  0.2746631E-06  0.2614008E+04  0.7818609E-02  0.8363459E-01
        2   -1    0    0  501    0  0.00000000000E+00  0.00000000000E+00  0.18093551839E+04  0.18093551839E+04  0.25500000920E-02 0. -1.
       -2   -1    0    0    0  501  0.00000000000E+00  0.00000000000E+00 -0.94412587131E+03  0.94412587132E+03  0.25500000920E-02 0.  1.
    10030    2    1    2    0    0  0.00000000000E+00  0.00000000000E+00  0.86522931257E+03  0.27534810552E+04  0.26140076813E+04 0.  0.
        2    1    3    3  502    0 -0.87559089336E+03 -0.92191672530E+03  0.75153843655E+03  0.14769562900E+04  0.25500000920E-02 0. -1.
       -2    1    3    3    0  502  0.87559089336E+03  0.92191672530E+03  0.11369087603E+03  0.12765247652E+04  0.25500000920E-02 0.  1.
</event>
<event>
 5   0  0.1055179E-06  0.2541028E+04  0.7818609E-02  0.8388513E-01
        1   -1    0    0  501    0  0.00000000000E+00  0.00000000000E+00  0.12537122704E+04  0.12537122704E+04  0.50400001928E-02 0.  1.
       -1   -1    0    0    0  501  0.00000000000E+00  0.00000000000E+00 -0.12875413668E+04  0.12875413668E+04  0.50400001928E-02 0. -1.
    10030    2    1    2    0    0  0.00000000000E+00  0.00000000000E+00 -0.33829096425E+02  0.25412536372E+04  0.25410284612E+04 0.  0.
        3    1    3    3  502    0  0.47514004339E+03  0.19000917694E+03 -0.11799212298E+04  0.12861087306E+04  0.10100000352E+00 0. -1.
       -3    1    3    3    0  502 -0.47514004339E+03 -0.19000917694E+03  0.11460921334E+04  0.12551449066E+04  0.10100000352E+00 0.  1.
</event>
<event>
 5   0  0.1122628E-06  0.2604072E+04  0.7818609E-02  0.8366819E-01
        1   -1    0    0  501    0  0.00000000000E+00  0.00000000000E+00  0.19419972328E+04  0.19419972328E+04  0.50400001928E-02 0. -1.
       -1   -1    0    0    0  501  0.00000000000E+00  0.00000000000E+00 -0.87296623114E+03  0.87296623115E+03  0.50400001928E-02 0.  1.
    10030    2    1    2    0    0  0.00000000000E+00  0.00000000000E+00  0.10690310017E+04  0.28149634640E+04  0.26040721996E+04 0.  0.
        2    1    3    3  502    0  0.52183156495E+02 -0.10676587835E+04  0.13381461218E+04  0.17126743424E+04  0.25500000920E-02 0. -1.
       -2    1    3    3    0  502 -0.52183156495E+02  0.10676587835E+04 -0.26911512010E+03  0.11022891216E+04  0.25500000920E-02 0.  1.
</event>
<event>
 5   0  0.2586775E-06  0.2600768E+04  0.7818609E-02  0.8367940E-01
       -2   -1    0    0    0  501  0.00000000000E+00  0.00000000000E+00  0.78064740588E+03  0.78064740588E+03  0.25500000920E-02 0.  1.
        2   -1    0    0  501    0  0.00000000000E+00  0.00000000000E+00 -0.21661492727E+04  0.21661492728E+04  0.25500000920E-02 0. -1.
    10030    2    1    2    0    0  0.00000000000E+00  0.00000000000E+00 -0.13855018669E+04  0.29467966786E+04  0.26007682023E+04 0.  0.
        1    1    3    3  502    0  0.58963801586E+03  0.11044233092E+04 -0.29444773840E+03  0.12861272513E+04  0.50400001928E-02 0.  1.
       -1    1    3    3    0  502 -0.58963801586E+03 -0.11044233092E+04 -0.10910541285E+04  0.16606694274E+04  0.50400001928E-02 0. -1.
</event>
<event>
 5   0  0.1122628E-06  0.2599956E+04  0.7818609E-02  0.8368216E-01
       -1   -1    0    0    0  501  0.00000000000E+00  0.00000000000E+00  0.13142686155E+04  0.13142686156E+04  0.50400001928E-02 0. -1.
        1   -1    0    0  501    0  0.00000000000E+00  0.00000000000E+00 -0.12858423141E+04  0.12858423141E+04  0.50400001928E-02 0.  1.
    10030    2    1    2    0    0  0.00000000000E+00  0.00000000000E+00  0.28426301442E+02  0.26001109297E+04  0.25999555365E+04 0.  0.
        2    1    3    3  502    0 -0.15736332639E+02 -0.12267528771E+04 -0.41566361274E+03  0.12953557398E+04  0.25500000920E-02 0.  1.
       -2    1    3    3    0  502  0.15736332639E+02  0.12267528771E+04  0.44408991419E+03  0.13047551899E+04  0.25500000920E-02 0. -1.
</event>
<event>
 5   0  0.1088757E-06  0.2644085E+04  0.7818609E-02  0.8353379E-01
       -1   -1    0    0    0  501  0.00000000000E+00  0.00000000000E+00  0.18083452225E+04  0.18083452225E+04  0.50400001928E-02 0. -1.
        1   -1    0    0  501    0  0.00000000000E+00  0.00000000000E+00 -0.96651672226E+03  0.96651672227E+03  0.50400001928E-02 0.  1.
    10030    2    1    2    0    0  0.00000000000E+00  0.00000000000E+00  0.84182850024E+03  0.27748619448E+04  0.26440846410E+04 0.  0.
        5    1    3    3  502    0 -0.93881421616E+03  0.10829790741E+03  0.13911249952E+04  0.16817703207E+04  0.46999998093E+01 0.  1.
       -5    1    3    3    0  502  0.93881421616E+03 -0.10829790741E+03 -0.54929649500E+03  0.10930916241E+04  0.46999998093E+01 0. -1.
</event>
<event>
 5   0  0.2623368E-06  0.2598358E+04  0.7818609E-02  0.8368759E-01
        2   -1    0    0  501    0  0.00000000000E+00  0.00000000000E+00  0.19416733417E+04  0.19416733417E+04  0.25500000920E-02 0.  1.
       -2   -1    0    0    0  501  0.00000000000E+00  0.00000000000E+00 -0.86928395320E+03  0.86928395321E+03  0.25500000920E-02 0. -1.
    10030    2    1    2    0    0  0.00000000000E+00  0.00000000000E+00  0.10723893885E+04  0.28109572949E+04  0.25983575415E+04 0.  0.
        5    1    3    3  502    0 -0.41709613316E+03 -0.27327127244E+03  0.18340176797E+04  0.19006023551E+04  0.46999998093E+01 0.  1.
       -5    1    3    3    0  502  0.41709613316E+03  0.27327127244E+03 -0.76162829117E+03  0.91035493987E+03  0.46999998093E+01 0. -1.
</event>
<event>
 5   0  0.1122628E-06  0.2597578E+04  0.7818609E-02  0.8369024E-01
        1   -1    0    0  501    0  0.00000000000E+00  0.00000000000E+00  0.17561756278E+04  0.17561756278E+04  0.50400001928E-02 0. -1.
       -1   -1    0    0    0  501  0.00000000000E+00  0.00000000000E+00 -0.96052617128E+03  0.96052617129E+03  0.50400001928E-02 0.  1.
    10030    2    1    2    0    0  0.00000000000E+00  0.00000000000E+00  0.79564945649E+03  0.27167017991E+04  0.25975778347E+04 0.  0.
        2    1    3    3  502    0  0.10952019693E+04 -0.37874502369E+03 -0.21553204999E+03  0.11787150678E+04  0.25500000920E-02 0.  1.
       -2    1    3    3    0  502 -0.10952019693E+04  0.37874502369E+03  0.10111815065E+04  0.15379867313E+04  0.25500000920E-02 0. -1.
</event>
<event>
 5   0  0.1055179E-06  0.2600127E+04  0.7818609E-02  0.8368158E-01
        1   -1    0    0  501    0  0.00000000000E+00  0.00000000000E+00  0.16420918270E+04  0.16420918270E+04  0.50400001928E-02 0.  1.
       -1   -1    0    0    0  501  0.00000000000E+00  0.00000000000E+00 -0.10292752493E+04  0.10292752493E+04  0.50400001928E-02 0. -1.
    10030    2    1    2    0    0  0.00000000000E+00  0.00000000000E+00  0.61281657762E+03  0.26713670763E+04  0.26001265159E+04 0.  0.
        3    1    3    3  502    0 -0.55982911926E+03  0.92442936859E+03 -0.43601531210E+03  0.11653701828E+04  0.10100000352E+00 0. -1.
       -3    1    3    3    0  502  0.55982911926E+03 -0.92442936859E+03  0.10488318897E+04  0.15059968935E+04  0.10100000352E+00 0.  1.
</event>
<event>
 5   0  0.1055179E-06  0.2599973E+04  0.7818609E-02  0.8368210E-01
       -1   -1    0    0    0  501  0.00000000000E+00  0.00000000000E+00  0.11464675276E+04  0.11464675276E+04  0.50400001928E-02 0. -1.
        1   -1    0    0  501    0  0.00000000000E+00  0.00000000000E+00 -0.14740628580E+04  0.14740628580E+04  0.50400001928E-02 0.  1.
    10030    2    1    2    0    0  0.00000000000E+00  0.00000000000E+00 -0.32759533039E+03  0.26205303856E+04  0.25999732309E+04 0.  0.
        3    1    3    3  502    0  0.12530704021E+04 -0.23643314632E+03  0.90943893607E+02  0.12784196757E+04  0.10100000352E+00 0. -1.
       -3    1    3    3    0  502 -0.12530704021E+04  0.23643314632E+03 -0.41853922400E+03  0.13421107098E+04  0.10100000352E+00 0.  1.
</event>
<event>
 5   0  0.2746631E-06  0.2599607E+04  0.7818609E-02  0.8368335E-01
        2   -1    0    0  501    0  0.00000000000E+00  0.00000000000E+00  0.17113589169E+04  0.17113589169E+04  0.25500000920E-02 0.  1.
       -2   -1    0    0    0  501  0.00000000000E+00  0.00000000000E+00 -0.98722086182E+03  0.98722086183E+03  0.25500000920E-02 0. -1.
    10030    2    1    2    0    0  0.00000000000E+00  0.00000000000E+00  0.72413805506E+03  0.26985797787E+04  0.25996070663E+04 0.  0.
        2    1    3    3  502    0 -0.64147587385E+02  0.53828301056E+03 -0.86427419137E+03  0.10202124241E+04  0.25500000920E-02 0. -1.
       -2    1    3    3    0  502  0.64147587385E+02 -0.53828301056E+03  0.15884122464E+04  0.16783673546E+04  0.25500000920E-02 0.  1.
</event>
<event>
 5   0  0.2586775E-06  0.2600246E+04  0.7818609E-02  0.8368118E-01
        2   -1    0    0  501    0  0.00000000000E+00  0.00000000000E+00  0.20863010563E+04  0.20863010563E+04  0.25500000920E-02 0. -1.
       -2   -1    0    0    0  501  0.00000000000E+00  0.00000000000E+00 -0.81019932596E+03  0.81019932596E+03  0.25500000920E-02 0.  1.
    10030    2    1    2    0    0  0.00000000000E+00  0.00000000000E+00  0.12761017304E+04  0.28965003823E+04  0.26002459188E+04 0.  0.
        1    1    3    3  502    0 -0.43229097215E+03  0.10037951549E+04  0.14224366826E+04  0.17938244935E+04  0.50400001928E-02 0. -1.
       -1    1    3    3    0  502  0.43229097215E+03 -0.10037951549E+04 -0.14633495219E+03  0.11026758888E+04  0.50400001928E-02 0.  1.
</event>
<event>
 5   0  0.1055179E-06  0.2597655E+04  0.7818609E-02  0.8368998E-01
        1   -1    0    0  501    0  0.00000000000E+00  0.00000000000E+00  0.15292428051E+04  0.15292428051E+04  0.50400001928E-02 0.  1.
       -1   -1    0    0    0  501  0.00000000000E+00  0.00000000000E+00 -0.11031297371E+04  0.11031297371E+04  0.50400001928E-02 0. -1.
    10030    2    1    2    0    0  0.00000000000E+00  0.00000000000E+00  0.42611306801E+03  0.26323725422E+04  0.25976552609E+04 0.  0.
        3    1    3    3  502    0 -0.81046346369E+03  0.99153868697E+03 -0.65263476638E+01  0.12806414788E+04  0.10100000352E+00 0.  1.
       -3    1    3    3    0  502  0.81046346369E+03 -0.99153868697E+03  0.43263941567E+03  0.13517310635E+04  0.10100000352E+00 0. -1.
</event>
<event>
 5   0  0.2586775E-06  0.2598237E+04  0.7818609E-02  0.8368800E-01
        2   -1    0    0  501    0  0.00000000000E+00  0.00000000000E+00  0.14521594184E+04  0.14521594184E+04  0.25500000920E-02 0.  1.
       -2   -1    0    0    0  501  0.00000000000E+00  0.00000000000E+00 -0.11622059158E+04  0.11622059158E+04  0.25500000920E-02 0. -1.
    10030    2    1    2    0    0  0.00000000000E+00  0.00000000000E+00  0.28995350257E+03  0.26143653342E+04  0.25982365302E+04 0.  0.
        1    1    3    3  502    0  0.11324340175E+04  0.70814381740E+02  0.78158640279E+03  0.13777876418E+04  0.50400001928E-02 0.  1.
       -1    1    3    3    0  502 -0.11324340175E+04 -0.70814381740E+02 -0.49163290022E+03  0.12365776924E+04  0.50400001928E-02 0. -1.
</event>
<event>
 5   0  0.2586775E-06  0.2601358E+04  0.7818609E-02  0.8367740E-01
        2   -1    0    0  501    0  0.00000000000E+00  0.00000000000E+00  0.10899570658E+04  0.10899570658E+04  0.25500000920E-02 0.  1.
       -2   -1    0    0    0  501  0.00000000000E+00  0.00000000000E+00 -0.15521393517E+04  0.15521393517E+04  0.25500000920E-02 0. -1.
    10030    2    1    2    0    0  0.00000000000E+00  0.00000000000E+00 -0.46218228593E+03  0.26420964175E+04  0.26013575329E+04 0.  0.
        1    1    3    3  502    0  0.82401707609E+03  0.14924324580E+02  0.79091701457E+03  0.11422681827E+04  0.50400001928E-02 0.  1.
       -1    1    3    3    0  502 -0.82401707609E+03 -0.14924324580E+02 -0.12530993005E+04  0.14998282349E+04  0.50400001928E-02 0. -1.
</event>
<event>
 5   0  0.2623368E-06  0.2603527E+04  0.7818609E-02  0.8367004E-01
        2   -1    0    0  501    0  0.00000000000E+00  0.00000000000E+00  0.13998267504E+04  0.13998267504E+04  0.25500000920E-02 0.  1.
       -2   -1    0    0    0  501  0.00000000000E+00  0.00000000000E+00 -0.12105696337E+04  0.12105696337E+04  0.25500000920E-02 0. -1.
    10030    2    1    2    0    0  0.00000000000E+00  0.00000000000E+00  0.18925711666E+03  0.26103963841E+04  0.26035266517E+04 0.  0.
        5    1    3    3  502    0 -0.11466160296E+04 -0.19141703580E+03 -0.49274729342E+03  0.12626126825E+04  0.46999998093E+01 0. -1.
       -5    1    3    3    0  502  0.11466160296E+04  0.19141703580E+03  0.68200441008E+03  0.13477837016E+04  0.46999998093E+01 0.  1.
</event>
<event>
 5   0  0.2820028E-06  0.2607673E+04  0.7818609E-02  0.8365599E-01
       -2   -1    0    0    0  501  0.00000000000E+00  0.00000000000E+00  0.76480330285E+03  0.76480330286E+03  0.25500000920E-02 0.  1.
        2   -1    0    0  501    0  0.00000000000E+00  0.00000000000E+00 -0.22227805946E+04  0.22227805946E+04  0.25500000920E-02 0. -1.
    10030    2    1    2    0    0  0.00000000000E+00  0.00000000000E+00 -0.14579772918E+04  0.29875838975E+04  0.26076732466E+04 0.  0.
        3    1    3    3  502    0 -0.16556727208E+03  0.12904309341E+04 -0.82731399268E+03  0.15417759143E+04  0.10100000352E+00 0.  1.
       -3    1    3    3    0  502  0.16556727208E+03 -0.12904309341E+04 -0.63066329910E+03  0.14458079832E+04  0.10100000352E+00 0. -1.
</event>
<event>
 5   0  0.1032076E-06  0.2578470E+04  0.7818609E-02  0.8375552E-01
        1   -1    0    0  501    0  0.00000000000E+00  0.00000000000E+00  0.12235554456E+04  0.12235554456E+04  0.50400001928E-02 0.  1.
       -1   -1    0    0    0  501  0.00000000000E+00  0.00000000000E+00 -0.13584398265E+04  0.13584398265E+04  0.50400001928E-02 0. -1.
    10030    2    1    2    0    0  0.00000000000E+00  0.00000000000E+00 -0.13488438091E+03  0.25819952721E+04  0.25784696603E+04 0.  0.
        1    1    3    3  502    0 -0.64230190994E+03  0.47964626856E+03  0.94364835237E+03  0.12381778949E+04  0.50400001928E-02 0.  1.
       -1    1    3    3    0  502  0.64230190994E+03 -0.47964626856E+03 -0.10785327333E+04  0.13438173772E+04  0.50400001928E-02 0. -1.
</event>
<event>
 5   0  0.1032076E-06  0.2601157E+04  0.7818609E-02  0.8367808E-01
        1   -1    0    0  501    0  0.00000000000E+00  0.00000000000E+00  0.13738749077E+04  0.13738749077E+04  0.50400001928E-02 0. -1.
       -1   -1    0    0    0  501  0.00000000000E+00  0.00000000000E+00 -0.12311924781E+04  0.12311924781E+04  0.50400001928E-02 0.  1.
    10030    2    1    2    0    0  0.00000000000E+00  0.00000000000E+00  0.14268242959E+03  0.26050673858E+04  0.26011570135E+04 0.  0.
        1    1    3    3  502    0  0.46663857916E+03 -0.50941374534E+03  0.11749281321E+04  0.13629783722E+04  0.50400001928E-02 0. -1.
       -1    1    3    3    0  502 -0.46663857916E+03  0.50941374534E+03 -0.10322457025E+04  0.12420890136E+04  0.50400001928E-02 0.  1.
</event>
<event>
 5   0  0.1032076E-06  0.2600455E+04  0.7818609E-02  0.8368047E-01
       -1   -1    0    0    0  501  0.00000000000E+00  0.00000000000E+00  0.63622342751E+03  0.63622342753E+03  0.50400001928E-02 0.  1.
        1   -1    0    0  501    0  0.00000000000E+00  0.00000000000E+00 -0.26572288721E+04  0.26572288721E+04  0.50400001928E-02 0. -1.
    10030    2    1    2    0    0  0.00000000000E+00  0.00000000000E+00 -0.20210054446E+04  0.32934522997E+04  0.26004547762E+04 0.  0.
        1    1    3    3  502    0  0.35212356141E+03  0.23594146966E+03 -0.25672729408E+04  0.26020280037E+04  0.50400001928E-02 0. -1.
       -1    1    3    3    0  502 -0.35212356141E+03 -0.23594146966E+03  0.54626749618E+03  0.69142429594E+03  0.50400001928E-02 0.  1.
</event>
<event>
 5   0  0.2623368E-06  0.2592509E+04  0.7818609E-02  0.8370750E-01
        2   -1    0    0  501    0  0.00000000000E+00  0.00000000000E+00  0.98545870513E+03  0.98545870513E+03  0.25500000920E-02 0.  1.
       -2   -1    0    0    0  501  0.00000000000E+00  0.00000000000E+00 -0.17050694769E+04  0.17050694770E+04  0.25500000920E-02 0. -1.
    10030    2    1    2    0    0  0.00000000000E+00  0.00000000000E+00 -0.71961077182E+03  0.26905281821E+04  0.25925088690E+04 0.  0.
        5    1    3    3  502    0 -0.17257099385E+02  0.78333532836E+03 -0.14314861489E+04  0.16318966661E+04  0.46999998093E+01 0. -1.
       -5    1    3    3    0  502  0.17257099385E+02 -0.78333532836E+03  0.71187537712E+03  0.10586315160E+04  0.46999998093E+01 0.  1.
</event>
<event>
 5   0  0.2586775E-06  0.2612563E+04  0.7818609E-02  0.8363946E-01
       -2   -1    0    0    0  501  0.00000000000E+00  0.00000000000E+00  0.13094851832E+04  0.13094851832E+04  0.25500000920E-02 0.  1.
        2   -1    0    0  501    0  0.00000000000E+00  0.00000000000E+00 -0.13030852605E+04  0.13030852605E+04  0.25500000920E-02 0. -1.
    10030    2    1    2    0    0  0.00000000000E+00  0.00000000000E+00  0.63999227025E+01  0.26125704437E+04  0.26125626048E+04 0.  0.
        1    1    3    3  502    0  0.19544443008E+03 -0.31689635764E+03  0.12553015635E+04  0.13093524515E+04  0.50400001928E-02 0.  1.
       -1    1    3    3    0  502 -0.19544443008E+03  0.31689635764E+03 -0.12489016408E+04  0.13032179922E+04  0.50400001928E-02 0. -1.
</event>
<event>
 5   0  0.1088757E-06  0.2602229E+04  0.7818609E-02  0.8367444E-01
       -1   -1    0    0    0  501  0.00000000000E+00  0.00000000000E+00  0.10636684116E+04  0.10636684116E+04  0.50400001928E-02 0.  1.
        1   -1    0    0  501    0  0.00000000000E+00  0.00000000000E+00 -0.15915667860E+04  0.15915667860E+04  0.50400001928E-02 0. -1.
    10030    2    1    2    0    0  0.00000000000E+00  0.00000000000E+00 -0.52789837440E+03  0.26552351976E+04  0.26022292868E+04 0.  0.
        5    1    3    3  502    0  0.83382201017E+03  0.98479134579E+03 -0.43409127075E+03  0.13614442555E+04  0.46999998093E+01 0.  1.
       -5    1    3    3    0  502 -0.83382201017E+03 -0.98479134579E+03 -0.93807103658E+02  0.12937909422E+04  0.46999998093E+01 0. -1.
</event>
<event>
 5   0  0.1055179E-06  0.2597825E+04  0.7818609E-02  0.8368940E-01
        1   -1    0    0  501    0  0.00000000000E+00  0.00000000000E+00  0.23089386221E+04  0.23089386221E+04  0.50400001928E-02 0.  1.
       -1   -1    0    0    0  501  0.00000000000E+00  0.00000000000E+00 -0.73071414917E+03  0.73071414919E+03  0.50400001928E-02 0. -1.
    10030    2    1    2    0    0  0.00000000000E+00  0.00000000000E+00  0.15782244729E+04  0.30396527713E+04  0.25978253373E+04 0.  0.
        3    1    3    3  502    0  0.38850443086E+03 -0.79307827063E+03 -0.32539058350E+03  0.94116304547E+03  0.10100000352E+00 0. -1.
       -3    1    3    3    0  502 -0.38850443086E+03  0.79307827063E+03  0.19036150564E+04  0.20984897258E+04  0.10100000352E+00 0.  1.
</event>
<event>
 5   0  0.2586775E-06  0.2614547E+04  0.7818609E-02  0.8363277E-01
       -2   -1    0    0    0  501  0.00000000000E+00  0.00000000000E+00  0.13029555610E+04  0.13029555610E+04  0.25500000920E-02 0. -1.
        2   -1    0    0  501    0  0.00000000000E+00  0.00000000000E+00 -0.13116060540E+04  0.13116060540E+04  0.25500000920E-02 0.  1.
    10030    2    1    2    0    0  0.00000000000E+00  0.00000000000E+00 -0.86504930745E+01  0.26145616150E+04  0.26145473045E+04 0.  0.
        1    1    3    3  502    0  0.60900749435E+03  0.11562670037E+04  0.29154630378E+02  0.13071700366E+04  0.50400001928E-02 0. -1.
       -1    1    3    3    0  502 -0.60900749435E+03 -0.11562670037E+04 -0.37805123452E+02  0.13073915784E+04  0.50400001928E-02 0.  1.
</event>
<event>
 5   0  0.1032076E-06  0.2605043E+04  0.7818609E-02  0.8366490E-01
       -1   -1    0    0    0  501  0.00000000000E+00  0.00000000000E+00  0.15072544900E+04  0.15072544900E+04  0.50400001928E-02 0. -1.
        1   -1    0    0  501    0  0.00000000000E+00  0.00000000000E+00 -0.11255978522E+04  0.11255978522E+04  0.50400001928E-02 0.  1.
    10030    2    1    2    0    0  0.00000000000E+00  0.00000000000E+00  0.38165663775E+03  0.26328523422E+04  0.26050431218E+04 0.  0.
        1    1    3    3  502    0 -0.81917778237E+03  0.32579883343E+03  0.11598994144E+04  0.14569021143E+04  0.50400001928E-02 0. -1.
       -1    1    3    3    0  502  0.81917778237E+03 -0.32579883343E+03 -0.77824277669E+03  0.11759502279E+04  0.50400001928E-02 0.  1.
</event>
<event>
 5   0  0.1122628E-06  0.2573020E+04  0.7818609E-02  0.8377424E-01
       -1   -1    0    0    0  501  0.00000000000E+00  0.00000000000E+00  0.12451767824E+04  0.12451767824E+04  0.50400001928E-02 0. -1.
        1   -1    0    0  501    0  0.00000000000E+00  0.00000000000E+00 -0.13292152091E+04  0.13292152091E+04  0.50400001928E-02 0.  1.
    10030    2    1    2    0    0  0.00000000000E+00  0.00000000000E+00 -0.84038426679E+02  0.25743919915E+04  0.25730199511E+04 0.  0.
        2    1    3    3  502    0  0.16719049788E+03 -0.78792095230E+03 -0.10457170530E+04  0.13199606981E+04  0.25500000920E-02 0.  1.
       -2    1    3    3    0  502 -0.16719049788E+03  0.78792095230E+03  0.96167862629E+03  0.12544312934E+04  0.25500000920E-02 0. -1.
</event>
<event>
 5   0  0.1100104E-06  0.2598164E+04  0.7818609E-02  0.8368825E-01
       -1   -1    0    0    0  501  0.00000000000E+00  0.00000000000E+00  0.11374245099E+04  0.11374245099E+04  0.50400001928E-02 0. -1.
        1   -1    0    0  501    0  0.00000000000E+00  0.00000000000E+00 -0.14837147241E+04  0.14837147241E+04  0.50400001928E-02 0.  1.
    10030    2    1    2    0    0  0.00000000000E+00  0.00000000000E+00 -0.34629021424E+03  0.26211392340E+04  0.25981635767E+04 0.  0.
        4    1    3    3  502    0 -0.89028733318E+03 -0.42383894710E+03  0.68012434504E+03  0.11978404428E+04  0.12699999809E+01 0. -1.
       -4    1    3    3    0  502  0.89028733318E+03  0.42383894710E+03 -0.10264145593E+04  0.14232987912E+04  0.12699999809E+01 0.  1.
</event>
<event>
 5   0  0.1100104E-06  0.2603784E+04  0.7818609E-02  0.8366917E-01
       -1   -1    0    0    0  501  0.00000000000E+00  0.00000000000E+00  0.92281356478E+03  0.92281356480E+03  0.50400001928E-02 0.  1.
        1   -1    0    0  501    0  0.00000000000E+00  0.00000000000E+00 -0.18366897751E+04  0.18366897751E+04  0.50400001928E-02 0. -1.
    10030    2    1    2    0    0  0.00000000000E+00  0.00000000000E+00 -0.91387621033E+03  0.27595033399E+04  0.26037835846E+04 0.  0.
        4    1    3    3  502    0  0.10053360701E+04  0.17829219893E+03 -0.13129772693E+04  0.16632497241E+04  0.12699999809E+01 0. -1.
       -4    1    3    3    0  502 -0.10053360701E+04 -0.17829219893E+03  0.39910105893E+03  0.10962536158E+04  0.12699999809E+01 0.  1.
</event>
<event>
 5   0  0.1032076E-06  0.2600446E+04  0.7818609E-02  0.8368050E-01
        1   -1    0    0  501    0  0.00000000000E+00  0.00000000000E+00  0.27912988039E+04  0.27912988039E+04  0.50400001928E-02 0. -1.
       -1   -1    0    0    0  501  0.00000000000E+00  0.00000000000E+00 -0.60566045717E+03  0.60566045720E+03  0.50400001928E-02 0.  1.
    10030    2    1    2    0    0  0.00000000000E+00  0.00000000000E+00  0.21856383467E+04  0.33969592611E+04  0.26004455847E+04 0.  0.
        1    1    3    3  502    0 -0.68949903632E+03  0.63749790431E+03 -0.81954562337E+02  0.94261818856E+03  0.50400001928E-02 0.  1.
       -1    1    3    3    0  502  0.68949903632E+03 -0.63749790431E+03  0.22675929090E+04  0.24543410725E+04  0.50400001928E-02 0. -1.
</event>
<event>
 5   0  0.1055179E-06  0.2598410E+04  0.7818609E-02  0.8368741E-01
        1   -1    0    0  501    0  0.00000000000E+00  0.00000000000E+00  0.13542811094E+04  0.13542811094E+04  0.50400001928E-02 0.  1.
       -1   -1    0    0    0  501  0.00000000000E+00  0.00000000000E+00 -0.12463687370E+04  0.12463687370E+04  0.50400001928E-02 0. -1.
    10030    2    1    2    0    0  0.00000000000E+00  0.00000000000E+00  0.10791237240E+03  0.26006498463E+04  0.25984100029E+04 0.  0.
        3    1    3    3  502    0  0.29830589716E+03  0.10343201833E+04  0.78199574075E+03  0.13305344785E+04  0.10100000352E+00 0.  1.
       -3    1    3    3    0  502 -0.29830589716E+03 -0.10343201833E+04 -0.67408336835E+03  0.12701153678E+04  0.10100000352E+00 0. -1.
</event>
<event>
 5   0  0.1100104E-06  0.2603285E+04  0.7818609E-02  0.8367086E-01
       -1   -1    0    0    0  501  0.00000000000E+00  0.00000000000E+00  0.65215925913E+03  0.65215925915E+03  0.50400001928E-02 0.  1.
        1   -1    0    0  501    0  0.00000000000E+00  0.00000000000E+00 -0.25979433493E+04  0.25979433493E+04  0.50400001928E-02 0. -1.
    10030    2    1    2    0    0  0.00000000000E+00  0.00000000000E+00 -0.19457840902E+04  0.32501026085E+04  0.26032847021E+04 0.  0.
        4    1    3    3  502    0 -0.38752163464E+03 -0.12127061905E+04 -0.13112273238E+04  0.18276071869E+04  0.12699999809E+01 0. -1.
       -4    1    3    3    0  502  0.38752163464E+03  0.12127061905E+04 -0.63455676636E+03  0.14224954216E+04  0.12699999809E+01 0.  1.
</event>
<event>
 5   0  0.2820028E-06  0.2597349E+04  0.7818609E-02  0.8369102E-01
       -2   -1    0    0    0  501  0.00000000000E+00  0.00000000000E+00  0.11432430420E+04  0.11432430421E+04  0.25500000920E-02 0.  1.
        2   -1    0    0  501    0  0.00000000000E+00  0.00000000000E+00 -0.14752374155E+04  0.14752374155E+04  0.25500000920E-02 0. -1.
    10030    2    1    2    0    0  0.00000000000E+00  0.00000000000E+00 -0.33199437350E+03  0.26184804576E+04  0.25973485794E+04 0.  0.
        3    1    3    3  502    0  0.40927444264E+03  0.12099996194E+04  0.70324699209E+02  0.12792772263E+04  0.10100000352E+00 0. -1.
       -3    1    3    3    0  502 -0.40927444264E+03 -0.12099996194E+04 -0.40231907270E+03  0.13392032313E+04  0.10100000352E+00 0.  1.
</event>
<event>
 5   0  0.1122628E-06  0.2632488E+04  0.7818609E-02  0.8357249E-01
        1   -1    0    0  501    0  0.00000000000E+00  0.00000000000E+00  0.83161746672E+03  0.83161746674E+03  0.50400001928E-02 0.  1.
       -1   -1    0    0    0  501  0.00000000000E+00  0.00000000000E+00 -0.20832881336E+04  0.20832881336E+04  0.50400001928E-02 0. -1.
    10030    2    1    2    0    0  0.00000000000E+00  0.00000000000E+00 -0.12516706669E+04  0.29149056003E+04  0.26324884046E+04 0.  0.
        2    1    3    3  502    0 -0.41082334227E+03 -0.11920175624E+04 -0.10442897461E+04  0.16371385895E+04  0.25500000920E-02 0.  1.
       -2    1    3    3    0  502  0.41082334227E+03  0.11920175624E+04 -0.20738092075E+03  0.12777670108E+04  0.25500000920E-02 0. -1.
</event>
<event>
 5   0  0.1055179E-06  0.2591830E+04  0.7818609E-02  0.8370982E-01
        1   -1    0    0  501    0  0.00000000000E+00  0.00000000000E+00  0.15488014386E+04  0.15488014386E+04  0.50400001928E-02 0.  1.
       -1   -1    0    0    0  501  0.00000000000E+00  0.00000000000E+00 -0.10843192527E+04  0.10843192527E+04  0.50400001928E-02 0. -1.
    10030    2    1    2    0    0  0.00000000000E+00  0.00000000000E+00  0.46448218590E+03  0.26331206914E+04  0.25918296384E+04 0.  0.
        3    1    3    3  502    0 -0.56388252228E+03 -0.27627225461E+03 -0.91944382605E+03  0.11134032590E+04  0.10100000352E+00 0. -1.
       -3    1    3    3    0  502  0.56388252228E+03  0.27627225461E+03  0.13839260120E+04  0.15197174324E+04  0.10100000352E+00 0.  1.
</event>
<event>
 5   0  0.1122628E-06  0.2597116E+04  0.7818609E-02  0.8369182E-01
        1   -1    0    0  501    0  0.00000000000E+00  0.00000000000E+00  0.13094982122E+04  0.13094982122E+04  0.50400001928E-02 0. -1.
       -1   -1    0    0    0  501  0.00000000000E+00  0.00000000000E+00 -0.12877090513E+04  0.12877090513E+04  0.50400001928E-02 0.  1.
    10030    2    1    2    0    0  0.00000000000E+00  0.00000000000E+00  0.21789160907E+02  0.25972072635E+04  0.25971158623E+04 0.  0.
        2    1    3    3  502    0  0.59385500640E+03 -0.81117361317E+03  0.83286407764E+03  0.13054995102E+04  0.25500000920E-02 0. -1.
       -2    1    3    3    0  502 -0.59385500640E+03  0.81117361317E+03 -0.81107491673E+03  0.12917077533E+04  0.25500000920E-02 0.  1.
</event>
<event>
 5   0  0.2586775E-06  0.2600470E+04  0.7818609E-02  0.8368041E-01
        2   -1    0    0  501    0  0.00000000000E+00  0.00000000000E+00  0.12470025041E+04  0.12470025041E+04  0.25500000920E-02 0. -1.
       -2   -1    0    0    0  501  0.00000000000E+00  0.00000000000E+00 -0.13557403573E+04  0.13557403573E+04  0.25500000920E-02 0.  1.
    10030    2    1    2    0    0  0.00000000000E+00  0.00000000000E+00 -0.10873785315E+03  0.26027428614E+04  0.26004704347E+04 0.  0.
        1    1    3    3  502    0  0.66208116150E+03  0.11182342450E+04 -0.11760262961E+02  0.12995913184E+04  0.50400001928E-02 0.  1.
       -1    1    3    3    0  502 -0.66208116150E+03 -0.11182342450E+04 -0.96977590187E+02  0.13031515430E+04  0.50400001928E-02 0. -1.
</event>
<event>
 5   0  0.1032076E-06  0.2596213E+04  0.7818609E-02  0.8369489E-01
        1   -1    0    0  501    0  0.00000000000E+00  0.00000000000E+00  0.14089365836E+04  0.14089365836E+04  0.50400001928E-02 0.  1.
       -1   -1    0    0    0  501  0.00000000000E+00  0.00000000000E+00 -0.11959947620E+04  0.11959947620E+04  0.50400001928E-02 0. -1.
    10030    2    1    2    0    0  0.00000000000E+00  0.00000000000E+00  0.21294182158E+03  0.26049313456E+04  0.25962132223E+04 0.  0.
        1    1    3    3  502    0 -0.10057234071E+04  0.17702304183E+03 -0.69763402774E+03  0.12367335871E+04  0.50400001928E-02 0. -1.
       -1    1    3    3    0  502  0.10057234071E+04 -0.17702304183E+03  0.91057584932E+03  0.13681977585E+04  0.50400001928E-02 0.  1.
</event>
<event>
 5   0  0.2746631E-06  0.2597063E+04  0.7818609E-02  0.8369199E-01
        2   -1    0    0  501    0  0.00000000000E+00  0.00000000000E+00  0.18334262885E+04  0.18334262885E+04  0.25500000920E-02 0.  1.
       -2   -1    0    0    0  501  0.00000000000E+00  0.00000000000E+00 -0.91969023289E+03  0.91969023289E+03  0.25500000920E-02 0. -1.
    10030    2    1    2    0    0  0.00000000000E+00  0.00000000000E+00  0.91373605564E+03  0.27531165214E+04  0.25970631492E+04 0.  0.
        2    1    3    3  502    0 -0.22850094772E+03 -0.11896665224E+04  0.95258278945E+03  0.15410817916E+04  0.25500000920E-02 0. -1.
       -2    1    3    3    0  502  0.22850094772E+03  0.11896665224E+04 -0.38846733811E+02  0.12120347298E+04  0.25500000920E-02 0.  1.
</event>
<event>
 5   0  0.1088757E-06  0.2553625E+04  0.7818609E-02  0.8384127E-01
       -1   -1    0    0    0  501  0.00000000000E+00  0.00000000000E+00  0.89612601553E+03  0.89612601554E+03  0.50400001928E-02 0.  1.
        1   -1    0    0  501    0  0.00000000000E+00  0.00000000000E+00 -0.18192196552E+04  0.18192196552E+04  0.50400001928E-02 0. -1.
    10030    2    1    2    0    0  0.00000000000E+00  0.00000000000E+00 -0.92309363969E+03  0.27153456708E+04  0.25536249224E+04 0.  0.
        5    1    3    3  502    0 -0.55957162888E+03 -0.85851522535E+03 -0.12713960335E+04  0.16329846185E+04  0.46999998093E+01 0. -1.
       -5    1    3    3    0  502  0.55957162888E+03  0.85851522535E+03  0.34830239385E+03  0.10823610523E+04  0.46999998093E+01 0.  1.
</event>
<event>
 5   0  0.1032076E-06  0.2629240E+04  0.7818609E-02  0.8358336E-01
        1   -1    0    0  501    0  0.00000000000E+00  0.00000000000E+00  0.15870048048E+04  0.15870048048E+04  0.50400001928E-02 0.  1.
       -1   -1    0    0    0  501  0.00000000000E+00  0.00000000000E+00 -0.10889861512E+04  0.10889861512E+04  0.50400001928E-02 0. -1.
    10030    2    1    2    0    0  0.00000000000E+00  0.00000000000E+00  0.49801865360E+03  0.26759909560E+04  0.26292403879E+04 0.  0.
        1    1    3    3  502    0 -0.66044340229E+03 -0.11329976674E+04  0.15596692648E+03  0.13206797054E+04  0.50400001928E-02 0. -1.
       -1    1    3    3    0  502  0.66044340229E+03  0.11329976674E+04  0.34205172713E+03  0.13553112506E+04  0.50400001928E-02 0.  1.
</event>
<event>
 5   0  0.1055179E-06  0.2604158E+04  0.7818609E-02  0.8366790E-01
       -1   -1    0    0    0  501  0.00000000000E+00  0.00000000000E+00  0.99594890923E+03  0.99594890924E+03  0.50400001928E-02 0. -1.
        1   -1    0    0  501    0  0.00000000000E+00  0.00000000000E+00 -0.17023055297E+04  0.17023055297E+04  0.50400001928E-02 0.  1.
    10030    2    1    2    0    0  0.00000000000E+00  0.00000000000E+00 -0.70635662043E+03  0.26982544389E+04  0.26041577030E+04 0.  0.
        3    1    3    3  502    0 -0.55321655226E+03 -0.87173550240E+03  0.46886006760E+03  0.11339317056E+04  0.10100000352E+00 0. -1.
       -3    1    3    3    0  502  0.55321655226E+03  0.87173550240E+03 -0.11752166880E+04  0.15643227333E+04  0.10100000352E+00 0.  1.
</event>
<event>
 5   0  0.2820028E-06  0.2654164E+04  0.7818609E-02  0.8350032E-01
       -2   -1    0    0    0  501  0.00000000000E+00  0.00000000000E+00  0.10627565958E+04  0.10627565958E+04  0.25500000920E-02 0.  1.
        2   -1    0    0  501    0  0.00000000000E+00  0.00000000000E+00 -0.16571500303E+04  0.16571500303E+04  0.25500000920E-02 0. -1.
    10030    2    1    2    0    0  0.00000000000E+00  0.00000000000E+00 -0.59439343446E+03  0.27199066261E+04  0.26541643694E+04 0.  0.
        3    1    3    3  502    0 -0.18480303975E+03  0.15201956299E+03 -0.16348585038E+04  0.16522785627E+04  0.10100000352E+00 0. -1.
       -3    1    3    3    0  502  0.18480303975E+03 -0.15201956299E+03  0.10404650694E+04  0.10676280634E+04  0.10100000352E+00 0.  1.
</event>
<event>
 5   0  0.2705807E-06  0.2598631E+04  0.7818609E-02  0.8368666E-01
        2   -1    0    0  501    0  0.00000000000E+00  0.00000000000E+00  0.11930261629E+04  0.11930261629E+04  0.25500000920E-02 0. -1.
       -2   -1    0    0    0  501  0.00000000000E+00  0.00000000000E+00 -0.14150747440E+04  0.14150747440E+04  0.25500000920E-02 0.  1.
    10030    2    1    2    0    0  0.00000000000E+00  0.00000000000E+00 -0.22204858103E+03  0.26081009069E+04  0.25986313259E+04 0.  0.
        4    1    3    3  502    0 -0.47522866078E+03  0.98700702427E+01 -0.13246785181E+04  0.14073785871E+04  0.12699999809E+01 0.  1.
       -4    1    3    3    0  502  0.47522866078E+03 -0.98700702427E+01  0.11026299370E+04  0.12007223198E+04  0.12699999809E+01 0. -1.
</event>
<event>
 5   0  0.1032076E-06  0.2602791E+04  0.7818609E-02  0.8367254E-01
       -1   -1    0    0    0  501  0.00000000000E+00  0.00000000000E+00  0.10076492438E+04  0.10076492438E+04  0.50400001928E-02 0.  1.
        1   -1    0    0  501    0  0.00000000000E+00  0.00000000000E+00 -0.16807738981E+04  0.16807738981E+04  0.50400001928E-02 0. -1.
    10030    2    1    2    0    0  0.00000000000E+00  0.00000000000E+00 -0.67312465428E+03  0.26884231419E+04  0.26027912306E+04 0.  0.
        1    1    3    3  502    0  0.73906778010E+03 -0.79515811101E+03 -0.10779032121E+04  0.15298277484E+04  0.50400001928E-02 0. -1.
       -1    1    3    3    0  502 -0.73906778010E+03  0.79515811101E+03  0.40477855780E+03  0.11585953936E+04  0.50400001928E-02 0.  1.
</event>
<event>
 5   0  0.1088757E-06  0.2599941E+04  0.7818609E-02  0.8368221E-01
       -1   -1    0    0    0  501  0.00000000000E+00  0.00000000000E+00  0.73621211884E+03  0.73621211886E+03  0.50400001928E-02 0.  1.
        1   -1    0    0  501    0  0.00000000000E+00  0.00000000000E+00 -0.22954290409E+04  0.22954290409E+04  0.50400001928E-02 0. -1.
    10030    2    1    2    0    0  0.00000000000E+00  0.00000000000E+00 -0.15592169220E+04  0.30316411598E+04  0.25999405208E+04 0.  0.
        5    1    3    3  502    0  0.52048110284E+03 -0.44599858660E+03 -0.20675895133E+04  0.21782478746E+04  0.46999998093E+01 0. -1.
       -5    1    3    3    0  502 -0.52048110284E+03  0.44599858660E+03  0.50837259124E+03  0.85339328518E+03  0.46999998093E+01 0.  1.
</event>
<event>
 5   0  0.2820028E-06  0.2598098E+04  0.7818609E-02  0.8368848E-01
        2   -1    0    0  501    0  0.00000000000E+00  0.00000000000E+00  0.16852887869E+04  0.16852887869E+04  0.25500000920E-02 0. -1.
       -2   -1    0    0    0  501  0.00000000000E+00  0.00000000000E+00 -0.10013285398E+04  0.10013285398E+04  0.25500000920E-02 0.  1.
    10030    2    1    2    0    0  0.00000000000E+00  0.00000000000E+00  0.68396024704E+03  0.26866173267E+04  0.25980975811E+04 0.  0.
        3    1    3    3  502    0  0.77560384303E+03 -0.71695068423E+03 -0.44005936078E+03  0.11442166998E+04  0.10100000352E+00 0. -1.
       -3    1    3    3    0  502 -0.77560384303E+03  0.71695068423E+03  0.11240196078E+04  0.15424006269E+04  0.10100000352E+00 0.  1.
</event>
<event>
 5   0  0.1100104E-06  0.2600460E+04  0.7818609E-02  0.8368045E-01
       -1   -1    0    0    0  501  0.00000000000E+00  0.00000000000E+00  0.70356444153E+03  0.70356444155E+03  0.50400001928E-02 0. -1.
        1   -1    0    0  501    0  0.00000000000E+00  0.00000000000E+00 -0.24029052376E+04  0.24029052376E+04  0.50400001928E-02 0.  1.
    10030    2    1    2    0    0  0.00000000000E+00  0.00000000000E+00 -0.16993407961E+04  0.31064696791E+04  0.26004604835E+04 0.  0.
        4    1    3    3  502    0 -0.11480479507E+04  0.54346121210E+03 -0.51768576414E+03  0.13716283569E+04  0.12699999809E+01 0. -1.
       -4    1    3    3    0  502  0.11480479507E+04 -0.54346121210E+03 -0.11816550319E+04  0.17348413223E+04  0.12699999809E+01 0.  1.
</event>
<event>
 5   0  0.2820028E-06  0.2599509E+04  0.7818609E-02  0.8368368E-01
       -2   -1    0    0    0  501  0.00000000000E+00  0.00000000000E+00  0.93819561602E+03  0.93819561602E+03  0.25500000920E-02 0. -1.
        2   -1    0    0  501    0  0.00000000000E+00  0.00000000000E+00 -0.18006497591E+04  0.18006497591E+04  0.25500000920E-02 0.  1.
    10030    2    1    2    0    0  0.00000000000E+00  0.00000000000E+00 -0.86245414311E+03  0.27388453751E+04  0.25995089613E+04 0.  0.
        3    1    3    3  502    0 -0.12885527403E+04 -0.59622346533E+02 -0.59927135639E+03  0.14223393257E+04  0.10100000352E+00 0.  1.
       -3    1    3    3    0  502  0.12885527403E+04  0.59622346533E+02 -0.26318278672E+03  0.13165060494E+04  0.10100000352E+00 0. -1.
</event>
<event>
 5   0  0.1088757E-06  0.2622870E+04  0.7818609E-02  0.8360474E-01
       -1   -1    0    0    0  501  0.00000000000E+00  0.00000000000E+00  0.12080668166E+04  0.12080668166E+04  0.50400001928E-02 0.  1.
        1   -1    0    0  501    0  0.00000000000E+00  0.00000000000E+00 -0.14236475272E+04  0.14236475272E+04  0.50400001928E-02 0. -1.
    10030    2    1    2    0    0  0.00000000000E+00  0.00000000000E+00 -0.21558071055E+03  0.26317143438E+04  0.26228696774E+04 0.  0.
        5    1    3    3  502    0  0.12548073270E+04  0.30436086566E+03  0.12246612973E+03  0.12969953768E+04  0.46999998093E+01 0. -1.
       -5    1    3    3    0  502 -0.12548073270E+04 -0.30436086566E+03 -0.33804684028E+03  0.13347189670E+04  0.46999998093E+01 0.  1.
</event>
<event>
 5   0  0.1122628E-06  0.2600077E+04  0.7818609E-02  0.8368175E-01
        1   -1    0    0  501    0  0.00000000000E+00  0.00000000000E+00  0.16872897337E+04  0.16872897337E+04  0.50400001928E-02 0.  1.
       -1   -1    0    0    0  501  0.00000000000E+00  0.00000000000E+00 -0.10016659075E+04  0.10016659075E+04  0.50400001928E-02 0. -1.
    10030    2    1    2    0    0  0.00000000000E+00  0.00000000000E+00  0.68562382616E+03  0.26889556412E+04  0.26000773853E+04 0.  0.
        2    1    3    3  502    0  0.51577450742E+03  0.79273231028E+03 -0.57967273293E+03  0.11092647725E+04  0.25500000920E-02 0. -1.
       -2    1    3    3    0  502 -0.51577450742E+03 -0.79273231028E+03  0.12652965591E+04  0.15796908687E+04  0.25500000920E-02 0.  1.
</event>
<event>
 5   0  0.2623368E-06  0.2595359E+04  0.7818609E-02  0.8369779E-01
        2   -1    0    0  501    0  0.00000000000E+00  0.00000000000E+00  0.15102875556E+04  0.15102875556E+04  0.25500000920E-02 0. -1.
       -2   -1    0    0    0  501  0.00000000000E+00  0.00000000000E+00 -0.11150006090E+04  0.11150006090E+04  0.25500000920E-02 0.  1.
    10030    2    1    2    0    0  0.00000000000E+00  0.00000000000E+00  0.39528694662E+03  0.26252881647E+04  0.25953585836E+04 0.  0.
        5    1    3    3  502    0  0.23786569038E+03 -0.81575096076E+03 -0.79444185914E+03  0.11632668113E+04  0.46999998093E+01 0.  1.
       -5    1    3    3    0  502 -0.23786569038E+03  0.81575096076E+03  0.11897288058E+04  0.14620213534E+04  0.46999998093E+01 0. -1.
</event>
<event>
 5   0  0.1032076E-06  0.2599353E+04  0.7818609E-02  0.8368421E-01
       -1   -1    0    0    0  501  0.00000000000E+00  0.00000000000E+00  0.12561268631E+04  0.12561268631E+04  0.50400001928E-02 0. -1.
        1   -1    0    0  501    0  0.00000000000E+00  0.00000000000E+00 -0.13447357464E+04  0.13447357464E+04  0.50400001928E-02 0.  1.
    10030    2    1    2    0    0  0.00000000000E+00  0.00000000000E+00 -0.88608883373E+02  0.26008626095E+04  0.25993527616E+04 0.  0.
        1    1    3    3  502    0  0.57376198656E+03 -0.95133706242E+03 -0.71916909686E+03  0.13234232934E+04  0.50400001928E-02 0.  1.
       -1    1    3    3    0  502 -0.57376198656E+03  0.95133706242E+03  0.63056021348E+03  0.12774393161E+04  0.50400001928E-02 0. -1.
</event>
<event>
 5   0  0.1032076E-06  0.2599950E+04  0.7818609E-02  0.8368218E-01
       -1   -1    0    0    0  501  0.00000000000E+00  0.00000000000E+00  0.13816101874E+04  0.13816101875E+04  0.50400001928E-02 0. -1.
        1   -1    0    0  501    0  0.00000000000E+00  0.00000000000E+00 -0.12231632022E+04  0.12231632022E+04  0.50400001928E-02 0.  1.
    10030    2    1    2    0    0  0.00000000000E+00  0.00000000000E+00  0.15844698523E+03  0.26047733897E+04  0.25999498004E+04 0.  0.
        1    1    3    3  502    0 -0.11556091132E+04 -0.71728478004E+02  0.67138465796E+03  0.13384075448E+04  0.50400001928E-02 0. -1.
       -1    1    3    3    0  502  0.11556091132E+04  0.71728478004E+02 -0.51293767273E+03  0.12663658449E+04  0.50400001928E-02 0.  1.
</event>
<event>
 5   0  0.2820028E-06  0.2591533E+04  0.7818609E-02  0.8371083E-01
       -2   -1    0    0    0  501  0.00000000000E+00  0.00000000000E+00  0.84521823522E+03  0.84521823523E+03  0.25500000920E-02 0.  1.
        2   -1    0    0  501    0  0.00000000000E+00  0.00000000000E+00 -0.19864826405E+04  0.19864826405E+04  0.25500000920E-02 0. -1.
    10030    2    1    2    0    0  0.00000000000E+00  0.00000000000E+00 -0.11412644053E+04  0.28317008758E+04  0.25915334084E+04 0.  0.
        3    1    3    3  502    0 -0.46067797948E+03 -0.63938995608E+03  0.55326541912E+03  0.96288439125E+03  0.10100000352E+00 0.  1.
       -3    1    3    3    0  502  0.46067797948E+03  0.63938995608E+03 -0.16945298244E+04  0.18688164845E+04  0.10100000352E+00 0. -1.
</event>
<event>
 5   0  0.1100104E-06  0.2610419E+04  0.7818609E-02  0.8364671E-01
        1   -1    0    0  501    0  0.00000000000E+00  0.00000000000E+00  0.14335015600E+04  0.14335015600E+04  0.50400001928E-02 0. -1.
       -1   -1    0    0    0  501  0.00000000000E+00  0.00000000000E+00 -0.11883993197E+04  0.11883993197E+04  0.50400001928E-02 0.  1.
    10030    2    1    2    0    0  0.00000000000E+00  0.00000000000E+00  0.24510224031E+03  0.26219008797E+04  0.26104193369E+04 0.  0.
        4    1    3    3  502    0 -0.49519469189E+03 -0.22872982576E+03 -0.10684279847E+04  0.11996145579E+04  0.12699999809E+01 0.  1.
       -4    1    3    3    0  502  0.49519469189E+03  0.22872982576E+03  0.13135302250E+04  0.14222863218E+04  0.12699999809E+01 0. -1.
</event>
<event>
 5   0  0.1032076E-06  0.2586200E+04  0.7818609E-02  0.8372904E-01
        1   -1    0    0  501    0  0.00000000000E+00  0.00000000000E+00  0.15242731417E+04  0.15242731417E+04  0.50400001928E-02 0.  1.
       -1   -1    0    0    0  501  0.00000000000E+00  0.00000000000E+00 -0.10969867536E+04  0.10969867536E+04  0.50400001928E-02 0. -1.
    10030    2    1    2    0    0  0.00000000000E+00  0.00000000000E+00  0.42728638810E+03  0.26212598954E+04  0.25861998727E+04 0.  0.
        1    1    3    3  502    0  0.87662469945E+03 -0.46753117800E+03 -0.62525547641E+03  0.11738827356E+04  0.50400001928E-02 0. -1.
       -1    1    3    3    0  502 -0.87662469945E+03  0.46753117800E+03  0.10525418645E+04  0.14473771598E+04  0.50400001928E-02 0.  1.
</event>
<event>
 5   0  0.2623368E-06  0.2602169E+04  0.7818609E-02  0.8367465E-01
        2   -1    0    0  501    0  0.00000000000E+00  0.00000000000E+00  0.11912726394E+04  0.11912726394E+04  0.25500000920E-02 0.  1.
       -2   -1    0    0    0  501  0.00000000000E+00  0.00000000000E+00 -0.14210186801E+04  0.14210186802E+04  0.25500000920E-02 0. -1.
    10030    2    1    2    0    0  0.00000000000E+00  0.00000000000E+00 -0.22974604079E+03  0.26122913195E+04  0.26021688444E+04 0.  0.
        5    1    3    3  502    0  0.26132368603E+03  0.15247784253E+03  0.11554580763E+04  0.11944224619E+04  0.46999998093E+01 0.  1.
       -5    1    3    3    0  502 -0.26132368603E+03 -0.15247784253E+03 -0.13852041171E+04  0.14178688576E+04  0.46999998093E+01 0. -1.
</event>
<event>
 5   0  0.1088757E-06  0.2600418E+04  0.7818609E-02  0.8368059E-01
       -1   -1    0    0    0  501  0.00000000000E+00  0.00000000000E+00  0.10856107344E+04  0.10856107345E+04  0.50400001928E-02 0. -1.
        1   -1    0    0  501    0  0.00000000000E+00  0.00000000000E+00 -0.15572276904E+04  0.15572276904E+04  0.50400001928E-02 0.  1.
    10030    2    1    2    0    0  0.00000000000E+00  0.00000000000E+00 -0.47161695598E+03  0.26428384249E+04  0.26004177332E+04 0.  0.
        5    1    3    3  502    0 -0.69728689965E+03 -0.91937037081E+03 -0.84480823511E+03  0.14300957811E+04  0.46999998093E+01 0.  1.
       -5    1    3    3    0  502  0.69728689965E+03  0.91937037081E+03  0.37319127913E+03  0.12127426437E+04  0.46999998093E+01 0. -1.
</event>
<event>
 5   0  0.2820028E-06  0.2600223E+04  0.7818609E-02  0.8368125E-01
       -2   -1    0    0    0  501  0.00000000000E+00  0.00000000000E+00  0.93208229657E+03  0.93208229657E+03  0.25500000920E-02 0. -1.
        2   -1    0    0  501    0  0.00000000000E+00  0.00000000000E+00 -0.18134559261E+04  0.18134559261E+04  0.25500000920E-02 0.  1.
    10030    2    1    2    0    0  0.00000000000E+00  0.00000000000E+00 -0.88137362950E+03  0.27455382226E+04  0.26002231937E+04 0.  0.
        3    1    3    3  502    0 -0.53277166625E+03 -0.11762474754E+04 -0.28094984484E+03  0.13214902940E+04  0.10100000352E+00 0.  1.
       -3    1    3    3    0  502  0.53277166625E+03  0.11762474754E+04 -0.60042378465E+03  0.14240479286E+04  0.10100000352E+00 0. -1.
</event>
<event>
 5   0  0.1122628E-06  0.2600761E+04  0.7818609E-02  0.8367943E-01
        1   -1    0    0  501    0  0.00000000000E+00  0.00000000000E+00  0.12585704776E+04  0.12585704776E+04  0.50400001928E-02 0. -1.
       -1   -1    0    0    0  501  0.00000000000E+00  0.00000000000E+00 -0.13435792071E+04  0.13435792072E+04  0.50400001928E-02 0.  1.
    10030    2    1    2    0    0  0.00000000000E+00  0.00000000000E+00 -0.85008729529E+02  0.26021496848E+04  0.26007607537E+04 0.  0.
        2    1    3    3  502    0 -0.81676297827E+02 -0.12457564718E+04 -0.40657905912E+03  0.13129686729E+04  0.25500000920E-02 0.  1.
       -2    1    3    3    0  502  0.81676297827E+02  0.12457564718E+04  0.32157032959E+03  0.12891810119E+04  0.25500000920E-02 0. -1.
</event>
<event>
 5   0  0.1100104E-06  0.2614394E+04  0.7818609E-02  0.8363328E-01
       -1   -1    0    0    0  501  0.00000000000E+00  0.00000000000E+00  0.14497429783E+04  0.14497429784E+04  0.50400001928E-02 0. -1.
        1   -1    0    0  501    0  0.00000000000E+00  0.00000000000E+00 -0.11786669815E+04  0.11786669815E+04  0.50400001928E-02 0.  1.
    10030    2    1    2    0    0  0.00000000000E+00  0.00000000000E+00  0.27107599681E+03  0.26284099599E+04  0.26143941404E+04 0.  0.
        4    1    3    3  502    0  0.48591914581E+03 -0.93595080174E+03  0.91210454873E+03  0.13942946748E+04  0.12699999809E+01 0. -1.
       -4    1    3    3    0  502 -0.48591914581E+03  0.93595080174E+03 -0.64102855192E+03  0.12341152851E+04  0.12699999809E+01 0.  1.
</event>
<event>
 5   0  0.1032076E-06  0.2598508E+04  0.7818609E-02  0.8368708E-01
        1   -1    0    0  501    0  0.00000000000E+00  0.00000000000E+00  0.14452181145E+04  0.14452181145E+04  0.50400001928E-02 0.  1.
       -1   -1    0    0    0  501  0.00000000000E+00  0.00000000000E+00 -0.11680317221E+04  0.11680317221E+04  0.50400001928E-02 0. -1.
    10030    2    1    2    0    0  0.00000000000E+00  0.00000000000E+00  0.27718639241E+03  0.26132498366E+04  0.25985077280E+04 0.  0.
        1    1    3    3  502    0  0.10318484365E+04  0.18570645965E+03  0.91032051623E+03  0.13884817346E+04  0.50400001928E-02 0.  1.
       -1    1    3    3    0  502 -0.10318484365E+04 -0.18570645965E+03 -0.63313412382E+03  0.12247681020E+04  0.50400001928E-02 0. -1.
</event>
<event>
 5   0  0.1100104E-06  0.2526980E+04  0.7818609E-02  0.8393437E-01
       -1   -1    0    0    0  501  0.00000000000E+00  0.00000000000E+00  0.15468645953E+04  0.15468645953E+04  0.50400001928E-02 0.  1.
        1   -1    0    0  501    0  0.00000000000E+00  0.00000000000E+00 -0.10320272655E+04  0.10320272655E+04  0.50400001928E-02 0. -1.
    10030    2    1    2    0    0  0.00000000000E+00  0.00000000000E+00  0.51483732981E+03  0.25788918608E+04  0.25269795713E+04 0.  0.
        4    1    3    3  502    0  0.29380079331E+03 -0.58183999676E+03  0.13620350208E+04  0.15099661251E+04  0.12699999809E+01 0.  1.
       -4    1    3    3    0  502 -0.29380079331E+03  0.58183999676E+03 -0.84719769104E+03  0.10689257358E+04  0.12699999809E+01 0. -1.
</event>
<event>
 5   0  0.2746631E-06  0.2599392E+04  0.7818609E-02  0.8368408E-01
        2   -1    0    0  501    0  0.00000000000E+00  0.00000000000E+00  0.21763708113E+04  0.21763708113E+04  0.25500000920E-02 0.  1.
       -2   -1    0    0    0  501  0.00000000000E+00  0.00000000000E+00 -0.77615878120E+03  0.77615878120E+03  0.25500000920E-02 0. -1.
    10030    2    1    2    0    0  0.00000000000E+00  0.00000000000E+00  0.14002120301E+04  0.29525295925E+04  0.25993917106E+04 0.  0.
        2    1    3    3  502    0  0.50259723512E+03  0.12862126790E+03 -0.65344979699E+03  0.83435247258E+03  0.25500000920E-02 0. -1.
       -2    1    3    3    0  502 -0.50259723512E+03 -0.12862126790E+03  0.20536618271E+04  0.21181771199E+04  0.25500000920E-02 0.  1.
</event>
<event>
 5   0  0.2586775E-06  0.2586829E+04  0.7818609E-02  0.8372689E-01
       -2   -1    0    0    0  501  0.00000000000E+00  0.00000000000E+00  0.15973225639E+04  0.15973225639E+04  0.25500000920E-02 0. -1.
        2   -1    0    0  501    0  0.00000000000E+00  0.00000000000E+00 -0.10473285049E+04  0.10473285049E+04  0.25500000920E-02 0.  1.
    10030    2    1    2    0    0  0.00000000000E+00  0.00000000000E+00  0.54999405906E+03  0.26446510688E+04  0.25868292968E+04 0.  0.
        1    1    3    3  502    0  0.22817610030E+03  0.46201764944E+03 -0.93785799177E+03  0.10700945070E+04  0.50400001928E-02 0.  1.
       -1    1    3    3    0  502 -0.22817610030E+03 -0.46201764944E+03  0.14878520508E+04  0.15745565618E+04  0.50400001928E-02 0. -1.
</event>
<event>
 5   0  0.2820028E-06  0.2651377E+04  0.7818609E-02  0.8350956E-01
       -2   -1    0    0    0  501  0.00000000000E+00  0.00000000000E+00  0.16805357927E+04  0.16805357927E+04  0.25500000920E-02 0. -1.
        2   -1    0    0  501    0  0.00000000000E+00  0.00000000000E+00 -0.10457673362E+04  0.10457673362E+04  0.25500000920E-02 0.  1.
    10030    2    1    2    0    0  0.00000000000E+00  0.00000000000E+00  0.63476845649E+03  0.27263031290E+04  0.26513765779E+04 0.  0.
        3    1    3    3  502    0  0.11001851489E+04  0.55495223069E+03  0.82014958891E+03  0.14802110318E+04  0.10100000352E+00 0.  1.
       -3    1    3    3    0  502 -0.11001851489E+04 -0.55495223069E+03 -0.18538113242E+03  0.12460920972E+04  0.10100000352E+00 0. -1.
</event>
<event>
 5   0  0.2586775E-06  0.2599071E+04  0.7818609E-02  0.8368517E-01
        2   -1    0    0  501    0  0.00000000000E+00  0.00000000000E+00  0.13905251710E+04  0.13905251710E+04  0.25500000920E-02 0. -1.
       -2   -1    0    0    0  501  0.00000000000E+00  0.00000000000E+00 -0.12144998271E+04  0.12144998271E+04  0.25500000920E-02 0.  1.
    10030    2    1    2    0    0  0.00000000000E+00  0.00000000000E+00  0.17602534383E+03  0.26050249981E+04  0.25990710493E+04 0.  0.
        1    1    3    3  502    0  0.60065650559E+03 -0.31324626617E+03  0.11995532215E+04  0.13776209174E+04  0.50400001928E-02 0. -1.
       -1    1    3    3    0  502 -0.60065650559E+03  0.31324626617E+03 -0.10235278776E+04  0.12274040807E+04  0.50400001928E-02 0.  1.
</event>
<event>
 5   0  0.2705807E-06  0.2603477E+04  0.7818609E-02  0.8367021E-01
        2   -1    0    0  501    0  0.00000000000E+00  0.00000000000E+00  0.21707550042E+04  0.21707550042E+04  0.25500000920E-02 0.  1.
       -2   -1    0    0    0  501  0.00000000000E+00  0.00000000000E+00 -0.78061480617E+03  0.78061480617E+03  0.25500000920E-02 0. -1.
    10030    2    1    2    0    0  0.00000000000E+00  0.00000000000E+00  0.13901401981E+04  0.29513698104E+04  0.26034772877E+04 0.  0.
        4    1    3    3  502    0 -0.48737561948E+03  0.11339769570E+04  0.11639627832E+04  0.16965405115E+04  0.12699999809E+01 0.  1.
       -4    1    3    3    0  502  0.48737561948E+03 -0.11339769570E+04  0.22617741484E+03  0.12548292989E+04  0.12699999809E+01 0. -1.
</event>
<event>
 5   0  0.1055179E-06  0.2593553E+04  0.7818609E-02  0.8370394E-01
        1   -1    0    0  501    0  0.00000000000E+00  0.00000000000E+00  0.25536819396E+04  0.25536819396E+04  0.50400001928E-02 0. -1.
       -1   -1    0    0    0  501  0.00000000000E+00  0.00000000000E+00 -0.65851152327E+03  0.65851152329E+03  0.50400001928E-02 0.  1.
    10030    2    1    2    0    0  0.00000000000E+00  0.00000000000E+00  0.18951704164E+04  0.32121934629E+04  0.25935527633E+04 0.  0.
        3    1    3    3  502    0 -0.94973466680E+03 -0.78894002419E+03  0.14386537310E+04  0.18958235327E+04  0.10100000352E+00 0. -1.
       -3    1    3    3    0  502  0.94973466680E+03  0.78894002419E+03  0.45651668534E+03  0.13163699303E+04  0.10100000352E+00 0.  1.
</event>
<event>
 5   0  0.1032076E-06  0.2599365E+04  0.7818609E-02  0.8368417E-01
       -1   -1    0    0    0  501  0.00000000000E+00  0.00000000000E+00  0.11692682118E+04  0.11692682118E+04  0.50400001928E-02 0. -1.
        1   -1    0    0  501    0  0.00000000000E+00  0.00000000000E+00 -0.14446427245E+04  0.14446427245E+04  0.50400001928E-02 0.  1.
    10030    2    1    2    0    0  0.00000000000E+00  0.00000000000E+00 -0.27537451264E+03  0.26139109363E+04  0.25993651650E+04 0.  0.
        1    1    3    3  502    0  0.88035229033E+03 -0.54325828159E+03  0.65349697075E+03  0.12236045139E+04  0.50400001928E-02 0. -1.
       -1    1    3    3    0  502 -0.88035229033E+03  0.54325828159E+03 -0.92887148338E+03  0.13903064224E+04  0.50400001928E-02 0.  1.
</event>
<event>
 5   0  0.1088757E-06  0.2599672E+04  0.7818609E-02  0.8368312E-01
       -1   -1    0    0    0  501  0.00000000000E+00  0.00000000000E+00  0.10936974444E+04  0.10936974444E+04  0.50400001928E-02 0.  1.
        1   -1    0    0  501    0  0.00000000000E+00  0.00000000000E+00 -0.15448277476E+04  0.15448277476E+04  0.50400001928E-02 0. -1.
    10030    2    1    2    0    0  0.00000000000E+00  0.00000000000E+00 -0.45113030317E+03  0.26385251920E+04  0.25996724098E+04 0.  0.
        5    1    3    3  502    0  0.30775493775E+03  0.24046016524E+03  0.10327287141E+04  0.11041217685E+04  0.46999998093E+01 0.  1.
       -5    1    3    3    0  502 -0.30775493775E+03 -0.24046016524E+03 -0.14838590173E+04  0.15344034235E+04  0.46999998093E+01 0. -1.
</event>
<event>
 5   0  0.1032076E-06  0.2594060E+04  0.7818609E-02  0.8370222E-01
        1   -1    0    0  501    0  0.00000000000E+00  0.00000000000E+00  0.12349991523E+04  0.12349991523E+04  0.50400001928E-02 0.  1.
       -1   -1    0    0    0  501  0.00000000000E+00  0.00000000000E+00 -0.13621767825E+04  0.13621767825E+04  0.50400001928E-02 0. -1.
    10030    2    1    2    0    0  0.00000000000E+00  0.00000000000E+00 -0.12717763013E+03  0.25971759348E+04  0.25940602705E+04 0.  0.
        1    1    3    3  502    0 -0.68351744216E+03 -0.10852496029E+04  0.12983840655E+03  0.12891162888E+04  0.50400001928E-02 0.  1.
       -1    1    3    3    0  502  0.68351744216E+03  0.10852496029E+04 -0.25701603668E+03  0.13080596460E+04  0.50400001928E-02 0. -1.
</event>
<event>
 5   0  0.1100104E-06  0.2594274E+04  0.7818609E-02  0.8370149E-01
        1   -1    0    0  501    0  0.00000000000E+00  0.00000000000E+00  0.16194794365E+04  0.16194794365E+04  0.50400001928E-02 0. -1.
       -1   -1    0    0    0  501  0.00000000000E+00  0.00000000000E+00 -0.10389538202E+04  0.10389538202E+04  0.50400001928E-02 0.  1.
    10030    2    1    2    0    0  0.00000000000E+00  0.00000000000E+00  0.58052561627E+03  0.26584332567E+04  0.25942739618E+04 0.  0.
        4    1    3    3  502    0 -0.63921022361E+03 -0.81353185141E+03 -0.51147974001E+03  0.11541390387E+04  0.12699999809E+01 0.  1.
       -4    1    3    3    0  502  0.63921022361E+03  0.81353185141E+03  0.10920053563E+04  0.15042942180E+04  0.12699999809E+01 0. -1.
</event>
<event>
 5   0  0.1055179E-06  0.2601490E+04  0.7818609E-02  0.8367695E-01
       -1   -1    0    0    0  501  0.00000000000E+00  0.00000000000E+00  0.14612495459E+04  0.14612495459E+04  0.50400001928E-02 0. -1.
        1   -1    0    0  501    0  0.00000000000E+00  0.00000000000E+00 -0.11578699875E+04  0.11578699875E+04  0.50400001928E-02 0.  1.
    10030    2    1    2    0    0  0.00000000000E+00  0.00000000000E+00  0.30337955835E+03  0.26191195334E+04  0.26014895683E+04 0.  0.
        3    1    3    3  502    0  0.26046577982E+03 -0.49857324563E+03  0.13324632085E+04  0.14463318830E+04  0.10100000352E+00 0. -1.
       -3    1    3    3    0  502 -0.26046577982E+03  0.49857324563E+03 -0.10290836501E+04  0.11727876504E+04  0.10100000352E+00 0.  1.
</event>
<event>
 5   0  0.2705807E-06  0.2595010E+04  0.7818609E-02  0.8369898E-01
        2   -1    0    0  501    0  0.00000000000E+00  0.00000000000E+00  0.20698433040E+04  0.20698433040E+04  0.25500000920E-02 0. -1.
       -2   -1    0    0    0  501  0.00000000000E+00  0.00000000000E+00 -0.81335599029E+03  0.81335599030E+03  0.25500000920E-02 0.  1.
    10030    2    1    2    0    0  0.00000000000E+00  0.00000000000E+00  0.12564873137E+04  0.28831992943E+04  0.25950101736E+04 0.  0.
        4    1    3    3  502    0  0.44895162295E+03  0.93977959153E+03  0.14879839512E+04  0.18162712056E+04  0.12699999809E+01 0. -1.
       -4    1    3    3    0  502 -0.44895162295E+03 -0.93977959153E+03 -0.23149663748E+03  0.10669280887E+04  0.12699999809E+01 0.  1.
</event>
<event>
 5   0  0.1122628E-06  0.2605641E+04  0.7818609E-02  0.8366288E-01
       -1   -1    0    0    0  501  0.00000000000E+00  0.00000000000E+00  0.61601966622E+03  0.61601966624E+03  0.50400001928E-02 0.  1.
        1   -1    0    0  501    0  0.00000000000E+00  0.00000000000E+00 -0.27553358079E+04  0.27553358079E+04  0.50400001928E-02 0. -1.
    10030    2    1    2    0    0  0.00000000000E+00  0.00000000000E+00 -0.21393161417E+04  0.33713554742E+04  0.26056408385E+04 0.  0.
        2    1    3    3  502    0 -0.54318331101E+03 -0.55771018517E+03 -0.24212717467E+04  0.25433532259E+04  0.25500000920E-02 0. -1.
       -2    1    3    3    0  502  0.54318331101E+03  0.55771018517E+03  0.28195560502E+03  0.82800224831E+03  0.25500000920E-02 0.  1.
</event>
<event>
 5   0  0.1055179E-06  0.2598614E+04  0.7818609E-02  0.8368672E-01
        1   -1    0    0  501    0  0.00000000000E+00  0.00000000000E+00  0.23190181386E+04  0.23190181386E+04  0.50400001928E-02 0.  1.
       -1   -1    0    0    0  501  0.00000000000E+00  0.00000000000E+00 -0.72798015050E+03  0.72798015052E+03  0.50400001928E-02 0. -1.
    10030    2    1    2    0    0  0.00000000000E+00  0.00000000000E+00  0.15910379881E+04  0.30469982891E+04  0.25986143797E+04 0.  0.
        3    1    3    3  502    0 -0.55308338771E+03  0.88676022658E+03 -0.10966491772E+03  0.10508431556E+04  0.10100000352E+00 0. -1.
       -3    1    3    3    0  502  0.55308338771E+03 -0.88676022658E+03  0.17007029058E+04  0.19961551336E+04  0.10100000352E+00 0.  1.
</event>
<event>
 5   0  0.2623368E-06  0.2602353E+04  0.7818609E-02  0.8367402E-01
       -2   -1    0    0    0  501  0.00000000000E+00  0.00000000000E+00  0.13040878248E+04  0.13040878248E+04  0.25500000920E-02 0. -1.
        2   -1    0    0  501    0  0.00000000000E+00  0.00000000000E+00 -0.12982721308E+04  0.12982721308E+04  0.25500000920E-02 0.  1.
    10030    2    1    2    0    0  0.00000000000E+00  0.00000000000E+00  0.58156939963E+01  0.26023599556E+04  0.26023534572E+04 0.  0.
        5    1    3    3  502    0  0.26918435258E+03 -0.97262765919E+03  0.82423444400E+03  0.13030154595E+04  0.46999998093E+01 0. -1.
       -5    1    3    3    0  502 -0.26918435258E+03  0.97262765919E+03 -0.81841875001E+03  0.12993444961E+04  0.46999998093E+01 0.  1.
</event>
<event>
 5   0  0.1122628E-06  0.2597028E+04  0.7818609E-02  0.8369211E-01
        1   -1    0    0  501    0  0.00000000000E+00  0.00000000000E+00  0.21060787582E+04  0.21060787582E+04  0.50400001928E-02 0. -1.
       -1   -1    0    0    0  501  0.00000000000E+00  0.00000000000E+00 -0.80060569504E+03  0.80060569506E+03  0.50400001928E-02 0.  1.
    10030    2    1    2    0    0  0.00000000000E+00  0.00000000000E+00  0.13054730631E+04  0.29066844532E+04  0.25970280307E+04 0.  0.
        2    1    3    3  502    0 -0.48629789511E+03  0.11945954341E+04  0.82097490460E+03  0.15289027726E+04  0.25500000920E-02 0. -1.
       -2    1    3    3    0  502  0.48629789511E+03 -0.11945954341E+04  0.48449815854E+03  0.13777816807E+04  0.25500000920E-02 0.  1.
</event>
<event>
 5   0  0.1055179E-06  0.2606737E+04  0.7818609E-02  0.8365916E-01
       -1   -1    0    0    0  501  0.00000000000E+00  0.00000000000E+00  0.12689867516E+04  0.12689867516E+04  0.50400001928E-02 0. -1.
        1   -1    0    0  501    0  0.00000000000E+00  0.00000000000E+00 -0.13386821003E+04  0.13386821003E+04  0.50400001928E-02 0.  1.
    10030    2    1    2    0    0  0.00000000000E+00  0.00000000000E+00 -0.69695348706E+02  0.26076688519E+04  0.26067373093E+04 0.  0.
        3    1    3    3  502    0 -0.62886604777E+03  0.11399575307E+04  0.26771106084E+02  0.13021875365E+04  0.10100000352E+00 0. -1.
       -3    1    3    3    0  502  0.62886604777E+03 -0.11399575307E+04 -0.96466454790E+02  0.13054813154E+04  0.10100000352E+00 0.  1.
</event>
<event>
 5   0  0.1088757E-06  0.2601116E+04  0.7818609E-02  0.8367822E-01
       -1   -1    0    0    0  501  0.00000000000E+00  0.00000000000E+00  0.11519267263E+04  0.11519267263E+04  0.50400001928E-02 0. -1.
        1   -1    0    0  501    0  0.00000000000E+00  0.00000000000E+00 -0.14683668038E+04  0.14683668038E+04  0.50400001928E-02 0.  1.
    10030    2    1    2    0    0  0.00000000000E+00  0.00000000000E+00 -0.31644007754E+03  0.26202935301E+04  0.26011158877E+04 0.  0.
        5    1    3    3  502    0 -0.95042507397E+03 -0.34587816698E+03 -0.98186014952E+03  0.14096137665E+04  0.46999998093E+01 0.  1.
       -5    1    3    3    0  502  0.95042507397E+03  0.34587816698E+03  0.66542007198E+03  0.12106797635E+04  0.46999998093E+01 0. -1.
</event>
<event>
 5   0  0.2746631E-06  0.2602082E+04  0.7818609E-02  0.8367494E-01
        2   -1    0    0  501    0  0.00000000000E+00  0.00000000000E+00  0.17626873257E+04  0.17626873257E+04  0.25500000920E-02 0.  1.
       -2   -1    0    0    0  501  0.00000000000E+00  0.00000000000E+00 -0.96029965500E+03  0.96029965501E+03  0.25500000920E-02 0. -1.
    10030    2    1    2    0    0  0.00000000000E+00  0.00000000000E+00  0.80238767071E+03  0.27229869807E+04  0.26020822668E+04 0.  0.
        2    1    3    3  502    0  0.62054398944E+02  0.70806970387E+03  0.15415495922E+04  0.16975242558E+04  0.25500000920E-02 0.  1.
       -2    1    3    3    0  502 -0.62054398944E+02 -0.70806970387E+03 -0.73916192148E+03  0.10254627249E+04  0.25500000920E-02 0. -1.
</event>
<event>
 5   0  0.2746631E-06  0.2596258E+04  0.7818609E-02  0.8369473E-01
        2   -1    0    0  501    0  0.00000000000E+00  0.00000000000E+00  0.10640697157E+04  0.10640697157E+04  0.25500000920E-02 0. -1.
       -2   -1    0    0    0  501  0.00000000000E+00  0.00000000000E+00 -0.15836738112E+04  0.15836738112E+04  0.25500000920E-02 0.  1.
    10030    2    1    2    0    0  0.00000000000E+00  0.00000000000E+00 -0.51960409554E+03  0.26477435269E+04  0.25962583400E+04 0.  0.
        2    1    3    3  502    0 -0.12159408879E+04  0.19761230037E+03 -0.67728095625E+03  0.14057995440E+04  0.25500000920E-02 0.  1.
       -2    1    3    3    0  502  0.12159408879E+04 -0.19761230037E+03  0.15767686071E+03  0.12419439829E+04  0.25500000920E-02 0. -1.
</event>
<event>
 5   0  0.2623368E-06  0.2603835E+04  0.7818609E-02  0.8366900E-01
        2   -1    0    0  501    0  0.00000000000E+00  0.00000000000E+00  0.25886862045E+04  0.25886862045E+04  0.25500000920E-02 0.  1.
       -2   -1    0    0    0  501  0.00000000000E+00  0.00000000000E+00 -0.65476799392E+03  0.65476799392E+03  0.25500000920E-02 0. -1.
    10030    2    1    2    0    0  0.00000000000E+00  0.00000000000E+00  0.19339182106E+04  0.32434541985E+04  0.26038347667E+04 0.  0.
        5    1    3    3  502    0 -0.12386327308E+04 -0.36983020120E+03  0.11598586859E+04  0.17367439883E+04  0.46999998093E+01 0. -1.
       -5    1    3    3    0  502  0.12386327308E+04  0.36983020120E+03  0.77405952475E+03  0.15067102102E+04  0.46999998093E+01 0.  1.
</event>
<event>
 5   0  0.2705807E-06  0.2595565E+04  0.7818609E-02  0.8369709E-01
       -2   -1    0    0    0  501  0.00000000000E+00  0.00000000000E+00  0.15506753691E+04  0.15506753691E+04  0.25500000920E-02 0.  1.
        2   -1    0    0  501    0  0.00000000000E+00  0.00000000000E+00 -0.10861329738E+04  0.10861329738E+04  0.25500000920E-02 0. -1.
    10030    2    1    2    0    0  0.00000000000E+00  0.00000000000E+00  0.46454239532E+03  0.26368083428E+04  0.25955651793E+04 0.  0.
        4    1    3    3  502    0  0.59773377391E+03  0.84983241210E+03 -0.55773406253E+03  0.11792241901E+04  0.12699999809E+01 0. -1.
       -4    1    3    3    0  502 -0.59773377391E+03 -0.84983241210E+03  0.10222764578E+04  0.14575841527E+04  0.12699999809E+01 0.  1.
</event>
<event>
 5   0  0.1032076E-06  0.2598992E+04  0.7818609E-02  0.8368544E-01
        1   -1    0    0  501    0  0.00000000000E+00  0.00000000000E+00  0.80978175277E+03  0.80978175279E+03  0.50400001928E-02 0. -1.
       -1   -1    0    0    0  501  0.00000000000E+00  0.00000000000E+00 -0.20853636663E+04  0.20853636663E+04  0.50400001928E-02 0.  1.
    10030    2    1    2    0    0  0.00000000000E+00  0.00000000000E+00 -0.12755819135E+04  0.28951454191E+04  0.25989916852E+04 0.  0.
        1    1    3    3  502    0  0.41259617182E+03 -0.71079742806E+03  0.48349802275E+03  0.95354020511E+03  0.50400001928E-02 0. -1.
       -1    1    3    3    0  502 -0.41259617182E+03  0.71079742806E+03 -0.17590799363E+04  0.19416052140E+04  0.50400001928E-02 0.  1.
</event>
<event>
 5   0  0.2705807E-06  0.2597881E+04  0.7818609E-02  0.8368921E-01
        2   -1    0    0  501    0  0.00000000000E+00  0.00000000000E+00  0.23157091445E+04  0.23157091445E+04  0.25500000920E-02 0. -1.
       -2   -1    0    0    0  501  0.00000000000E+00  0.00000000000E+00 -0.72860912757E+03  0.72860912757E+03  0.25500000920E-02 0.  1.
    10030    2    1    2    0    0  0.00000000000E+00  0.00000000000E+00  0.15871000169E+04  0.30443182720E+04  0.25978813056E+04 0.  0.
        4    1    3    3  502    0  0.39141316603E+03 -0.51496546156E+03 -0.52645673722E+03  0.83399760324E+03  0.12699999809E+01 0.  1.
       -4    1    3    3    0  502 -0.39141316603E+03  0.51496546156E+03  0.21135567541E+04  0.22103206688E+04  0.12699999809E+01 0. -1.
</event>
<event>
 5   0  0.1100104E-06  0.2593959E+04  0.7818609E-02  0.8370256E-01
        1   -1    0    0  501    0  0.00000000000E+00  0.00000000000E+00  0.10235937224E+04  0.10235937225E+04  0.50400001928E-02 0. -1.
       -1   -1    0    0    0  501  0.00000000000E+00  0.00000000000E+00 -0.16433819660E+04  0.16433819660E+04  0.50400001928E-02 0.  1.
    10030    2    1    2    0    0  0.00000000000E+00  0.00000000000E+00 -0.61978824351E+03  0.26669756884E+04  0.25939587228E+04 0.  0.
        4    1    3    3  502    0  0.32230665231E+03  0.11393010080E+04  0.23440897499E+03  0.12069952550E+04  0.12699999809E+01 0. -1.
       -4    1    3    3    0  502 -0.32230665231E+03 -0.11393010080E+04 -0.85419721850E+03  0.14599804334E+04  0.12699999809E+01 0.  1.
</event>
<event>
 5   0  0.2586775E-06  0.2605489E+04  0.7818609E-02  0.8366339E-01
        2   -1    0    0  501    0  0.00000000000E+00  0.00000000000E+00  0.20195038179E+04  0.20195038179E+04  0.25500000920E-02 0. -1.
       -2   -1    0    0    0  501  0.00000000000E+00  0.00000000000E+00 -0.84037628677E+03  0.84037628677E+03  0.25500000920E-02 0.  1.
    10030    2    1    2    0    0  0.00000000000E+00  0.00000000000E+00  0.11791275312E+04  0.28598801047E+04  0.26054889135E+04 0.  0.
        1    1    3    3  502    0  0.54188429784E+03 -0.46388232836E+03 -0.60696978945E+03  0.93660970107E+03  0.50400001928E-02 0.  1.
       -1    1    3    3    0  502 -0.54188429784E+03  0.46388232836E+03  0.17860973206E+04  0.19232704036E+04  0.50400001928E-02 0. -1.
</event>
<event>
 5   0  0.1055179E-06  0.2603866E+04  0.7818609E-02  0.8366889E-01
       -1   -1    0    0    0  501  0.00000000000E+00  0.00000000000E+00  0.14301539283E+04  0.14301539283E+04  0.50400001928E-02 0.  1.
        1   -1    0    0  501    0  0.00000000000E+00  0.00000000000E+00 -0.11852079510E+04  0.11852079510E+04  0.50400001928E-02 0. -1.
    10030    2    1    2    0    0  0.00000000000E+00  0.00000000000E+00  0.24494597728E+03  0.26153618793E+04  0.26038662078E+04 0.  0.
        3    1    3    3  502    0  0.41294899077E+03  0.10770710161E+04  0.72881099890E+03  0.13644685138E+04  0.10100000352E+00 0.  1.
       -3    1    3    3    0  502 -0.41294899077E+03 -0.10770710161E+04 -0.48386502163E+03  0.12508933656E+04  0.10100000352E+00 0. -1.
</event>
<event>
 5   0  0.2820028E-06  0.2600226E+04  0.7818609E-02  0.8368125E-01
       -2   -1    0    0    0  501  0.00000000000E+00  0.00000000000E+00  0.15300248427E+04  0.15300248427E+04  0.25500000920E-02 0. -1.
        2   -1    0    0  501    0  0.00000000000E+00  0.00000000000E+00 -0.11047490526E+04  0.11047490526E+04  0.25500000920E-02 0.  1.
    10030    2    1    2    0    0  0.00000000000E+00  0.00000000000E+00  0.42527579017E+03  0.26347738953E+04  0.26002257559E+04 0.  0.
        3    1    3    3  502    0 -0.12032626616E+03  0.62608894080E+03 -0.93547784057E+03  0.11320709220E+04  0.10100000352E+00 0.  1.
       -3    1    3    3    0  502  0.12032626616E+03 -0.62608894080E+03  0.13607536307E+04  0.15027029733E+04  0.10100000352E+00 0. -1.
</event>
<event>
 5   0  0.1088757E-06  0.2602896E+04  0.7818609E-02  0.8367218E-01
       -1   -1    0    0    0  501  0.00000000000E+00  0.00000000000E+00  0.15737060800E+04  0.15737060800E+04  0.50400001928E-02 0.  1.
        1   -1    0    0  501    0  0.00000000000E+00  0.00000000000E+00 -0.10762917439E+04  0.10762917439E+04  0.50400001928E-02 0. -1.
    10030    2    1    2    0    0  0.00000000000E+00  0.00000000000E+00  0.49741433607E+03  0.26499978240E+04  0.26028959728E+04 0.  0.
        5    1    3    3  502    0 -0.62923441341E+03  0.67184830663E+02  0.14065177351E+04  0.15423242129E+04  0.46999998093E+01 0.  1.
       -5    1    3    3    0  502  0.62923441341E+03 -0.67184830663E+02 -0.90910339904E+03  0.11076736111E+04  0.46999998093E+01 0. -1.
</event>
<event>
 5   0  0.2586775E-06  0.2598184E+04  0.7818609E-02  0.8368818E-01
       -2   -1    0    0    0  501  0.00000000000E+00  0.00000000000E+00  0.16219697025E+04  0.16219697025E+04  0.25500000920E-02 0.  1.
        2   -1    0    0  501    0  0.00000000000E+00  0.00000000000E+00 -0.10404876398E+04  0.10404876398E+04  0.25500000920E-02 0. -1.
    10030    2    1    2    0    0  0.00000000000E+00  0.00000000000E+00  0.58148206269E+03  0.26624573423E+04  0.25981835405E+04 0.  0.
        1    1    3    3  502    0  0.68447454034E+03  0.99435422521E+03  0.78260854125E+03  0.14386527901E+04  0.50400001928E-02 0.  1.
       -1    1    3    3    0  502 -0.68447454034E+03 -0.99435422521E+03 -0.20112647856E+03  0.12238045522E+04  0.50400001928E-02 0. -1.
</event>
<event>
 5   0  0.2820028E-06  0.2595962E+04  0.7818609E-02  0.8369574E-01
       -2   -1    0    0    0  501  0.00000000000E+00  0.00000000000E+00  0.65790496714E+03  0.65790496714E+03  0.25500000920E-02 0.  1.
        2   -1    0    0  501    0  0.00000000000E+00  0.00000000000E+00 -0.25607866544E+04  0.25607866544E+04  0.25500000920E-02 0. -1.
    10030    2    1    2    0    0  0.00000000000E+00  0.00000000000E+00 -0.19028816873E+04  0.32186916215E+04  0.25959616790E+04 0.  0.
        3    1    3    3  502    0 -0.12824769879E+03 -0.73987526959E+03 -0.22641328893E+04  0.23854057595E+04  0.10100000352E+00 0. -1.
       -3    1    3    3    0  502  0.12824769879E+03  0.73987526959E+03  0.36125120201E+03  0.83328586208E+03  0.10100000352E+00 0.  1.
</event>
<event>
 5   0  0.1088757E-06  0.2597161E+04  0.7818609E-02  0.8369166E-01
        1   -1    0    0  501    0  0.00000000000E+00  0.00000000000E+00  0.12160708396E+04  0.12160708396E+04  0.50400001928E-02 0. -1.
       -1   -1    0    0    0  501  0.00000000000E+00  0.00000000000E+00 -0.13866883724E+04  0.13866883724E+04  0.50400001928E-02 0.  1.
    10030    2    1    2    0    0  0.00000000000E+00  0.00000000000E+00 -0.17061753278E+03  0.26027592119E+04  0.25971609832E+04 0.  0.
        5    1    3    3  502    0 -0.11550555687E+04  0.29311508020E+03 -0.60238545784E+03  0.13352753075E+04  0.46999998093E+01 0.  1.
       -5    1    3    3    0  502  0.11550555687E+04 -0.29311508020E+03  0.43176792505E+03  0.12674839045E+04  0.46999998093E+01 0. -1.
</event>
<event>
 5   0  0.1100104E-06  0.2598321E+04  0.7818609E-02  0.8368772E-01
       -1   -1    0    0    0  501  0.00000000000E+00  0.00000000000E+00  0.76741024980E+03  0.76741024982E+03  0.50400001928E-02 0.  1.
        1   -1    0    0  501    0  0.00000000000E+00  0.00000000000E+00 -0.21993692286E+04  0.21993692286E+04  0.50400001928E-02 0. -1.
    10030    2    1    2    0    0  0.00000000000E+00  0.00000000000E+00 -0.14319589788E+04  0.29667794784E+04  0.25983213729E+04 0.  0.
        4    1    3    3  502    0  0.12228406802E+04 -0.29357930481E+03 -0.34372835669E+03  0.13037173518E+04  0.12699999809E+01 0.  1.
       -4    1    3    3    0  502 -0.12228406802E+04  0.29357930481E+03 -0.10882306221E+04  0.16630621266E+04  0.12699999809E+01 0. -1.
</event>
<event>
 5   0  0.1122628E-06  0.2603535E+04  0.7818609E-02  0.8367001E-01
       -1   -1    0    0    0  501  0.00000000000E+00  0.00000000000E+00  0.88290604888E+03  0.88290604889E+03  0.50400001928E-02 0.  1.
        1   -1    0    0  501    0  0.00000000000E+00  0.00000000000E+00 -0.19193419593E+04  0.19193419593E+04  0.50400001928E-02 0. -1.
    10030    2    1    2    0    0  0.00000000000E+00  0.00000000000E+00 -0.10364359104E+04  0.28022480082E+04  0.26035350013E+04 0.  0.
        2    1    3    3  502    0 -0.86180203647E+03 -0.67456005879E+03  0.24046823260E+03  0.11205172885E+04  0.25500000920E-02 0.  1.
       -2    1    3    3    0  502  0.86180203647E+03  0.67456005879E+03 -0.12769041430E+04  0.16817307196E+04  0.25500000920E-02 0. -1.
</event>
<event>
 5   0  0.2705807E-06  0.2600484E+04  0.7818609E-02  0.8368037E-01
        2   -1    0    0  501    0  0.00000000000E+00  0.00000000000E+00  0.13493269212E+04  0.13493269212E+04  0.25500000920E-02 0. -1.
       -2   -1    0    0    0  501  0.00000000000E+00  0.00000000000E+00 -0.12529429828E+04  0.12529429828E+04  0.25500000920E-02 0.  1.
    10030    2    1    2    0    0  0.00000000000E+00  0.00000000000E+00  0.96383938364E+02  0.26022699040E+04  0.26004843375E+04 0.  0.
        4    1    3    3  502    0  0.13821992873E+03  0.90653876639E+03 -0.87423855537E+03  0.12669695925E+04  0.12699999809E+01 0.  1.
       -4    1    3    3    0  502 -0.13821992873E+03 -0.90653876639E+03  0.97062249374E+03  0.13353003115E+04  0.12699999809E+01 0. -1.
</event>
<event>
 5   0  0.2586775E-06  0.2523653E+04  0.7818609E-02  0.8394607E-01
       -2   -1    0    0    0  501  0.00000000000E+00  0.00000000000E+00  0.14848992340E+04  0.14848992340E+04  0.25500000920E-02 0. -1.
        2   -1    0    0  501    0  0.00000000000E+00  0.00000000000E+00 -0.10722652887E+04  0.10722652887E+04  0.25500000920E-02 0.  1.
    10030    2    1    2    0    0  0.00000000000E+00  0.00000000000E+00  0.41263394530E+03  0.25571645227E+04  0.25236528334E+04 0.  0.
        1    1    3    3  502    0  0.14718592294E+03  0.88575209661E+03 -0.69201386502E+03  0.11336241273E+04  0.50400001928E-02 0.  1.
       -1    1    3    3    0  502 -0.14718592294E+03 -0.88575209661E+03  0.11046478103E+04  0.14235403954E+04  0.50400001928E-02 0. -1.
</event>
<event>
 5   0  0.1032076E-06  0.2605480E+04  0.7818609E-02  0.8366342E-01
        1   -1    0    0  501    0  0.00000000000E+00  0.00000000000E+00  0.68598484006E+03  0.68598484008E+03  0.50400001928E-02 0. -1.
       -1   -1    0    0    0  501  0.00000000000E+00  0.00000000000E+00 -0.24740073251E+04  0.24740073251E+04  0.50400001928E-02 0.  1.
    10030    2    1    2    0    0  0.00000000000E+00  0.00000000000E+00 -0.17880224850E+04  0.31599921652E+04  0.26054800089E+04 0.  0.
        1    1    3    3  502    0  0.72448820524E+03 -0.78636950077E+02  0.41565177538E+03  0.83894775037E+03  0.50400001928E-02 0. -1.
       -1    1    3    3    0  502 -0.72448820524E+03  0.78636950077E+02 -0.22036742604E+04  0.23210444148E+04  0.50400001928E-02 0.  1.
</event>
<event>
 5   0  0.2623368E-06  0.2589359E+04  0.7818609E-02  0.8371825E-01
       -2   -1    0    0    0  501  0.00000000000E+00  0.00000000000E+00  0.12716057271E+04  0.12716057271E+04  0.25500000920E-02 0.  1.
        2   -1    0    0  501    0  0.00000000000E+00  0.00000000000E+00 -0.13181714798E+04  0.13181714798E+04  0.25500000920E-02 0. -1.
    10030    2    1    2    0    0  0.00000000000E+00  0.00000000000E+00 -0.46565752712E+02  0.25897772069E+04  0.25893585330E+04 0.  0.
        5    1    3    3  502    0  0.22284815706E+03 -0.12336552576E+04 -0.34676324304E+03  0.13007049751E+04  0.46999998093E+01 0. -1.
       -5    1    3    3    0  502 -0.22284815706E+03  0.12336552576E+04  0.30019749033E+03  0.12890722318E+04  0.46999998093E+01 0.  1.
</event>
<event>
 5   0  0.1100104E-06  0.2600155E+04  0.7818609E-02  0.8368149E-01
        1   -1    0    0  501    0  0.00000000000E+00  0.00000000000E+00  0.10162739423E+04  0.10162739423E+04  0.50400001928E-02 0. -1.
       -1   -1    0    0    0  501  0.00000000000E+00  0.00000000000E+00 -0.16631351177E+04  0.16631351178E+04  0.50400001928E-02 0.  1.
    10030    2    1    2    0    0  0.00000000000E+00  0.00000000000E+00 -0.64686117549E+03  0.26794090600E+04  0.26001545205E+04 0.  0.
        4    1    3    3  502    0 -0.76821212647E+03 -0.60946562470E+02  0.75554467142E+03  0.10792190316E+04  0.12699999809E+01 0. -1.
       -4    1    3    3    0  502  0.76821212647E+03  0.60946562470E+02 -0.14024058469E+04  0.16001900284E+04  0.12699999809E+01 0.  1.
</event>
<event>
 5   0  0.1055179E-06  0.2605210E+04  0.7818609E-02  0.8366434E-01
       -1   -1    0    0    0  501  0.00000000000E+00  0.00000000000E+00  0.15047013029E+04  0.15047013029E+04  0.50400001928E-02 0.  1.
        1   -1    0    0  501    0  0.00000000000E+00  0.00000000000E+00 -0.11276518687E+04  0.11276518687E+04  0.50400001928E-02 0. -1.
    10030    2    1    2    0    0  0.00000000000E+00  0.00000000000E+00  0.37704943424E+03  0.26323531716E+04  0.26052095778E+04 0.  0.
        3    1    3    3  502    0 -0.18015918694E+03 -0.10341672885E+04  0.96780598982E+03  0.14277982201E+04  0.10100000352E+00 0.  1.
       -3    1    3    3    0  502  0.18015918694E+03  0.10341672885E+04 -0.59075655559E+03  0.12045549516E+04  0.10100000352E+00 0. -1.
</event>
<event>
 5   0  0.1122628E-06  0.2540370E+04  0.7818609E-02  0.8388743E-01
        1   -1    0    0  501    0  0.00000000000E+00  0.00000000000E+00  0.29673703765E+04  0.29673703765E+04  0.50400001928E-02 0. -1.
       -1   -1    0    0    0  501  0.00000000000E+00  0.00000000000E+00 -0.54370362995E+03  0.54370362998E+03  0.50400001928E-02 0.  1.
    10030    2    1    2    0    0  0.00000000000E+00  0.00000000000E+00  0.24236667466E+04  0.35110740065E+04  0.25403700874E+04 0.  0.
        2    1    3    3  502    0 -0.10859467991E+04 -0.53200121466E+03  0.17490184235E+04  0.21263516146E+04  0.25500000920E-02 0. -1.
       -2    1    3    3    0  502  0.10859467991E+04  0.53200121466E+03  0.67464832306E+03  0.13847223919E+04  0.25500000920E-02 0.  1.
</event>
<event>
 5   0  0.2705807E-06  0.2599964E+04  0.7818609E-02  0.8368213E-01
       -2   -1    0    0    0  501  0.00000000000E+00  0.00000000000E+00  0.89303181638E+03  0.89303181639E+03  0.25500000920E-02 0.  1.
        2   -1    0    0  501    0  0.00000000000E+00  0.00000000000E+00 -0.18923773825E+04  0.18923773825E+04  0.25500000920E-02 0. -1.
    10030    2    1    2    0    0  0.00000000000E+00  0.00000000000E+00 -0.99934556614E+03  0.27854091989E+04  0.25999640084E+04 0.  0.
        4    1    3    3  502    0  0.12319855527E+04 -0.12380777707E+03 -0.92394337406E+03  0.15449238619E+04  0.12699999809E+01 0. -1.
       -4    1    3    3    0  502 -0.12319855527E+04  0.12380777707E+03 -0.75402192082E+02  0.12404853370E+04  0.12699999809E+01 0.  1.
</event>
<event>
 5   0  0.1032076E-06  0.2572009E+04  0.7818609E-02  0.8377772E-01
        1   -1    0    0  501    0  0.00000000000E+00  0.00000000000E+00  0.13841103883E+04  0.13841103883E+04  0.50400001928E-02 0.  1.
       -1   -1    0    0    0  501  0.00000000000E+00  0.00000000000E+00 -0.11948525381E+04  0.11948525381E+04  0.50400001928E-02 0. -1.
    10030    2    1    2    0    0  0.00000000000E+00  0.00000000000E+00  0.18925785021E+03  0.25789629265E+04  0.25720091839E+04 0.  0.
        1    1    3    3  502    0  0.62423115965E+03 -0.55422569532E+03 -0.88626798790E+03  0.12174980938E+04  0.50400001928E-02 0. -1.
       -1    1    3    3    0  502 -0.62423115965E+03  0.55422569532E+03  0.10755258381E+04  0.13614648326E+04  0.50400001928E-02 0.  1.
</event>
<event>
 5   0  0.1055179E-06  0.2608067E+04  0.7818609E-02  0.8365466E-01
        1   -1    0    0  501    0  0.00000000000E+00  0.00000000000E+00  0.19662337427E+04  0.19662337428E+04  0.50400001928E-02 0.  1.
       -1   -1    0    0    0  501  0.00000000000E+00  0.00000000000E+00 -0.86485341757E+03  0.86485341758E+03  0.50400001928E-02 0. -1.
    10030    2    1    2    0    0  0.00000000000E+00  0.00000000000E+00  0.11013803252E+04  0.28310871603E+04  0.26080674625E+04 0.  0.
        3    1    3    3  502    0 -0.98173203000E+03  0.78648119329E+03  0.17756224549E+03  0.12703852988E+04  0.10100000352E+00 0. -1.
       -3    1    3    3    0  502  0.98173203000E+03 -0.78648119329E+03  0.92381807969E+03  0.15607018616E+04  0.10100000352E+00 0.  1.
</event>
<event>
 5   0  0.2746631E-06  0.2598352E+04  0.7818609E-02  0.8368761E-01
       -2   -1    0    0    0  501  0.00000000000E+00  0.00000000000E+00  0.71067695940E+03  0.71067695940E+03  0.25500000920E-02 0. -1.
        2   -1    0    0  501    0  0.00000000000E+00  0.00000000000E+00 -0.23750011050E+04  0.23750011050E+04  0.25500000920E-02 0.  1.
    10030    2    1    2    0    0  0.00000000000E+00  0.00000000000E+00 -0.16643241456E+04  0.30856780644E+04  0.25983522193E+04 0.  0.
        2    1    3    3  502    0  0.97806875656E+03  0.30805685613E+03 -0.17794839351E+04  0.20537966293E+04  0.25500000920E-02 0.  1.
       -2    1    3    3    0  502 -0.97806875656E+03 -0.30805685613E+03  0.11515978943E+03  0.10318814352E+04  0.25500000920E-02 0. -1.
</event>
<event>
 5   0  0.2705807E-06  0.2601728E+04  0.7818609E-02  0.8367614E-01
        2   -1    0    0  501    0  0.00000000000E+00  0.00000000000E+00  0.19694295205E+04  0.19694295206E+04  0.25500000920E-02 0. -1.
       -2   -1    0    0    0  501  0.00000000000E+00  0.00000000000E+00 -0.85925759401E+03  0.85925759401E+03  0.25500000920E-02 0.  1.
    10030    2    1    2    0    0  0.00000000000E+00  0.00000000000E+00  0.11101719265E+04  0.28286871146E+04  0.26017280960E+04 0.  0.
        4    1    3    3  502    0  0.11844129094E+04  0.51752222398E+03  0.39536072643E+03  0.13516563576E+04  0.12699999809E+01 0. -1.
       -4    1    3    3    0  502 -0.11844129094E+04 -0.51752222398E+03  0.71481120011E+03  0.14770307569E+04  0.12699999809E+01 0.  1.
</event>
<event>
 5   0  0.1088757E-06  0.2603436E+04  0.7818609E-02  0.8367035E-01
       -1   -1    0    0    0  501  0.00000000000E+00  0.00000000000E+00  0.10712823622E+04  0.10712823622E+04  0.50400001928E-02 0.  1.
        1   -1    0    0  501    0  0.00000000000E+00  0.00000000000E+00 -0.15817208520E+04  0.15817208520E+04  0.50400001928E-02 0. -1.
    10030    2    1    2    0    0  0.00000000000E+00  0.00000000000E+00 -0.51043848979E+03  0.26530032142E+04  0.26034359225E+04 0.  0.
        5    1    3    3  502    0 -0.10042069116E+04 -0.82790531317E+03 -0.27994710376E+03  0.13312592534E+04  0.46999998093E+01 0.  1.
       -5    1    3    3    0  502  0.10042069116E+04  0.82790531317E+03 -0.23049138603E+03  0.13217439608E+04  0.46999998093E+01 0. -1.
</event>
<event>
 5   0  0.2705807E-06  0.2598056E+04  0.7818609E-02  0.8368862E-01
        2   -1    0    0  501    0  0.00000000000E+00  0.00000000000E+00  0.20236069876E+04  0.20236069876E+04  0.25500000920E-02 0.  1.
       -2   -1    0    0    0  501  0.00000000000E+00  0.00000000000E+00 -0.83389389032E+03  0.83389389032E+03  0.25500000920E-02 0. -1.
    10030    2    1    2    0    0  0.00000000000E+00  0.00000000000E+00  0.11897130973E+04  0.28575008780E+04  0.25980558142E+04 0.  0.
        4    1    3    3  502    0  0.52092958038E+03 -0.54537504056E+03  0.17581491210E+04  0.19130842917E+04  0.12699999809E+01 0.  1.
       -4    1    3    3    0  502 -0.52092958038E+03  0.54537504056E+03 -0.56843602365E+03  0.94441658629E+03  0.12699999809E+01 0. -1.
</event>
<event>
 5   0  0.1122628E-06  0.2599956E+04  0.7818609E-02  0.8368216E-01
       -1   -1    0    0    0  501  0.00000000000E+00  0.00000000000E+00  0.70193265258E+03  0.70193265260E+03  0.50400001928E-02 0. -1.
        1   -1    0    0  501    0  0.00000000000E+00  0.00000000000E+00 -0.24075575546E+04  0.24075575546E+04  0.50400001928E-02 0.  1.
    10030    2    1    2    0    0  0.00000000000E+00  0.00000000000E+00 -0.17056249020E+04  0.31094902072E+04  0.25999563539E+04 0.  0.
        2    1    3    3  502    0 -0.51555428344E+03  0.85310614591E+01  0.57440272385E+03  0.77188566987E+03  0.25500000920E-02 0. -1.
       -2    1    3    3    0  502  0.51555428344E+03 -0.85310614591E+01 -0.22800276258E+04  0.23376045373E+04  0.25500000920E-02 0.  1.
</event>
<event>
 5   0  0.2623368E-06  0.2605232E+04  0.7818609E-02  0.8366426E-01
        2   -1    0    0  501    0  0.00000000000E+00  0.00000000000E+00  0.20315804405E+04  0.20315804405E+04  0.25500000920E-02 0. -1.
       -2   -1    0    0    0  501  0.00000000000E+00  0.00000000000E+00 -0.83521585743E+03  0.83521585744E+03  0.25500000920E-02 0.  1.
    10030    2    1    2    0    0  0.00000000000E+00  0.00000000000E+00  0.11963645831E+04  0.28667962979E+04  0.26052318128E+04 0.  0.
        5    1    3    3  502    0 -0.60747785082E+03 -0.26245681543E+03 -0.63646086796E+03  0.91815981487E+03  0.46999998093E+01 0.  1.
       -5    1    3    3    0  502  0.60747785082E+03  0.26245681543E+03  0.18328254510E+04  0.19486364831E+04  0.46999998093E+01 0. -1.
</event>
<event>
 5   0  0.1100104E-06  0.2608520E+04  0.7818609E-02  0.8365313E-01
       -1   -1    0    0    0  501  0.00000000000E+00  0.00000000000E+00  0.13802983094E+04  0.13802983095E+04  0.50400001928E-02 0. -1.
        1   -1    0    0  501    0  0.00000000000E+00  0.00000000000E+00 -0.12324103865E+04  0.12324103865E+04  0.50400001928E-02 0.  1.
    10030    2    1    2    0    0  0.00000000000E+00  0.00000000000E+00  0.14788792297E+03  0.26127086959E+04  0.26085198661E+04 0.  0.
        4    1    3    3  502    0  0.16222876635E+02  0.48905267579E+03 -0.11369873996E+04  0.12378116420E+04  0.12699999809E+01 0.  1.
       -4    1    3    3    0  502 -0.16222876635E+02 -0.48905267579E+03  0.12848753226E+04  0.13748970539E+04  0.12699999809E+01 0. -1.
</event>
<event>
 5   0  0.2820028E-06  0.2600798E+04  0.7818609E-02  0.8367930E-01
       -2   -1    0    0    0  501  0.00000000000E+00  0.00000000000E+00  0.99996824047E+03  0.99996824048E+03  0.25500000920E-02 0. -1.
        2   -1    0    0  501    0  0.00000000000E+00  0.00000000000E+00 -0.16910909610E+04  0.16910909610E+04  0.25500000920E-02 0.  1.
    10030    2    1    2    0    0  0.00000000000E+00  0.00000000000E+00 -0.69112272052E+03  0.26910592015E+04  0.26007977643E+04 0.  0.
        3    1    3    3  502    0 -0.11297220506E+04  0.13771805271E+03 -0.99652098560E+03  0.15127102361E+04  0.10100000352E+00 0.  1.
       -3    1    3    3    0  502  0.11297220506E+04 -0.13771805271E+03  0.30539826508E+03  0.11783489653E+04  0.10100000352E+00 0. -1.
</event>
<event>
 5   0  0.9197000E-07  0.2595507E+04  0.7818609E-02  0.8369729E-01
       -4   -1    0    0    0  501  0.00000000000E+00  0.00000000000E+00  0.12268771294E+04  0.12268777867E+04  0.12699999809E+01 0. -1.
        4   -1    0    0  501    0  0.00000000000E+00  0.00000000000E+00 -0.13727226714E+04  0.13727232589E+04  0.12699999809E+01 0.  1.
    10030    2    1    2    0    0  0.00000000000E+00  0.00000000000E+00 -0.14584554199E+03  0.25996010456E+04  0.25955066315E+04 0.  0.
        1    1    3    3  502    0  0.96348422204E+03  0.12282212462E+02  0.79776495706E+03  0.12509522875E+04  0.50400001928E-02 0. -1.
       -1    1    3    3    0  502 -0.96348422204E+03 -0.12282212462E+02 -0.94361049905E+03  0.13486487581E+04  0.50400001928E-02 0.  1.
</event>
<event>
 5   0  0.2746631E-06  0.2600379E+04  0.7818609E-02  0.8368073E-01
       -2   -1    0    0    0  501  0.00000000000E+00  0.00000000000E+00  0.16977400166E+04  0.16977400166E+04  0.25500000920E-02 0. -1.
        2   -1    0    0  501    0  0.00000000000E+00  0.00000000000E+00 -0.99573094914E+03  0.99573094914E+03  0.25500000920E-02 0.  1.
    10030    2    1    2    0    0  0.00000000000E+00  0.00000000000E+00  0.70200906742E+03  0.26934709657E+04  0.26003786479E+04 0.  0.
        2    1    3    3  502    0 -0.31952974644E+03  0.23308824127E+03 -0.93190871264E+03  0.10123651692E+04  0.25500000920E-02 0.  1.
       -2    1    3    3    0  502  0.31952974644E+03 -0.23308824127E+03  0.16339177801E+04  0.16811057965E+04  0.25500000920E-02 0. -1.
</event>
<event>
 5   0  0.9197000E-07  0.2595394E+04  0.7818609E-02  0.8369767E-01
       -3   -1    0    0    0  501  0.00000000000E+00  0.00000000000E+00  0.64742978373E+03  0.64742979160E+03  0.10100000352E+00 0. -1.
        3   -1    0    0  501    0  0.00000000000E+00  0.00000000000E+00 -0.26010819305E+04  0.26010819324E+04  0.10100000352E+00 0.  1.
    10030    2    1    2    0    0  0.00000000000E+00  0.00000000000E+00 -0.19536521467E+04  0.32485117240E+04  0.25953943266E+04 0.  0.
        4    1    3    3  502    0 -0.15910260696E+03  0.24234291721E+03  0.60637967569E+03  0.67211729114E+03  0.12699999809E+01 0. -1.
       -4    1    3    3    0  502  0.15910260696E+03 -0.24234291721E+03 -0.25600318224E+04  0.25763944329E+04  0.12699999809E+01 0.  1.
</event>
<event>
 5   0  0.2705807E-06  0.2595854E+04  0.7818609E-02  0.8369611E-01
        2   -1    0    0  501    0  0.00000000000E+00  0.00000000000E+00  0.13266678222E+04  0.13266678222E+04  0.25500000920E-02 0.  1.
       -2   -1    0    0    0  501  0.00000000000E+00  0.00000000000E+00 -0.12698085811E+04  0.12698085811E+04  0.25500000920E-02 0. -1.
    10030    2    1    2    0    0  0.00000000000E+00  0.00000000000E+00  0.56859241072E+02  0.25964764033E+04  0.25958537593E+04 0.  0.
        4    1    3    3  502    0 -0.17658598653E+03 -0.49737152585E+03  0.12144844765E+04  0.13242111621E+04  0.12699999809E+01 0.  1.
       -4    1    3    3    0  502  0.17658598653E+03  0.49737152585E+03 -0.11576252354E+04  0.12722652412E+04  0.12699999809E+01 0. -1.
</event>
<event>
 5   0  0.2623368E-06  0.2598963E+04  0.7818609E-02  0.8368554E-01
        2   -1    0    0  501    0  0.00000000000E+00  0.00000000000E+00  0.13805806638E+04  0.13805806638E+04  0.25500000920E-02 0.  1.
       -2   -1    0    0    0  501  0.00000000000E+00  0.00000000000E+00 -0.12231463320E+04  0.12231463320E+04  0.25500000920E-02 0. -1.
    10030    2    1    2    0    0  0.00000000000E+00  0.00000000000E+00  0.15743433175E+03  0.26037269958E+04  0.25989630047E+04 0.  0.
        5    1    3    3  502    0  0.28617526980E+03  0.52087708606E+03  0.12364395400E+04  0.13718651719E+04  0.46999998093E+01 0.  1.
       -5    1    3    3    0  502 -0.28617526980E+03 -0.52087708606E+03 -0.10790052082E+04  0.12318618239E+04  0.46999998093E+01 0. -1.
</event>
<event>
 5   0  0.1100104E-06  0.2598616E+04  0.7818609E-02  0.8368671E-01
        1   -1    0    0  501    0  0.00000000000E+00  0.00000000000E+00  0.13874485386E+04  0.13874485386E+04  0.50400001928E-02 0.  1.
       -1   -1    0    0    0  501  0.00000000000E+00  0.00000000000E+00 -0.12167671562E+04  0.12167671562E+04  0.50400001928E-02 0. -1.
    10030    2    1    2    0    0  0.00000000000E+00  0.00000000000E+00  0.17068138238E+03  0.26042156948E+04  0.25986164108E+04 0.  0.
        4    1    3    3  502    0 -0.77801518964E+03  0.10036397283E+04  0.36088742755E+03  0.13201672954E+04  0.12699999809E+01 0. -1.
       -4    1    3    3    0  502  0.77801518964E+03 -0.10036397283E+04 -0.19020604517E+03  0.12840483994E+04  0.12699999809E+01 0.  1.
</event>
<event>
 5   0  0.1122628E-06  0.2599377E+04  0.7818609E-02  0.8368413E-01
       -1   -1    0    0    0  501  0.00000000000E+00  0.00000000000E+00  0.94859527339E+03  0.94859527340E+03  0.50400001928E-02 0.  1.
        1   -1    0    0  501    0  0.00000000000E+00  0.00000000000E+00 -0.17807275324E+04  0.17807275324E+04  0.50400001928E-02 0. -1.
    10030    2    1    2    0    0  0.00000000000E+00  0.00000000000E+00 -0.83213225901E+03  0.27293228058E+04  0.25993766333E+04 0.  0.
        2    1    3    3  502    0 -0.32721534813E+03  0.90221330758E+03 -0.13363108516E+04  0.16452311170E+04  0.25500000920E-02 0.  1.
       -2    1    3    3    0  502  0.32721534813E+03 -0.90221330758E+03  0.50417859258E+03  0.10840916888E+04  0.25500000920E-02 0. -1.
</event>
<event>
 5   0  0.2623368E-06  0.2596787E+04  0.7818609E-02  0.8369293E-01
       -2   -1    0    0    0  501  0.00000000000E+00  0.00000000000E+00  0.74042001550E+03  0.74042001550E+03  0.25500000920E-02 0.  1.
        2   -1    0    0  501    0  0.00000000000E+00  0.00000000000E+00 -0.22768508427E+04  0.22768508427E+04  0.25500000920E-02 0. -1.
    10030    2    1    2    0    0  0.00000000000E+00  0.00000000000E+00 -0.15364308272E+04  0.30172708583E+04  0.25967871967E+04 0.  0.
        5    1    3    3  502    0  0.81736197466E+03  0.78006766924E+03 -0.24930819349E+02  0.11301459207E+04  0.46999998093E+01 0. -1.
       -5    1    3    3    0  502 -0.81736197466E+03 -0.78006766924E+03 -0.15115000079E+04  0.18871249376E+04  0.46999998093E+01 0.  1.
</event>
<event>
 5   0  0.1055179E-06  0.2603504E+04  0.7818609E-02  0.8367012E-01
       -1   -1    0    0    0  501  0.00000000000E+00  0.00000000000E+00  0.12118121398E+04  0.12118121398E+04  0.50400001928E-02 0. -1.
        1   -1    0    0  501    0  0.00000000000E+00  0.00000000000E+00 -0.13983674920E+04  0.13983674920E+04  0.50400001928E-02 0.  1.
    10030    2    1    2    0    0  0.00000000000E+00  0.00000000000E+00 -0.18655535222E+03  0.26101796318E+04  0.26035043328E+04 0.  0.
        3    1    3    3  502    0  0.26811054018E+03 -0.23218071570E+03  0.11624382134E+04  0.12153410043E+04  0.10100000352E+00 0. -1.
       -3    1    3    3    0  502 -0.26811054018E+03  0.23218071570E+03 -0.13489935657E+04  0.13948386275E+04  0.10100000352E+00 0.  1.
</event>
<event>
 5   0  0.2586775E-06  0.2603237E+04  0.7818609E-02  0.8367102E-01
        2   -1    0    0  501    0  0.00000000000E+00  0.00000000000E+00  0.15621966088E+04  0.15621966088E+04  0.25500000920E-02 0. -1.
       -2   -1    0    0    0  501  0.00000000000E+00  0.00000000000E+00 -0.10845055185E+04  0.10845055185E+04  0.25500000920E-02 0.  1.
    10030    2    1    2    0    0  0.00000000000E+00  0.00000000000E+00  0.47769109024E+03  0.26467021273E+04  0.26032370950E+04 0.  0.
        1    1    3    3  502    0 -0.21964927392E+03  0.12616717249E+04  0.22598070867E+01  0.12806507922E+04  0.50400001928E-02 0.  1.
       -1    1    3    3    0  502  0.21964927392E+03 -0.12616717249E+04  0.47543128316E+03  0.13660513350E+04  0.50400001928E-02 0. -1.
</event>
<event>
 5   0  0.1032076E-06  0.2606113E+04  0.7818609E-02  0.8366128E-01
       -1   -1    0    0    0  501  0.00000000000E+00  0.00000000000E+00  0.10352469625E+04  0.10352469626E+04  0.50400001928E-02 0. -1.
        1   -1    0    0  501    0  0.00000000000E+00  0.00000000000E+00 -0.16401459981E+04  0.16401459981E+04  0.50400001928E-02 0.  1.
    10030    2    1    2    0    0  0.00000000000E+00  0.00000000000E+00 -0.60489903552E+03  0.26753929606E+04  0.26061129390E+04 0.  0.
        1    1    3    3  502    0  0.56961438163E+03 -0.11529007710E+02 -0.15055086433E+04  0.16097048602E+04  0.50400001928E-02 0.  1.
       -1    1    3    3    0  502 -0.56961438163E+03  0.11529007710E+02  0.90060960779E+03  0.10656881005E+04  0.50400001928E-02 0. -1.
</event>
<event>
 5   0  0.2586775E-06  0.2610759E+04  0.7818609E-02  0.8364556E-01
        2   -1    0    0  501    0  0.00000000000E+00  0.00000000000E+00  0.15525175631E+04  0.15525175631E+04  0.25500000920E-02 0.  1.
       -2   -1    0    0    0  501  0.00000000000E+00  0.00000000000E+00 -0.10975819311E+04  0.10975819311E+04  0.25500000920E-02 0. -1.
    10030    2    1    2    0    0  0.00000000000E+00  0.00000000000E+00  0.45493563199E+03  0.26500994942E+04  0.26107586828E+04 0.  0.
        1    1    3    3  502    0  0.31552742700E+03  0.12633134440E+04  0.13390066690E+03  0.13089873199E+04  0.50400001928E-02 0.  1.
       -1    1    3    3    0  502 -0.31552742700E+03 -0.12633134440E+04  0.32103496509E+03  0.13411121743E+04  0.50400001928E-02 0. -1.
</event>
<event>
 5   0  0.2586775E-06  0.2598546E+04  0.7818609E-02  0.8368695E-01
        2   -1    0    0  501    0  0.00000000000E+00  0.00000000000E+00  0.13831452282E+04  0.13831452282E+04  0.25500000920E-02 0.  1.
       -2   -1    0    0    0  501  0.00000000000E+00  0.00000000000E+00 -0.12204869086E+04  0.12204869086E+04  0.25500000920E-02 0. -1.
    10030    2    1    2    0    0  0.00000000000E+00  0.00000000000E+00  0.16265831963E+03  0.26036321368E+04  0.25985462426E+04 0.  0.
        1    1    3    3  502    0 -0.12690946532E+04  0.27166950923E+03  0.14231768500E+03  0.13056262422E+04  0.50400001928E-02 0.  1.
       -1    1    3    3    0  502  0.12690946532E+04 -0.27166950923E+03  0.20340634626E+02  0.12980058946E+04  0.50400001928E-02 0. -1.
</event>
<event>
 5   0  0.2623368E-06  0.2598385E+04  0.7818609E-02  0.8368750E-01
       -2   -1    0    0    0  501  0.00000000000E+00  0.00000000000E+00  0.13631834371E+04  0.13631834371E+04  0.25500000920E-02 0. -1.
        2   -1    0    0  501    0  0.00000000000E+00  0.00000000000E+00 -0.12382058526E+04  0.12382058526E+04  0.25500000920E-02 0.  1.
    10030    2    1    2    0    0  0.00000000000E+00  0.00000000000E+00  0.12497758454E+03  0.26013892897E+04  0.25983854294E+04 0.  0.
        5    1    3    3  502    0  0.60472228495E+02  0.10779273466E+04  0.78602432070E+03  0.13354551949E+04  0.46999998093E+01 0. -1.
       -5    1    3    3    0  502 -0.60472228495E+02 -0.10779273466E+04 -0.66104673616E+03  0.12659340948E+04  0.46999998093E+01 0.  1.
</event>
<event>
 5   0  0.2820028E-06  0.2589867E+04  0.7818609E-02  0.8371651E-01
       -2   -1    0    0    0  501  0.00000000000E+00  0.00000000000E+00  0.11961891079E+04  0.11961891079E+04  0.25500000920E-02 0.  1.
        2   -1    0    0  501    0  0.00000000000E+00  0.00000000000E+00 -0.14018296121E+04  0.14018296121E+04  0.25500000920E-02 0. -1.
    10030    2    1    2    0    0  0.00000000000E+00  0.00000000000E+00 -0.20564050415E+03  0.25980187200E+04  0.25898674199E+04 0.  0.
        3    1    3    3  502    0  0.73007569671E+03  0.84818093020E+03  0.55071459168E+03  0.12472802351E+04  0.10100000352E+00 0.  1.
       -3    1    3    3    0  502 -0.73007569671E+03 -0.84818093020E+03 -0.75635509583E+03  0.13507384849E+04  0.10100000352E+00 0. -1.
</event>
<event>
 5   0  0.1122628E-06  0.2603612E+04  0.7818609E-02  0.8366975E-01
        1   -1    0    0  501    0  0.00000000000E+00  0.00000000000E+00  0.74125133823E+03  0.74125133825E+03  0.50400001928E-02 0.  1.
       -1   -1    0    0    0  501  0.00000000000E+00  0.00000000000E+00 -0.22862670117E+04  0.22862670117E+04  0.50400001928E-02 0. -1.
    10030    2    1    2    0    0  0.00000000000E+00  0.00000000000E+00 -0.15450156734E+04  0.30275183499E+04  0.26036117084E+04 0.  0.
        2    1    3    3  502    0  0.62409664240E+03 -0.64113555643E+03  0.32704232046E+03  0.95263219563E+03  0.25500000920E-02 0.  1.
       -2    1    3    3    0  502 -0.62409664240E+03  0.64113555643E+03 -0.18720579939E+04  0.20748861543E+04  0.25500000920E-02 0. -1.
</event>
<event>
 5   0  0.1055179E-06  0.2600218E+04  0.7818609E-02  0.8368127E-01
        1   -1    0    0  501    0  0.00000000000E+00  0.00000000000E+00  0.14693638175E+04  0.14693638176E+04  0.50400001928E-02 0. -1.
       -1   -1    0    0    0  501  0.00000000000E+00  0.00000000000E+00 -0.11503508402E+04  0.11503508403E+04  0.50400001928E-02 0.  1.
    10030    2    1    2    0    0  0.00000000000E+00  0.00000000000E+00  0.31901297731E+03  0.26197146578E+04  0.26002183771E+04 0.  0.
        3    1    3    3  502    0  0.89516411751E+03 -0.47467842693E+02 -0.78920778525E+03  0.11943286532E+04  0.10100000352E+00 0.  1.
       -3    1    3    3    0  502 -0.89516411751E+03  0.47467842693E+02  0.11082207626E+04  0.14253860046E+04  0.10100000352E+00 0. -1.
</event>
<event>
 5   0  0.9197000E-07  0.2597399E+04  0.7818609E-02  0.8369085E-01
        3   -1    0    0  501    0  0.00000000000E+00  0.00000000000E+00  0.99962535195E+03  0.99962535706E+03  0.10100000352E+00 0. -1.
       -3   -1    0    0    0  501  0.00000000000E+00  0.00000000000E+00 -0.16872525249E+04  0.16872525279E+04  0.10100000352E+00 0.  1.
    10030    2    1    2    0    0  0.00000000000E+00  0.00000000000E+00 -0.68762717295E+03  0.26868778850E+04  0.25973990144E+04 0.  0.
        1    1    3    3  502    0  0.68216606066E+03 -0.10945018373E+04 -0.18579114098E+03  0.13029977568E+04  0.50400001928E-02 0. -1.
       -1    1    3    3    0  502 -0.68216606066E+03  0.10945018373E+04 -0.50183603197E+03  0.13838801282E+04  0.50400001928E-02 0.  1.
</event>
<event>
 5   0  0.1122628E-06  0.2600753E+04  0.7818609E-02  0.8367945E-01
       -1   -1    0    0    0  501  0.00000000000E+00  0.00000000000E+00  0.89047725020E+03  0.89047725021E+03  0.50400001928E-02 0. -1.
        1   -1    0    0  501    0  0.00000000000E+00  0.00000000000E+00 -0.18989586851E+04  0.18989586851E+04  0.50400001928E-02 0.  1.
    10030    2    1    2    0    0  0.00000000000E+00  0.00000000000E+00 -0.10084814349E+04  0.27894359354E+04  0.26007533587E+04 0.  0.
        2    1    3    3  502    0 -0.10274036595E+04  0.56622837619E+03 -0.11060226928E+04  0.16122837997E+04  0.25500000920E-02 0.  1.
       -2    1    3    3    0  502  0.10274036595E+04 -0.56622837619E+03  0.97541257914E+02  0.11771521357E+04  0.25500000920E-02 0. -1.
</event>
<event>
 5   0  0.1032076E-06  0.2600541E+04  0.7818609E-02  0.8368017E-01
        1   -1    0    0  501    0  0.00000000000E+00  0.00000000000E+00  0.11622383022E+04  0.11622383022E+04  0.50400001928E-02 0.  1.
       -1   -1    0    0    0  501  0.00000000000E+00  0.00000000000E+00 -0.14546960199E+04  0.14546960199E+04  0.50400001928E-02 0. -1.
    10030    2    1    2    0    0  0.00000000000E+00  0.00000000000E+00 -0.29245771766E+03  0.26169343221E+04  0.26005410455E+04 0.  0.
        1    1    3    3  502    0  0.90250091088E+03  0.87094231038E+03 -0.49139990609E+03  0.13470420446E+04  0.50400001928E-02 0. -1.
       -1    1    3    3    0  502 -0.90250091088E+03 -0.87094231038E+03  0.19894218843E+03  0.12698922775E+04  0.50400001928E-02 0.  1.
</event>
<event>
 5   0  0.2586775E-06  0.2602081E+04  0.7818609E-02  0.8367495E-01
        2   -1    0    0  501    0  0.00000000000E+00  0.00000000000E+00  0.22718382300E+04  0.22718382300E+04  0.25500000920E-02 0. -1.
       -2   -1    0    0    0  501  0.00000000000E+00  0.00000000000E+00 -0.74508216380E+03  0.74508216381E+03  0.25500000920E-02 0.  1.
    10030    2    1    2    0    0  0.00000000000E+00  0.00000000000E+00  0.15267560662E+04  0.30169203938E+04  0.26020808167E+04 0.  0.
        1    1    3    3  502    0  0.82077746777E+03  0.69180379516E+03  0.16157241942E+04  0.19398022617E+04  0.50400001928E-02 0. -1.
       -1    1    3    3    0  502 -0.82077746777E+03 -0.69180379516E+03 -0.88968128081E+02  0.10771181321E+04  0.50400001928E-02 0.  1.
</event>
<event>
 5   0  0.1055179E-06  0.2608590E+04  0.7818609E-02  0.8365289E-01
       -1   -1    0    0    0  501  0.00000000000E+00  0.00000000000E+00  0.96833902388E+03  0.96833902389E+03  0.50400001928E-02 0. -1.
        1   -1    0    0  501    0  0.00000000000E+00  0.00000000000E+00 -0.17568073025E+04  0.17568073025E+04  0.50400001928E-02 0.  1.
    10030    2    1    2    0    0  0.00000000000E+00  0.00000000000E+00 -0.78846827859E+03  0.27251463264E+04  0.26085897097E+04 0.  0.
        3    1    3    3  502    0  0.70999912117E+02 -0.10866193753E+04  0.35575896397E+03  0.11455771930E+04  0.10100000352E+00 0. -1.
       -3    1    3    3    0  502 -0.70999912117E+02  0.10866193753E+04 -0.11442272426E+04  0.15795691334E+04  0.10100000352E+00 0.  1.
</event>
<event>
 5   0  0.2746631E-06  0.2600802E+04  0.7818609E-02  0.8367929E-01
        2   -1    0    0  501    0  0.00000000000E+00  0.00000000000E+00  0.16968770857E+04  0.16968770857E+04  0.25500000920E-02 0. -1.
       -2   -1    0    0    0  501  0.00000000000E+00  0.00000000000E+00 -0.99656167985E+03  0.99656167985E+03  0.25500000920E-02 0.  1.
    10030    2    1    2    0    0  0.00000000000E+00  0.00000000000E+00  0.70031540584E+03  0.26934387655E+04  0.26008019371E+04 0.  0.
        2    1    3    3  502    0  0.11346942803E+04  0.23501975180E+03 -0.26101282305E+03  0.11878102067E+04  0.25500000920E-02 0. -1.
       -2    1    3    3    0  502 -0.11346942803E+04 -0.23501975180E+03  0.96132822888E+03  0.15056285588E+04  0.25500000920E-02 0.  1.
</event>
<event>
 5   0  0.1088757E-06  0.2603488E+04  0.7818609E-02  0.8367017E-01
       -1   -1    0    0    0  501  0.00000000000E+00  0.00000000000E+00  0.11635801180E+04  0.11635801180E+04  0.50400001928E-02 0. -1.
        1   -1    0    0  501    0  0.00000000000E+00  0.00000000000E+00 -0.14563140306E+04  0.14563140306E+04  0.50400001928E-02 0.  1.
    10030    2    1    2    0    0  0.00000000000E+00  0.00000000000E+00 -0.29273391264E+03  0.26198941486E+04  0.26034884686E+04 0.  0.
        5    1    3    3  502    0 -0.85611220873E+03  0.15153373011E+03  0.82856483444E+03  0.12010130558E+04  0.46999998093E+01 0. -1.
       -5    1    3    3    0  502  0.85611220873E+03 -0.15153373011E+03 -0.11212987471E+04  0.14188810928E+04  0.46999998093E+01 0.  1.
</event>
<event>
 5   0  0.2705807E-06  0.2598654E+04  0.7818609E-02  0.8368659E-01
       -2   -1    0    0    0  501  0.00000000000E+00  0.00000000000E+00  0.12612966517E+04  0.12612966517E+04  0.25500000920E-02 0. -1.
        2   -1    0    0  501    0  0.00000000000E+00  0.00000000000E+00 -0.13385040986E+04  0.13385040986E+04  0.25500000920E-02 0.  1.
    10030    2    1    2    0    0  0.00000000000E+00  0.00000000000E+00 -0.77207446887E+02  0.25998007503E+04  0.25986540654E+04 0.  0.
        4    1    3    3  502    0 -0.14621295007E+03 -0.47440670660E+03  0.11626797087E+04  0.12642253232E+04  0.12699999809E+01 0. -1.
       -4    1    3    3    0  502  0.14621295007E+03  0.47440670660E+03 -0.12398871556E+04  0.13355754271E+04  0.12699999809E+01 0.  1.
</event>
<event>
 5   0  0.2586775E-06  0.2592762E+04  0.7818609E-02  0.8370664E-01
       -2   -1    0    0    0  501  0.00000000000E+00  0.00000000000E+00  0.93199568467E+03  0.93199568467E+03  0.25500000920E-02 0. -1.
        2   -1    0    0  501    0  0.00000000000E+00  0.00000000000E+00 -0.18032307467E+04  0.18032307468E+04  0.25500000920E-02 0.  1.
    10030    2    1    2    0    0  0.00000000000E+00  0.00000000000E+00 -0.87123506208E+03  0.27352264314E+04  0.25927616739E+04 0.  0.
        1    1    3    3  502    0 -0.10280211285E+04 -0.73760963662E+02 -0.12651676983E+04  0.16318447920E+04  0.50400001928E-02 0.  1.
       -1    1    3    3    0  502  0.10280211285E+04  0.73760963662E+02  0.39393263621E+03  0.11033816394E+04  0.50400001928E-02 0. -1.
</event>
<event>
 5   0  0.2586775E-06  0.2590904E+04  0.7818609E-02  0.8371298E-01
       -2   -1    0    0    0  501  0.00000000000E+00  0.00000000000E+00  0.89086295991E+03  0.89086295991E+03  0.25500000920E-02 0. -1.
        2   -1    0    0  501    0  0.00000000000E+00  0.00000000000E+00 -0.18837861440E+04  0.18837861440E+04  0.25500000920E-02 0.  1.
    10030    2    1    2    0    0  0.00000000000E+00  0.00000000000E+00 -0.99292318410E+03  0.27746491039E+04  0.25909035490E+04 0.  0.
        1    1    3    3  502    0 -0.33938595559E+03  0.79176110689E+03  0.53969207081E+03  0.10165313613E+04  0.50400001928E-02 0. -1.
       -1    1    3    3    0  502  0.33938595559E+03 -0.79176110689E+03 -0.15326152549E+04  0.17581177426E+04  0.50400001928E-02 0.  1.
</event>
<event>
 5   0  0.1100104E-06  0.2601954E+04  0.7818609E-02  0.8367538E-01
       -1   -1    0    0    0  501  0.00000000000E+00  0.00000000000E+00  0.10574929818E+04  0.10574929818E+04  0.50400001928E-02 0. -1.
        1   -1    0    0  501    0  0.00000000000E+00  0.00000000000E+00 -0.16005226034E+04  0.16005226034E+04  0.50400001928E-02 0.  1.
    10030    2    1    2    0    0  0.00000000000E+00  0.00000000000E+00 -0.54302962155E+03  0.26580155852E+04  0.26019542043E+04 0.  0.
        4    1    3    3  502    0 -0.11127925594E+04  0.62609828395E+03 -0.16673477054E+02  0.12769439921E+04  0.12699999809E+01 0. -1.
       -4    1    3    3    0  502  0.11127925594E+04 -0.62609828395E+03 -0.52635614450E+03  0.13810715930E+04  0.12699999809E+01 0.  1.
</event>
<event>
 5   0  0.2705807E-06  0.2598364E+04  0.7818609E-02  0.8368757E-01
        2   -1    0    0  501    0  0.00000000000E+00  0.00000000000E+00  0.17339545471E+04  0.17339545471E+04  0.25500000920E-02 0.  1.
       -2   -1    0    0    0  501  0.00000000000E+00  0.00000000000E+00 -0.97342437757E+03  0.97342437757E+03  0.25500000920E-02 0. -1.
    10030    2    1    2    0    0  0.00000000000E+00  0.00000000000E+00  0.76053016952E+03  0.27073789247E+04  0.25983638127E+04 0.  0.
        4    1    3    3  502    0 -0.28733901620E+02  0.17797224499E+03  0.17208580025E+04  0.17302755950E+04  0.12699999809E+01 0.  1.
       -4    1    3    3    0  502  0.28733901620E+02 -0.17797224499E+03 -0.96032783298E+03  0.97710332963E+03  0.12699999809E+01 0. -1.
</event>
<event>
 5   0  0.2705807E-06  0.2604148E+04  0.7818609E-02  0.8366793E-01
        2   -1    0    0  501    0  0.00000000000E+00  0.00000000000E+00  0.17410060301E+04  0.17410060301E+04  0.25500000920E-02 0.  1.
       -2   -1    0    0    0  501  0.00000000000E+00  0.00000000000E+00 -0.97380319373E+03  0.97380319373E+03  0.25500000920E-02 0. -1.
    10030    2    1    2    0    0  0.00000000000E+00  0.00000000000E+00  0.76720283639E+03  0.27148092239E+04  0.26041484078E+04 0.  0.
        4    1    3    3  502    0  0.12136712619E+04  0.36792641923E+03  0.69114217736E+03  0.14443153755E+04  0.12699999809E+01 0.  1.
       -4    1    3    3    0  502 -0.12136712619E+04 -0.36792641923E+03  0.76060659029E+02  0.12704938483E+04  0.12699999809E+01 0. -1.
</event>
<event>
 5   0  0.1122628E-06  0.2600730E+04  0.7818609E-02  0.8367953E-01
       -1   -1    0    0    0  501  0.00000000000E+00  0.00000000000E+00  0.10835405475E+04  0.10835405475E+04  0.50400001928E-02 0.  1.
        1   -1    0    0  501    0  0.00000000000E+00  0.00000000000E+00 -0.15605771482E+04  0.15605771482E+04  0.50400001928E-02 0. -1.
    10030    2    1    2    0    0  0.00000000000E+00  0.00000000000E+00 -0.47703660068E+03  0.26441176957E+04  0.26007296034E+04 0.  0.
        2    1    3    3  502    0  0.43744683906E+03 -0.56781246033E+03  0.86456073294E+03  0.11230476339E+04  0.25500000920E-02 0.  1.
       -2    1    3    3    0  502 -0.43744683906E+03  0.56781246033E+03 -0.13415973336E+04  0.15210700617E+04  0.25500000920E-02 0. -1.
</event>
<event>
 5   0  0.2586775E-06  0.2603918E+04  0.7818609E-02  0.8366871E-01
        2   -1    0    0  501    0  0.00000000000E+00  0.00000000000E+00  0.14137359509E+04  0.14137359509E+04  0.25500000920E-02 0.  1.
       -2   -1    0    0    0  501  0.00000000000E+00  0.00000000000E+00 -0.11990201208E+04  0.11990201208E+04  0.25500000920E-02 0. -1.
    10030    2    1    2    0    0  0.00000000000E+00  0.00000000000E+00  0.21471583008E+03  0.26127560718E+04  0.26039184709E+04 0.  0.
        1    1    3    3  502    0 -0.45977420032E+03 -0.12010334365E+04  0.31108450036E+03  0.13231202505E+04  0.50400001928E-02 0. -1.
       -1    1    3    3    0  502  0.45977420032E+03  0.12010334365E+04 -0.96368670278E+02  0.12896358213E+04  0.50400001928E-02 0.  1.
</event>
<event>
 5   0  0.1055179E-06  0.2598108E+04  0.7818609E-02  0.8368844E-01
       -1   -1    0    0    0  501  0.00000000000E+00  0.00000000000E+00  0.87517888429E+03  0.87517888430E+03  0.50400001928E-02 0. -1.
        1   -1    0    0  501    0  0.00000000000E+00  0.00000000000E+00 -0.19282245819E+04  0.19282245819E+04  0.50400001928E-02 0.  1.
    10030    2    1    2    0    0  0.00000000000E+00  0.00000000000E+00 -0.10530456976E+04  0.28034034662E+04  0.25981081104E+04 0.  0.
        3    1    3    3  502    0 -0.89470048880E+03 -0.15709100845E+02  0.48959158909E+03  0.10200174875E+04  0.10100000352E+00 0. -1.
       -3    1    3    3    0  502  0.89470048880E+03  0.15709100845E+02 -0.15426372867E+04  0.17833859787E+04  0.10100000352E+00 0.  1.
</event>
<event>
 5   0  0.1088757E-06  0.2602054E+04  0.7818609E-02  0.8367504E-01
        1   -1    0    0  501    0  0.00000000000E+00  0.00000000000E+00  0.12086250864E+04  0.12086250864E+04  0.50400001928E-02 0. -1.
       -1   -1    0    0    0  501  0.00000000000E+00  0.00000000000E+00 -0.14004935888E+04  0.14004935888E+04  0.50400001928E-02 0.  1.
    10030    2    1    2    0    0  0.00000000000E+00  0.00000000000E+00 -0.19186850238E+03  0.26091186753E+04  0.26020543306E+04 0.  0.
        5    1    3    3  502    0 -0.69479557243E+03 -0.93847335447E+03 -0.67123092765E+03  0.13468653135E+04  0.46999998093E+01 0.  1.
       -5    1    3    3    0  502  0.69479557243E+03  0.93847335447E+03  0.47936242527E+03  0.12622533618E+04  0.46999998093E+01 0. -1.
</event>
<event>
 5   0  0.1088757E-06  0.2594970E+04  0.7818609E-02  0.8369912E-01
        1   -1    0    0  501    0  0.00000000000E+00  0.00000000000E+00  0.11418104506E+04  0.11418104506E+04  0.50400001928E-02 0.  1.
       -1   -1    0    0    0  501  0.00000000000E+00  0.00000000000E+00 -0.14743840335E+04  0.14743840335E+04  0.50400001928E-02 0. -1.
    10030    2    1    2    0    0  0.00000000000E+00  0.00000000000E+00 -0.33257358295E+03  0.26161944841E+04  0.25949698246E+04 0.  0.
        5    1    3    3  502    0 -0.10812243832E+04 -0.49666812258E+03  0.35536152612E+03  0.12417847217E+04  0.46999998093E+01 0. -1.
       -5    1    3    3    0  502  0.10812243832E+04  0.49666812258E+03 -0.68793510907E+03  0.13744097624E+04  0.46999998093E+01 0.  1.
</event>
<event>
 5   0  0.1122628E-06  0.2604209E+04  0.7818609E-02  0.8366773E-01
        1   -1    0    0  501    0  0.00000000000E+00  0.00000000000E+00  0.12740563510E+04  0.12740563510E+04  0.50400001928E-02 0.  1.
       -1   -1    0    0    0  501  0.00000000000E+00  0.00000000000E+00 -0.13307696138E+04  0.13307696138E+04  0.50400001928E-02 0. -1.
    10030    2    1    2    0    0  0.00000000000E+00  0.00000000000E+00 -0.56713262785E+02  0.26048259649E+04  0.26042085003E+04 0.  0.
        2    1    3    3  502    0  0.28755026135E+03  0.11703176209E+04 -0.52157291953E+03  0.13131514753E+04  0.25500000920E-02 0. -1.
       -2    1    3    3    0  502 -0.28755026135E+03 -0.11703176209E+04  0.46485965674E+03  0.12916744896E+04  0.25500000920E-02 0.  1.
</event>
<event>
 5   0  0.2820028E-06  0.2600554E+04  0.7818609E-02  0.8368013E-01
        2   -1    0    0  501    0  0.00000000000E+00  0.00000000000E+00  0.15327218204E+04  0.15327218204E+04  0.25500000920E-02 0. -1.
       -2   -1    0    0    0  501  0.00000000000E+00  0.00000000000E+00 -0.11030837420E+04  0.11030837420E+04  0.25500000920E-02 0.  1.
    10030    2    1    2    0    0  0.00000000000E+00  0.00000000000E+00  0.42963807834E+03  0.26358055624E+04  0.26005541880E+04 0.  0.
        3    1    3    3  502    0  0.39395951455E+03  0.12136773536E+04 -0.38577280012E+02  0.12765990109E+04  0.10100000352E+00 0.  1.
       -3    1    3    3    0  502 -0.39395951455E+03 -0.12136773536E+04  0.46821535835E+03  0.13592065516E+04  0.10100000352E+00 0. -1.
</event>
<event>
 5   0  0.2623368E-06  0.2595343E+04  0.7818609E-02  0.8369785E-01
       -2   -1    0    0    0  501  0.00000000000E+00  0.00000000000E+00  0.85387705731E+03  0.85387705732E+03  0.25500000920E-02 0. -1.
        2   -1    0    0  501    0  0.00000000000E+00  0.00000000000E+00 -0.19721235369E+04  0.19721235369E+04  0.25500000920E-02 0.  1.
    10030    2    1    2    0    0  0.00000000000E+00  0.00000000000E+00 -0.11182464795E+04  0.28260005942E+04  0.25953427845E+04 0.  0.
        5    1    3    3  502    0  0.90208876038E+03 -0.88658399046E+03 -0.87495978766E+03  0.15379766005E+04  0.46999998093E+01 0.  1.
       -5    1    3    3    0  502 -0.90208876038E+03  0.88658399046E+03 -0.24328669189E+03  0.12880239936E+04  0.46999998093E+01 0. -1.
</event>
<event>
 5   0  0.2746631E-06  0.2610319E+04  0.7818609E-02  0.8364705E-01
       -2   -1    0    0    0  501  0.00000000000E+00  0.00000000000E+00  0.17077287977E+04  0.17077287977E+04  0.25500000920E-02 0.  1.
        2   -1    0    0  501    0  0.00000000000E+00  0.00000000000E+00 -0.99748924948E+03  0.99748924948E+03  0.25500000920E-02 0. -1.
    10030    2    1    2    0    0  0.00000000000E+00  0.00000000000E+00  0.71023954826E+03  0.27052180472E+04  0.26103188440E+04 0.  0.
        2    1    3    3  502    0 -0.79671249795E+03  0.40592084195E+03  0.13404308728E+04  0.16112968253E+04  0.25500000920E-02 0.  1.
       -2    1    3    3    0  502  0.79671249795E+03 -0.40592084195E+03 -0.63019132454E+03  0.10939212220E+04  0.25500000920E-02 0. -1.
</event>
<event>
 5   0  0.1122628E-06  0.2601162E+04  0.7818609E-02  0.8367807E-01
        1   -1    0    0  501    0  0.00000000000E+00  0.00000000000E+00  0.17808067846E+04  0.17808067847E+04  0.50400001928E-02 0.  1.
       -1   -1    0    0    0  501  0.00000000000E+00  0.00000000000E+00 -0.94985633130E+03  0.94985633131E+03  0.50400001928E-02 0. -1.
    10030    2    1    2    0    0  0.00000000000E+00  0.00000000000E+00  0.83095045335E+03  0.27306631160E+04  0.26011617399E+04 0.  0.
        2    1    3    3  502    0  0.52594885009E+03 -0.75773073072E+03 -0.54708895459E+03  0.10724198699E+04  0.25500000920E-02 0. -1.
       -2    1    3    3    0  502 -0.52594885009E+03  0.75773073072E+03  0.13780394079E+04  0.16582432460E+04  0.25500000920E-02 0.  1.
</event>
<event>
 5   0  0.2586775E-06  0.2606790E+04  0.7818609E-02  0.8365899E-01
        2   -1    0    0  501    0  0.00000000000E+00  0.00000000000E+00  0.16844154586E+04  0.16844154587E+04  0.25500000920E-02 0. -1.
       -2   -1    0    0    0  501  0.00000000000E+00  0.00000000000E+00 -0.10085623351E+04  0.10085623351E+04  0.25500000920E-02 0.  1.
    10030    2    1    2    0    0  0.00000000000E+00  0.00000000000E+00  0.67585312353E+03  0.26929777938E+04  0.26067895874E+04 0.  0.
        1    1    3    3  502    0 -0.52919248498E+03  0.10752597500E+04  0.86732448841E+03  0.14793512039E+04  0.50400001928E-02 0. -1.
       -1    1    3    3    0  502  0.52919248498E+03 -0.10752597500E+04 -0.19147136488E+03  0.12136265899E+04  0.50400001928E-02 0.  1.
</event>
<event>
 5   0  0.9197000E-07  0.2604925E+04  0.7818609E-02  0.8366530E-01
        3   -1    0    0  501    0  0.00000000000E+00  0.00000000000E+00  0.16727948937E+04  0.16727948968E+04  0.10100000352E+00 0.  1.
       -3   -1    0    0    0  501  0.00000000000E+00  0.00000000000E+00 -0.10141165283E+04  0.10141165333E+04  0.10100000352E+00 0. -1.
    10030    2    1    2    0    0  0.00000000000E+00  0.00000000000E+00  0.65867836541E+03  0.26869114301E+04  0.26049253049E+04 0.  0.
        3    1    3    3  502    0  0.76243931307E+03  0.61237711066E+03  0.12166999086E+04  0.15609862618E+04  0.10100000352E+00 0.  1.
       -3    1    3    3    0  502 -0.76243931307E+03 -0.61237711066E+03 -0.55802154316E+03  0.11259251683E+04  0.10100000352E+00 0. -1.
</event>
<event>
 5   0  0.9197000E-07  0.2611378E+04  0.7818609E-02  0.8364346E-01
       -4   -1    0    0    0  501  0.00000000000E+00  0.00000000000E+00  0.15468520309E+04  0.15468525523E+04  0.12699999809E+01 0. -1.
        4   -1    0    0  501    0  0.00000000000E+00  0.00000000000E+00 -0.11021239628E+04  0.11021246945E+04  0.12699999809E+01 0.  1.
    10030    2    1    2    0    0  0.00000000000E+00  0.00000000000E+00  0.44472806813E+03  0.26489772468E+04  0.26113784482E+04 0.  0.
        5    1    3    3  502    0  0.43010217815E+03 -0.54642921242E+03 -0.89863968729E+03  0.11362869996E+04  0.46999998093E+01 0.  1.
       -5    1    3    3    0  502 -0.43010217815E+03  0.54642921242E+03  0.13433677554E+04  0.15126902472E+04  0.46999998093E+01 0. -1.
</event>
<event>
 5   0  0.1032076E-06  0.2600843E+04  0.7818609E-02  0.8367915E-01
        1   -1    0    0  501    0  0.00000000000E+00  0.00000000000E+00  0.16516871699E+04  0.16516871699E+04  0.50400001928E-02 0. -1.
       -1   -1    0    0    0  501  0.00000000000E+00  0.00000000000E+00 -0.10238597918E+04  0.10238597918E+04  0.50400001928E-02 0.  1.
    10030    2    1    2    0    0  0.00000000000E+00  0.00000000000E+00  0.62782737807E+03  0.26755469617E+04  0.26008430032E+04 0.  0.
        1    1    3    3  502    0  0.71738507541E+03 -0.43040657237E+02 -0.80100668730E+03  0.10761531293E+04  0.50400001928E-02 0.  1.
       -1    1    3    3    0  502 -0.71738507541E+03  0.43040657237E+02  0.14288340654E+04  0.15993938324E+04  0.50400001928E-02 0. -1.
</event>
<event>
 5   0  0.1055179E-06  0.2601646E+04  0.7818609E-02  0.8367642E-01
        1   -1    0    0  501    0  0.00000000000E+00  0.00000000000E+00  0.16551795284E+04  0.16551795285E+04  0.50400001928E-02 0. -1.
       -1   -1    0    0    0  501  0.00000000000E+00  0.00000000000E+00 -0.10223304568E+04  0.10223304568E+04  0.50400001928E-02 0.  1.
    10030    2    1    2    0    0  0.00000000000E+00  0.00000000000E+00  0.63284907163E+03  0.26775099853E+04  0.26016459740E+04 0.  0.
        3    1    3    3  502    0 -0.12162764875E+04  0.58647056012E+01 -0.15830450180E+03  0.12265493118E+04  0.10100000352E+00 0. -1.
       -3    1    3    3    0  502  0.12162764875E+04 -0.58647056012E+01  0.79115357343E+03  0.14509606734E+04  0.10100000352E+00 0.  1.
</event>
<event>
 5   0  0.1122628E-06  0.2600989E+04  0.7818609E-02  0.8367865E-01
        1   -1    0    0  501    0  0.00000000000E+00  0.00000000000E+00  0.18728413267E+04  0.18728413267E+04  0.50400001928E-02 0.  1.
       -1   -1    0    0    0  501  0.00000000000E+00  0.00000000000E+00 -0.90305901876E+03  0.90305901878E+03  0.50400001928E-02 0. -1.
    10030    2    1    2    0    0  0.00000000000E+00  0.00000000000E+00  0.96978230790E+03  0.27759003454E+04  0.26009892355E+04 0.  0.
        2    1    3    3  502    0  0.28769628468E+03 -0.97964064605E+03 -0.37477111665E+03  0.10876204933E+04  0.25500000920E-02 0. -1.
       -2    1    3    3    0  502 -0.28769628468E+03  0.97964064605E+03  0.13445534246E+04  0.16882798521E+04  0.25500000920E-02 0.  1.
</event>
<event>
 5   0  0.1055179E-06  0.2601646E+04  0.7818609E-02  0.8367642E-01
       -1   -1    0    0    0  501  0.00000000000E+00  0.00000000000E+00  0.12795189472E+04  0.12795189472E+04  0.50400001928E-02 0. -1.
        1   -1    0    0  501    0  0.00000000000E+00  0.00000000000E+00 -0.13224817882E+04  0.13224817883E+04  0.50400001928E-02 0.  1.
    10030    2    1    2    0    0  0.00000000000E+00  0.00000000000E+00 -0.42962841013E+02  0.26020007355E+04  0.26016460216E+04 0.  0.
        3    1    3    3  502    0  0.95478936107E+03  0.21727518621E+03  0.83497011939E+03  0.12868590991E+04  0.10100000352E+00 0. -1.
       -3    1    3    3    0  502 -0.95478936107E+03 -0.21727518621E+03 -0.87793296040E+03  0.13151416364E+04  0.10100000352E+00 0.  1.
</event>
<event>
 5   0  0.1100104E-06  0.2593529E+04  0.7818609E-02  0.8370403E-01
        1   -1    0    0  501    0  0.00000000000E+00  0.00000000000E+00  0.14185312283E+04  0.14185312283E+04  0.50400001928E-02 0.  1.
       -1   -1    0    0    0  501  0.00000000000E+00  0.00000000000E+00 -0.11854502486E+04  0.11854502486E+04  0.50400001928E-02 0. -1.
    10030    2    1    2    0    0  0.00000000000E+00  0.00000000000E+00  0.23308097966E+03  0.26039814769E+04  0.25935290222E+04 0.  0.
        4    1    3    3  502    0 -0.75550377001E+03 -0.10478431319E+04  0.23029054837E+03  0.13121724449E+04  0.12699999809E+01 0.  1.
       -4    1    3    3    0  502  0.75550377001E+03  0.10478431319E+04  0.27904312812E+01  0.12918090320E+04  0.12699999809E+01 0. -1.
</event>
<event>
 5   0  0.1122628E-06  0.2619461E+04  0.7818609E-02  0.8361621E-01
       -1   -1    0    0    0  501  0.00000000000E+00  0.00000000000E+00  0.88599816919E+03  0.88599816920E+03  0.50400001928E-02 0.  1.
        1   -1    0    0  501    0  0.00000000000E+00  0.00000000000E+00 -0.19361142932E+04  0.19361142932E+04  0.50400001928E-02 0. -1.
    10030    2    1    2    0    0  0.00000000000E+00  0.00000000000E+00 -0.10501161240E+04  0.28221124624E+04  0.26194607988E+04 0.  0.
        2    1    3    3  502    0 -0.99095683146E+03 -0.15447379099E+03 -0.14325644048E+04  0.17487419386E+04  0.25500000920E-02 0. -1.
       -2    1    3    3    0  502  0.99095683146E+03  0.15447379099E+03  0.38244828079E+03  0.10733705238E+04  0.25500000920E-02 0.  1.
</event>
<event>
 5   0  0.2746631E-06  0.2602884E+04  0.7818609E-02  0.8367222E-01
       -2   -1    0    0    0  501  0.00000000000E+00  0.00000000000E+00  0.11794579679E+04  0.11794579679E+04  0.25500000920E-02 0.  1.
        2   -1    0    0  501    0  0.00000000000E+00  0.00000000000E+00 -0.14360425317E+04  0.14360425317E+04  0.25500000920E-02 0. -1.
    10030    2    1    2    0    0  0.00000000000E+00  0.00000000000E+00 -0.25658456378E+03  0.26155004996E+04  0.26028844049E+04 0.  0.
        2    1    3    3  502    0 -0.11485752673E+04 -0.27248557139E+03 -0.67892483376E+03  0.13617681378E+04  0.25500000920E-02 0. -1.
       -2    1    3    3    0  502  0.11485752673E+04  0.27248557139E+03  0.42234026998E+03  0.12537323618E+04  0.25500000920E-02 0.  1.
</event>
<event>
 5   0  0.1122628E-06  0.2610112E+04  0.7818609E-02  0.8364775E-01
       -1   -1    0    0    0  501  0.00000000000E+00  0.00000000000E+00  0.11088988443E+04  0.11088988443E+04  0.50400001928E-02 0. -1.
        1   -1    0    0  501    0  0.00000000000E+00  0.00000000000E+00 -0.15359115571E+04  0.15359115571E+04  0.50400001928E-02 0.  1.
    10030    2    1    2    0    0  0.00000000000E+00  0.00000000000E+00 -0.42701271282E+03  0.26448104014E+04  0.26101115306E+04 0.  0.
        2    1    3    3  502    0  0.10130637868E+04 -0.52141153418E+03 -0.85836457321E+03  0.14265195283E+04  0.25500000920E-02 0.  1.
       -2    1    3    3    0  502 -0.10130637868E+04  0.52141153418E+03  0.43135186038E+03  0.12182908731E+04  0.25500000920E-02 0. -1.
</event>
<event>
 5   0  0.1088757E-06  0.2599212E+04  0.7818609E-02  0.8368469E-01
        1   -1    0    0  501    0  0.00000000000E+00  0.00000000000E+00  0.16221590728E+04  0.16221590728E+04  0.50400001928E-02 0.  1.
       -1   -1    0    0    0  501  0.00000000000E+00  0.00000000000E+00 -0.10411903533E+04  0.10411903533E+04  0.50400001928E-02 0. -1.
    10030    2    1    2    0    0  0.00000000000E+00  0.00000000000E+00  0.58096871948E+03  0.26633494261E+04  0.25992124793E+04 0.  0.
        5    1    3    3  502    0 -0.10426829358E+04 -0.60658785285E+03 -0.20499448159E+03  0.12235936235E+04  0.46999998093E+01 0. -1.
       -5    1    3    3    0  502  0.10426829358E+04  0.60658785285E+03  0.78596320107E+03  0.14397558027E+04  0.46999998093E+01 0.  1.
</event>
<event>
 5   0  0.9197000E-07  0.2527784E+04  0.7818609E-02  0.8393154E-01
       -3   -1    0    0    0  501  0.00000000000E+00  0.00000000000E+00  0.21562807602E+04  0.21562807626E+04  0.10100000352E+00 0. -1.
        3   -1    0    0  501    0  0.00000000000E+00  0.00000000000E+00 -0.74082329501E+03  0.74082330189E+03  0.10100000352E+00 0.  1.
    10030    2    1    2    0    0  0.00000000000E+00  0.00000000000E+00  0.14154574652E+04  0.28971040645E+04  0.25277840344E+04 0.  0.
        4    1    3    3  502    0  0.35035702319E+03  0.12137900258E+04  0.66507351248E+03  0.14277116867E+04  0.12699999809E+01 0. -1.
       -4    1    3    3    0  502 -0.35035702319E+03 -0.12137900258E+04  0.75038395276E+03  0.14693923778E+04  0.12699999809E+01 0.  1.
</event>
<event>
 5   0  0.2820028E-06  0.2599027E+04  0.7818609E-02  0.8368532E-01
       -2   -1    0    0    0  501  0.00000000000E+00  0.00000000000E+00  0.13008169405E+04  0.13008169405E+04  0.25500000920E-02 0.  1.
        2   -1    0    0  501    0  0.00000000000E+00  0.00000000000E+00 -0.12982111905E+04  0.12982111905E+04  0.25500000920E-02 0. -1.
    10030    2    1    2    0    0  0.00000000000E+00  0.00000000000E+00  0.26057500341E+01  0.25990281310E+04  0.25990268247E+04 0.  0.
        3    1    3    3  502    0  0.56823619129E+03 -0.11459743935E+04  0.23061809894E+03  0.12997439738E+04  0.10100000352E+00 0.  1.
       -3    1    3    3    0  502 -0.56823619129E+03  0.11459743935E+04 -0.22801234890E+03  0.12992841572E+04  0.10100000352E+00 0. -1.
</event>
<event>
 5   0  0.2820028E-06  0.2597682E+04  0.7818609E-02  0.8368989E-01
        2   -1    0    0  501    0  0.00000000000E+00  0.00000000000E+00  0.21763928847E+04  0.21763928847E+04  0.25500000920E-02 0. -1.
       -2   -1    0    0    0  501  0.00000000000E+00  0.00000000000E+00 -0.77513020486E+03  0.77513020486E+03  0.25500000920E-02 0.  1.
    10030    2    1    2    0    0  0.00000000000E+00  0.00000000000E+00  0.14012626799E+04  0.29515230896E+04  0.25976819379E+04 0.  0.
        3    1    3    3  502    0 -0.62193485705E+03  0.91234238493E+03 -0.76506160320E+02  0.11068083829E+04  0.10100000352E+00 0.  1.
       -3    1    3    3    0  502  0.62193485705E+03 -0.91234238493E+03  0.14777688402E+04  0.18447147067E+04  0.10100000352E+00 0. -1.
</event>
<event>
 5   0  0.2705807E-06  0.2599043E+04  0.7818609E-02  0.8368526E-01
        2   -1    0    0  501    0  0.00000000000E+00  0.00000000000E+00  0.12266020035E+04  0.12266020035E+04  0.25500000920E-02 0.  1.
       -2   -1    0    0    0  501  0.00000000000E+00  0.00000000000E+00 -0.13767759541E+04  0.13767759541E+04  0.25500000920E-02 0. -1.
    10030    2    1    2    0    0  0.00000000000E+00  0.00000000000E+00 -0.15017395065E+03  0.26033779576E+04  0.25990430113E+04 0.  0.
        4    1    3    3  502    0 -0.10376630856E+03 -0.33665767725E+03  0.11778585155E+04  0.12294137359E+04  0.12699999809E+01 0.  1.
       -4    1    3    3    0  502  0.10376630856E+03  0.33665767725E+03 -0.13280324662E+04  0.13739642217E+04  0.12699999809E+01 0. -1.
</event>
<event>
 5   0  0.2820028E-06  0.2601676E+04  0.7818609E-02  0.8367632E-01
       -2   -1    0    0    0  501  0.00000000000E+00  0.00000000000E+00  0.15136248024E+04  0.15136248024E+04  0.25500000920E-02 0.  1.
        2   -1    0    0  501    0  0.00000000000E+00  0.00000000000E+00 -0.11179651906E+04  0.11179651906E+04  0.25500000920E-02 0. -1.
    10030    2    1    2    0    0  0.00000000000E+00  0.00000000000E+00  0.39565961178E+03  0.26315899930E+04  0.26016762602E+04 0.  0.
        3    1    3    3  502    0  0.19236374722E+02  0.12704303018E+04 -0.84333939543E+02  0.12733716713E+04  0.10100000352E+00 0. -1.
       -3    1    3    3    0  502 -0.19236374722E+02 -0.12704303018E+04  0.47999355133E+03  0.13582183217E+04  0.10100000352E+00 0.  1.
</event>
<event>
 5   0  0.2586775E-06  0.2602157E+04  0.7818609E-02  0.8367469E-01
       -2   -1    0    0    0  501  0.00000000000E+00  0.00000000000E+00  0.68429294635E+03  0.68429294636E+03  0.25500000920E-02 0.  1.
        2   -1    0    0  501    0  0.00000000000E+00  0.00000000000E+00 -0.24738012437E+04  0.24738012437E+04  0.25500000920E-02 0. -1.
    10030    2    1    2    0    0  0.00000000000E+00  0.00000000000E+00 -0.17895082974E+04  0.31580941901E+04  0.26021565993E+04 0.  0.
        1    1    3    3  502    0 -0.30099033617E+03  0.11990164033E+04 -0.13870950996E+04  0.18580280765E+04  0.50400001928E-02 0. -1.
       -1    1    3    3    0  502  0.30099033617E+03 -0.11990164033E+04 -0.40241319783E+03  0.13000661136E+04  0.50400001928E-02 0.  1.
</event>
<event>
 5   0  0.2820028E-06  0.2600504E+04  0.7818609E-02  0.8368030E-01
       -2   -1    0    0    0  501  0.00000000000E+00  0.00000000000E+00  0.17496885147E+04  0.17496885147E+04  0.25500000920E-02 0.  1.
        2   -1    0    0  501    0  0.00000000000E+00  0.00000000000E+00 -0.96626100163E+03  0.96626100163E+03  0.25500000920E-02 0. -1.
    10030    2    1    2    0    0  0.00000000000E+00  0.00000000000E+00  0.78342751308E+03  0.27159495163E+04  0.26005043947E+04 0.  0.
        3    1    3    3  502    0 -0.12656739222E+04  0.83078518743E+02  0.92967507673E+02  0.12718000965E+04  0.10100000352E+00 0. -1.
       -3    1    3    3    0  502  0.12656739222E+04 -0.83078518743E+02  0.69046000540E+03  0.14441494199E+04  0.10100000352E+00 0.  1.
</event>
<event>
 5   0  0.2623368E-06  0.2585499E+04  0.7818609E-02  0.8373144E-01
        2   -1    0    0  501    0  0.00000000000E+00  0.00000000000E+00  0.12750911197E+04  0.12750911197E+04  0.25500000920E-02 0. -1.
       -2   -1    0    0    0  501  0.00000000000E+00  0.00000000000E+00 -0.13106521781E+04  0.13106521781E+04  0.25500000920E-02 0.  1.
    10030    2    1    2    0    0  0.00000000000E+00  0.00000000000E+00 -0.35561058418E+02  0.25857432978E+04  0.25854987552E+04 0.  0.
        5    1    3    3  502    0  0.54014794697E+03 -0.10588645164E+04  0.49042596820E+03  0.12858824164E+04  0.46999998093E+01 0. -1.
       -5    1    3    3    0  502 -0.54014794697E+03  0.10588645164E+04 -0.52598702662E+03  0.12998608813E+04  0.46999998093E+01 0.  1.
</event>
<event>
 5   0  0.1055179E-06  0.2566173E+04  0.7818609E-02  0.8379783E-01
       -1   -1    0    0    0  501  0.00000000000E+00  0.00000000000E+00  0.91913923624E+03  0.91913923625E+03  0.50400001928E-02 0.  1.
        1   -1    0    0  501    0  0.00000000000E+00  0.00000000000E+00 -0.17911437338E+04  0.17911437338E+04  0.50400001928E-02 0. -1.
    10030    2    1    2    0    0  0.00000000000E+00  0.00000000000E+00 -0.87200449755E+03  0.27102829700E+04  0.25661726236E+04 0.  0.
        3    1    3    3  502    0  0.21586842532E+03 -0.76558246102E+03  0.62731033564E+03  0.10130320573E+04  0.10100000352E+00 0.  1.
       -3    1    3    3    0  502 -0.21586842532E+03  0.76558246102E+03 -0.14993148332E+04  0.16972509128E+04  0.10100000352E+00 0. -1.
</event>
<event>
 5   0  0.1032076E-06  0.2589945E+04  0.7818609E-02  0.8371625E-01
       -1   -1    0    0    0  501  0.00000000000E+00  0.00000000000E+00  0.12144217853E+04  0.12144217853E+04  0.50400001928E-02 0.  1.
        1   -1    0    0  501    0  0.00000000000E+00  0.00000000000E+00 -0.13808660823E+04  0.13808660824E+04  0.50400001928E-02 0. -1.
    10030    2    1    2    0    0  0.00000000000E+00  0.00000000000E+00 -0.16644429706E+03  0.25952878676E+04  0.25899450596E+04 0.  0.
        1    1    3    3  502    0  0.82980762303E+03 -0.48715623179E+02 -0.10782458629E+04  0.13614580582E+04  0.50400001928E-02 0. -1.
       -1    1    3    3    0  502 -0.82980762303E+03  0.48715623179E+02  0.91180156588E+03  0.12338298095E+04  0.50400001928E-02 0.  1.
</event>
<event>
 5   0  0.1055179E-06  0.2601172E+04  0.7818609E-02  0.8367803E-01
       -1   -1    0    0    0  501  0.00000000000E+00  0.00000000000E+00  0.99878853255E+03  0.99878853256E+03  0.50400001928E-02 0.  1.
        1   -1    0    0  501    0  0.00000000000E+00  0.00000000000E+00 -0.16935752722E+04  0.16935752722E+04  0.50400001928E-02 0. -1.
    10030    2    1    2    0    0  0.00000000000E+00  0.00000000000E+00 -0.69478673967E+03  0.26923638048E+04  0.26011717059E+04 0.  0.
        3    1    3    3  502    0  0.10475903118E+04  0.76903144140E+03 -0.29392251092E+03  0.13323833052E+04  0.10100000352E+00 0. -1.
       -3    1    3    3    0  502 -0.10475903118E+04 -0.76903144140E+03 -0.40086422875E+03  0.13599804996E+04  0.10100000352E+00 0.  1.
</event>
<event>
 5   0  0.1032076E-06  0.2600449E+04  0.7818609E-02  0.8368049E-01
        1   -1    0    0  501    0  0.00000000000E+00  0.00000000000E+00  0.13080877671E+04  0.13080877671E+04  0.50400001928E-02 0. -1.
       -1   -1    0    0    0  501  0.00000000000E+00  0.00000000000E+00 -0.12924086562E+04  0.12924086562E+04  0.50400001928E-02 0.  1.
    10030    2    1    2    0    0  0.00000000000E+00  0.00000000000E+00  0.15679110896E+02  0.26004964233E+04  0.26004491560E+04 0.  0.
        1    1    3    3  502    0 -0.38431339890E+03 -0.48233926307E+03 -0.11368366571E+04  0.12933466427E+04  0.50400001928E-02 0.  1.
       -1    1    3    3    0  502  0.38431339890E+03  0.48233926307E+03  0.11525157680E+04  0.13071497805E+04  0.50400001928E-02 0. -1.
</event>
<event>
 5   0  0.1100104E-06  0.2604060E+04  0.7818609E-02  0.8366824E-01
       -1   -1    0    0    0  501  0.00000000000E+00  0.00000000000E+00  0.10508567404E+04  0.10508567404E+04  0.50400001928E-02 0. -1.
        1   -1    0    0  501    0  0.00000000000E+00  0.00000000000E+00 -0.16132377910E+04  0.16132377910E+04  0.50400001928E-02 0.  1.
    10030    2    1    2    0    0  0.00000000000E+00  0.00000000000E+00 -0.56238105057E+03  0.26640945314E+04  0.26040597585E+04 0.  0.
        4    1    3    3  502    0  0.39018979128E+03 -0.57936250753E+03  0.84294608472E+03  0.10947459536E+04  0.12699999809E+01 0. -1.
       -4    1    3    3    0  502 -0.39018979128E+03  0.57936250753E+03 -0.14053271353E+04  0.15693485777E+04  0.12699999809E+01 0.  1.
</event>
<event>
 5   0  0.2705807E-06  0.2637552E+04  0.7818609E-02  0.8355556E-01
       -2   -1    0    0    0  501  0.00000000000E+00  0.00000000000E+00  0.13959793572E+04  0.13959793572E+04  0.25500000920E-02 0. -1.
        2   -1    0    0  501    0  0.00000000000E+00  0.00000000000E+00 -0.12458426902E+04  0.12458426902E+04  0.25500000920E-02 0.  1.
    10030    2    1    2    0    0  0.00000000000E+00  0.00000000000E+00  0.15013666693E+03  0.26418220474E+04  0.26375524092E+04 0.  0.
        4    1    3    3  502    0  0.34048714556E+03 -0.10117746698E+04 -0.70049097741E+03  0.12768354244E+04  0.12699999809E+01 0.  1.
       -4    1    3    3    0  502 -0.34048714556E+03  0.10117746698E+04  0.85062764435E+03  0.13649866230E+04  0.12699999809E+01 0. -1.
</event>
<event>
 5   0  0.2623368E-06  0.2600843E+04  0.7818609E-02  0.8367915E-01
       -2   -1    0    0    0  501  0.00000000000E+00  0.00000000000E+00  0.14604751329E+04  0.14604751329E+04  0.25500000920E-02 0.  1.
        2   -1    0    0  501    0  0.00000000000E+00  0.00000000000E+00 -0.11579083272E+04  0.11579083272E+04  0.25500000920E-02 0. -1.
    10030    2    1    2    0    0  0.00000000000E+00  0.00000000000E+00  0.30256680571E+03  0.26183834601E+04  0.26008431848E+04 0.  0.
        5    1    3    3  502    0  0.79703535171E+03  0.78091219036E+03 -0.52104153524E+03  0.12315013489E+04  0.46999998093E+01 0. -1.
       -5    1    3    3    0  502 -0.79703535171E+03 -0.78091219036E+03  0.82360834095E+03  0.13868821111E+04  0.46999998093E+01 0.  1.
</event>
<event>
 5   0  0.1032076E-06  0.2588910E+04  0.7818609E-02  0.8371978E-01
        1   -1    0    0  501    0  0.00000000000E+00  0.00000000000E+00  0.11934693986E+04  0.11934693986E+04  0.50400001928E-02 0.  1.
       -1   -1    0    0    0  501  0.00000000000E+00  0.00000000000E+00 -0.14039850511E+04  0.14039850511E+04  0.50400001928E-02 0. -1.
    10030    2    1    2    0    0  0.00000000000E+00  0.00000000000E+00 -0.21051565251E+03  0.25974544498E+04  0.25889095733E+04 0.  0.
        1    1    3    3  502    0 -0.62969878257E+03 -0.30914874000E+02  0.10290207956E+04  0.12067974495E+04  0.50400001928E-02 0.  1.
       -1    1    3    3    0  502  0.62969878257E+03  0.30914874000E+02 -0.12395364481E+04  0.13906570003E+04  0.50400001928E-02 0. -1.
</event>
<event>
 5   0  0.2820028E-06  0.2599385E+04  0.7818609E-02  0.8368410E-01
        2   -1    0    0  501    0  0.00000000000E+00  0.00000000000E+00  0.18613149228E+04  0.18613149228E+04  0.25500000920E-02 0.  1.
       -2   -1    0    0    0  501  0.00000000000E+00  0.00000000000E+00 -0.90753079656E+03  0.90753079656E+03  0.25500000920E-02 0. -1.
    10030    2    1    2    0    0  0.00000000000E+00  0.00000000000E+00  0.95378412625E+03  0.27688457194E+04  0.25993850154E+04 0.  0.
        3    1    3    3  502    0 -0.24000612705E+03 -0.70393210865E+02 -0.88165346896E+03  0.91644475812E+03  0.10100000352E+00 0. -1.
       -3    1    3    3    0  502  0.24000612705E+03  0.70393210865E+02  0.18354375952E+04  0.18524009613E+04  0.10100000352E+00 0.  1.
</event>
<event>
 5   0  0.2586775E-06  0.2597793E+04  0.7818609E-02  0.8368951E-01
       -2   -1    0    0    0  501  0.00000000000E+00  0.00000000000E+00  0.86106903414E+03  0.86106903414E+03  0.25500000920E-02 0. -1.
        2   -1    0    0  501    0  0.00000000000E+00  0.00000000000E+00 -0.19593463084E+04  0.19593463084E+04  0.25500000920E-02 0.  1.
    10030    2    1    2    0    0  0.00000000000E+00  0.00000000000E+00 -0.10982772743E+04  0.28204153425E+04  0.25977932430E+04 0.  0.
        1    1    3    3  502    0 -0.78102973910E+03 -0.89079319427E+01 -0.16758833708E+04  0.18489650827E+04  0.50400001928E-02 0.  1.
       -1    1    3    3    0  502  0.78102973910E+03  0.89079319427E+01  0.57760609650E+03  0.97145025984E+03  0.50400001928E-02 0. -1.
</event>
<event>
 5   0  0.2746631E-06  0.2596987E+04  0.7818609E-02  0.8369225E-01
       -2   -1    0    0    0  501  0.00000000000E+00  0.00000000000E+00  0.13073598800E+04  0.13073598800E+04  0.25500000920E-02 0. -1.
        2   -1    0    0  501    0  0.00000000000E+00  0.00000000000E+00 -0.12896877213E+04  0.12896877214E+04  0.25500000920E-02 0.  1.
    10030    2    1    2    0    0  0.00000000000E+00  0.00000000000E+00  0.17672158652E+02  0.25970476014E+04  0.25969874737E+04 0.  0.
        2    1    3    3  502    0 -0.60668809420E+02 -0.53571182228E+03  0.11901416030E+04  0.13065622435E+04  0.25500000920E-02 0. -1.
       -2    1    3    3    0  502  0.60668809420E+02  0.53571182228E+03 -0.11724694443E+04  0.12904853579E+04  0.25500000920E-02 0.  1.
</event>
<event>
 5   0  0.1122628E-06  0.2602491E+04  0.7818609E-02  0.8367356E-01
       -1   -1    0    0    0  501  0.00000000000E+00  0.00000000000E+00  0.16526281394E+04  0.16526281394E+04  0.50400001928E-02 0. -1.
        1   -1    0    0  501    0  0.00000000000E+00  0.00000000000E+00 -0.10245737082E+04  0.10245737082E+04  0.50400001928E-02 0.  1.
    10030    2    1    2    0    0  0.00000000000E+00  0.00000000000E+00  0.62805443115E+03  0.26772018476E+04  0.26024906079E+04 0.  0.
        2    1    3    3  502    0 -0.13468873909E+03  0.12942056914E+04  0.30230206631E+03  0.13358502788E+04  0.25500000920E-02 0. -1.
       -2    1    3    3    0  502  0.13468873909E+03 -0.12942056914E+04  0.32575236484E+03  0.13413515688E+04  0.25500000920E-02 0.  1.
</event>
<event>
 5   0  0.1100104E-06  0.2606216E+04  0.7818609E-02  0.8366093E-01
        1   -1    0    0  501    0  0.00000000000E+00  0.00000000000E+00  0.95801035635E+03  0.95801035637E+03  0.50400001928E-02 0.  1.
       -1   -1    0    0    0  501  0.00000000000E+00  0.00000000000E+00 -0.17725178983E+04  0.17725178983E+04  0.50400001928E-02 0. -1.
    10030    2    1    2    0    0  0.00000000000E+00  0.00000000000E+00 -0.81450754190E+03  0.27305282546E+04  0.26062160335E+04 0.  0.
        4    1    3    3  502    0  0.61611090543E+03  0.93574909708E+03  0.28997344286E+03  0.11572835568E+04  0.12699999809E+01 0.  1.
       -4    1    3    3    0  502 -0.61611090543E+03 -0.93574909708E+03 -0.11044809848E+04  0.15732446978E+04  0.12699999809E+01 0. -1.
</event>
<event>
 5   0  0.2623368E-06  0.2602806E+04  0.7818609E-02  0.8367249E-01
        2   -1    0    0  501    0  0.00000000000E+00  0.00000000000E+00  0.17363293891E+04  0.17363293891E+04  0.25500000920E-02 0.  1.
       -2   -1    0    0    0  501  0.00000000000E+00  0.00000000000E+00 -0.97541958654E+03  0.97541958654E+03  0.25500000920E-02 0. -1.
    10030    2    1    2    0    0  0.00000000000E+00  0.00000000000E+00  0.76090980260E+03  0.27117489757E+04  0.26028059435E+04 0.  0.
        5    1    3    3  502    0 -0.74833413532E+03  0.53410690685E+03 -0.57915806453E+03  0.10866095526E+04  0.46999998093E+01 0. -1.
       -5    1    3    3    0  502  0.74833413532E+03 -0.53410690685E+03  0.13400678671E+04  0.16251394231E+04  0.46999998093E+01 0.  1.
</event>
<event>
 5   0  0.9197000E-07  0.2597590E+04  0.7818609E-02  0.8369020E-01
       -4   -1    0    0    0  501  0.00000000000E+00  0.00000000000E+00  0.14202334211E+04  0.14202339890E+04  0.12699999809E+01 0. -1.
        4   -1    0    0  501    0  0.00000000000E+00  0.00000000000E+00 -0.11877391332E+04  0.11877398122E+04  0.12699999809E+01 0.  1.
    10030    2    1    2    0    0  0.00000000000E+00  0.00000000000E+00  0.23249428790E+03  0.26079738012E+04  0.25975899895E+04 0.  0.
        1    1    3    3  502    0  0.60808900456E+03 -0.18424419466E+03 -0.10210432829E+04  0.12026003269E+04  0.50400001928E-02 0.  1.
       -1    1    3    3    0  502 -0.60808900456E+03  0.18424419466E+03  0.12535375708E+04  0.14053734743E+04  0.50400001928E-02 0. -1.
</event>
<event>
 5   0  0.1088757E-06  0.2598294E+04  0.7818609E-02  0.8368781E-01
        1   -1    0    0  501    0  0.00000000000E+00  0.00000000000E+00  0.11854841118E+04  0.11854841118E+04  0.50400001928E-02 0. -1.
       -1   -1    0    0    0  501  0.00000000000E+00  0.00000000000E+00 -0.14237077995E+04  0.14237077995E+04  0.50400001928E-02 0.  1.
    10030    2    1    2    0    0  0.00000000000E+00  0.00000000000E+00 -0.23822368772E+03  0.26091919114E+04  0.25982940374E+04 0.  0.
        5    1    3    3  502    0 -0.48279901530E+03 -0.87408061181E+03  0.71542678887E+03  0.12284011500E+04  0.46999998093E+01 0. -1.
       -5    1    3    3    0  502  0.48279901530E+03  0.87408061181E+03 -0.95365047659E+03  0.13807907613E+04  0.46999998093E+01 0.  1.
</event>
<event>
 5   0  0.1100104E-06  0.2600036E+04  0.7818609E-02  0.8368189E-01
        1   -1    0    0  501    0  0.00000000000E+00  0.00000000000E+00  0.10885506537E+04  0.10885506537E+04  0.50400001928E-02 0. -1.
       -1   -1    0    0    0  501  0.00000000000E+00  0.00000000000E+00 -0.15525656333E+04  0.15525656333E+04  0.50400001928E-02 0.  1.
    10030    2    1    2    0    0  0.00000000000E+00  0.00000000000E+00 -0.46401497957E+03  0.26411162870E+04  0.26000356421E+04 0.  0.
        4    1    3    3  502    0  0.63023492687E+03 -0.24071784569E+03 -0.13608276221E+04  0.15188793811E+04  0.12699999809E+01 0.  1.
       -4    1    3    3    0  502 -0.63023492687E+03  0.24071784569E+03  0.89681264256E+03  0.11222369059E+04  0.12699999809E+01 0. -1.
</event>
<event>
 5   0  0.1055179E-06  0.2603139E+04  0.7818609E-02  0.8367136E-01
        1   -1    0    0  501    0  0.00000000000E+00  0.00000000000E+00  0.25287390963E+04  0.25287390963E+04  0.50400001928E-02 0. -1.
       -1   -1    0    0    0  501  0.00000000000E+00  0.00000000000E+00 -0.66993184047E+03  0.66993184048E+03  0.50400001928E-02 0.  1.
    10030    2    1    2    0    0  0.00000000000E+00  0.00000000000E+00  0.18588072558E+04  0.31986709367E+04  0.26031387492E+04 0.  0.
        3    1    3    3  502    0 -0.60433272844E+03 -0.13262688107E+03  0.23364846964E+04  0.24170164838E+04  0.10100000352E+00 0. -1.
       -3    1    3    3    0  502  0.60433272844E+03  0.13262688107E+03 -0.47767744065E+03  0.78165445291E+03  0.10100000352E+00 0.  1.
</event>
<event>
 5   0  0.1088757E-06  0.2604290E+04  0.7818609E-02  0.8366745E-01
        1   -1    0    0  501    0  0.00000000000E+00  0.00000000000E+00  0.13390076779E+04  0.13390076779E+04  0.50400001928E-02 0.  1.
       -1   -1    0    0    0  501  0.00000000000E+00  0.00000000000E+00 -0.12662975123E+04  0.12662975123E+04  0.50400001928E-02 0. -1.
    10030    2    1    2    0    0  0.00000000000E+00  0.00000000000E+00  0.72710165688E+02  0.26053051902E+04  0.26042903767E+04 0.  0.
        5    1    3    3  502    0 -0.26868481385E+03  0.98447913667E+03  0.84547758362E+03  0.13252339922E+04  0.46999998093E+01 0.  1.
       -5    1    3    3    0  502  0.26868481385E+03 -0.98447913667E+03 -0.77276741793E+03  0.12800711980E+04  0.46999998093E+01 0. -1.
</event>
<event>
 5   0  0.1032076E-06  0.2602162E+04  0.7818609E-02  0.8367467E-01
        1   -1    0    0  501    0  0.00000000000E+00  0.00000000000E+00  0.13432523341E+04  0.13432523341E+04  0.50400001928E-02 0. -1.
       -1   -1    0    0    0  501  0.00000000000E+00  0.00000000000E+00 -0.12602338993E+04  0.12602338993E+04  0.50400001928E-02 0.  1.
    10030    2    1    2    0    0  0.00000000000E+00  0.00000000000E+00  0.83018434762E+02  0.26034862334E+04  0.26021622753E+04 0.  0.
        1    1    3    3  502    0  0.22173208641E+03  0.10037259758E+04 -0.75650626239E+03  0.12762964693E+04  0.50400001928E-02 0.  1.
       -1    1    3    3    0  502 -0.22173208641E+03 -0.10037259758E+04  0.83952469715E+03  0.13271897640E+04  0.50400001928E-02 0. -1.
</event>
<event>
 5   0  0.9197000E-07  0.2601430E+04  0.7818609E-02  0.8367716E-01
        3   -1    0    0  501    0  0.00000000000E+00  0.00000000000E+00  0.18317331003E+04  0.18317331031E+04  0.10100000352E+00 0.  1.
       -3   -1    0    0    0  501  0.00000000000E+00  0.00000000000E+00 -0.92363867403E+03  0.92363867955E+03  0.10100000352E+00 0. -1.
    10030    2    1    2    0    0  0.00000000000E+00  0.00000000000E+00  0.90809442627E+03  0.27553717826E+04  0.26014300247E+04 0.  0.
        1    1    3    3  502    0 -0.67731074035E+03  0.63265342536E+03  0.14206630147E+04  0.16962557581E+04  0.50400001928E-02 0.  1.
       -1    1    3    3    0  502  0.67731074035E+03 -0.63265342536E+03 -0.51256858840E+03  0.10591160245E+04  0.50400001928E-02 0. -1.
</event>
<event>
 5   0  0.2586775E-06  0.2592005E+04  0.7818609E-02  0.8370922E-01
       -2   -1    0    0    0  501  0.00000000000E+00  0.00000000000E+00  0.12203823779E+04  0.12203823779E+04  0.25500000920E-02 0. -1.
        2   -1    0    0  501    0  0.00000000000E+00  0.00000000000E+00 -0.13763087064E+04  0.13763087064E+04  0.25500000920E-02 0.  1.
    10030    2    1    2    0    0  0.00000000000E+00  0.00000000000E+00 -0.15592632853E+03  0.25966910843E+04  0.25920053177E+04 0.  0.
        1    1    3    3  502    0 -0.65103003802E+03  0.69828112604E+03 -0.95600996205E+03  0.13510705714E+04  0.50400001928E-02 0.  1.
       -1    1    3    3    0  502  0.65103003802E+03 -0.69828112604E+03  0.80008363352E+03  0.12456205129E+04  0.50400001928E-02 0. -1.
</event>
<event>
 5   0  0.1032076E-06  0.2600618E+04  0.7818609E-02  0.8367991E-01
        1   -1    0    0  501    0  0.00000000000E+00  0.00000000000E+00  0.14118243075E+04  0.14118243075E+04  0.50400001928E-02 0.  1.
       -1   -1    0    0    0  501  0.00000000000E+00  0.00000000000E+00 -0.11976020658E+04  0.11976020658E+04  0.50400001928E-02 0. -1.
    10030    2    1    2    0    0  0.00000000000E+00  0.00000000000E+00  0.21422224169E+03  0.26094263733E+04  0.26006181628E+04 0.  0.
        1    1    3    3  502    0 -0.44046180185E+02 -0.11528307515E+04  0.70901359952E+03  0.13541266898E+04  0.50400001928E-02 0.  1.
       -1    1    3    3    0  502  0.44046180185E+02  0.11528307515E+04 -0.49479135783E+03  0.12552996835E+04  0.50400001928E-02 0. -1.
</event>
<event>
 5   0  0.2705807E-06  0.2597959E+04  0.7818609E-02  0.8368895E-01
        2   -1    0    0  501    0  0.00000000000E+00  0.00000000000E+00  0.14225507713E+04  0.14225507713E+04  0.25500000920E-02 0. -1.
       -2   -1    0    0    0  501  0.00000000000E+00  0.00000000000E+00 -0.11861421658E+04  0.11861421658E+04  0.25500000920E-02 0.  1.
    10030    2    1    2    0    0  0.00000000000E+00  0.00000000000E+00  0.23640860553E+03  0.26086929371E+04  0.25979587778E+04 0.  0.
        4    1    3    3  502    0  0.60409453122E+03  0.11466628526E+04  0.20562687509E+03  0.13122689987E+04  0.12699999809E+01 0.  1.
       -4    1    3    3    0  502 -0.60409453122E+03 -0.11466628526E+04  0.30781730443E+02  0.12964239384E+04  0.12699999809E+01 0. -1.
</event>
<event>
 5   0  0.2623368E-06  0.2591314E+04  0.7818609E-02  0.8371157E-01
       -2   -1    0    0    0  501  0.00000000000E+00  0.00000000000E+00  0.15741665402E+04  0.15741665402E+04  0.25500000920E-02 0.  1.
        2   -1    0    0  501    0  0.00000000000E+00  0.00000000000E+00 -0.10664231837E+04  0.10664231837E+04  0.25500000920E-02 0. -1.
    10030    2    1    2    0    0  0.00000000000E+00  0.00000000000E+00  0.50774335655E+03  0.26405897239E+04  0.25913144876E+04 0.  0.
        5    1    3    3  502    0 -0.91561686565E+02  0.28428939083E+03  0.15385999783E+04  0.15673276567E+04  0.46999998093E+01 0.  1.
       -5    1    3    3    0  502  0.91561686565E+02 -0.28428939083E+03 -0.10308566218E+04  0.10732620672E+04  0.46999998093E+01 0. -1.
</event>
<event>
 5   0  0.1122628E-06  0.2587266E+04  0.7818609E-02  0.8372539E-01
        1   -1    0    0  501    0  0.00000000000E+00  0.00000000000E+00  0.16429714932E+04  0.16429714932E+04  0.50400001928E-02 0. -1.
       -1   -1    0    0    0  501  0.00000000000E+00  0.00000000000E+00 -0.10185730827E+04  0.10185730827E+04  0.50400001928E-02 0.  1.
    10030    2    1    2    0    0  0.00000000000E+00  0.00000000000E+00  0.62439841047E+03  0.26615445759E+04  0.25872661545E+04 0.  0.
        2    1    3    3  502    0 -0.94269100357E+03  0.87830576868E+03  0.19312111452E+03  0.13028365655E+04  0.25500000920E-02 0.  1.
       -2    1    3    3    0  502  0.94269100357E+03 -0.87830576868E+03  0.43127729595E+03  0.13587080104E+04  0.25500000920E-02 0. -1.
</event>
<event>
 5   0  0.1032076E-06  0.2599615E+04  0.7818609E-02  0.8368332E-01
       -1   -1    0    0    0  501  0.00000000000E+00  0.00000000000E+00  0.12343575100E+04  0.12343575100E+04  0.50400001928E-02 0.  1.
        1   -1    0    0  501    0  0.00000000000E+00  0.00000000000E+00 -0.13687278747E+04  0.13687278747E+04  0.50400001928E-02 0. -1.
    10030    2    1    2    0    0  0.00000000000E+00  0.00000000000E+00 -0.13437036470E+03  0.26030853847E+04  0.25996149955E+04 0.  0.
        1    1    3    3  502    0  0.93607170218E+03 -0.68566719655E+03 -0.65373998595E+03  0.13318204478E+04  0.50400001928E-02 0. -1.
       -1    1    3    3    0  502 -0.93607170218E+03  0.68566719655E+03  0.51936962125E+03  0.12712649368E+04  0.50400001928E-02 0.  1.
</event>
<event>
 5   0  0.2746631E-06  0.2599752E+04  0.7818609E-02  0.8368285E-01
       -2   -1    0    0    0  501  0.00000000000E+00  0.00000000000E+00  0.10009933060E+04  0.10009933060E+04  0.25500000920E-02 0.  1.
        2   -1    0    0  501    0  0.00000000000E+00  0.00000000000E+00 -0.16880014129E+04  0.16880014129E+04  0.25500000920E-02 0. -1.
    10030    2    1    2    0    0  0.00000000000E+00  0.00000000000E+00 -0.68700810690E+03  0.26889947189E+04  0.25997523843E+04 0.  0.
        2    1    3    3  502    0  0.35605957952E+03  0.45660991369E+03 -0.15472437183E+04  0.16520393946E+04  0.25500000920E-02 0. -1.
       -2    1    3    3    0  502 -0.35605957952E+03 -0.45660991369E+03  0.86023561144E+03  0.10369553243E+04  0.25500000920E-02 0.  1.
</event>
<event>
 5   0  0.1055179E-06  0.2599048E+04  0.7818609E-02  0.8368525E-01
       -1   -1    0    0    0  501  0.00000000000E+00  0.00000000000E+00  0.13408687048E+04  0.13408687049E+04  0.50400001928E-02 0.  1.
        1   -1    0    0  501    0  0.00000000000E+00  0.00000000000E+00 -0.12594538720E+04  0.12594538720E+04  0.50400001928E-02 0. -1.
    10030    2    1    2    0    0  0.00000000000E+00  0.00000000000E+00  0.81414832896E+02  0.26003225768E+04  0.25990477349E+04 0.  0.
        3    1    3    3  502    0 -0.10269342513E+04  0.22154889956E+03  0.80599070587E+03  0.13241219353E+04  0.10100000352E+00 0.  1.
       -3    1    3    3    0  502  0.10269342513E+04 -0.22154889956E+03 -0.72457587297E+03  0.12762006415E+04  0.10100000352E+00 0. -1.
</event>
<event>
 5   0  0.1055179E-06  0.2601249E+04  0.7818609E-02  0.8367777E-01
       -1   -1    0    0    0  501  0.00000000000E+00  0.00000000000E+00  0.19611100812E+04  0.19611100812E+04  0.50400001928E-02 0. -1.
        1   -1    0    0  501    0  0.00000000000E+00  0.00000000000E+00 -0.86258489993E+03  0.86258489994E+03  0.50400001928E-02 0.  1.
    10030    2    1    2    0    0  0.00000000000E+00  0.00000000000E+00  0.10985251813E+04  0.28236949811E+04  0.26012488871E+04 0.  0.
        3    1    3    3  502    0 -0.11054551783E+04  0.28596908508E+03  0.12252644271E+04  0.16748380207E+04  0.10100000352E+00 0. -1.
       -3    1    3    3    0  502  0.11054551783E+04 -0.28596908508E+03 -0.12673924585E+03  0.11488569605E+04  0.10100000352E+00 0.  1.
</event>
<event>
 5   0  0.2746631E-06  0.2585473E+04  0.7818609E-02  0.8373152E-01
        2   -1    0    0  501    0  0.00000000000E+00  0.00000000000E+00  0.21616738024E+04  0.21616738024E+04  0.25500000920E-02 0.  1.
       -2   -1    0    0    0  501  0.00000000000E+00  0.00000000000E+00 -0.77308969660E+03  0.77308969660E+03  0.25500000920E-02 0. -1.
    10030    2    1    2    0    0  0.00000000000E+00  0.00000000000E+00  0.13885841058E+04  0.29347634990E+04  0.25854730662E+04 0.  0.
        2    1    3    3  502    0 -0.11781899710E+02  0.58365989252E+02  0.21601164422E+04  0.21609369370E+04  0.25500000920E-02 0.  1.
       -2    1    3    3    0  502  0.11781899710E+02 -0.58365989252E+02 -0.77153233642E+03  0.77382656197E+03  0.25500000920E-02 0. -1.
</event>
<event>
 5   0  0.1088757E-06  0.2597654E+04  0.7818609E-02  0.8368999E-01
       -1   -1    0    0    0  501  0.00000000000E+00  0.00000000000E+00  0.12942168229E+04  0.12942168229E+04  0.50400001928E-02 0.  1.
        1   -1    0    0  501    0  0.00000000000E+00  0.00000000000E+00 -0.13034532131E+04  0.13034532131E+04  0.50400001928E-02 0. -1.
    10030    2    1    2    0    0  0.00000000000E+00  0.00000000000E+00 -0.92363902009E+01  0.25976700361E+04  0.25976536154E+04 0.  0.
        5    1    3    3  502    0  0.98110996467E+02 -0.96860763920E+03 -0.86433431354E+03  0.13018918626E+04  0.46999998093E+01 0. -1.
       -5    1    3    3    0  502 -0.98110996467E+02  0.96860763920E+03  0.85509792334E+03  0.12957781735E+04  0.46999998093E+01 0.  1.
</event>
<event>
 5   0  0.2820028E-06  0.2605207E+04  0.7818609E-02  0.8366435E-01
       -2   -1    0    0    0  501  0.00000000000E+00  0.00000000000E+00  0.14376552835E+04  0.14376552835E+04  0.25500000920E-02 0.  1.
        2   -1    0    0  501    0  0.00000000000E+00  0.00000000000E+00 -0.11802380322E+04  0.11802380322E+04  0.25500000920E-02 0. -1.
    10030    2    1    2    0    0  0.00000000000E+00  0.00000000000E+00  0.25741725133E+03  0.26178933157E+04  0.26052066657E+04 0.  0.
        3    1    3    3  502    0  0.10145045456E+04 -0.63394440718E+03  0.64665093369E+03  0.13598758857E+04  0.10100000352E+00 0.  1.
       -3    1    3    3    0  502 -0.10145045456E+04  0.63394440718E+03 -0.38923368236E+03  0.12580174300E+04  0.10100000352E+00 0. -1.
</event>
<event>
 5   0  0.2820028E-06  0.2613577E+04  0.7818609E-02  0.8363604E-01
       -2   -1    0    0    0  501  0.00000000000E+00  0.00000000000E+00  0.75682885487E+03  0.75682885487E+03  0.25500000920E-02 0. -1.
        2   -1    0    0  501    0  0.00000000000E+00  0.00000000000E+00 -0.22563842869E+04  0.22563842869E+04  0.25500000920E-02 0.  1.
    10030    2    1    2    0    0  0.00000000000E+00  0.00000000000E+00 -0.14995554320E+04  0.30132131418E+04  0.26135774226E+04 0.  0.
        3    1    3    3  502    0  0.23888770919E+03  0.78483614412E+03  0.42294044771E+03  0.92299173519E+03  0.10100000352E+00 0. -1.
       -3    1    3    3    0  502 -0.23888770919E+03 -0.78483614412E+03 -0.19224958797E+04  0.20902214066E+04  0.10100000352E+00 0.  1.
</event>
<event>
 5   0  0.2746631E-06  0.2612307E+04  0.7818609E-02  0.8364033E-01
       -2   -1    0    0    0  501  0.00000000000E+00  0.00000000000E+00  0.13254801385E+04  0.13254801385E+04  0.25500000920E-02 0. -1.
        2   -1    0    0  501    0  0.00000000000E+00  0.00000000000E+00 -0.12871081990E+04  0.12871081990E+04  0.25500000920E-02 0.  1.
    10030    2    1    2    0    0  0.00000000000E+00  0.00000000000E+00  0.38371939519E+02  0.26125883375E+04  0.26123065317E+04 0.  0.
        2    1    3    3  502    0  0.37169048954E+03  0.10418526922E+04  0.71382946946E+03  0.13164966251E+04  0.25500000920E-02 0. -1.
       -2    1    3    3    0  502 -0.37169048954E+03 -0.10418526922E+04 -0.67545752994E+03  0.12960917124E+04  0.25500000920E-02 0.  1.
</event>
<event>
 5   0  0.1100104E-06  0.2595762E+04  0.7818609E-02  0.8369642E-01
        1   -1    0    0  501    0  0.00000000000E+00  0.00000000000E+00  0.22140401113E+04  0.22140401113E+04  0.50400001928E-02 0. -1.
       -1   -1    0    0    0  501  0.00000000000E+00  0.00000000000E+00 -0.76082385375E+03  0.76082385376E+03  0.50400001928E-02 0.  1.
    10030    2    1    2    0    0  0.00000000000E+00  0.00000000000E+00  0.14532162575E+04  0.29748639650E+04  0.25957615683E+04 0.  0.
        4    1    3    3  502    0 -0.59480005001E+03 -0.81271415775E+03  0.16648288396E+04  0.19457512893E+04  0.12699999809E+01 0. -1.
       -4    1    3    3    0  502  0.59480005001E+03  0.81271415775E+03 -0.21161258204E+03  0.10291126758E+04  0.12699999809E+01 0.  1.
</event>
<event>
 5   0  0.2586775E-06  0.2601439E+04  0.7818609E-02  0.8367712E-01
       -2   -1    0    0    0  501  0.00000000000E+00  0.00000000000E+00  0.12567900208E+04  0.12567900208E+04  0.25500000920E-02 0. -1.
        2   -1    0    0  501    0  0.00000000000E+00  0.00000000000E+00 -0.13461846984E+04  0.13461846984E+04  0.25500000920E-02 0.  1.
    10030    2    1    2    0    0  0.00000000000E+00  0.00000000000E+00 -0.89394677562E+02  0.26029747192E+04  0.26014392133E+04 0.  0.
        1    1    3    3  502    0  0.62956115433E+03  0.11381318637E+04 -0.31268949372E+02  0.13010261847E+04  0.50400001928E-02 0. -1.
       -1    1    3    3    0  502 -0.62956115433E+03 -0.11381318637E+04 -0.58125728190E+02  0.13019485345E+04  0.50400001928E-02 0.  1.
</event>
<event>
 5   0  0.2746631E-06  0.2599795E+04  0.7818609E-02  0.8368271E-01
       -2   -1    0    0    0  501  0.00000000000E+00  0.00000000000E+00  0.67971158993E+03  0.67971158993E+03  0.25500000920E-02 0. -1.
        2   -1    0    0  501    0  0.00000000000E+00  0.00000000000E+00 -0.24859571783E+04  0.24859571783E+04  0.25500000920E-02 0.  1.
    10030    2    1    2    0    0  0.00000000000E+00  0.00000000000E+00 -0.18062455883E+04  0.31656687682E+04  0.25997953044E+04 0.  0.
        2    1    3    3  502    0 -0.25007257004E+03 -0.12678712209E+04 -0.73221516616E+03  0.14853190811E+04  0.25500000920E-02 0.  1.
       -2    1    3    3    0  502  0.25007257004E+03  0.12678712209E+04 -0.10740304222E+04  0.16803496871E+04  0.25500000920E-02 0. -1.
</event>
<event>
 5   0  0.2586775E-06  0.2598247E+04  0.7818609E-02  0.8368797E-01
        2   -1    0    0  501    0  0.00000000000E+00  0.00000000000E+00  0.27562815343E+04  0.27562815343E+04  0.25500000920E-02 0. -1.
       -2   -1    0    0    0  501  0.00000000000E+00  0.00000000000E+00 -0.61231833864E+03  0.61231833865E+03  0.25500000920E-02 0.  1.
    10030    2    1    2    0    0  0.00000000000E+00  0.00000000000E+00  0.21439631956E+04  0.33685998729E+04  0.25982468935E+04 0.  0.
        1    1    3    3  502    0 -0.26856184035E+03  0.69284419464E+03  0.24535572286E+04  0.25636110497E+04  0.50400001928E-02 0. -1.
       -1    1    3    3    0  502  0.26856184035E+03 -0.69284419464E+03 -0.30959403301E+03  0.80498882317E+03  0.50400001928E-02 0.  1.
</event>
<event>
 5   0  0.2820028E-06  0.2601421E+04  0.7818609E-02  0.8367719E-01
       -2   -1    0    0    0  501  0.00000000000E+00  0.00000000000E+00  0.10424522560E+04  0.10424522560E+04  0.25500000920E-02 0. -1.
        2   -1    0    0  501    0  0.00000000000E+00  0.00000000000E+00 -0.16229496431E+04  0.16229496431E+04  0.25500000920E-02 0.  1.
    10030    2    1    2    0    0  0.00000000000E+00  0.00000000000E+00 -0.58049738703E+03  0.26654018991E+04  0.26014207786E+04 0.  0.
        3    1    3    3  502    0  0.41999909085E+03  0.64546757755E+03  0.78377868282E+03  0.10987887258E+04  0.10100000352E+00 0. -1.
       -3    1    3    3    0  502 -0.41999909085E+03 -0.64546757755E+03 -0.13642760699E+04  0.15666131734E+04  0.10100000352E+00 0.  1.
</event>
<event>
 5   0  0.1122628E-06  0.2596579E+04  0.7818609E-02  0.8369364E-01
       -1   -1    0    0    0  501  0.00000000000E+00  0.00000000000E+00  0.91951778523E+03  0.91951778524E+03  0.50400001928E-02 0. -1.
        1   -1    0    0  501    0  0.00000000000E+00  0.00000000000E+00 -0.18330863472E+04  0.18330863472E+04  0.50400001928E-02 0.  1.
    10030    2    1    2    0    0  0.00000000000E+00  0.00000000000E+00 -0.91356856200E+03  0.27526041325E+04  0.25965789017E+04 0.  0.
        2    1    3    3  502    0  0.55632479899E+03  0.46200854634E+03  0.68624820396E+03  0.99693820085E+03  0.25500000920E-02 0. -1.
       -2    1    3    3    0  502 -0.55632479899E+03 -0.46200854634E+03 -0.15998167660E+04  0.17556659316E+04  0.25500000920E-02 0.  1.
</event>
<event>
 5   0  0.2586775E-06  0.2596160E+04  0.7818609E-02  0.8369507E-01
        2   -1    0    0  501    0  0.00000000000E+00  0.00000000000E+00  0.17706608387E+04  0.17706608387E+04  0.25500000920E-02 0. -1.
       -2   -1    0    0    0  501  0.00000000000E+00  0.00000000000E+00 -0.95162905184E+03  0.95162905184E+03  0.25500000920E-02 0.  1.
    10030    2    1    2    0    0  0.00000000000E+00  0.00000000000E+00  0.81903178682E+03  0.27222898905E+04  0.25961604689E+04 0.  0.
        1    1    3    3  502    0  0.12206432593E+04  0.77088786041E+02  0.86549841671E+03  0.14983324586E+04  0.50400001928E-02 0. -1.
       -1    1    3    3    0  502 -0.12206432593E+04 -0.77088786041E+02 -0.46466629882E+02  0.12239574319E+04  0.50400001928E-02 0.  1.
</event>
<event>
 5   0  0.2705807E-06  0.2599191E+04  0.7818609E-02  0.8368476E-01
       -2   -1    0    0    0  501  0.00000000000E+00  0.00000000000E+00  0.11608599615E+04  0.11608599615E+04  0.25500000920E-02 0. -1.
        2   -1    0    0  501    0  0.00000000000E+00  0.00000000000E+00 -0.14549117662E+04  0.14549117662E+04  0.25500000920E-02 0.  1.
    10030    2    1    2    0    0  0.00000000000E+00  0.00000000000E+00 -0.29405180462E+03  0.26157717277E+04  0.25991912719E+04 0.  0.
        4    1    3    3  502    0  0.49267501205E+03 -0.18312150913E+03 -0.13431721328E+04  0.14423505627E+04  0.12699999809E+01 0.  1.
       -4    1    3    3    0  502 -0.49267501205E+03  0.18312150913E+03  0.10491203282E+04  0.11734211650E+04  0.12699999809E+01 0. -1.
</event>
<event>
 5   0  0.1032076E-06  0.2597780E+04  0.7818609E-02  0.8368956E-01
        1   -1    0    0  501    0  0.00000000000E+00  0.00000000000E+00  0.82812378242E+03  0.82812378243E+03  0.50400001928E-02 0. -1.
       -1   -1    0    0    0  501  0.00000000000E+00  0.00000000000E+00 -0.20372747430E+04  0.20372747430E+04  0.50400001928E-02 0.  1.
    10030    2    1    2    0    0  0.00000000000E+00  0.00000000000E+00 -0.12091509606E+04  0.28653985254E+04  0.25977803341E+04 0.  0.
        1    1    3    3  502    0 -0.86304624484E+03 -0.96940533488E+03 -0.54920285504E+03  0.14093329273E+04  0.50400001928E-02 0. -1.
       -1    1    3    3    0  502  0.86304624484E+03  0.96940533488E+03 -0.65994810555E+03  0.14560655981E+04  0.50400001928E-02 0.  1.
</event>
<event>
 5   0  0.1122628E-06  0.2602135E+04  0.7818609E-02  0.8367476E-01
       -1   -1    0    0    0  501  0.00000000000E+00  0.00000000000E+00  0.16263265326E+04  0.16263265326E+04  0.50400001928E-02 0.  1.
        1   -1    0    0  501    0  0.00000000000E+00  0.00000000000E+00 -0.10408590450E+04  0.10408590450E+04  0.50400001928E-02 0. -1.
    10030    2    1    2    0    0  0.00000000000E+00  0.00000000000E+00  0.58546748758E+03  0.26671855777E+04  0.26021350324E+04 0.  0.
        2    1    3    3  502    0  0.41529528724E+03  0.34720393640E+03 -0.91995560446E+03  0.10673982683E+04  0.25500000920E-02 0. -1.
       -2    1    3    3    0  502 -0.41529528724E+03 -0.34720393640E+03  0.15054230920E+04  0.15997873093E+04  0.25500000920E-02 0.  1.
</event>
<event>
 5   0  0.1088757E-06  0.2602296E+04  0.7818609E-02  0.8367422E-01
        1   -1    0    0  501    0  0.00000000000E+00  0.00000000000E+00  0.12132771819E+04  0.12132771819E+04  0.50400001928E-02 0. -1.
       -1   -1    0    0    0  501  0.00000000000E+00  0.00000000000E+00 -0.13953825632E+04  0.13953825633E+04  0.50400001928E-02 0.  1.
    10030    2    1    2    0    0  0.00000000000E+00  0.00000000000E+00 -0.18210538139E+03  0.26086597451E+04  0.26022957741E+04 0.  0.
        5    1    3    3  502    0  0.99413505283E+03 -0.49442826382E+03 -0.77109205190E+03  0.13518020764E+04  0.46999998093E+01 0.  1.
       -5    1    3    3    0  502 -0.99413505283E+03  0.49442826382E+03  0.58898667051E+03  0.12568576687E+04  0.46999998093E+01 0. -1.
</event>
<event>
 5   0  0.9197000E-07  0.2602860E+04  0.7818609E-02  0.8367230E-01
       -3   -1    0    0    0  501  0.00000000000E+00  0.00000000000E+00  0.29574173387E+04  0.29574173404E+04  0.10100000352E+00 0. -1.
        3   -1    0    0  501    0  0.00000000000E+00  0.00000000000E+00 -0.57270228057E+03  0.57270228948E+03  0.10100000352E+00 0.  1.
    10030    2    1    2    0    0  0.00000000000E+00  0.00000000000E+00  0.23847150581E+04  0.35301196299E+04  0.26028597144E+04 0.  0.
        4    1    3    3  502    0 -0.47948597628E+03  0.15304729121E+03 -0.43535751114E+03  0.66548332076E+03  0.12699999809E+01 0.  1.
       -4    1    3    3    0  502  0.47948597628E+03 -0.15304729121E+03  0.28200725692E+04  0.28646363091E+04  0.12699999809E+01 0. -1.
</event>
<event>
 5   0  0.1055179E-06  0.2606826E+04  0.7818609E-02  0.8365886E-01
       -1   -1    0    0    0  501  0.00000000000E+00  0.00000000000E+00  0.12156778229E+04  0.12156778229E+04  0.50400001928E-02 0.  1.
        1   -1    0    0  501    0  0.00000000000E+00  0.00000000000E+00 -0.13974799031E+04  0.13974799031E+04  0.50400001928E-02 0. -1.
    10030    2    1    2    0    0  0.00000000000E+00  0.00000000000E+00 -0.18180208021E+03  0.26131577260E+04  0.26068259061E+04 0.  0.
        3    1    3    3  502    0 -0.51950040050E+03  0.12783657069E+03 -0.12823427449E+04  0.13894696040E+04  0.10100000352E+00 0. -1.
       -3    1    3    3    0  502  0.51950040050E+03 -0.12783657069E+03  0.11005406647E+04  0.12236881219E+04  0.10100000352E+00 0.  1.
</event>
<event>
 5   0  0.2705807E-06  0.2602421E+04  0.7818609E-02  0.8367379E-01
        2   -1    0    0  501    0  0.00000000000E+00  0.00000000000E+00  0.87603833359E+03  0.87603833359E+03  0.25500000920E-02 0.  1.
       -2   -1    0    0    0  501  0.00000000000E+00  0.00000000000E+00 -0.19327336726E+04  0.19327336726E+04  0.25500000920E-02 0. -1.
    10030    2    1    2    0    0  0.00000000000E+00  0.00000000000E+00 -0.10566953390E+04  0.28087720062E+04  0.26024210158E+04 0.  0.
        4    1    3    3  502    0  0.11298671702E+03  0.12455797821E+04 -0.91586034140E+03  0.15501731419E+04  0.12699999809E+01 0. -1.
       -4    1    3    3    0  502 -0.11298671702E+03 -0.12455797821E+04 -0.14083499765E+03  0.12585988644E+04  0.12699999809E+01 0.  1.
</event>
<event>
 5   0  0.1032076E-06  0.2595967E+04  0.7818609E-02  0.8369572E-01
        1   -1    0    0  501    0  0.00000000000E+00  0.00000000000E+00  0.15848743036E+04  0.15848743036E+04  0.50400001928E-02 0. -1.
       -1   -1    0    0    0  501  0.00000000000E+00  0.00000000000E+00 -0.10630250867E+04  0.10630250867E+04  0.50400001928E-02 0.  1.
    10030    2    1    2    0    0  0.00000000000E+00  0.00000000000E+00  0.52184921686E+03  0.26478993904E+04  0.25959669829E+04 0.  0.
        1    1    3    3  502    0  0.77272132632E+03  0.21145510483E+03  0.13026037865E+04  0.15292443016E+04  0.50400001928E-02 0. -1.
       -1    1    3    3    0  502 -0.77272132632E+03 -0.21145510483E+03 -0.78075456962E+03  0.11186550887E+04  0.50400001928E-02 0.  1.
</event>
<event>
 5   0  0.2623368E-06  0.2602470E+04  0.7818609E-02  0.8367363E-01
       -2   -1    0    0    0  501  0.00000000000E+00  0.00000000000E+00  0.12358705238E+04  0.12358705238E+04  0.25500000920E-02 0. -1.
        2   -1    0    0  501    0  0.00000000000E+00  0.00000000000E+00 -0.13700565696E+04  0.13700565696E+04  0.25500000920E-02 0.  1.
    10030    2    1    2    0    0  0.00000000000E+00  0.00000000000E+00 -0.13418604574E+03  0.26059270934E+04  0.26024700039E+04 0.  0.
        5    1    3    3  502    0 -0.90410591222E+03  0.76433509365E+03 -0.60778699157E+03  0.13308053024E+04  0.46999998093E+01 0.  1.
       -5    1    3    3    0  502  0.90410591222E+03 -0.76433509365E+03  0.47360094583E+03  0.12751217910E+04  0.46999998093E+01 0. -1.
</event>
<event>
 5   0  0.2623368E-06  0.2601114E+04  0.7818609E-02  0.8367823E-01
        2   -1    0    0  501    0  0.00000000000E+00  0.00000000000E+00  0.17075898985E+04  0.17075898985E+04  0.25500000920E-02 0. -1.
       -2   -1    0    0    0  501  0.00000000000E+00  0.00000000000E+00 -0.99054708925E+03  0.99054708925E+03  0.25500000920E-02 0.  1.
    10030    2    1    2    0    0  0.00000000000E+00  0.00000000000E+00  0.71704280922E+03  0.26981369877E+04  0.26011137642E+04 0.  0.
        5    1    3    3  502    0 -0.67854707726E+03  0.60880499962E+03 -0.60363097384E+03  0.10933718975E+04  0.46999998093E+01 0.  1.
       -5    1    3    3    0  502  0.67854707726E+03 -0.60880499962E+03  0.13206737831E+04  0.16047650902E+04  0.46999998093E+01 0. -1.
</event>
<event>
 5   0  0.2623368E-06  0.2598890E+04  0.7818609E-02  0.8368578E-01
        2   -1    0    0  501    0  0.00000000000E+00  0.00000000000E+00  0.19777282304E+04  0.19777282304E+04  0.25500000920E-02 0.  1.
       -2   -1    0    0    0  501  0.00000000000E+00  0.00000000000E+00 -0.85378638519E+03  0.85378638519E+03  0.25500000920E-02 0. -1.
    10030    2    1    2    0    0  0.00000000000E+00  0.00000000000E+00  0.11239418452E+04  0.28315146156E+04  0.25988900990E+04 0.  0.
        5    1    3    3  502    0 -0.84868733856E+03  0.14466629283E+03 -0.49846174929E+03  0.99482900059E+03  0.46999998093E+01 0. -1.
       -5    1    3    3    0  502  0.84868733856E+03 -0.14466629283E+03  0.16224035945E+04  0.18366856150E+04  0.46999998093E+01 0.  1.
</event>
<event>
 5   0  0.2746631E-06  0.2601806E+04  0.7818609E-02  0.8367588E-01
       -2   -1    0    0    0  501  0.00000000000E+00  0.00000000000E+00  0.12948858562E+04  0.12948858562E+04  0.25500000920E-02 0. -1.
        2   -1    0    0  501    0  0.00000000000E+00  0.00000000000E+00 -0.13069477575E+04  0.13069477575E+04  0.25500000920E-02 0.  1.
    10030    2    1    2    0    0  0.00000000000E+00  0.00000000000E+00 -0.12061901325E+02  0.26018336137E+04  0.26018056546E+04 0.  0.
        2    1    3    3  502    0 -0.11213668910E+04 -0.47731220723E+03 -0.46107157375E+03  0.13030263403E+04  0.25500000920E-02 0.  1.
       -2    1    3    3    0  502  0.11213668910E+04  0.47731220723E+03  0.44900967243E+03  0.12988072734E+04  0.25500000920E-02 0. -1.
</event>
<event>
 5   0  0.1100104E-06  0.2599177E+04  0.7818609E-02  0.8368481E-01
       -1   -1    0    0    0  501  0.00000000000E+00  0.00000000000E+00  0.58518259622E+03  0.58518259624E+03  0.50400001928E-02 0. -1.
        1   -1    0    0  501    0  0.00000000000E+00  0.00000000000E+00 -0.28861602395E+04  0.28861602395E+04  0.50400001928E-02 0.  1.
    10030    2    1    2    0    0  0.00000000000E+00  0.00000000000E+00 -0.23009776432E+04  0.34713428357E+04  0.25991773638E+04 0.  0.
        4    1    3    3  502    0  0.28679835262E+03  0.11701711184E+04 -0.18011867665E+04  0.21669861840E+04  0.12699999809E+01 0.  1.
       -4    1    3    3    0  502 -0.28679835262E+03 -0.11701711184E+04 -0.49979087679E+03  0.13043566517E+04  0.12699999809E+01 0. -1.
</event>
<event>
 5   0  0.2586775E-06  0.2595934E+04  0.7818609E-02  0.8369584E-01
        2   -1    0    0  501    0  0.00000000000E+00  0.00000000000E+00  0.19731407670E+04  0.19731407670E+04  0.25500000920E-02 0.  1.
       -2   -1    0    0    0  501  0.00000000000E+00  0.00000000000E+00 -0.85382546293E+03  0.85382546293E+03  0.25500000920E-02 0. -1.
    10030    2    1    2    0    0  0.00000000000E+00  0.00000000000E+00  0.11193153041E+04  0.28269662300E+04  0.25959336115E+04 0.  0.
        1    1    3    3  502    0  0.37864659678E+03  0.61817178013E+03  0.17321439270E+04  0.18777199415E+04  0.50400001928E-02 0.  1.
       -1    1    3    3    0  502 -0.37864659678E+03 -0.61817178013E+03 -0.61282862290E+03  0.94924628842E+03  0.50400001928E-02 0. -1.
</event>
<event>
 5   0  0.2623368E-06  0.2599887E+04  0.7818609E-02  0.8368240E-01
       -2   -1    0    0    0  501  0.00000000000E+00  0.00000000000E+00  0.65969550711E+03  0.65969550711E+03  0.25500000920E-02 0.  1.
        2   -1    0    0  501    0  0.00000000000E+00  0.00000000000E+00 -0.25615657441E+04  0.25615657441E+04  0.25500000920E-02 0. -1.
    10030    2    1    2    0    0  0.00000000000E+00  0.00000000000E+00 -0.19018702370E+04  0.32212612512E+04  0.25998872380E+04 0.  0.
        5    1    3    3  502    0  0.44783273781E+03 -0.56541153980E+02 -0.24613371770E+04  0.25023896283E+04  0.46999998093E+01 0. -1.
       -5    1    3    3    0  502 -0.44783273781E+03  0.56541153980E+02  0.55946694003E+03  0.71887162285E+03  0.46999998093E+01 0.  1.
</event>
<event>
 5   0  0.2705807E-06  0.2641653E+04  0.7818609E-02  0.8354189E-01
        2   -1    0    0  501    0  0.00000000000E+00  0.00000000000E+00  0.12799527996E+04  0.12799527996E+04  0.25500000920E-02 0.  1.
       -2   -1    0    0    0  501  0.00000000000E+00  0.00000000000E+00 -0.13630058932E+04  0.13630058932E+04  0.25500000920E-02 0. -1.
    10030    2    1    2    0    0  0.00000000000E+00  0.00000000000E+00 -0.83053093609E+02  0.26429586928E+04  0.26416534283E+04 0.  0.
        4    1    3    3  502    0 -0.27182624389E+03  0.11205758598E+03 -0.13298487852E+04  0.13619639547E+04  0.12699999809E+01 0. -1.
       -4    1    3    3    0  502  0.27182624389E+03 -0.11205758598E+03  0.12467956916E+04  0.12809947381E+04  0.12699999809E+01 0.  1.
</event>
<event>
 5   0  0.2820028E-06  0.2597085E+04  0.7818609E-02  0.8369192E-01
        2   -1    0    0  501    0  0.00000000000E+00  0.00000000000E+00  0.26860620633E+04  0.26860620633E+04  0.25500000920E-02 0.  1.
       -2   -1    0    0    0  501  0.00000000000E+00  0.00000000000E+00 -0.62776369710E+03  0.62776369711E+03  0.25500000920E-02 0. -1.
    10030    2    1    2    0    0  0.00000000000E+00  0.00000000000E+00  0.20582983662E+04  0.33138257604E+04  0.25970847129E+04 0.  0.
        3    1    3    3  502    0  0.60095178698E+03  0.29604774604E+03  0.24485432426E+04  0.25385333047E+04  0.10100000352E+00 0.  1.
       -3    1    3    3    0  502 -0.60095178698E+03 -0.29604774604E+03 -0.39024487633E+03  0.77529245573E+03  0.10100000352E+00 0. -1.
</event>
<event>
 5   0  0.2623368E-06  0.2619034E+04  0.7818609E-02  0.8361764E-01
       -2   -1    0    0    0  501  0.00000000000E+00  0.00000000000E+00  0.15592472436E+04  0.15592472436E+04  0.25500000920E-02 0.  1.
        2   -1    0    0  501    0  0.00000000000E+00  0.00000000000E+00 -0.10997835542E+04  0.10997835542E+04  0.25500000920E-02 0. -1.
    10030    2    1    2    0    0  0.00000000000E+00  0.00000000000E+00  0.45946368944E+03  0.26590307978E+04  0.26190337726E+04 0.  0.
        5    1    3    3  502    0  0.65884412412E+03 -0.11285451955E+04  0.31541588518E+03  0.13443210587E+04  0.46999998093E+01 0. -1.
       -5    1    3    3    0  502 -0.65884412412E+03  0.11285451955E+04  0.14404780426E+03  0.13147097391E+04  0.46999998093E+01 0.  1.
</event>
<event>
 5   0  0.1100104E-06  0.2599433E+04  0.7818609E-02  0.8368394E-01
        1   -1    0    0  501    0  0.00000000000E+00  0.00000000000E+00  0.14386787068E+04  0.14386787068E+04  0.50400001928E-02 0.  1.
       -1   -1    0    0    0  501  0.00000000000E+00  0.00000000000E+00 -0.11741769667E+04  0.11741769667E+04  0.50400001928E-02 0. -1.
    10030    2    1    2    0    0  0.00000000000E+00  0.00000000000E+00  0.26450174013E+03  0.26128556735E+04  0.25994333229E+04 0.  0.
        4    1    3    3  502    0  0.85814654393E+03  0.58293113960E+02  0.11116785624E+04  0.14055761868E+04  0.12699999809E+01 0.  1.
       -4    1    3    3    0  502 -0.85814654393E+03 -0.58293113960E+02 -0.84717682223E+03  0.12072794867E+04  0.12699999809E+01 0. -1.
</event>
<event>
 5   0  0.1055179E-06  0.2602567E+04  0.7818609E-02  0.8367330E-01
        1   -1    0    0  501    0  0.00000000000E+00  0.00000000000E+00  0.22887920147E+04  0.22887920147E+04  0.50400001928E-02 0.  1.
       -1   -1    0    0    0  501  0.00000000000E+00  0.00000000000E+00 -0.73983929338E+03  0.73983929340E+03  0.50400001928E-02 0. -1.
    10030    2    1    2    0    0  0.00000000000E+00  0.00000000000E+00  0.15489527213E+04  0.30286313081E+04  0.26025666307E+04 0.  0.
        3    1    3    3  502    0  0.80463518888E+03 -0.50765787769E+00  0.19645934073E+04  0.21229850002E+04  0.10100000352E+00 0.  1.
       -3    1    3    3    0  502 -0.80463518888E+03  0.50765787769E+00 -0.41564068601E+03  0.90564630787E+03  0.10100000352E+00 0. -1.
</event>
<event>
 5   0  0.1088757E-06  0.2594180E+04  0.7818609E-02  0.8370181E-01
       -1   -1    0    0    0  501  0.00000000000E+00  0.00000000000E+00  0.10976183841E+04  0.10976183841E+04  0.50400001928E-02 0.  1.
        1   -1    0    0  501    0  0.00000000000E+00  0.00000000000E+00 -0.15328120383E+04  0.15328120383E+04  0.50400001928E-02 0. -1.
    10030    2    1    2    0    0  0.00000000000E+00  0.00000000000E+00 -0.43519365415E+03  0.26304304224E+04  0.25941801577E+04 0.  0.
        5    1    3    3  502    0  0.50436032260E+03 -0.66030654367E+03  0.79233140947E+03  0.11481268306E+04  0.46999998093E+01 0.  1.
       -5    1    3    3    0  502 -0.50436032260E+03  0.66030654367E+03 -0.12275250636E+04  0.14823035919E+04  0.46999998093E+01 0. -1.
</event>
<event>
 5   0  0.2586775E-06  0.2596742E+04  0.7818609E-02  0.8369309E-01
       -2   -1    0    0    0  501  0.00000000000E+00  0.00000000000E+00  0.34443803254E+04  0.34443803254E+04  0.25500000920E-02 0. -1.
        2   -1    0    0  501    0  0.00000000000E+00  0.00000000000E+00 -0.48942557548E+03  0.48942557549E+03  0.25500000920E-02 0.  1.
    10030    2    1    2    0    0  0.00000000000E+00  0.00000000000E+00  0.29549547499E+04  0.39338059009E+04  0.25967424385E+04 0.  0.
        1    1    3    3  502    0 -0.49264239681E+03  0.50414961525E+03  0.31292776322E+04  0.32076848139E+04  0.50400001928E-02 0. -1.
       -1    1    3    3    0  502  0.49264239681E+03 -0.50414961525E+03 -0.17432288230E+03  0.72612108701E+03  0.50400001928E-02 0.  1.
</event>
<event>
 5   0  0.2623368E-06  0.2599979E+04  0.7818609E-02  0.8368208E-01
       -2   -1    0    0    0  501  0.00000000000E+00  0.00000000000E+00  0.96251275373E+03  0.96251275373E+03  0.25500000920E-02 0.  1.
        2   -1    0    0  501    0  0.00000000000E+00  0.00000000000E+00 -0.17557923974E+04  0.17557923974E+04  0.25500000920E-02 0. -1.
    10030    2    1    2    0    0  0.00000000000E+00  0.00000000000E+00 -0.79327964368E+03  0.27183051511E+04  0.25999789041E+04 0.  0.
        5    1    3    3  502    0 -0.53688157781E+03 -0.33985755774E+03  0.78908405319E+03  0.10131242378E+04  0.46999998093E+01 0.  1.
       -5    1    3    3    0  502  0.53688157781E+03  0.33985755774E+03 -0.15823636969E+04  0.17051809134E+04  0.46999998093E+01 0. -1.
</event>
<event>
 5   0  0.1088757E-06  0.2601765E+04  0.7818609E-02  0.8367602E-01
        1   -1    0    0  501    0  0.00000000000E+00  0.00000000000E+00  0.23639937867E+04  0.23639937867E+04  0.50400001928E-02 0.  1.
       -1   -1    0    0    0  501  0.00000000000E+00  0.00000000000E+00 -0.71586309474E+03  0.71586309476E+03  0.50400001928E-02 0. -1.
    10030    2    1    2    0    0  0.00000000000E+00  0.00000000000E+00  0.16481306920E+04  0.30798568815E+04  0.26017654838E+04 0.  0.
        5    1    3    3  502    0  0.95207340526E+03  0.80045723907E+03  0.12749791039E+04  0.17812269272E+04  0.46999998093E+01 0.  1.
       -5    1    3    3    0  502 -0.95207340526E+03 -0.80045723907E+03  0.37315158804E+03  0.12986299543E+04  0.46999998093E+01 0. -1.
</event>
<event>
 5   0  0.1032076E-06  0.2598633E+04  0.7818609E-02  0.8368666E-01
        1   -1    0    0  501    0  0.00000000000E+00  0.00000000000E+00  0.24890669209E+04  0.24890669209E+04  0.50400001928E-02 0. -1.
       -1   -1    0    0    0  501  0.00000000000E+00  0.00000000000E+00 -0.67825572746E+03  0.67825572748E+03  0.50400001928E-02 0.  1.
    10030    2    1    2    0    0  0.00000000000E+00  0.00000000000E+00  0.18108111935E+04  0.31673226484E+04  0.25986334064E+04 0.  0.
        1    1    3    3  502    0 -0.23378007172E+03 -0.53629558552E+02 -0.65103880406E+03  0.69381609660E+03  0.50400001928E-02 0.  1.
       -1    1    3    3    0  502  0.23378007172E+03  0.53629558552E+02  0.24618499975E+04  0.24735065518E+04  0.50400001928E-02 0. -1.
</event>
<event>
 5   0  0.2705807E-06  0.2599887E+04  0.7818609E-02  0.8368240E-01
        2   -1    0    0  501    0  0.00000000000E+00  0.00000000000E+00  0.19699864671E+04  0.19699864671E+04  0.25500000920E-02 0.  1.
       -2   -1    0    0    0  501  0.00000000000E+00  0.00000000000E+00 -0.85779908049E+03  0.85779908049E+03  0.25500000920E-02 0. -1.
    10030    2    1    2    0    0  0.00000000000E+00  0.00000000000E+00  0.11121873866E+04  0.28277855475E+04  0.25998865975E+04 0.  0.
        4    1    3    3  502    0  0.18229410745E+03 -0.12015677206E+04  0.10578973579E+04  0.16112555854E+04  0.12699999809E+01 0.  1.
       -4    1    3    3    0  502 -0.18229410745E+03  0.12015677206E+04  0.54290028697E+02  0.12165299622E+04  0.12699999809E+01 0. -1.
</event>
<event>
 5   0  0.1032076E-06  0.2608599E+04  0.7818609E-02  0.8365286E-01
       -1   -1    0    0    0  501  0.00000000000E+00  0.00000000000E+00  0.80669732160E+03  0.80669732162E+03  0.50400001928E-02 0. -1.
        1   -1    0    0  501    0  0.00000000000E+00  0.00000000000E+00 -0.21088427640E+04  0.21088427640E+04  0.50400001928E-02 0.  1.
    10030    2    1    2    0    0  0.00000000000E+00  0.00000000000E+00 -0.13021454424E+04  0.29155400857E+04  0.26085994782E+04 0.  0.
        1    1    3    3  502    0 -0.20858641031E+03  0.73845490420E+03  0.52771880100E+03  0.93129537154E+03  0.50400001928E-02 0. -1.
       -1    1    3    3    0  502  0.20858641031E+03 -0.73845490420E+03 -0.18298642434E+04  0.19842447141E+04  0.50400001928E-02 0.  1.
</event>
<event>
 5   0  0.2705807E-06  0.2602142E+04  0.7818609E-02  0.8367474E-01
        2   -1    0    0  501    0  0.00000000000E+00  0.00000000000E+00  0.12393045634E+04  0.12393045634E+04  0.25500000920E-02 0.  1.
       -2   -1    0    0    0  501  0.00000000000E+00  0.00000000000E+00 -0.13659154576E+04  0.13659154576E+04  0.25500000920E-02 0. -1.
    10030    2    1    2    0    0  0.00000000000E+00  0.00000000000E+00 -0.12661089420E+03  0.26052200210E+04  0.26021416255E+04 0.  0.
        4    1    3    3  502    0  0.12781799112E+04 -0.20333510648E+03  0.69872956312E+02  0.12961376832E+04  0.12699999809E+01 0. -1.
       -4    1    3    3    0  502 -0.12781799112E+04  0.20333510648E+03 -0.19648385051E+03  0.13090823378E+04  0.12699999809E+01 0.  1.
</event>
<event>
 5   0  0.2586775E-06  0.2598570E+04  0.7818609E-02  0.8368687E-01
        2   -1    0    0  501    0  0.00000000000E+00  0.00000000000E+00  0.24581322578E+04  0.24581322578E+04  0.25500000920E-02 0.  1.
       -2   -1    0    0    0  501  0.00000000000E+00  0.00000000000E+00 -0.68675791093E+03  0.68675791094E+03  0.25500000920E-02 0. -1.
    10030    2    1    2    0    0  0.00000000000E+00  0.00000000000E+00  0.17713743468E+04  0.31448901687E+04  0.25985702024E+04 0.  0.
        1    1    3    3  502    0 -0.38977613221E+03  0.76334138664E+03  0.20674691429E+04  0.22380894000E+04  0.50400001928E-02 0.  1.
       -1    1    3    3    0  502  0.38977613221E+03 -0.76334138664E+03 -0.29609479603E+03  0.90680076867E+03  0.50400001928E-02 0. -1.
</event>
<event>
 5   0  0.9197000E-07  0.2607695E+04  0.7818609E-02  0.8365592E-01
       -4   -1    0    0    0  501  0.00000000000E+00  0.00000000000E+00  0.16517114026E+04  0.16517118909E+04  0.12699999809E+01 0. -1.
        4   -1    0    0  501    0  0.00000000000E+00  0.00000000000E+00 -0.10292458727E+04  0.10292466563E+04  0.12699999809E+01 0.  1.
    10030    2    1    2    0    0  0.00000000000E+00  0.00000000000E+00  0.62246552991E+03  0.26809585472E+04  0.26076954185E+04 0.  0.
        2    1    3    3  502    0  0.59539947855E+03  0.11396093081E+04  0.53366494300E+03  0.13921236243E+04  0.25500000920E-02 0. -1.
       -2    1    3    3    0  502 -0.59539947855E+03 -0.11396093081E+04  0.88800586909E+02  0.12888349228E+04  0.25500000920E-02 0.  1.
</event>
<event>
 5   0  0.1032076E-06  0.2584128E+04  0.7818609E-02  0.8373613E-01
       -1   -1    0    0    0  501  0.00000000000E+00  0.00000000000E+00  0.12610598175E+04  0.12610598176E+04  0.50400001928E-02 0. -1.
        1   -1    0    0  501    0  0.00000000000E+00  0.00000000000E+00 -0.13238303968E+04  0.13238303968E+04  0.50400001928E-02 0.  1.
    10030    2    1    2    0    0  0.00000000000E+00  0.00000000000E+00 -0.62770579240E+02  0.25848902144E+04  0.25841279524E+04 0.  0.
        1    1    3    3  502    0  0.61411642127E+03  0.92072480386E+02  0.11020036569E+04  0.12649222823E+04  0.50400001928E-02 0. -1.
       -1    1    3    3    0  502 -0.61411642127E+03 -0.92072480386E+02 -0.11647742361E+04  0.13199679320E+04  0.50400001928E-02 0.  1.
</event>
<event>
 5   0  0.1088757E-06  0.2596961E+04  0.7818609E-02  0.8369234E-01
        1   -1    0    0  501    0  0.00000000000E+00  0.00000000000E+00  0.11999719497E+04  0.11999719497E+04  0.50400001928E-02 0.  1.
       -1   -1    0    0    0  501  0.00000000000E+00  0.00000000000E+00 -0.14050763206E+04  0.14050763206E+04  0.50400001928E-02 0. -1.
    10030    2    1    2    0    0  0.00000000000E+00  0.00000000000E+00 -0.20510437087E+03  0.26050482703E+04  0.25969614336E+04 0.  0.
        5    1    3    3  502    0  0.56902125027E+03  0.10706822029E+04 -0.56863278406E+03  0.13392202567E+04  0.46999998093E+01 0. -1.
       -5    1    3    3    0  502 -0.56902125027E+03 -0.10706822029E+04  0.36352841318E+03  0.12658280136E+04  0.46999998093E+01 0.  1.
</event>
<event>
 5   0  0.2705807E-06  0.2573480E+04  0.7818609E-02  0.8377265E-01
        2   -1    0    0  501    0  0.00000000000E+00  0.00000000000E+00  0.17161011970E+04  0.17161011970E+04  0.25500000920E-02 0. -1.
       -2   -1    0    0    0  501  0.00000000000E+00  0.00000000000E+00 -0.96480340069E+03  0.96480340070E+03  0.25500000920E-02 0.  1.
    10030    2    1    2    0    0  0.00000000000E+00  0.00000000000E+00  0.75129779627E+03  0.26809045977E+04  0.25734803444E+04 0.  0.
        4    1    3    3  502    0  0.53389420386E+01 -0.10203386854E+04 -0.44102637184E+03  0.11115868886E+04  0.12699999809E+01 0.  1.
       -4    1    3    3    0  502 -0.53389420386E+01  0.10203386854E+04  0.11923241681E+04  0.15693177091E+04  0.12699999809E+01 0. -1.
</event>
<event>
 5   0  0.1100104E-06  0.2605276E+04  0.7818609E-02  0.8366411E-01
        1   -1    0    0  501    0  0.00000000000E+00  0.00000000000E+00  0.22247034264E+04  0.22247034264E+04  0.50400001928E-02 0. -1.
       -1   -1    0    0    0  501  0.00000000000E+00  0.00000000000E+00 -0.76273788695E+03  0.76273788697E+03  0.50400001928E-02 0.  1.
    10030    2    1    2    0    0  0.00000000000E+00  0.00000000000E+00  0.14619655394E+04  0.29874413133E+04  0.26052758706E+04 0.  0.
        4    1    3    3  502    0  0.10887771171E+04  0.20621833325E+03 -0.54229138784E+02  0.11094611413E+04  0.12699999809E+01 0.  1.
       -4    1    3    3    0  502 -0.10887771171E+04 -0.20621833325E+03  0.15161946782E+04  0.18779801721E+04  0.12699999809E+01 0. -1.
</event>
<event>
 5   0  0.2705807E-06  0.2601364E+04  0.7818609E-02  0.8367738E-01
        2   -1    0    0  501    0  0.00000000000E+00  0.00000000000E+00  0.13194818105E+04  0.13194818105E+04  0.25500000920E-02 0. -1.
       -2   -1    0    0    0  501  0.00000000000E+00  0.00000000000E+00 -0.12821501305E+04  0.12821501305E+04  0.25500000920E-02 0.  1.
    10030    2    1    2    0    0  0.00000000000E+00  0.00000000000E+00  0.37331680073E+02  0.26016319410E+04  0.26013640849E+04 0.  0.
        4    1    3    3  502    0  0.28750483092E+03  0.41165779660E+03  0.12186439579E+04  0.13180348547E+04  0.12699999809E+01 0. -1.
       -4    1    3    3    0  502 -0.28750483092E+03 -0.41165779660E+03 -0.11813122778E+04  0.12835970863E+04  0.12699999809E+01 0.  1.
</event>
<event>
 5   0  0.1122628E-06  0.2603604E+04  0.7818609E-02  0.8366978E-01
       -1   -1    0    0    0  501  0.00000000000E+00  0.00000000000E+00  0.14253410851E+04  0.14253410851E+04  0.50400001928E-02 0. -1.
        1   -1    0    0  501    0  0.00000000000E+00  0.00000000000E+00 -0.11889706127E+04  0.11889706127E+04  0.50400001928E-02 0.  1.
    10030    2    1    2    0    0  0.00000000000E+00  0.00000000000E+00  0.23637047242E+03  0.26143116979E+04  0.26036041660E+04 0.  0.
        2    1    3    3  502    0  0.30264442680E+03 -0.11420208487E+03 -0.11479736134E+04  0.11926773169E+04  0.25500000920E-02 0.  1.
       -2    1    3    3    0  502 -0.30264442680E+03  0.11420208487E+03  0.13843440858E+04  0.14216343810E+04  0.25500000920E-02 0. -1.
</event>
<event>
 5   0  0.2586775E-06  0.2602258E+04  0.7818609E-02  0.8367434E-01
        2   -1    0    0  501    0  0.00000000000E+00  0.00000000000E+00  0.12959114419E+04  0.12959114419E+04  0.25500000920E-02 0.  1.
       -2   -1    0    0    0  501  0.00000000000E+00  0.00000000000E+00 -0.13063680005E+04  0.13063680005E+04  0.25500000920E-02 0. -1.
    10030    2    1    2    0    0  0.00000000000E+00  0.00000000000E+00 -0.10456558595E+02  0.26022794423E+04  0.26022584338E+04 0.  0.
        1    1    3    3  502    0  0.10535649447E+04  0.56403109014E+03 -0.51982652193E+03  0.13032074955E+04  0.50400001928E-02 0. -1.
       -1    1    3    3    0  502 -0.10535649447E+04 -0.56403109014E+03  0.50936996333E+03  0.12990719468E+04  0.50400001928E-02 0.  1.
</event>
<event>
 5   0  0.1055179E-06  0.2597219E+04  0.7818609E-02  0.8369146E-01
       -1   -1    0    0    0  501  0.00000000000E+00  0.00000000000E+00  0.12531644986E+04  0.12531644986E+04  0.50400001928E-02 0. -1.
        1   -1    0    0  501    0  0.00000000000E+00  0.00000000000E+00 -0.13457028480E+04  0.13457028480E+04  0.50400001928E-02 0.  1.
    10030    2    1    2    0    0  0.00000000000E+00  0.00000000000E+00 -0.92538349352E+02  0.25988673466E+04  0.25972193090E+04 0.  0.
        3    1    3    3  502    0 -0.77755773842E+03 -0.83762061141E+02 -0.10836405217E+04  0.13363715463E+04  0.10100000352E+00 0.  1.
       -3    1    3    3    0  502  0.77755773842E+03  0.83762061141E+02  0.99110217231E+03  0.12624958002E+04  0.10100000352E+00 0. -1.
</event>
<event>
 5   0  0.1032076E-06  0.2601311E+04  0.7818609E-02  0.8367756E-01
        1   -1    0    0  501    0  0.00000000000E+00  0.00000000000E+00  0.13525153973E+04  0.13525153973E+04  0.50400001928E-02 0.  1.
       -1   -1    0    0    0  501  0.00000000000E+00  0.00000000000E+00 -0.12507845112E+04  0.12507845112E+04  0.50400001928E-02 0. -1.
    10030    2    1    2    0    0  0.00000000000E+00  0.00000000000E+00  0.10173088604E+03  0.26032999085E+04  0.26013114463E+04 0.  0.
        1    1    3    3  502    0 -0.83069741633E+02  0.11335937753E+03  0.13448946026E+04  0.13522175944E+04  0.50400001928E-02 0.  1.
       -1    1    3    3    0  502  0.83069741633E+02 -0.11335937753E+03 -0.12431637166E+04  0.12510823141E+04  0.50400001928E-02 0. -1.
</event>
<event>
 5   0  0.1055179E-06  0.2599232E+04  0.7818609E-02  0.8368462E-01
        1   -1    0    0  501    0  0.00000000000E+00  0.00000000000E+00  0.16911138696E+04  0.16911138696E+04  0.50400001928E-02 0. -1.
       -1   -1    0    0    0  501  0.00000000000E+00  0.00000000000E+00 -0.99875076290E+03  0.99875076292E+03  0.50400001928E-02 0.  1.
    10030    2    1    2    0    0  0.00000000000E+00  0.00000000000E+00  0.69236310667E+03  0.26898646325E+04  0.25992316306E+04 0.  0.
        3    1    3    3  502    0  0.27539891941E+03  0.27010083724E+03  0.16305047164E+04  0.16755132549E+04  0.10100000352E+00 0. -1.
       -3    1    3    3    0  502 -0.27539891941E+03 -0.27010083724E+03 -0.93814160972E+03  0.10143513776E+04  0.10100000352E+00 0.  1.
</event>
<event>
 5   0  0.2820028E-06  0.2600152E+04  0.7818609E-02  0.8368150E-01
       -2   -1    0    0    0  501  0.00000000000E+00  0.00000000000E+00  0.10580453025E+04  0.10580453026E+04  0.25500000920E-02 0. -1.
        2   -1    0    0  501    0  0.00000000000E+00  0.00000000000E+00 -0.15974713915E+04  0.15974713915E+04  0.25500000920E-02 0.  1.
    10030    2    1    2    0    0  0.00000000000E+00  0.00000000000E+00 -0.53942608897E+03  0.26555166941E+04  0.26001516123E+04 0.  0.
        3    1    3    3  502    0  0.36051419621E+03 -0.53702544691E+02 -0.15442207095E+04  0.15866543602E+04  0.10100000352E+00 0.  1.
       -3    1    3    3    0  502 -0.36051419621E+03  0.53702544691E+02  0.10047946206E+04  0.10688623338E+04  0.10100000352E+00 0. -1.
</event>
<event>
 5   0  0.2746631E-06  0.2601862E+04  0.7818609E-02  0.8367569E-01
        2   -1    0    0  501    0  0.00000000000E+00  0.00000000000E+00  0.71242537213E+03  0.71242537213E+03  0.25500000920E-02 0.  1.
       -2   -1    0    0    0  501  0.00000000000E+00  0.00000000000E+00 -0.23755773678E+04  0.23755773678E+04  0.25500000920E-02 0. -1.
    10030    2    1    2    0    0  0.00000000000E+00  0.00000000000E+00 -0.16631519957E+04  0.30880027400E+04  0.26018620950E+04 0.  0.
        2    1    3    3  502    0 -0.93023544836E+03  0.25117971698E+03  0.20580409094E+03  0.98528400143E+03  0.25500000920E-02 0.  1.
       -2    1    3    3    0  502  0.93023544836E+03 -0.25117971698E+03 -0.18689560866E+04  0.21027187385E+04  0.25500000920E-02 0. -1.
</event>
<event>
 5   0  0.1100104E-06  0.2597928E+04  0.7818609E-02  0.8368905E-01
       -1   -1    0    0    0  501  0.00000000000E+00  0.00000000000E+00  0.11020940807E+04  0.11020940808E+04  0.50400001928E-02 0.  1.
        1   -1    0    0  501    0  0.00000000000E+00  0.00000000000E+00 -0.15310012632E+04  0.15310012632E+04  0.50400001928E-02 0. -1.
    10030    2    1    2    0    0  0.00000000000E+00  0.00000000000E+00 -0.42890718247E+03  0.26330953440E+04  0.25979279665E+04 0.  0.
        4    1    3    3  502    0  0.43445603791E+03 -0.82647687295E+03  0.70081536519E+03  0.11674587185E+04  0.12699999809E+01 0.  1.
       -4    1    3    3    0  502 -0.43445603791E+03  0.82647687295E+03 -0.11297225477E+04  0.14656366255E+04  0.12699999809E+01 0. -1.
</event>
<event>
 5   0  0.2586775E-06  0.2601976E+04  0.7818609E-02  0.8367530E-01
       -2   -1    0    0    0  501  0.00000000000E+00  0.00000000000E+00  0.85750741956E+03  0.85750741956E+03  0.25500000920E-02 0. -1.
        2   -1    0    0  501    0  0.00000000000E+00  0.00000000000E+00 -0.19738257059E+04  0.19738257059E+04  0.25500000920E-02 0.  1.
    10030    2    1    2    0    0  0.00000000000E+00  0.00000000000E+00 -0.11163182863E+04  0.28313331254E+04  0.26019763163E+04 0.  0.
        1    1    3    3  502    0  0.60513397765E+03  0.63573915468E+03  0.48681275827E+03  0.10036623263E+04  0.50400001928E-02 0. -1.
       -1    1    3    3    0  502 -0.60513397765E+03 -0.63573915468E+03 -0.16031310446E+04  0.18276707991E+04  0.50400001928E-02 0.  1.
</event>
<event>
 5   0  0.2623368E-06  0.2596817E+04  0.7818609E-02  0.8369283E-01
       -2   -1    0    0    0  501  0.00000000000E+00  0.00000000000E+00  0.10777292143E+04  0.10777292143E+04  0.25500000920E-02 0.  1.
        2   -1    0    0  501    0  0.00000000000E+00  0.00000000000E+00 -0.15642753192E+04  0.15642753192E+04  0.25500000920E-02 0. -1.
    10030    2    1    2    0    0  0.00000000000E+00  0.00000000000E+00 -0.48654610496E+03  0.26420045335E+04  0.25968174450E+04 0.  0.
        5    1    3    3  502    0 -0.12567494459E+04  0.30678577971E+03 -0.13040831108E+03  0.13002173288E+04  0.46999998093E+01 0.  1.
       -5    1    3    3    0  502  0.12567494459E+04 -0.30678577971E+03 -0.35613779388E+03  0.13417872047E+04  0.46999998093E+01 0. -1.
</event>
<event>
 5   0  0.1100104E-06  0.2588669E+04  0.7818609E-02  0.8372060E-01
       -1   -1    0    0    0  501  0.00000000000E+00  0.00000000000E+00  0.99745532746E+03  0.99745532747E+03  0.50400001928E-02 0.  1.
        1   -1    0    0  501    0  0.00000000000E+00  0.00000000000E+00 -0.16795754664E+04  0.16795754664E+04  0.50400001928E-02 0. -1.
    10030    2    1    2    0    0  0.00000000000E+00  0.00000000000E+00 -0.68212013897E+03  0.26770307939E+04  0.25886687674E+04 0.  0.
        4    1    3    3  502    0 -0.53512442458E+03 -0.97304180992E+03 -0.10286864789E+04  0.15137258663E+04  0.12699999809E+01 0. -1.
       -4    1    3    3    0  502  0.53512442458E+03  0.97304180992E+03  0.34656633993E+03  0.11633049276E+04  0.12699999809E+01 0.  1.
</event>
<event>
 5   0  0.2586775E-06  0.2596858E+04  0.7818609E-02  0.8369269E-01
        2   -1    0    0  501    0  0.00000000000E+00  0.00000000000E+00  0.21433606303E+04  0.21433606303E+04  0.25500000920E-02 0.  1.
       -2   -1    0    0    0  501  0.00000000000E+00  0.00000000000E+00 -0.78657674979E+03  0.78657674979E+03  0.25500000920E-02 0. -1.
    10030    2    1    2    0    0  0.00000000000E+00  0.00000000000E+00  0.13567838805E+04  0.29299373801E+04  0.25968578230E+04 0.  0.
        1    1    3    3  502    0 -0.19612581780E+03  0.10743076502E+04 -0.11405919355E+03  0.10980035352E+04  0.50400001928E-02 0.  1.
       -1    1    3    3    0  502  0.19612581780E+03 -0.10743076502E+04  0.14708430740E+04  0.18319338449E+04  0.50400001928E-02 0. -1.
</event>
<event>
 5   0  0.1032076E-06  0.2603470E+04  0.7818609E-02  0.8367023E-01
        1   -1    0    0  501    0  0.00000000000E+00  0.00000000000E+00  0.95395543482E+03  0.95395543483E+03  0.50400001928E-02 0. -1.
       -1   -1    0    0    0  501  0.00000000000E+00  0.00000000000E+00 -0.17763032927E+04  0.17763032927E+04  0.50400001928E-02 0.  1.
    10030    2    1    2    0    0  0.00000000000E+00  0.00000000000E+00 -0.82234785784E+03  0.27302587275E+04  0.26034701304E+04 0.  0.
        1    1    3    3  502    0 -0.11776401023E+04 -0.55390984626E+03 -0.44196093275E+03  0.13744023408E+04  0.50400001928E-02 0. -1.
       -1    1    3    3    0  502  0.11776401023E+04  0.55390984626E+03 -0.38038692508E+03  0.13558563866E+04  0.50400001928E-02 0.  1.
</event>
<event>
 5   0  0.2586775E-06  0.2601741E+04  0.7818609E-02  0.8367610E-01
        2   -1    0    0  501    0  0.00000000000E+00  0.00000000000E+00  0.15620035640E+04  0.15620035640E+04  0.25500000920E-02 0. -1.
       -2   -1    0    0    0  501  0.00000000000E+00  0.00000000000E+00 -0.10833934554E+04  0.10833934554E+04  0.25500000920E-02 0.  1.
    10030    2    1    2    0    0  0.00000000000E+00  0.00000000000E+00  0.47861010865E+03  0.26453970194E+04  0.26017412927E+04 0.  0.
        1    1    3    3  502    0 -0.45981572344E+03 -0.97434525016E+03  0.98056813028E+03  0.14568091928E+04  0.50400001928E-02 0. -1.
       -1    1    3    3    0  502  0.45981572344E+03  0.97434525016E+03 -0.50195802162E+03  0.11885878266E+04  0.50400001928E-02 0.  1.
</event>
<event>
 5   0  0.1100104E-06  0.2598759E+04  0.7818609E-02  0.8368623E-01
        1   -1    0    0  501    0  0.00000000000E+00  0.00000000000E+00  0.17320877650E+04  0.17320877650E+04  0.50400001928E-02 0. -1.
       -1   -1    0    0    0  501  0.00000000000E+00  0.00000000000E+00 -0.97476988597E+03  0.97476988599E+03  0.50400001928E-02 0.  1.
    10030    2    1    2    0    0  0.00000000000E+00  0.00000000000E+00  0.75731787905E+03  0.27068576510E+04  0.25987589294E+04 0.  0.
        4    1    3    3  502    0  0.22224770150E+03  0.12147530892E+04 -0.42339631780E+02  0.12356428958E+04  0.12699999809E+01 0.  1.
       -4    1    3    3    0  502 -0.22224770150E+03 -0.12147530892E+04  0.79965751083E+03  0.14712147552E+04  0.12699999809E+01 0. -1.
</event>
<event>
 5   0  0.2746631E-06  0.2572154E+04  0.7818609E-02  0.8377722E-01
       -2   -1    0    0    0  501  0.00000000000E+00  0.00000000000E+00  0.12305573810E+04  0.12305573810E+04  0.25500000920E-02 0. -1.
        2   -1    0    0  501    0  0.00000000000E+00  0.00000000000E+00 -0.13441010834E+04  0.13441010834E+04  0.25500000920E-02 0.  1.
    10030    2    1    2    0    0  0.00000000000E+00  0.00000000000E+00 -0.11354370239E+03  0.25746584644E+04  0.25721535794E+04 0.  0.
        2    1    3    3  502    0  0.56067563448E+02 -0.11864000070E+04 -0.55051173741E+03  0.13091034036E+04  0.25500000920E-02 0.  1.
       -2    1    3    3    0  502 -0.56067563448E+02  0.11864000070E+04  0.43696803502E+03  0.12655550608E+04  0.25500000920E-02 0. -1.
</event>
<event>
 5   0  0.2746631E-06  0.2600146E+04  0.7818609E-02  0.8368151E-01
       -2   -1    0    0    0  501  0.00000000000E+00  0.00000000000E+00  0.76390618925E+03  0.76390618926E+03  0.25500000920E-02 0.  1.
        2   -1    0    0  501    0  0.00000000000E+00  0.00000000000E+00 -0.22125628483E+04  0.22125628483E+04  0.25500000920E-02 0. -1.
    10030    2    1    2    0    0  0.00000000000E+00  0.00000000000E+00 -0.14486566590E+04  0.29764690375E+04  0.26001464989E+04 0.  0.
        2    1    3    3  502    0 -0.10044605773E+04  0.48597165074E+03  0.39372140606E+02  0.11165391450E+04  0.25500000920E-02 0.  1.
       -2    1    3    3    0  502  0.10044605773E+04 -0.48597165074E+03 -0.14880287996E+04  0.18599298926E+04  0.25500000920E-02 0. -1.
</event>
<event>
 5   0  0.1100104E-06  0.2609605E+04  0.7818609E-02  0.8364946E-01
       -1   -1    0    0    0  501  0.00000000000E+00  0.00000000000E+00  0.13800282959E+04  0.13800282959E+04  0.50400001928E-02 0.  1.
        1   -1    0    0  501    0  0.00000000000E+00  0.00000000000E+00 -0.12336777118E+04  0.12336777119E+04  0.50400001928E-02 0. -1.
    10030    2    1    2    0    0  0.00000000000E+00  0.00000000000E+00  0.14635058406E+03  0.26137060078E+04  0.26096054494E+04 0.  0.
        4    1    3    3  502    0 -0.30658091590E+03  0.10086980653E+04  0.84317776498E+03  0.13499681482E+04  0.12699999809E+01 0.  1.
       -4    1    3    3    0  502  0.30658091590E+03 -0.10086980653E+04 -0.69682718091E+03  0.12637378596E+04  0.12699999809E+01 0. -1.
</event>
<event>
 5   0  0.1088757E-06  0.2599756E+04  0.7818609E-02  0.8368284E-01
       -1   -1    0    0    0  501  0.00000000000E+00  0.00000000000E+00  0.11385971411E+04  0.11385971411E+04  0.50400001928E-02 0. -1.
        1   -1    0    0  501    0  0.00000000000E+00  0.00000000000E+00 -0.14840040939E+04  0.14840040939E+04  0.50400001928E-02 0.  1.
    10030    2    1    2    0    0  0.00000000000E+00  0.00000000000E+00 -0.34540695281E+03  0.26226012349E+04  0.25997560029E+04 0.  0.
        5    1    3    3  502    0  0.43920109773E+03 -0.60696167448E+03 -0.12442811041E+04  0.14524316282E+04  0.46999998093E+01 0.  1.
       -5    1    3    3    0  502 -0.43920109773E+03  0.60696167448E+03  0.89887415134E+03  0.11701696067E+04  0.46999998093E+01 0. -1.
</event>
<event>
 5   0  0.1122628E-06  0.2596086E+04  0.7818609E-02  0.8369532E-01
        1   -1    0    0  501    0  0.00000000000E+00  0.00000000000E+00  0.17936347643E+04  0.17936347643E+04  0.50400001928E-02 0. -1.
       -1   -1    0    0    0  501  0.00000000000E+00  0.00000000000E+00 -0.93938609365E+03  0.93938609367E+03  0.50400001928E-02 0.  1.
    10030    2    1    2    0    0  0.00000000000E+00  0.00000000000E+00  0.85424867066E+03  0.27330208580E+04  0.25960859421E+04 0.  0.
        2    1    3    3  502    0 -0.25761002095E+03  0.54247443526E+03  0.16385947883E+04  0.17451745804E+04  0.25500000920E-02 0. -1.
       -2    1    3    3    0  502  0.25761002095E+03 -0.54247443526E+03 -0.78434611766E+03  0.98784627757E+03  0.25500000920E-02 0.  1.
</event>
<event>
 5   0  0.2820028E-06  0.2628314E+04  0.7818609E-02  0.8358647E-01
        2   -1    0    0  501    0  0.00000000000E+00  0.00000000000E+00  0.94034165426E+03  0.94034165426E+03  0.25500000920E-02 0.  1.
       -2   -1    0    0    0  501  0.00000000000E+00  0.00000000000E+00 -0.18365759245E+04  0.18365759245E+04  0.25500000920E-02 0. -1.
    10030    2    1    2    0    0  0.00000000000E+00  0.00000000000E+00 -0.89623427021E+03  0.27769175787E+04  0.26283141692E+04 0.  0.
        3    1    3    3  502    0 -0.20365604634E+03  0.12928459745E+04 -0.32273864668E+03  0.13479935991E+04  0.10100000352E+00 0. -1.
       -3    1    3    3    0  502  0.20365604634E+03 -0.12928459745E+04 -0.57349562353E+03  0.14289239796E+04  0.10100000352E+00 0.  1.
</event>
<event>
 5   0  0.1122628E-06  0.2599468E+04  0.7818609E-02  0.8368382E-01
        1   -1    0    0  501    0  0.00000000000E+00  0.00000000000E+00  0.12797512818E+04  0.12797512818E+04  0.50400001928E-02 0.  1.
       -1   -1    0    0    0  501  0.00000000000E+00  0.00000000000E+00 -0.13200288819E+04  0.13200288819E+04  0.50400001928E-02 0. -1.
    10030    2    1    2    0    0  0.00000000000E+00  0.00000000000E+00 -0.40277600128E+02  0.25997801636E+04  0.25994681406E+04 0.  0.
        2    1    3    3  502    0  0.10063076660E+04  0.29627035702E+03 -0.78761439503E+03  0.13117803468E+04  0.25500000920E-02 0. -1.
       -2    1    3    3    0  502 -0.10063076660E+04 -0.29627035702E+03  0.74733679490E+03  0.12879998168E+04  0.25500000920E-02 0.  1.
</event>
<event>
 5   0  0.1032076E-06  0.2600615E+04  0.7818609E-02  0.8367992E-01
        1   -1    0    0  501    0  0.00000000000E+00  0.00000000000E+00  0.10312565065E+04  0.10312565065E+04  0.50400001928E-02 0. -1.
       -1   -1    0    0    0  501  0.00000000000E+00  0.00000000000E+00 -0.16395523444E+04  0.16395523444E+04  0.50400001928E-02 0.  1.
    10030    2    1    2    0    0  0.00000000000E+00  0.00000000000E+00 -0.60829583789E+03  0.26708088510E+04  0.26006145605E+04 0.  0.
        1    1    3    3  502    0 -0.47728215558E+03 -0.76949820676E+03 -0.12625423889E+04  0.15536856278E+04  0.50400001928E-02 0.  1.
       -1    1    3    3    0  502  0.47728215558E+03  0.76949820676E+03  0.65424655101E+03  0.11171232232E+04  0.50400001928E-02 0. -1.
</event>
<event>
 5   0  0.2586775E-06  0.2602747E+04  0.7818609E-02  0.8367269E-01
       -2   -1    0    0    0  501  0.00000000000E+00  0.00000000000E+00  0.20673899744E+04  0.20673899744E+04  0.25500000920E-02 0.  1.
        2   -1    0    0  501    0  0.00000000000E+00  0.00000000000E+00 -0.81918395240E+03  0.81918395241E+03  0.25500000920E-02 0. -1.
    10030    2    1    2    0    0  0.00000000000E+00  0.00000000000E+00  0.12482060220E+04  0.28865739268E+04  0.26027467724E+04 0.  0.
        1    1    3    3  502    0  0.31011000165E+03 -0.11995264314E+04  0.18251089125E+03  0.12523346590E+04  0.50400001928E-02 0. -1.
       -1    1    3    3    0  502 -0.31011000165E+03  0.11995264314E+04  0.10656951307E+04  0.16342392678E+04  0.50400001928E-02 0.  1.
</event>
<event>
 5   0  0.1088757E-06  0.2599684E+04  0.7818609E-02  0.8368309E-01
       -1   -1    0    0    0  501  0.00000000000E+00  0.00000000000E+00  0.15196969189E+04  0.15196969189E+04  0.50400001928E-02 0.  1.
        1   -1    0    0  501    0  0.00000000000E+00  0.00000000000E+00 -0.11117931375E+04  0.11117931375E+04  0.50400001928E-02 0. -1.
    10030    2    1    2    0    0  0.00000000000E+00  0.00000000000E+00  0.40790378138E+03  0.26314900564E+04  0.25996835234E+04 0.  0.
        5    1    3    3  502    0 -0.10032084994E+04 -0.22035286763E+03 -0.60240212748E+03  0.11907531619E+04  0.46999998093E+01 0. -1.
       -5    1    3    3    0  502  0.10032084994E+04  0.22035286763E+03  0.10103059089E+04  0.14407368944E+04  0.46999998093E+01 0.  1.
</event>
<event>
 5   0  0.1088757E-06  0.2607502E+04  0.7818609E-02  0.8365657E-01
        1   -1    0    0  501    0  0.00000000000E+00  0.00000000000E+00  0.21836851819E+04  0.21836851819E+04  0.50400001928E-02 0. -1.
       -1   -1    0    0    0  501  0.00000000000E+00  0.00000000000E+00 -0.77839373332E+03  0.77839373334E+03  0.50400001928E-02 0.  1.
    10030    2    1    2    0    0  0.00000000000E+00  0.00000000000E+00  0.14052914486E+04  0.29620789152E+04  0.26075021466E+04 0.  0.
        5    1    3    3  502    0 -0.47703210315E+03  0.11855607860E+03 -0.66908862302E+03  0.83025107448E+03  0.46999998093E+01 0.  1.
       -5    1    3    3    0  502  0.47703210315E+03 -0.11855607860E+03  0.20743800716E+04  0.21318278408E+04  0.46999998093E+01 0. -1.
</event>
<event>
 5   0  0.2746631E-06  0.2598600E+04  0.7818609E-02  0.8368677E-01
        2   -1    0    0  501    0  0.00000000000E+00  0.00000000000E+00  0.21180266555E+04  0.21180266555E+04  0.25500000920E-02 0. -1.
       -2   -1    0    0    0  501  0.00000000000E+00  0.00000000000E+00 -0.79705345122E+03  0.79705345123E+03  0.25500000920E-02 0.  1.
    10030    2    1    2    0    0  0.00000000000E+00  0.00000000000E+00  0.13209732043E+04  0.29150801067E+04  0.25985999735E+04 0.  0.
        2    1    3    3  502    0 -0.93208100254E+03 -0.90506855068E+03  0.67844849626E+03  0.14656795144E+04  0.25500000920E-02 0.  1.
       -2    1    3    3    0  502  0.93208100254E+03  0.90506855068E+03  0.64252470802E+03  0.14494005924E+04  0.25500000920E-02 0. -1.
</event>
<event>
 5   0  0.2746631E-06  0.2597610E+04  0.7818609E-02  0.8369013E-01
        2   -1    0    0  501    0  0.00000000000E+00  0.00000000000E+00  0.29687103957E+04  0.29687103957E+04  0.25500000920E-02 0. -1.
       -2   -1    0    0    0  501  0.00000000000E+00  0.00000000000E+00 -0.56822478290E+03  0.56822478290E+03  0.25500000920E-02 0.  1.
    10030    2    1    2    0    0  0.00000000000E+00  0.00000000000E+00  0.24004856128E+04  0.35369351786E+04  0.25976103019E+04 0.  0.
        2    1    3    3  502    0  0.37798470741E+03  0.54678094571E+03 -0.31906936963E+03  0.73732428705E+03  0.25500000920E-02 0.  1.
       -2    1    3    3    0  502 -0.37798470741E+03 -0.54678094571E+03  0.27195549824E+04  0.27996108915E+04  0.25500000920E-02 0. -1.
</event>
<event>
 5   0  0.1055179E-06  0.2605303E+04  0.7818609E-02  0.8366402E-01
        1   -1    0    0  501    0  0.00000000000E+00  0.00000000000E+00  0.82304999367E+03  0.82304999369E+03  0.50400001928E-02 0.  1.
       -1   -1    0    0    0  501  0.00000000000E+00  0.00000000000E+00 -0.20617223594E+04  0.20617223594E+04  0.50400001928E-02 0. -1.
    10030    2    1    2    0    0  0.00000000000E+00  0.00000000000E+00 -0.12386723657E+04  0.28847723531E+04  0.26053027270E+04 0.  0.
        3    1    3    3  502    0  0.65799391103E+03 -0.10013295894E+04 -0.53345275162E+02  0.11993592715E+04  0.10100000352E+00 0.  1.
       -3    1    3    3    0  502 -0.65799391103E+03  0.10013295894E+04 -0.11853270905E+04  0.16854130815E+04  0.10100000352E+00 0. -1.
</event>
<event>
 5   0  0.2623368E-06  0.2600426E+04  0.7818609E-02  0.8368056E-01
        2   -1    0    0  501    0  0.00000000000E+00  0.00000000000E+00  0.10719008569E+04  0.10719008569E+04  0.25500000920E-02 0.  1.
       -2   -1    0    0    0  501  0.00000000000E+00  0.00000000000E+00 -0.15771553629E+04  0.15771553629E+04  0.25500000920E-02 0. -1.
    10030    2    1    2    0    0  0.00000000000E+00  0.00000000000E+00 -0.50525450601E+03  0.26490562197E+04  0.26004262611E+04 0.  0.
        5    1    3    3  502    0  0.90090164088E+02 -0.83025909937E+03 -0.12678000995E+04  0.15181520319E+04  0.46999998093E+01 0. -1.
       -5    1    3    3    0  502 -0.90090164088E+02  0.83025909937E+03  0.76254559352E+03  0.11309041878E+04  0.46999998093E+01 0.  1.
</event>
<event>
 5   0  0.1100104E-06  0.2596885E+04  0.7818609E-02  0.8369260E-01
        1   -1    0    0  501    0  0.00000000000E+00  0.00000000000E+00  0.13058262732E+04  0.13058262732E+04  0.50400001928E-02 0.  1.
       -1   -1    0    0    0  501  0.00000000000E+00  0.00000000000E+00 -0.12911001226E+04  0.12911001226E+04  0.50400001928E-02 0. -1.
    10030    2    1    2    0    0  0.00000000000E+00  0.00000000000E+00  0.14726150608E+02  0.25969263959E+04  0.25968846424E+04 0.  0.
        4    1    3    3  502    0  0.49952792607E+03 -0.98839944107E+03  0.68523033394E+03  0.13023071172E+04  0.12699999809E+01 0.  1.
       -4    1    3    3    0  502 -0.49952792607E+03  0.98839944107E+03 -0.67050418333E+03  0.12946192787E+04  0.12699999809E+01 0. -1.
</event>
<event>
 5   0  0.2746631E-06  0.2599700E+04  0.7818609E-02  0.8368303E-01
        2   -1    0    0  501    0  0.00000000000E+00  0.00000000000E+00  0.16620543818E+04  0.16620543818E+04  0.25500000920E-02 0.  1.
       -2   -1    0    0    0  501  0.00000000000E+00  0.00000000000E+00 -0.10165789452E+04  0.10165789452E+04  0.25500000920E-02 0. -1.
    10030    2    1    2    0    0  0.00000000000E+00  0.00000000000E+00  0.64547543655E+03  0.26786333270E+04  0.25996995906E+04 0.  0.
        2    1    3    3  502    0  0.36766294835E+03  0.85681742182E+03  0.12559399250E+04  0.15641921982E+04  0.25500000920E-02 0.  1.
       -2    1    3    3    0  502 -0.36766294835E+03 -0.85681742182E+03 -0.61046448840E+03  0.11144411288E+04  0.25500000920E-02 0. -1.
</event>
<event>
 5   0  0.1055179E-06  0.2602464E+04  0.7818609E-02  0.8367365E-01
       -1   -1    0    0    0  501  0.00000000000E+00  0.00000000000E+00  0.83643203258E+03  0.83643203260E+03  0.50400001928E-02 0.  1.
        1   -1    0    0  501    0  0.00000000000E+00  0.00000000000E+00 -0.20243184127E+04  0.20243184127E+04  0.50400001928E-02 0. -1.
    10030    2    1    2    0    0  0.00000000000E+00  0.00000000000E+00 -0.11878863801E+04  0.28607504453E+04  0.26024640359E+04 0.  0.
        3    1    3    3  502    0 -0.10250434631E+04 -0.67753208217E+02 -0.14718968462E+04  0.17949331282E+04  0.10100000352E+00 0. -1.
       -3    1    3    3    0  502  0.10250434631E+04  0.67753208217E+02  0.28401046613E+03  0.10658173171E+04  0.10100000352E+00 0.  1.
</event>
<event>
 5   0  0.1088757E-06  0.2599655E+04  0.7818609E-02  0.8368318E-01
        1   -1    0    0  501    0  0.00000000000E+00  0.00000000000E+00  0.12023707198E+04  0.12023707198E+04  0.50400001928E-02 0. -1.
       -1   -1    0    0    0  501  0.00000000000E+00  0.00000000000E+00 -0.14051834752E+04  0.14051834752E+04  0.50400001928E-02 0.  1.
    10030    2    1    2    0    0  0.00000000000E+00  0.00000000000E+00 -0.20281275540E+03  0.26075541950E+04  0.25996549513E+04 0.  0.
        5    1    3    3  502    0 -0.92899968662E+03 -0.89946183115E+03  0.31121450645E+02  0.12934692258E+04  0.46999998093E+01 0. -1.
       -5    1    3    3    0  502  0.92899968662E+03  0.89946183115E+03 -0.23393420605E+03  0.13140849692E+04  0.46999998093E+01 0.  1.
</event>
<event>
 5   0  0.1122628E-06  0.2597640E+04  0.7818609E-02  0.8369003E-01
       -1   -1    0    0    0  501  0.00000000000E+00  0.00000000000E+00  0.13916925340E+04  0.13916925340E+04  0.50400001928E-02 0.  1.
        1   -1    0    0  501    0  0.00000000000E+00  0.00000000000E+00 -0.12121450763E+04  0.12121450763E+04  0.50400001928E-02 0. -1.
    10030    2    1    2    0    0  0.00000000000E+00  0.00000000000E+00  0.17954745772E+03  0.26038376103E+04  0.25976398926E+04 0.  0.
        2    1    3    3  502    0  0.69720701316E+03 -0.94846583953E+03 -0.46039660647E+03  0.12639818445E+04  0.25500000920E-02 0. -1.
       -2    1    3    3    0  502 -0.69720701316E+03  0.94846583953E+03  0.63994406420E+03  0.13398557658E+04  0.25500000920E-02 0.  1.
</event>
<event>
 5   0  0.1088757E-06  0.2600409E+04  0.7818609E-02  0.8368062E-01
        1   -1    0    0  501    0  0.00000000000E+00  0.00000000000E+00  0.20385446433E+04  0.20385446433E+04  0.50400001928E-02 0. -1.
       -1   -1    0    0    0  501  0.00000000000E+00  0.00000000000E+00 -0.82928366076E+03  0.82928366078E+03  0.50400001928E-02 0.  1.
    10030    2    1    2    0    0  0.00000000000E+00  0.00000000000E+00  0.12092609825E+04  0.28678283041E+04  0.26004090174E+04 0.  0.
        5    1    3    3  502    0  0.35565274673E+03 -0.45049687132E+03  0.18912562780E+04  0.19764383892E+04  0.46999998093E+01 0. -1.
       -5    1    3    3    0  502 -0.35565274673E+03  0.45049687132E+03 -0.68199529545E+03  0.89138991487E+03  0.46999998093E+01 0.  1.
</event>
<event>
 5   0  0.2746631E-06  0.2601671E+04  0.7818609E-02  0.8367634E-01
       -2   -1    0    0    0  501  0.00000000000E+00  0.00000000000E+00  0.11079519873E+04  0.11079519873E+04  0.25500000920E-02 0.  1.
        2   -1    0    0  501    0  0.00000000000E+00  0.00000000000E+00 -0.15272978234E+04  0.15272978234E+04  0.25500000920E-02 0. -1.
    10030    2    1    2    0    0  0.00000000000E+00  0.00000000000E+00 -0.41934583611E+03  0.26352498107E+04  0.26016707391E+04 0.  0.
        2    1    3    3  502    0 -0.90847293016E+02  0.82056717295E+03  0.80858249944E+03  0.11555904873E+04  0.25500000920E-02 0.  1.
       -2    1    3    3    0  502  0.90847293016E+02 -0.82056717295E+03 -0.12279283355E+04  0.14796593234E+04  0.25500000920E-02 0. -1.
</event>
<event>
 5   0  0.2746631E-06  0.2602667E+04  0.7818609E-02  0.8367296E-01
       -2   -1    0    0    0  501  0.00000000000E+00  0.00000000000E+00  0.16592057183E+04  0.16592057183E+04  0.25500000920E-02 0.  1.
        2   -1    0    0  501    0  0.00000000000E+00  0.00000000000E+00 -0.10206501476E+04  0.10206501476E+04  0.25500000920E-02 0. -1.
    10030    2    1    2    0    0  0.00000000000E+00  0.00000000000E+00  0.63855557065E+03  0.26798558659E+04  0.26026667565E+04 0.  0.
        2    1    3    3  502    0 -0.24256536634E+03 -0.69107237647E+03 -0.78828627581E+03  0.10760177690E+04  0.25500000920E-02 0. -1.
       -2    1    3    3    0  502  0.24256536634E+03  0.69107237647E+03  0.14268418465E+04  0.16038380970E+04  0.25500000920E-02 0.  1.
</event>
<event>
 5   0  0.1100104E-06  0.2593330E+04  0.7818609E-02  0.8370471E-01
       -1   -1    0    0    0  501  0.00000000000E+00  0.00000000000E+00  0.11664312206E+04  0.11664312206E+04  0.50400001928E-02 0.  1.
        1   -1    0    0  501    0  0.00000000000E+00  0.00000000000E+00 -0.14414390254E+04  0.14414390254E+04  0.50400001928E-02 0. -1.
    10030    2    1    2    0    0  0.00000000000E+00  0.00000000000E+00 -0.27500780480E+03  0.26078702459E+04  0.25933295060E+04 0.  0.
        4    1    3    3  502    0 -0.19221747985E+03 -0.38672315268E+02  0.11514374300E+04  0.11680123611E+04  0.12699999809E+01 0.  1.
       -4    1    3    3    0  502  0.19221747985E+03  0.38672315268E+02 -0.14264452348E+04  0.14398578848E+04  0.12699999809E+01 0. -1.
</event>
<event>
 5   0  0.2705807E-06  0.2596256E+04  0.7818609E-02  0.8369474E-01
       -2   -1    0    0    0  501  0.00000000000E+00  0.00000000000E+00  0.76613943837E+03  0.76613943838E+03  0.25500000920E-02 0.  1.
        2   -1    0    0  501    0  0.00000000000E+00  0.00000000000E+00 -0.21995170261E+04  0.21995170261E+04  0.25500000920E-02 0. -1.
    10030    2    1    2    0    0  0.00000000000E+00  0.00000000000E+00 -0.14333775877E+04  0.29656564644E+04  0.25962563348E+04 0.  0.
        4    1    3    3  502    0  0.35297406402E+03  0.50071782476E+03 -0.20240033356E+04  0.21146867724E+04  0.12699999809E+01 0. -1.
       -4    1    3    3    0  502 -0.35297406402E+03 -0.50071782476E+03  0.59062574787E+03  0.85096969209E+03  0.12699999809E+01 0.  1.
</event>
<event>
 5   0  0.9197000E-07  0.2604697E+04  0.7818609E-02  0.8366607E-01
        3   -1    0    0  501    0  0.00000000000E+00  0.00000000000E+00  0.92402526357E+03  0.92402526909E+03  0.10100000352E+00 0. -1.
       -3   -1    0    0    0  501  0.00000000000E+00  0.00000000000E+00 -0.18355690916E+04  0.18355690944E+04  0.10100000352E+00 0.  1.
    10030    2    1    2    0    0  0.00000000000E+00  0.00000000000E+00 -0.91154382805E+03  0.27595943635E+04  0.26046974681E+04 0.  0.
        2    1    3    3  502    0  0.24748394529E+03  0.90340699032E+03 -0.14144120105E+04  0.16964533088E+04  0.25500000920E-02 0.  1.
       -2    1    3    3    0  502 -0.24748394529E+03 -0.90340699032E+03  0.50286818246E+03  0.10631410547E+04  0.25500000920E-02 0. -1.
</event>
<event>
 5   0  0.1088757E-06  0.2600604E+04  0.7818609E-02  0.8367996E-01
        1   -1    0    0  501    0  0.00000000000E+00  0.00000000000E+00  0.92553534011E+03  0.92553534012E+03  0.50400001928E-02 0.  1.
       -1   -1    0    0    0  501  0.00000000000E+00  0.00000000000E+00 -0.18268190356E+04  0.18268190356E+04  0.50400001928E-02 0. -1.
    10030    2    1    2    0    0  0.00000000000E+00  0.00000000000E+00 -0.90128369552E+03  0.27523543758E+04  0.26006042202E+04 0.  0.
        5    1    3    3  502    0  0.11425092831E+04 -0.16209528972E+03  0.18362901258E+03  0.11684793747E+04  0.46999998093E+01 0.  1.
       -5    1    3    3    0  502 -0.11425092831E+04  0.16209528972E+03 -0.10849127081E+04  0.15838750011E+04  0.46999998093E+01 0. -1.
</event>
<event>
 5   0  0.1055179E-06  0.2606706E+04  0.7818609E-02  0.8365927E-01
       -1   -1    0    0    0  501  0.00000000000E+00  0.00000000000E+00  0.12657202260E+04  0.12657202260E+04  0.50400001928E-02 0. -1.
        1   -1    0    0  501    0  0.00000000000E+00  0.00000000000E+00 -0.13421045688E+04  0.13421045688E+04  0.50400001928E-02 0.  1.
    10030    2    1    2    0    0  0.00000000000E+00  0.00000000000E+00 -0.76384342749E+02  0.26078247948E+04  0.26067058892E+04 0.  0.
        3    1    3    3  502    0  0.36574725760E+03  0.20892554340E+03 -0.12721347330E+04  0.13400551213E+04  0.10100000352E+00 0.  1.
       -3    1    3    3    0  502 -0.36574725760E+03 -0.20892554340E+03  0.11957503902E+04  0.12677696735E+04  0.10100000352E+00 0. -1.
</event>
<event>
 5   0  0.2746631E-06  0.2592163E+04  0.7818609E-02  0.8370868E-01
       -2   -1    0    0    0  501  0.00000000000E+00  0.00000000000E+00  0.10249182179E+04  0.10249182179E+04  0.25500000920E-02 0. -1.
        2   -1    0    0  501    0  0.00000000000E+00  0.00000000000E+00 -0.16389864193E+04  0.16389864193E+04  0.25500000920E-02 0.  1.
    10030    2    1    2    0    0  0.00000000000E+00  0.00000000000E+00 -0.61406820136E+03  0.26639046373E+04  0.25921628345E+04 0.  0.
        2    1    3    3  502    0  0.49785512447E+03 -0.11914120372E+04 -0.42195329125E+03  0.13584428392E+04  0.25500000920E-02 0. -1.
       -2    1    3    3    0  502 -0.49785512447E+03  0.11914120372E+04 -0.19211491011E+03  0.13054617980E+04  0.25500000920E-02 0.  1.
</event>
<event>
 5   0  0.1032076E-06  0.2594575E+04  0.7818609E-02  0.8370046E-01
       -1   -1    0    0    0  501  0.00000000000E+00  0.00000000000E+00  0.97572318965E+03  0.97572318966E+03  0.50400001928E-02 0. -1.
        1   -1    0    0  501    0  0.00000000000E+00  0.00000000000E+00 -0.17248286802E+04  0.17248286802E+04  0.50400001928E-02 0.  1.
    10030    2    1    2    0    0  0.00000000000E+00  0.00000000000E+00 -0.74910549057E+03  0.27005518699E+04  0.25945753730E+04 0.  0.
        1    1    3    3  502    0 -0.54244537569E+03  0.58268906006E+03  0.69158080148E+03  0.10545413844E+04  0.50400001928E-02 0. -1.
       -1    1    3    3    0  502  0.54244537569E+03 -0.58268906006E+03 -0.14406862921E+04  0.16460104855E+04  0.50400001928E-02 0.  1.
</event>
<event>
 5   0  0.2746631E-06  0.2605316E+04  0.7818609E-02  0.8366398E-01
       -2   -1    0    0    0  501  0.00000000000E+00  0.00000000000E+00  0.11236417723E+04  0.11236417723E+04  0.25500000920E-02 0. -1.
        2   -1    0    0  501    0  0.00000000000E+00  0.00000000000E+00 -0.15101945462E+04  0.15101945462E+04  0.25500000920E-02 0.  1.
    10030    2    1    2    0    0  0.00000000000E+00  0.00000000000E+00 -0.38655277386E+03  0.26338363185E+04  0.26053158553E+04 0.  0.
        2    1    3    3  502    0 -0.82056226357E+03  0.92580474175E+03 -0.60576362198E+03  0.13774565017E+04  0.25500000920E-02 0.  1.
       -2    1    3    3    0  502  0.82056226357E+03 -0.92580474175E+03  0.21921084812E+03  0.12563798168E+04  0.25500000920E-02 0. -1.
</event>
<event>
 5   0  0.2746631E-06  0.2603802E+04  0.7818609E-02  0.8366911E-01
       -2   -1    0    0    0  501  0.00000000000E+00  0.00000000000E+00  0.92441443763E+03  0.92441443763E+03  0.25500000920E-02 0.  1.
        2   -1    0    0  501    0  0.00000000000E+00  0.00000000000E+00 -0.18335349646E+04  0.18335349646E+04  0.25500000920E-02 0. -1.
    10030    2    1    2    0    0  0.00000000000E+00  0.00000000000E+00 -0.90912052699E+03  0.27579494023E+04  0.26038019842E+04 0.  0.
        2    1    3    3  502    0  0.64783723555E+03 -0.55525336715E+03 -0.14961090869E+04  0.17223071112E+04  0.25500000920E-02 0. -1.
       -2    1    3    3    0  502 -0.64783723555E+03  0.55525336715E+03  0.58698855990E+03  0.10356422910E+04  0.25500000920E-02 0.  1.
</event>
<event>
 5   0  0.1055179E-06  0.2598132E+04  0.7818609E-02  0.8368836E-01
        1   -1    0    0  501    0  0.00000000000E+00  0.00000000000E+00  0.10756825021E+04  0.10756825021E+04  0.50400001928E-02 0. -1.
       -1   -1    0    0    0  501  0.00000000000E+00  0.00000000000E+00 -0.15688387541E+04  0.15688387541E+04  0.50400001928E-02 0.  1.
    10030    2    1    2    0    0  0.00000000000E+00  0.00000000000E+00 -0.49315625203E+03  0.26445212562E+04  0.25981319416E+04 0.  0.
        3    1    3    3  502    0  0.70783153945E+03  0.10431080956E+04  0.72827910014E+02  0.12626970745E+04  0.10100000352E+00 0. -1.
       -3    1    3    3    0  502 -0.70783153945E+03 -0.10431080956E+04 -0.56598416205E+03  0.13818241817E+04  0.10100000352E+00 0.  1.
</event>
<event>
 5   0  0.1032076E-06  0.2604503E+04  0.7818609E-02  0.8366673E-01
        1   -1    0    0  501    0  0.00000000000E+00  0.00000000000E+00  0.12249495327E+04  0.12249495327E+04  0.50400001928E-02 0. -1.
       -1   -1    0    0    0  501  0.00000000000E+00  0.00000000000E+00 -0.13844319193E+04  0.13844319193E+04  0.50400001928E-02 0.  1.
    10030    2    1    2    0    0  0.00000000000E+00  0.00000000000E+00 -0.15948238654E+03  0.26093814520E+04  0.26045032022E+04 0.  0.
        1    1    3    3  502    0 -0.38755930735E+03 -0.12154033689E+04 -0.34186392719E+03  0.13207113653E+04  0.50400001928E-02 0.  1.
       -1    1    3    3    0  502  0.38755930735E+03  0.12154033689E+04  0.18238154065E+03  0.12886700866E+04  0.50400001928E-02 0. -1.
</event>
<event>
 5   0  0.1055179E-06  0.2597758E+04  0.7818609E-02  0.8368963E-01
        1   -1    0    0  501    0  0.00000000000E+00  0.00000000000E+00  0.10664542488E+04  0.10664542488E+04  0.50400001928E-02 0. -1.
       -1   -1    0    0    0  501  0.00000000000E+00  0.00000000000E+00 -0.15819582414E+04  0.15819582414E+04  0.50400001928E-02 0.  1.
    10030    2    1    2    0    0  0.00000000000E+00  0.00000000000E+00 -0.51550399262E+03  0.26484124902E+04  0.25977575622E+04 0.  0.
        3    1    3    3  502    0  0.78899417606E+03  0.13074469468E+03 -0.13011737784E+04  0.15273045527E+04  0.10100000352E+00 0.  1.
       -3    1    3    3    0  502 -0.78899417606E+03 -0.13074469468E+03  0.78566978574E+03  0.11211079375E+04  0.10100000352E+00 0. -1.
</event>
<event>
 5   0  0.1088757E-06  0.2600781E+04  0.7818609E-02  0.8367936E-01
        1   -1    0    0  501    0  0.00000000000E+00  0.00000000000E+00  0.14316271744E+04  0.14316271744E+04  0.50400001928E-02 0.  1.
       -1   -1    0    0    0  501  0.00000000000E+00  0.00000000000E+00 -0.11811838358E+04  0.11811838359E+04  0.50400001928E-02 0. -1.
    10030    2    1    2    0    0  0.00000000000E+00  0.00000000000E+00  0.25044333853E+03  0.26128110102E+04  0.26007805577E+04 0.  0.
        5    1    3    3  502    0  0.55059143367E+03 -0.29652202621E+03 -0.10201911091E+04  0.11966153216E+04  0.46999998093E+01 0. -1.
       -5    1    3    3    0  502 -0.55059143367E+03  0.29652202621E+03  0.12706344476E+04  0.14161956886E+04  0.46999998093E+01 0.  1.
</event>
<event>
 5   0  0.1100104E-06  0.2603578E+04  0.7818609E-02  0.8366987E-01
        1   -1    0    0  501    0  0.00000000000E+00  0.00000000000E+00  0.85750184322E+03  0.85750184323E+03  0.50400001928E-02 0. -1.
       -1   -1    0    0    0  501  0.00000000000E+00  0.00000000000E+00 -0.19762698856E+04  0.19762698856E+04  0.50400001928E-02 0.  1.
    10030    2    1    2    0    0  0.00000000000E+00  0.00000000000E+00 -0.11187680424E+04  0.28337717289E+04  0.26035783604E+04 0.  0.
        4    1    3    3  502    0 -0.54960246073E+03 -0.37232340363E+03 -0.17781969963E+04  0.18980710610E+04  0.12699999809E+01 0.  1.
       -4    1    3    3    0  502  0.54960246073E+03  0.37232340363E+03  0.65942895394E+03  0.93570066791E+03  0.12699999809E+01 0. -1.
</event>
<event>
 5   0  0.1100104E-06  0.2593353E+04  0.7818609E-02  0.8370462E-01
       -1   -1    0    0    0  501  0.00000000000E+00  0.00000000000E+00  0.91956079268E+03  0.91956079270E+03  0.50400001928E-02 0. -1.
        1   -1    0    0  501    0  0.00000000000E+00  0.00000000000E+00 -0.18284492403E+04  0.18284492403E+04  0.50400001928E-02 0.  1.
    10030    2    1    2    0    0  0.00000000000E+00  0.00000000000E+00 -0.90888844757E+03  0.27480100330E+04  0.25933532214E+04 0.  0.
        4    1    3    3  502    0 -0.18469068604E+03  0.73727354657E+03 -0.15676599851E+04  0.17421947003E+04  0.12699999809E+01 0.  1.
       -4    1    3    3    0  502  0.18469068604E+03 -0.73727354657E+03  0.65877153749E+03  0.10058153327E+04  0.12699999809E+01 0. -1.
</event>
<event>
 5   0  0.2586775E-06  0.2603144E+04  0.7818609E-02  0.8367134E-01
        2   -1    0    0  501    0  0.00000000000E+00  0.00000000000E+00  0.12984877087E+04  0.12984877087E+04  0.25500000920E-02 0. -1.
       -2   -1    0    0    0  501  0.00000000000E+00  0.00000000000E+00 -0.13046634193E+04  0.13046634193E+04  0.25500000920E-02 0.  1.
    10030    2    1    2    0    0  0.00000000000E+00  0.00000000000E+00 -0.61757106340E+01  0.26031511279E+04  0.26031438023E+04 0.  0.
        1    1    3    3  502    0 -0.89906188520E+03  0.19917030019E+03  0.91675620436E+03  0.12993933277E+04  0.50400001928E-02 0. -1.
       -1    1    3    3    0  502  0.89906188520E+03 -0.19917030019E+03 -0.92293191499E+03  0.13037578002E+04  0.50400001928E-02 0.  1.
</event>
<event>
 5   0  0.2820028E-06  0.2595005E+04  0.7818609E-02  0.8369900E-01
        2   -1    0    0  501    0  0.00000000000E+00  0.00000000000E+00  0.16175236196E+04  0.16175236196E+04  0.25500000920E-02 0.  1.
       -2   -1    0    0    0  501  0.00000000000E+00  0.00000000000E+00 -0.10407961780E+04  0.10407961780E+04  0.25500000920E-02 0. -1.
    10030    2    1    2    0    0  0.00000000000E+00  0.00000000000E+00  0.57672744157E+03  0.26583197976E+04  0.25950047407E+04 0.  0.
        3    1    3    3  502    0 -0.86290835735E+03  0.57822828888E+03  0.10848649992E+04  0.15019623377E+04  0.10100000352E+00 0.  1.
       -3    1    3    3    0  502  0.86290835735E+03 -0.57822828888E+03 -0.50813755763E+03  0.11563574598E+04  0.10100000352E+00 0. -1.
</event>
<event>
 5   0  0.1088757E-06  0.2610116E+04  0.7818609E-02  0.8364773E-01
       -1   -1    0    0    0  501  0.00000000000E+00  0.00000000000E+00  0.77622942165E+03  0.77622942166E+03  0.50400001928E-02 0.  1.
        1   -1    0    0  501    0  0.00000000000E+00  0.00000000000E+00 -0.21941666323E+04  0.21941666323E+04  0.50400001928E-02 0. -1.
    10030    2    1    2    0    0  0.00000000000E+00  0.00000000000E+00 -0.14179372106E+04  0.29703960540E+04  0.26101162396E+04 0.  0.
        5    1    3    3  502    0 -0.79379064954E+03 -0.98941962063E+03 -0.35986935317E+03  0.13185533066E+04  0.46999998093E+01 0. -1.
       -5    1    3    3    0  502  0.79379064954E+03  0.98941962063E+03 -0.10580678575E+04  0.16518427474E+04  0.46999998093E+01 0.  1.
</event>
<event>
 5   0  0.2746631E-06  0.2597678E+04  0.7818609E-02  0.8368990E-01
        2   -1    0    0  501    0  0.00000000000E+00  0.00000000000E+00  0.10941538415E+04  0.10941538415E+04  0.25500000920E-02 0.  1.
       -2   -1    0    0    0  501  0.00000000000E+00  0.00000000000E+00 -0.15418150870E+04  0.15418150870E+04  0.25500000920E-02 0. -1.
    10030    2    1    2    0    0  0.00000000000E+00  0.00000000000E+00 -0.44766124548E+03  0.26359689285E+04  0.25976781173E+04 0.  0.
        2    1    3    3  502    0  0.38420455409E+03 -0.17696114208E+02 -0.14827045758E+04  0.15317764690E+04  0.25500000920E-02 0. -1.
       -2    1    3    3    0  502 -0.38420455409E+03  0.17696114208E+02  0.10350433304E+04  0.11041924595E+04  0.25500000920E-02 0.  1.
</event>
<event>
 5   0  0.2705807E-06  0.2600964E+04  0.7818609E-02  0.8367874E-01
        2   -1    0    0  501    0  0.00000000000E+00  0.00000000000E+00  0.13167331824E+04  0.13167331824E+04  0.25500000920E-02 0.  1.
       -2   -1    0    0    0  501  0.00000000000E+00  0.00000000000E+00 -0.12844315351E+04  0.12844315351E+04  0.25500000920E-02 0. -1.
    10030    2    1    2    0    0  0.00000000000E+00  0.00000000000E+00  0.32301647257E+02  0.26011647175E+04  0.26009641464E+04 0.  0.
        4    1    3    3  502    0 -0.12288747396E+04  0.42504977323E+03 -0.51010992574E+01  0.13003184492E+04  0.12699999809E+01 0. -1.
       -4    1    3    3    0  502  0.12288747396E+04 -0.42504977323E+03  0.37402746514E+02  0.13008462682E+04  0.12699999809E+01 0.  1.
</event>
<event>
 5   0  0.1100104E-06  0.2600384E+04  0.7818609E-02  0.8368071E-01
        1   -1    0    0  501    0  0.00000000000E+00  0.00000000000E+00  0.11136229560E+04  0.11136229561E+04  0.50400001928E-02 0. -1.
       -1   -1    0    0    0  501  0.00000000000E+00  0.00000000000E+00 -0.15180171595E+04  0.15180171595E+04  0.50400001928E-02 0.  1.
    10030    2    1    2    0    0  0.00000000000E+00  0.00000000000E+00 -0.40439420343E+03  0.26316401155E+04  0.26003836305E+04 0.  0.
        4    1    3    3  502    0 -0.49521829482E+03  0.70201842648E+03  0.78545665848E+03  0.11640510323E+04  0.12699999809E+01 0. -1.
       -4    1    3    3    0  502  0.49521829482E+03 -0.70201842648E+03 -0.11898508619E+04  0.14675890832E+04  0.12699999809E+01 0.  1.
</event>
<event>
 5   0  0.2623368E-06  0.2594944E+04  0.7818609E-02  0.8369921E-01
        2   -1    0    0  501    0  0.00000000000E+00  0.00000000000E+00  0.20326878180E+04  0.20326878180E+04  0.25500000920E-02 0. -1.
       -2   -1    0    0    0  501  0.00000000000E+00  0.00000000000E+00 -0.82818098417E+03  0.82818098418E+03  0.25500000920E-02 0.  1.
    10030    2    1    2    0    0  0.00000000000E+00  0.00000000000E+00  0.12045068339E+04  0.28608688022E+04  0.25949438512E+04 0.  0.
        5    1    3    3  502    0  0.12013492590E+04  0.48964799249E+03  0.57976424006E+03  0.14209658204E+04  0.46999998093E+01 0.  1.
       -5    1    3    3    0  502 -0.12013492590E+04 -0.48964799249E+03  0.62474259381E+03  0.14399029818E+04  0.46999998093E+01 0. -1.
</event>
<event>
 5   0  0.2586775E-06  0.2601969E+04  0.7818609E-02  0.8367533E-01
        2   -1    0    0  501    0  0.00000000000E+00  0.00000000000E+00  0.79412546741E+03  0.79412546742E+03  0.25500000920E-02 0.  1.
       -2   -1    0    0    0  501  0.00000000000E+00  0.00000000000E+00 -0.21313514573E+04  0.21313514573E+04  0.25500000920E-02 0. -1.
    10030    2    1    2    0    0  0.00000000000E+00  0.00000000000E+00 -0.13372259899E+04  0.29254769247E+04  0.26019688486E+04 0.  0.
        1    1    3    3  502    0 -0.10987318820E+04 -0.26374354233E+02 -0.14513395881E+04  0.18205202430E+04  0.50400001928E-02 0. -1.
       -1    1    3    3    0  502  0.10987318820E+04  0.26374354233E+02  0.11411359821E+03  0.11049566817E+04  0.50400001928E-02 0.  1.
</event>
<event>
 5   0  0.1100104E-06  0.2598151E+04  0.7818609E-02  0.8368829E-01
       -1   -1    0    0    0  501  0.00000000000E+00  0.00000000000E+00  0.11362574167E+04  0.11362574167E+04  0.50400001928E-02 0.  1.
        1   -1    0    0  501    0  0.00000000000E+00  0.00000000000E+00 -0.14852245958E+04  0.14852245958E+04  0.50400001928E-02 0. -1.
    10030    2    1    2    0    0  0.00000000000E+00  0.00000000000E+00 -0.34896717911E+03  0.26214820126E+04  0.25981512369E+04 0.  0.
        4    1    3    3  502    0  0.61535078677E+03  0.11396783312E+04 -0.73220216556E+02  0.12972610001E+04  0.12699999809E+01 0. -1.
       -4    1    3    3    0  502 -0.61535078677E+03 -0.11396783312E+04 -0.27574696256E+03  0.13242210124E+04  0.12699999809E+01 0.  1.
</event>
<event>
 5   0  0.1055179E-06  0.2599851E+04  0.7818609E-02  0.8368252E-01
       -1   -1    0    0    0  501  0.00000000000E+00  0.00000000000E+00  0.13415841244E+04  0.13415841244E+04  0.50400001928E-02 0. -1.
        1   -1    0    0  501    0  0.00000000000E+00  0.00000000000E+00 -0.12595605222E+04  0.12595605222E+04  0.50400001928E-02 0.  1.
    10030    2    1    2    0    0  0.00000000000E+00  0.00000000000E+00  0.82023602158E+02  0.26011446467E+04  0.25998510729E+04 0.  0.
        3    1    3    3  502    0 -0.25481396423E+03 -0.64441155806E+02 -0.12326980468E+04  0.12604075943E+04  0.10100000352E+00 0.  1.
       -3    1    3    3    0  502  0.25481396423E+03  0.64441155806E+02  0.13147216490E+04  0.13407370523E+04  0.10100000352E+00 0. -1.
</event>
<event>
 5   0  0.2705807E-06  0.2600189E+04  0.7818609E-02  0.8368137E-01
       -2   -1    0    0    0  501  0.00000000000E+00  0.00000000000E+00  0.68880739407E+03  0.68880739408E+03  0.25500000920E-02 0. -1.
        2   -1    0    0  501    0  0.00000000000E+00  0.00000000000E+00 -0.24538732254E+04  0.24538732255E+04  0.25500000920E-02 0.  1.
    10030    2    1    2    0    0  0.00000000000E+00  0.00000000000E+00 -0.17650658314E+04  0.31426806195E+04  0.26001892407E+04 0.  0.
        4    1    3    3  502    0 -0.79418445737E+03 -0.94126105870E+03 -0.13860322908E+04  0.18541274112E+04  0.12699999809E+01 0. -1.
       -4    1    3    3    0  502  0.79418445737E+03  0.94126105870E+03 -0.37903354061E+03  0.12885532084E+04  0.12699999809E+01 0.  1.
</event>
<event>
 5   0  0.2820028E-06  0.2598899E+04  0.7818609E-02  0.8368575E-01
        2   -1    0    0  501    0  0.00000000000E+00  0.00000000000E+00  0.20509037807E+04  0.20509037807E+04  0.25500000920E-02 0. -1.
       -2   -1    0    0    0  501  0.00000000000E+00  0.00000000000E+00 -0.82332914248E+03  0.82332914249E+03  0.25500000920E-02 0.  1.
    10030    2    1    2    0    0  0.00000000000E+00  0.00000000000E+00  0.12275746382E+04  0.28742329231E+04  0.25988988830E+04 0.  0.
        3    1    3    3  502    0 -0.46800959672E+03  0.10913632656E+04  0.30186881018E+02  0.11878627943E+04  0.10100000352E+00 0.  1.
       -3    1    3    3    0  502  0.46800959672E+03 -0.10913632656E+04  0.11973877572E+04  0.16863701288E+04  0.10100000352E+00 0. -1.
</event>
<event>
 5   0  0.2746631E-06  0.2596608E+04  0.7818609E-02  0.8369354E-01
       -2   -1    0    0    0  501  0.00000000000E+00  0.00000000000E+00  0.92273869477E+03  0.92273869477E+03  0.25500000920E-02 0. -1.
        2   -1    0    0  501    0  0.00000000000E+00  0.00000000000E+00 -0.18267282758E+04  0.18267282758E+04  0.25500000920E-02 0.  1.
    10030    2    1    2    0    0  0.00000000000E+00  0.00000000000E+00 -0.90398958100E+03  0.27494669705E+04  0.25966076830E+04 0.  0.
        2    1    3    3  502    0 -0.13421819389E+03  0.81075856038E+03  0.61228633881E+03  0.10248114595E+04  0.25500000920E-02 0. -1.
       -2    1    3    3    0  502  0.13421819389E+03 -0.81075856038E+03 -0.15162759198E+04  0.17246555111E+04  0.25500000920E-02 0.  1.
</event>
<event>
 5   0  0.2746631E-06  0.2599109E+04  0.7818609E-02  0.8368504E-01
        2   -1    0    0  501    0  0.00000000000E+00  0.00000000000E+00  0.16909427013E+04  0.16909427013E+04  0.25500000920E-02 0.  1.
       -2   -1    0    0    0  501  0.00000000000E+00  0.00000000000E+00 -0.99875753228E+03  0.99875753228E+03  0.25500000920E-02 0. -1.
    10030    2    1    2    0    0  0.00000000000E+00  0.00000000000E+00  0.69218516906E+03  0.26897002336E+04  0.25991088931E+04 0.  0.
        2    1    3    3  502    0 -0.13251171567E+03 -0.12783785484E+04  0.54523341714E+03  0.13960983300E+04  0.25500000920E-02 0.  1.
       -2    1    3    3    0  502  0.13251171567E+03  0.12783785484E+04  0.14695175191E+03  0.12936019037E+04  0.25500000920E-02 0. -1.
</event>
<event>
 5   0  0.2705807E-06  0.2619539E+04  0.7818609E-02  0.8361594E-01
        2   -1    0    0  501    0  0.00000000000E+00  0.00000000000E+00  0.22159235703E+04  0.22159235703E+04  0.25500000920E-02 0. -1.
       -2   -1    0    0    0  501  0.00000000000E+00  0.00000000000E+00 -0.77416753704E+03  0.77416753705E+03  0.25500000920E-02 0.  1.
    10030    2    1    2    0    0  0.00000000000E+00  0.00000000000E+00  0.14417560332E+04  0.29900911073E+04  0.26195389615E+04 0.  0.
        4    1    3    3  502    0 -0.83548685434E+03 -0.33497108435E+03  0.18069133683E+04  0.20187078650E+04  0.12699999809E+01 0. -1.
       -4    1    3    3    0  502  0.83548685434E+03  0.33497108435E+03 -0.36515733504E+03  0.97138324226E+03  0.12699999809E+01 0.  1.
</event>
<event>
 5   0  0.2623368E-06  0.2598912E+04  0.7818609E-02  0.8368571E-01
        2   -1    0    0  501    0  0.00000000000E+00  0.00000000000E+00  0.21199673914E+04  0.21199673914E+04  0.25500000920E-02 0. -1.
       -2   -1    0    0    0  501  0.00000000000E+00  0.00000000000E+00 -0.79651484988E+03  0.79651484989E+03  0.25500000920E-02 0.  1.
    10030    2    1    2    0    0  0.00000000000E+00  0.00000000000E+00  0.13234525415E+04  0.29164822413E+04  0.25989117019E+04 0.  0.
        5    1    3    3  502    0  0.28149052975E+03 -0.29187328025E+03  0.20471408129E+04  0.20869198662E+04  0.46999998093E+01 0. -1.
       -5    1    3    3    0  502 -0.28149052975E+03  0.29187328025E+03 -0.72368827138E+03  0.82956237510E+03  0.46999998093E+01 0.  1.
</event>
<event>
 5   0  0.2623368E-06  0.2674023E+04  0.7818609E-02  0.8343483E-01
        2   -1    0    0  501    0  0.00000000000E+00  0.00000000000E+00  0.21926252437E+04  0.21926252437E+04  0.25500000920E-02 0.  1.
       -2   -1    0    0    0  501  0.00000000000E+00  0.00000000000E+00 -0.81527812440E+03  0.81527812441E+03  0.25500000920E-02 0. -1.
    10030    2    1    2    0    0  0.00000000000E+00  0.00000000000E+00  0.13773471192E+04  0.30079033681E+04  0.26740227345E+04 0.  0.
        5    1    3    3  502    0 -0.16042240488E+03 -0.41216565464E+03  0.21079436664E+04  0.21538487565E+04  0.46999998093E+01 0.  1.
       -5    1    3    3    0  502  0.16042240488E+03  0.41216565464E+03 -0.73059654718E+03  0.85405461160E+03  0.46999998093E+01 0. -1.
</event>
<event>
 5   0  0.2820028E-06  0.2602483E+04  0.7818609E-02  0.8367358E-01
       -2   -1    0    0    0  501  0.00000000000E+00  0.00000000000E+00  0.67685822450E+03  0.67685822451E+03  0.25500000920E-02 0. -1.
        2   -1    0    0  501    0  0.00000000000E+00  0.00000000000E+00 -0.25016007427E+04  0.25016007427E+04  0.25500000920E-02 0.  1.
    10030    2    1    2    0    0  0.00000000000E+00  0.00000000000E+00 -0.18247425182E+04  0.31784589672E+04  0.26024826894E+04 0.  0.
        3    1    3    3  502    0 -0.43189609739E+03  0.93679509228E+03  0.56334686641E+02  0.10330986840E+04  0.10100000352E+00 0. -1.
       -3    1    3    3    0  502  0.43189609739E+03 -0.93679509228E+03 -0.18810772049E+04  0.21453602832E+04  0.10100000352E+00 0.  1.
</event>
<event>
 5   0  0.1032076E-06  0.2600455E+04  0.7818609E-02  0.8368047E-01
       -1   -1    0    0    0  501  0.00000000000E+00  0.00000000000E+00  0.26357485890E+04  0.26357485890E+04  0.50400001928E-02 0. -1.
        1   -1    0    0  501    0  0.00000000000E+00  0.00000000000E+00 -0.64140828796E+03  0.64140828798E+03  0.50400001928E-02 0.  1.
    10030    2    1    2    0    0  0.00000000000E+00  0.00000000000E+00  0.19943403010E+04  0.32771568770E+04  0.26004545679E+04 0.  0.
        1    1    3    3  502    0 -0.10735345867E+04  0.72686953264E+03  0.87257246425E+03  0.15627535096E+04  0.50400001928E-02 0.  1.
       -1    1    3    3    0  502  0.10735345867E+04 -0.72686953264E+03  0.11217678368E+04  0.17144033674E+04  0.50400001928E-02 0. -1.
</event>
<event>
 5   0  0.1032076E-06  0.2598087E+04  0.7818609E-02  0.8368851E-01
       -1   -1    0    0    0  501  0.00000000000E+00  0.00000000000E+00  0.75024550794E+03  0.75024550795E+03  0.50400001928E-02 0. -1.
        1   -1    0    0  501    0  0.00000000000E+00  0.00000000000E+00 -0.22492819934E+04  0.22492819935E+04  0.50400001928E-02 0.  1.
    10030    2    1    2    0    0  0.00000000000E+00  0.00000000000E+00 -0.14990364855E+04  0.29995275014E+04  0.25980867666E+04 0.  0.
        1    1    3    3  502    0  0.10102863758E+02 -0.12307642502E+04 -0.12292059575E+04  0.17394913030E+04  0.50400001928E-02 0.  1.
       -1    1    3    3    0  502 -0.10102863758E+02  0.12307642502E+04 -0.26983052800E+03  0.12600361984E+04  0.50400001928E-02 0. -1.
</event>
<event>
 5   0  0.2746631E-06  0.2600577E+04  0.7818609E-02  0.8368005E-01
       -2   -1    0    0    0  501  0.00000000000E+00  0.00000000000E+00  0.10578962237E+04  0.10578962237E+04  0.25500000920E-02 0.  1.
        2   -1    0    0  501    0  0.00000000000E+00  0.00000000000E+00 -0.15982190918E+04  0.15982190918E+04  0.25500000920E-02 0. -1.
    10030    2    1    2    0    0  0.00000000000E+00  0.00000000000E+00 -0.54032286810E+03  0.26561153155E+04  0.26005768144E+04 0.  0.
        2    1    3    3  502    0  0.11788327491E+03 -0.12000817590E+04 -0.76702499094E+03  0.14291326151E+04  0.25500000920E-02 0. -1.
       -2    1    3    3    0  502 -0.11788327491E+03  0.12000817590E+04  0.22670212284E+03  0.12269827005E+04  0.25500000920E-02 0.  1.
</event>
<event>
 5   0  0.2705807E-06  0.2640914E+04  0.7818609E-02  0.8354435E-01
       -2   -1    0    0    0  501  0.00000000000E+00  0.00000000000E+00  0.10621576939E+04  0.10621576939E+04  0.25500000920E-02 0.  1.
        2   -1    0    0  501    0  0.00000000000E+00  0.00000000000E+00 -0.16415700690E+04  0.16415700690E+04  0.25500000920E-02 0. -1.
    10030    2    1    2    0    0  0.00000000000E+00  0.00000000000E+00 -0.57941237508E+03  0.27037277629E+04  0.26409136895E+04 0.  0.
        4    1    3    3  502    0  0.76268716653E+03 -0.52368207312E+03  0.67486555153E+03  0.11451549036E+04  0.12699999809E+01 0. -1.
       -4    1    3    3    0  502 -0.76268716653E+03  0.52368207312E+03 -0.12542779266E+04  0.15585728593E+04  0.12699999809E+01 0.  1.
</event>
<event>
 5   0  0.1088757E-06  0.2602949E+04  0.7818609E-02  0.8367200E-01
       -1   -1    0    0    0  501  0.00000000000E+00  0.00000000000E+00  0.10539909960E+04  0.10539909960E+04  0.50400001928E-02 0. -1.
        1   -1    0    0  501    0  0.00000000000E+00  0.00000000000E+00 -0.16070684122E+04  0.16070684122E+04  0.50400001928E-02 0.  1.
    10030    2    1    2    0    0  0.00000000000E+00  0.00000000000E+00 -0.55307741618E+03  0.26610594082E+04  0.26029488174E+04 0.  0.
        5    1    3    3  502    0 -0.12290879509E+03 -0.12950325487E+04 -0.23567546869E+03  0.13220366450E+04  0.46999998093E+01 0. -1.
       -5    1    3    3    0  502  0.12290879509E+03  0.12950325487E+04 -0.31740194749E+03  0.13390227632E+04  0.46999998093E+01 0.  1.
</event>
<event>
 5   0  0.9197000E-07  0.2597670E+04  0.7818609E-02  0.8368993E-01
        3   -1    0    0  501    0  0.00000000000E+00  0.00000000000E+00  0.12981595147E+04  0.12981595186E+04  0.10100000352E+00 0. -1.
       -3   -1    0    0    0  501  0.00000000000E+00  0.00000000000E+00 -0.12995109090E+04  0.12995109129E+04  0.10100000352E+00 0.  1.
    10030    2    1    2    0    0  0.00000000000E+00  0.00000000000E+00 -0.13513943243E+01  0.25976704316E+04  0.25976700800E+04 0.  0.
        5    1    3    3  502    0 -0.29961410043E+03  0.11743559132E+04  0.46630397059E+03  0.12985922775E+04  0.46999998093E+01 0. -1.
       -5    1    3    3    0  502  0.29961410043E+03 -0.11743559132E+04 -0.46765536491E+03  0.12990781541E+04  0.46999998093E+01 0.  1.
</event>
<event>
 5   0  0.2586775E-06  0.2598436E+04  0.7818609E-02  0.8368733E-01
        2   -1    0    0  501    0  0.00000000000E+00  0.00000000000E+00  0.23963466640E+04  0.23963466640E+04  0.25500000920E-02 0. -1.
       -2   -1    0    0    0  501  0.00000000000E+00  0.00000000000E+00 -0.70439183824E+03  0.70439183825E+03  0.25500000920E-02 0.  1.
    10030    2    1    2    0    0  0.00000000000E+00  0.00000000000E+00  0.16919548257E+04  0.31007385022E+04  0.25984357077E+04 0.  0.
        1    1    3    3  502    0 -0.41427287977E+02 -0.10748756925E+04 -0.23496766247E+02  0.10759303289E+04  0.50400001928E-02 0.  1.
       -1    1    3    3    0  502  0.41427287977E+02  0.10748756925E+04  0.17154515920E+04  0.20248081734E+04  0.50400001928E-02 0. -1.
</event>
<event>
 5   0  0.1088757E-06  0.2602789E+04  0.7818609E-02  0.8367255E-01
       -1   -1    0    0    0  501  0.00000000000E+00  0.00000000000E+00  0.10222220063E+04  0.10222220064E+04  0.50400001928E-02 0. -1.
        1   -1    0    0  501    0  0.00000000000E+00  0.00000000000E+00 -0.16568097488E+04  0.16568097488E+04  0.50400001928E-02 0.  1.
    10030    2    1    2    0    0  0.00000000000E+00  0.00000000000E+00 -0.63458774241E+03  0.26790317551E+04  0.26027888009E+04 0.  0.
        5    1    3    3  502    0 -0.59602145910E+02 -0.26023346033E+03  0.99372433393E+03  0.10289723084E+04  0.46999998093E+01 0. -1.
       -5    1    3    3    0  502  0.59602145910E+02  0.26023346033E+03 -0.16283120763E+04  0.16500594467E+04  0.46999998093E+01 0.  1.
</event>
<event>
 5   0  0.1100104E-06  0.2603339E+04  0.7818609E-02  0.8367068E-01
       -1   -1    0    0    0  501  0.00000000000E+00  0.00000000000E+00  0.17644326396E+04  0.17644326396E+04  0.50400001928E-02 0.  1.
        1   -1    0    0  501    0  0.00000000000E+00  0.00000000000E+00 -0.96027631474E+03  0.96027631475E+03  0.50400001928E-02 0. -1.
    10030    2    1    2    0    0  0.00000000000E+00  0.00000000000E+00  0.80415632484E+03  0.27247089543E+04  0.26033385279E+04 0.  0.
        4    1    3    3  502    0 -0.12563243888E+04  0.24494207897E+03  0.64973990951E+03  0.14354480676E+04  0.12699999809E+01 0.  1.
       -4    1    3    3    0  502  0.12563243888E+04 -0.24494207897E+03  0.15441641533E+03  0.12892608867E+04  0.12699999809E+01 0. -1.
</event>
<event>
 5   0  0.1032076E-06  0.2595418E+04  0.7818609E-02  0.8369759E-01
       -1   -1    0    0    0  501  0.00000000000E+00  0.00000000000E+00  0.61041491777E+03  0.61041491779E+03  0.50400001928E-02 0. -1.
        1   -1    0    0  501    0  0.00000000000E+00  0.00000000000E+00 -0.27588581976E+04  0.27588581976E+04  0.50400001928E-02 0.  1.
    10030    2    1    2    0    0  0.00000000000E+00  0.00000000000E+00 -0.21484432798E+04  0.33692731154E+04  0.25954176541E+04 0.  0.
        1    1    3    3  502    0  0.91980662456E+03  0.23573579317E+03  0.74070608758E+02  0.95241904951E+03  0.50400001928E-02 0. -1.
       -1    1    3    3    0  502 -0.91980662456E+03 -0.23573579317E+03 -0.22225138885E+04  0.24168540658E+04  0.50400001928E-02 0.  1.
</event>
<event>
 5   0  0.1032076E-06  0.2601477E+04  0.7818609E-02  0.8367700E-01
       -1   -1    0    0    0  501  0.00000000000E+00  0.00000000000E+00  0.91059380525E+03  0.91059380526E+03  0.50400001928E-02 0. -1.
        1   -1    0    0  501    0  0.00000000000E+00  0.00000000000E+00 -0.18580407977E+04  0.18580407977E+04  0.50400001928E-02 0.  1.
    10030    2    1    2    0    0  0.00000000000E+00  0.00000000000E+00 -0.94744699247E+03  0.27686346030E+04  0.26014768424E+04 0.  0.
        1    1    3    3  502    0 -0.11056901576E+04  0.48390295594E+03  0.42421111893E+02  0.12076888450E+04  0.50400001928E-02 0. -1.
       -1    1    3    3    0  502  0.11056901576E+04 -0.48390295594E+03 -0.98986810437E+03  0.15609457580E+04  0.50400001928E-02 0.  1.
</event>
<event>
 5   0  0.1032076E-06  0.2600101E+04  0.7818609E-02  0.8368167E-01
       -1   -1    0    0    0  501  0.00000000000E+00  0.00000000000E+00  0.12012651349E+04  0.12012651349E+04  0.50400001928E-02 0.  1.
        1   -1    0    0  501    0  0.00000000000E+00  0.00000000000E+00 -0.14069589612E+04  0.14069589612E+04  0.50400001928E-02 0. -1.
    10030    2    1    2    0    0  0.00000000000E+00  0.00000000000E+00 -0.20569382627E+03  0.26082240961E+04  0.26001005722E+04 0.  0.
        1    1    3    3  502    0  0.21402079839E+03 -0.10716792402E+04  0.60350465757E+03  0.12484066516E+04  0.50400001928E-02 0.  1.
       -1    1    3    3    0  502 -0.21402079839E+03  0.10716792402E+04 -0.80919848384E+03  0.13598174445E+04  0.50400001928E-02 0. -1.
</event>
<event>
 5   0  0.1122628E-06  0.2600830E+04  0.7818609E-02  0.8367919E-01
        1   -1    0    0  501    0  0.00000000000E+00  0.00000000000E+00  0.18458830952E+04  0.18458830953E+04  0.50400001928E-02 0.  1.
       -1   -1    0    0    0  501  0.00000000000E+00  0.00000000000E+00 -0.91613584686E+03  0.91613584687E+03  0.50400001928E-02 0. -1.
    10030    2    1    2    0    0  0.00000000000E+00  0.00000000000E+00  0.92974724839E+03  0.27620189421E+04  0.26008303849E+04 0.  0.
        2    1    3    3  502    0  0.93113005049E+03  0.11686393448E+03  0.14208992115E+04  0.17028255693E+04  0.25500000920E-02 0.  1.
       -2    1    3    3    0  502 -0.93113005049E+03 -0.11686393448E+03 -0.49115196316E+03  0.10591933728E+04  0.25500000920E-02 0. -1.
</event>
<event>
 5   0  0.1088757E-06  0.2598465E+04  0.7818609E-02  0.8368723E-01
       -1   -1    0    0    0  501  0.00000000000E+00  0.00000000000E+00  0.11911899773E+04  0.11911899773E+04  0.50400001928E-02 0. -1.
        1   -1    0    0  501    0  0.00000000000E+00  0.00000000000E+00 -0.14170746160E+04  0.14170746160E+04  0.50400001928E-02 0.  1.
    10030    2    1    2    0    0  0.00000000000E+00  0.00000000000E+00 -0.22588463869E+03  0.26082645932E+04  0.25984649927E+04 0.  0.
        5    1    3    3  502    0 -0.17644547004E+03 -0.58016580021E+03  0.10404156444E+04  0.12042475504E+04  0.46999998093E+01 0. -1.
       -5    1    3    3    0  502  0.17644547004E+03  0.58016580021E+03 -0.12663002831E+04  0.14040170428E+04  0.46999998093E+01 0.  1.
</event>
<event>
 5   0  0.2820028E-06  0.2600225E+04  0.7818609E-02  0.8368125E-01
        2   -1    0    0  501    0  0.00000000000E+00  0.00000000000E+00  0.11557466240E+04  0.11557466240E+04  0.25500000920E-02 0.  1.
       -2   -1    0    0    0  501  0.00000000000E+00  0.00000000000E+00 -0.14625112547E+04  0.14625112547E+04  0.25500000920E-02 0. -1.
    10030    2    1    2    0    0  0.00000000000E+00  0.00000000000E+00 -0.30676463071E+03  0.26182578787E+04  0.26002249481E+04 0.  0.
        3    1    3    3  502    0  0.79291624348E+03  0.23956151214E+03  0.85565841669E+03  0.11909060515E+04  0.10100000352E+00 0.  1.
       -3    1    3    3    0  502 -0.79291624348E+03 -0.23956151214E+03 -0.11624230474E+04  0.14273518272E+04  0.10100000352E+00 0. -1.
</event>
<event>
 5   0  0.1055179E-06  0.2594056E+04  0.7818609E-02  0.8370223E-01
        1   -1    0    0  501    0  0.00000000000E+00  0.00000000000E+00  0.13332249109E+04  0.13332249109E+04  0.50400001928E-02 0.  1.
       -1   -1    0    0    0  501  0.00000000000E+00  0.00000000000E+00 -0.12618137112E+04  0.12618137112E+04  0.50400001928E-02 0. -1.
    10030    2    1    2    0    0  0.00000000000E+00  0.00000000000E+00  0.71411199668E+02  0.25950386221E+04  0.25940558766E+04 0.  0.
        3    1    3    3  502    0  0.16419673236E+03  0.46953385447E+03  0.12340153426E+04  0.13304948266E+04  0.10100000352E+00 0.  1.
       -3    1    3    3    0  502 -0.16419673236E+03 -0.46953385447E+03 -0.11626041430E+04  0.12645437956E+04  0.10100000352E+00 0. -1.
</event>
<event>
 5   0  0.1122628E-06  0.2600447E+04  0.7818609E-02  0.8368049E-01
       -1   -1    0    0    0  501  0.00000000000E+00  0.00000000000E+00  0.10812453256E+04  0.10812453257E+04  0.50400001928E-02 0.  1.
        1   -1    0    0  501    0  0.00000000000E+00  0.00000000000E+00 -0.15635496939E+04  0.15635496939E+04  0.50400001928E-02 0. -1.
    10030    2    1    2    0    0  0.00000000000E+00  0.00000000000E+00 -0.48230436828E+03  0.26447950196E+04  0.26004467293E+04 0.  0.
        2    1    3    3  502    0 -0.66997209298E+03 -0.11953353131E+03 -0.13679406970E+04  0.15278784707E+04  0.25500000920E-02 0. -1.
       -2    1    3    3    0  502  0.66997209298E+03  0.11953353131E+03  0.88563632875E+03  0.11169165489E+04  0.25500000920E-02 0.  1.
</event>
<event>
 5   0  0.2623368E-06  0.2600574E+04  0.7818609E-02  0.8368006E-01
       -2   -1    0    0    0  501  0.00000000000E+00  0.00000000000E+00  0.97761907215E+03  0.97761907215E+03  0.25500000920E-02 0. -1.
        2   -1    0    0  501    0  0.00000000000E+00  0.00000000000E+00 -0.17294529136E+04  0.17294529136E+04  0.25500000920E-02 0.  1.
    10030    2    1    2    0    0  0.00000000000E+00  0.00000000000E+00 -0.75183384145E+03  0.27070719858E+04  0.26005739003E+04 0.  0.
        5    1    3    3  502    0  0.18059031799E+03  0.59471738658E+03  0.81296776808E+03  0.10233476021E+04  0.46999998093E+01 0. -1.
       -5    1    3    3    0  502 -0.18059031799E+03 -0.59471738658E+03 -0.15648016095E+04  0.16837243836E+04  0.46999998093E+01 0.  1.
</event>
<event>
 5   0  0.2820028E-06  0.2607670E+04  0.7818609E-02  0.8365601E-01
        2   -1    0    0  501    0  0.00000000000E+00  0.00000000000E+00  0.13892034028E+04  0.13892034028E+04  0.25500000920E-02 0. -1.
       -2   -1    0    0    0  501  0.00000000000E+00  0.00000000000E+00 -0.12237121700E+04  0.12237121700E+04  0.25500000920E-02 0.  1.
    10030    2    1    2    0    0  0.00000000000E+00  0.00000000000E+00  0.16549123280E+03  0.26129155729E+04  0.26076695425E+04 0.  0.
        3    1    3    3  502    0 -0.11376469250E+04 -0.37615410112E+03  0.59783489733E+03  0.13390814047E+04  0.10100000352E+00 0.  1.
       -3    1    3    3    0  502  0.11376469250E+04  0.37615410112E+03 -0.43234366453E+03  0.12738341682E+04  0.10100000352E+00 0. -1.
</event>
<event>
 5   0  0.1032076E-06  0.2603475E+04  0.7818609E-02  0.8367022E-01
       -1   -1    0    0    0  501  0.00000000000E+00  0.00000000000E+00  0.58500650738E+03  0.58500650740E+03  0.50400001928E-02 0.  1.
        1   -1    0    0  501    0  0.00000000000E+00  0.00000000000E+00 -0.28965845371E+04  0.28965845371E+04  0.50400001928E-02 0. -1.
    10030    2    1    2    0    0  0.00000000000E+00  0.00000000000E+00 -0.23115780297E+04  0.34815910445E+04  0.26034752186E+04 0.  0.
        1    1    3    3  502    0 -0.17022747415E+03 -0.72642684007E+03 -0.25822711266E+04  0.26878983460E+04  0.50400001928E-02 0. -1.
       -1    1    3    3    0  502  0.17022747415E+03  0.72642684007E+03  0.27069309691E+03  0.79369269851E+03  0.50400001928E-02 0.  1.
</event>
<event>
 5   0  0.2705807E-06  0.2602312E+04  0.7818609E-02  0.8367416E-01
       -2   -1    0    0    0  501  0.00000000000E+00  0.00000000000E+00  0.13061549599E+04  0.13061549599E+04  0.25500000920E-02 0. -1.
        2   -1    0    0  501    0  0.00000000000E+00  0.00000000000E+00 -0.12961763363E+04  0.12961763363E+04  0.25500000920E-02 0.  1.
    10030    2    1    2    0    0  0.00000000000E+00  0.00000000000E+00  0.99786235330E+01  0.26023312962E+04  0.26023121647E+04 0.  0.
        4    1    3    3  502    0  0.12899875642E+04 -0.13665100766E+03 -0.96323445646E+02  0.13007771650E+04  0.12699999809E+01 0. -1.
       -4    1    3    3    0  502 -0.12899875642E+04  0.13665100766E+03  0.10630206918E+03  0.13015541313E+04  0.12699999809E+01 0.  1.
</event>
<event>
 5   0  0.2586775E-06  0.2600428E+04  0.7818609E-02  0.8368056E-01
       -2   -1    0    0    0  501  0.00000000000E+00  0.00000000000E+00  0.92230760365E+03  0.92230760366E+03  0.25500000920E-02 0. -1.
        2   -1    0    0  501    0  0.00000000000E+00  0.00000000000E+00 -0.18329641500E+04  0.18329641500E+04  0.25500000920E-02 0.  1.
    10030    2    1    2    0    0  0.00000000000E+00  0.00000000000E+00 -0.91065654638E+03  0.27552717537E+04  0.26004282515E+04 0.  0.
        1    1    3    3  502    0 -0.16922543902E+03 -0.11564059497E+04 -0.10590319096E+04  0.15771685247E+04  0.50400001928E-02 0.  1.
       -1    1    3    3    0  502  0.16922543902E+03  0.11564059497E+04  0.14837536324E+03  0.11781032290E+04  0.50400001928E-02 0. -1.
</event>
<event>
 5   0  0.2820028E-06  0.2593709E+04  0.7818609E-02  0.8370341E-01
       -2   -1    0    0    0  501  0.00000000000E+00  0.00000000000E+00  0.13351320818E+04  0.13351320818E+04  0.25500000920E-02 0. -1.
        2   -1    0    0  501    0  0.00000000000E+00  0.00000000000E+00 -0.12596747083E+04  0.12596747083E+04  0.25500000920E-02 0.  1.
    10030    2    1    2    0    0  0.00000000000E+00  0.00000000000E+00  0.75457373455E+02  0.25948067901E+04  0.25937094022E+04 0.  0.
        3    1    3    3  502    0 -0.12922549057E+04 -0.74247403319E+02 -0.42284445492E+02  0.12950766011E+04  0.10100000352E+00 0. -1.
       -3    1    3    3    0  502  0.12922549057E+04  0.74247403319E+02  0.11774181895E+03  0.12997301890E+04  0.10100000352E+00 0.  1.
</event>
<event>
 5   0  0.1088757E-06  0.2585198E+04  0.7818609E-02  0.8373247E-01
       -1   -1    0    0    0  501  0.00000000000E+00  0.00000000000E+00  0.86338284561E+03  0.86338284563E+03  0.50400001928E-02 0.  1.
        1   -1    0    0  501    0  0.00000000000E+00  0.00000000000E+00 -0.19351921397E+04  0.19351921397E+04  0.50400001928E-02 0. -1.
    10030    2    1    2    0    0  0.00000000000E+00  0.00000000000E+00 -0.10718092941E+04  0.27985749853E+04  0.25851976299E+04 0.  0.
        5    1    3    3  502    0 -0.64932837313E+03 -0.92891492765E+03 -0.12087169621E+04  0.16569638087E+04  0.46999998093E+01 0. -1.
       -5    1    3    3    0  502  0.64932837313E+03  0.92891492765E+03  0.13690766802E+03  0.11416111766E+04  0.46999998093E+01 0.  1.
</event>
<event>
 5   0  0.1122628E-06  0.2599071E+04  0.7818609E-02  0.8368517E-01
       -1   -1    0    0    0  501  0.00000000000E+00  0.00000000000E+00  0.19271816518E+04  0.19271816518E+04  0.50400001928E-02 0. -1.
        1   -1    0    0  501    0  0.00000000000E+00  0.00000000000E+00 -0.87630196698E+03  0.87630196700E+03  0.50400001928E-02 0.  1.
    10030    2    1    2    0    0  0.00000000000E+00  0.00000000000E+00  0.10508796848E+04  0.28034836188E+04  0.25990714282E+04 0.  0.
        2    1    3    3  502    0 -0.83475258626E+03 -0.67412864846E+03  0.13162675400E+04  0.16981818371E+04  0.25500000920E-02 0. -1.
       -2    1    3    3    0  502  0.83475258626E+03  0.67412864846E+03 -0.26538785520E+03  0.11053017817E+04  0.25500000920E-02 0.  1.
</event>
<event>
 5   0  0.1032076E-06  0.2606236E+04  0.7818609E-02  0.8366086E-01
        1   -1    0    0  501    0  0.00000000000E+00  0.00000000000E+00  0.52286792501E+03  0.52286792504E+03  0.50400001928E-02 0.  1.
       -1   -1    0    0    0  501  0.00000000000E+00  0.00000000000E+00 -0.32476973002E+04  0.32476973002E+04  0.50400001928E-02 0. -1.
    10030    2    1    2    0    0  0.00000000000E+00  0.00000000000E+00 -0.27248293752E+04  0.37705652253E+04  0.26062361739E+04 0.  0.
        1    1    3    3  502    0 -0.41823654264E+03  0.10320531543E+04 -0.23415764756E+04  0.25928817771E+04  0.50400001928E-02 0. -1.
       -1    1    3    3    0  502  0.41823654264E+03 -0.10320531543E+04 -0.38325289964E+03  0.11776834482E+04  0.50400001928E-02 0.  1.
</event>
<event>
 5   0  0.2746631E-06  0.2596620E+04  0.7818609E-02  0.8369350E-01
       -2   -1    0    0    0  501  0.00000000000E+00  0.00000000000E+00  0.10929228800E+04  0.10929228800E+04  0.25500000920E-02 0. -1.
        2   -1    0    0  501    0  0.00000000000E+00  0.00000000000E+00 -0.15422949857E+04  0.15422949857E+04  0.25500000920E-02 0.  1.
    10030    2    1    2    0    0  0.00000000000E+00  0.00000000000E+00 -0.44937210568E+03  0.26352178657E+04  0.25966204787E+04 0.  0.
        2    1    3    3  502    0 -0.12688738055E+04  0.94259840690E+02 -0.48675665231E+03  0.13622986789E+04  0.25500000920E-02 0. -1.
       -2    1    3    3    0  502  0.12688738055E+04 -0.94259840690E+02  0.37384546627E+02  0.12729191868E+04  0.25500000920E-02 0.  1.
</event>
<event>
 5   0  0.2705807E-06  0.2601907E+04  0.7818609E-02  0.8367554E-01
        2   -1    0    0  501    0  0.00000000000E+00  0.00000000000E+00  0.20212836824E+04  0.20212836824E+04  0.25500000920E-02 0.  1.
       -2   -1    0    0    0  501  0.00000000000E+00  0.00000000000E+00 -0.83732906039E+03  0.83732906040E+03  0.25500000920E-02 0. -1.
    10030    2    1    2    0    0  0.00000000000E+00  0.00000000000E+00  0.11839546220E+04  0.28586127428E+04  0.26019066598E+04 0.  0.
        4    1    3    3  502    0 -0.53229509254E+03 -0.44381679559E+03 -0.61763098996E+03  0.92832163943E+03  0.12699999809E+01 0. -1.
       -4    1    3    3    0  502  0.53229509254E+03  0.44381679559E+03  0.18015856120E+04  0.19302911034E+04  0.12699999809E+01 0.  1.
</event>
<event>
 5   0  0.1122628E-06  0.2589806E+04  0.7818609E-02  0.8371672E-01
       -1   -1    0    0    0  501  0.00000000000E+00  0.00000000000E+00  0.13023797092E+04  0.13023797092E+04  0.50400001928E-02 0. -1.
        1   -1    0    0  501    0  0.00000000000E+00  0.00000000000E+00 -0.12874689813E+04  0.12874689813E+04  0.50400001928E-02 0.  1.
    10030    2    1    2    0    0  0.00000000000E+00  0.00000000000E+00  0.14910727963E+02  0.25898486905E+04  0.25898057669E+04 0.  0.
        2    1    3    3  502    0  0.58711422697E+03 -0.32468900820E+03 -0.11001041475E+04  0.12885477107E+04  0.25500000920E-02 0.  1.
       -2    1    3    3    0  502 -0.58711422697E+03  0.32468900820E+03  0.11150148754E+04  0.13013009798E+04  0.25500000920E-02 0. -1.
</event>
<event>
 5   0  0.1088757E-06  0.2604516E+04  0.7818609E-02  0.8366669E-01
        1   -1    0    0  501    0  0.00000000000E+00  0.00000000000E+00  0.12088111026E+04  0.12088111026E+04  0.50400001928E-02 0. -1.
       -1   -1    0    0    0  501  0.00000000000E+00  0.00000000000E+00 -0.14029290798E+04  0.14029290799E+04  0.50400001928E-02 0.  1.
    10030    2    1    2    0    0  0.00000000000E+00  0.00000000000E+00 -0.19411797725E+03  0.26117401825E+04  0.26045162683E+04 0.  0.
        5    1    3    3  502    0 -0.10326936019E+04  0.66388128346E+03 -0.53261347734E+03  0.13382427433E+04  0.46999998093E+01 0.  1.
       -5    1    3    3    0  502  0.10326936019E+04 -0.66388128346E+03  0.33849550009E+03  0.12734974391E+04  0.46999998093E+01 0. -1.
</event>
<event>
 5   0  0.1122628E-06  0.2599554E+04  0.7818609E-02  0.8368353E-01
        1   -1    0    0  501    0  0.00000000000E+00  0.00000000000E+00  0.12104637567E+04  0.12104637567E+04  0.50400001928E-02 0. -1.
       -1   -1    0    0    0  501  0.00000000000E+00  0.00000000000E+00 -0.13956805410E+04  0.13956805410E+04  0.50400001928E-02 0.  1.
    10030    2    1    2    0    0  0.00000000000E+00  0.00000000000E+00 -0.18521678424E+03  0.26061442977E+04  0.25995543547E+04 0.  0.
        2    1    3    3  502    0  0.79218227981E+03  0.10255481338E+04  0.82397134932E+01  0.12959049472E+04  0.25500000920E-02 0. -1.
       -2    1    3    3    0  502 -0.79218227981E+03 -0.10255481338E+04 -0.19345649773E+03  0.13102393505E+04  0.25500000920E-02 0.  1.
</event>
<event>
 5   0  0.9197000E-07  0.2598851E+04  0.7818609E-02  0.8368592E-01
        3   -1    0    0  501    0  0.00000000000E+00  0.00000000000E+00  0.25533231148E+04  0.25533231168E+04  0.10100000352E+00 0.  1.
       -3   -1    0    0    0  501  0.00000000000E+00  0.00000000000E+00 -0.66129764795E+03  0.66129765566E+03  0.10100000352E+00 0. -1.
    10030    2    1    2    0    0  0.00000000000E+00  0.00000000000E+00  0.18920254668E+04  0.32146207724E+04  0.25988509660E+04 0.  0.
        3    1    3    3  502    0 -0.83728578138E+03 -0.17873193414E+03 -0.26310028455E+03  0.89566419707E+03  0.10100000352E+00 0. -1.
       -3    1    3    3    0  502  0.83728578138E+03  0.17873193414E+03  0.21551257514E+04  0.23189565754E+04  0.10100000352E+00 0.  1.
</event>
<event>
 5   0  0.2746631E-06  0.2594071E+04  0.7818609E-02  0.8370218E-01
        2   -1    0    0  501    0  0.00000000000E+00  0.00000000000E+00  0.13248868752E+04  0.13248868752E+04  0.25500000920E-02 0. -1.
       -2   -1    0    0    0  501  0.00000000000E+00  0.00000000000E+00 -0.12697697700E+04  0.12697697700E+04  0.25500000920E-02 0.  1.
    10030    2    1    2    0    0  0.00000000000E+00  0.00000000000E+00  0.55117105125E+02  0.25946566452E+04  0.25940711654E+04 0.  0.
        2    1    3    3  502    0 -0.98941993058E+03 -0.63632734132E+03  0.57397574452E+03  0.13089356133E+04  0.25500000920E-02 0.  1.
       -2    1    3    3    0  502  0.98941993058E+03  0.63632734132E+03 -0.51885863940E+03  0.12857210320E+04  0.25500000920E-02 0. -1.
</event>
<event>
 5   0  0.2820028E-06  0.2587017E+04  0.7818609E-02  0.8372625E-01
       -2   -1    0    0    0  501  0.00000000000E+00  0.00000000000E+00  0.13142664328E+04  0.13142664328E+04  0.25500000920E-02 0. -1.
        2   -1    0    0  501    0  0.00000000000E+00  0.00000000000E+00 -0.12730787066E+04  0.12730787066E+04  0.25500000920E-02 0.  1.
    10030    2    1    2    0    0  0.00000000000E+00  0.00000000000E+00  0.41187726134E+02  0.25873451394E+04  0.25870172867E+04 0.  0.
        3    1    3    3  502    0  0.59313433509E+03  0.13204234612E+03  0.11626322128E+04  0.13118525806E+04  0.10100000352E+00 0. -1.
       -3    1    3    3    0  502 -0.59313433509E+03 -0.13204234612E+03 -0.11214444867E+04  0.12754925588E+04  0.10100000352E+00 0.  1.
</event>
<event>
 5   0  0.2746631E-06  0.2600273E+04  0.7818609E-02  0.8368109E-01
        2   -1    0    0  501    0  0.00000000000E+00  0.00000000000E+00  0.27366124556E+04  0.27366124556E+04  0.25500000920E-02 0.  1.
       -2   -1    0    0    0  501  0.00000000000E+00  0.00000000000E+00 -0.61768145038E+03  0.61768145038E+03  0.25500000920E-02 0. -1.
    10030    2    1    2    0    0  0.00000000000E+00  0.00000000000E+00  0.21189310052E+04  0.33542939060E+04  0.26002728708E+04 0.  0.
        2    1    3    3  502    0 -0.58176765849E+03 -0.65552760882E+03  0.22982368272E+04  0.24596874941E+04  0.25500000920E-02 0.  1.
       -2    1    3    3    0  502  0.58176765849E+03  0.65552760882E+03 -0.17930582203E+03  0.89460641190E+03  0.25500000920E-02 0. -1.
</event>
<event>
 5   0  0.1055179E-06  0.2600631E+04  0.7818609E-02  0.8367987E-01
       -1   -1    0    0    0  501  0.00000000000E+00  0.00000000000E+00  0.94177157384E+03  0.94177157385E+03  0.50400001928E-02 0. -1.
        1   -1    0    0  501    0  0.00000000000E+00  0.00000000000E+00 -0.17953611570E+04  0.17953611570E+04  0.50400001928E-02 0.  1.
    10030    2    1    2    0    0  0.00000000000E+00  0.00000000000E+00 -0.85358958312E+03  0.27371327308E+04  0.26006307715E+04 0.  0.
        3    1    3    3  502    0 -0.19394331083E+03  0.12121375636E+04  0.24584683242E+02  0.12278012453E+04  0.10100000352E+00 0.  1.
       -3    1    3    3    0  502  0.19394331083E+03 -0.12121375636E+04 -0.87817426636E+03  0.15093314856E+04  0.10100000352E+00 0. -1.
</event>
<event>
 5   0  0.1088757E-06  0.2600461E+04  0.7818609E-02  0.8368045E-01
       -1   -1    0    0    0  501  0.00000000000E+00  0.00000000000E+00  0.10088327149E+04  0.10088327149E+04  0.50400001928E-02 0.  1.
        1   -1    0    0  501    0  0.00000000000E+00  0.00000000000E+00 -0.16757974996E+04  0.16757974996E+04  0.50400001928E-02 0. -1.
    10030    2    1    2    0    0  0.00000000000E+00  0.00000000000E+00 -0.66696478467E+03  0.26846302144E+04  0.26004609907E+04 0.  0.
        5    1    3    3  502    0 -0.10752370094E+03 -0.15141468237E+03 -0.16620266665E+04  0.16723762982E+04  0.46999998093E+01 0. -1.
       -5    1    3    3    0  502  0.10752370094E+03  0.15141468237E+03  0.99506188187E+03  0.10122539163E+04  0.46999998093E+01 0.  1.
</event>
<event>
 5   0  0.2623368E-06  0.2596772E+04  0.7818609E-02  0.8369298E-01
       -2   -1    0    0    0  501  0.00000000000E+00  0.00000000000E+00  0.98459162240E+03  0.98459162240E+03  0.25500000920E-02 0.  1.
        2   -1    0    0  501    0  0.00000000000E+00  0.00000000000E+00 -0.17121886688E+04  0.17121886688E+04  0.25500000920E-02 0. -1.
    10030    2    1    2    0    0  0.00000000000E+00  0.00000000000E+00 -0.72759704644E+03  0.26967802913E+04  0.25967723191E+04 0.  0.
        5    1    3    3  502    0 -0.76568676972E+03 -0.12694314688E+03 -0.14447466493E+04  0.16400322443E+04  0.46999998093E+01 0. -1.
       -5    1    3    3    0  502  0.76568676972E+03  0.12694314688E+03  0.71714960282E+03  0.10567480469E+04  0.46999998093E+01 0.  1.
</event>
<event>
 5   0  0.1088757E-06  0.2600689E+04  0.7818609E-02  0.8367967E-01
       -1   -1    0    0    0  501  0.00000000000E+00  0.00000000000E+00  0.10823967149E+04  0.10823967149E+04  0.50400001928E-02 0. -1.
        1   -1    0    0  501    0  0.00000000000E+00  0.00000000000E+00 -0.15621778131E+04  0.15621778131E+04  0.50400001928E-02 0.  1.
    10030    2    1    2    0    0  0.00000000000E+00  0.00000000000E+00 -0.47978109818E+03  0.26445745281E+04  0.26006892418E+04 0.  0.
        5    1    3    3  502    0  0.87585958416E+03  0.83824737552E+03 -0.71802204312E+03  0.14090303113E+04  0.46999998093E+01 0.  1.
       -5    1    3    3    0  502 -0.87585958416E+03 -0.83824737552E+03  0.23824094495E+03  0.12355442168E+04  0.46999998093E+01 0. -1.
</event>
<event>
 5   0  0.1122628E-06  0.2611867E+04  0.7818609E-02  0.8364182E-01
        1   -1    0    0  501    0  0.00000000000E+00  0.00000000000E+00  0.16220771113E+04  0.16220771113E+04  0.50400001928E-02 0. -1.
       -1   -1    0    0    0  501  0.00000000000E+00  0.00000000000E+00 -0.10514061213E+04  0.10514061213E+04  0.50400001928E-02 0.  1.
    10030    2    1    2    0    0  0.00000000000E+00  0.00000000000E+00  0.57067099005E+03  0.26734832326E+04  0.26118666153E+04 0.  0.
        2    1    3    3  502    0  0.32693176698E+03  0.54808933178E+03  0.14515895748E+04  0.15856855267E+04  0.25500000920E-02 0. -1.
       -2    1    3    3    0  502 -0.32693176698E+03 -0.54808933178E+03 -0.88091858478E+03  0.10877977059E+04  0.25500000920E-02 0.  1.
</event>
<event>
 5   0  0.2623368E-06  0.2600981E+04  0.7818609E-02  0.8367868E-01
        2   -1    0    0  501    0  0.00000000000E+00  0.00000000000E+00  0.13743132790E+04  0.13743132790E+04  0.25500000920E-02 0. -1.
       -2   -1    0    0    0  501  0.00000000000E+00  0.00000000000E+00 -0.12306332404E+04  0.12306332404E+04  0.25500000920E-02 0.  1.
    10030    2    1    2    0    0  0.00000000000E+00  0.00000000000E+00  0.14368003859E+03  0.26049465194E+04  0.26009810486E+04 0.  0.
        5    1    3    3  502    0 -0.26620989576E+02 -0.11259986220E+04  0.72296346274E+03  0.13383870264E+04  0.46999998093E+01 0. -1.
       -5    1    3    3    0  502  0.26620989576E+02  0.11259986220E+04 -0.57928342415E+03  0.12665594930E+04  0.46999998093E+01 0.  1.
</event>
<event>
 5   0  0.1032076E-06  0.2600969E+04  0.7818609E-02  0.8367872E-01
        1   -1    0    0  501    0  0.00000000000E+00  0.00000000000E+00  0.14253672707E+04  0.14253672707E+04  0.50400001928E-02 0. -1.
       -1   -1    0    0    0  501  0.00000000000E+00  0.00000000000E+00 -0.11865437010E+04  0.11865437010E+04  0.50400001928E-02 0.  1.
    10030    2    1    2    0    0  0.00000000000E+00  0.00000000000E+00  0.23882356969E+03  0.26119109717E+04  0.26009694782E+04 0.  0.
        1    1    3    3  502    0 -0.11089642938E+03 -0.62415618459E+03  0.12597023512E+04  0.14102194774E+04  0.50400001928E-02 0. -1.
       -1    1    3    3    0  502  0.11089642938E+03  0.62415618459E+03 -0.10208787815E+04  0.12016914943E+04  0.50400001928E-02 0.  1.
</event>
<event>
 5   0  0.2820028E-06  0.2596214E+04  0.7818609E-02  0.8369488E-01
        2   -1    0    0  501    0  0.00000000000E+00  0.00000000000E+00  0.13605737823E+04  0.13605737823E+04  0.25500000920E-02 0.  1.
       -2   -1    0    0    0  501  0.00000000000E+00  0.00000000000E+00 -0.12385082963E+04  0.12385082963E+04  0.25500000920E-02 0. -1.
    10030    2    1    2    0    0  0.00000000000E+00  0.00000000000E+00  0.12206548600E+03  0.25990820785E+04  0.25962141029E+04 0.  0.
        3    1    3    3  502    0  0.87231832285E+03 -0.30717642309E+03  0.97296453655E+03  0.13423697743E+04  0.10100000352E+00 0.  1.
       -3    1    3    3    0  502 -0.87231832285E+03  0.30717642309E+03 -0.85089905055E+03  0.12567123043E+04  0.10100000352E+00 0. -1.
</event>
<event>
 5   0  0.2586775E-06  0.2602704E+04  0.7818609E-02  0.8367283E-01
        2   -1    0    0  501    0  0.00000000000E+00  0.00000000000E+00  0.23199702938E+04  0.23199702938E+04  0.25500000920E-02 0.  1.
       -2   -1    0    0    0  501  0.00000000000E+00  0.00000000000E+00 -0.72997331752E+03  0.72997331752E+03  0.25500000920E-02 0. -1.
    10030    2    1    2    0    0  0.00000000000E+00  0.00000000000E+00  0.15899969763E+04  0.30499436113E+04  0.26027035266E+04 0.  0.
        1    1    3    3  502    0  0.64852323518E+03  0.10567925312E+04  0.33197678494E+03  0.12835892747E+04  0.50400001928E-02 0. -1.
       -1    1    3    3    0  502 -0.64852323518E+03 -0.10567925312E+04  0.12580201913E+04  0.17663543366E+04  0.50400001928E-02 0.  1.
</event>
<event>
 5   0  0.2820028E-06  0.2596937E+04  0.7818609E-02  0.8369242E-01
       -2   -1    0    0    0  501  0.00000000000E+00  0.00000000000E+00  0.11914376704E+04  0.11914376704E+04  0.25500000920E-02 0. -1.
        2   -1    0    0  501    0  0.00000000000E+00  0.00000000000E+00 -0.14151139021E+04  0.14151139021E+04  0.25500000920E-02 0.  1.
    10030    2    1    2    0    0  0.00000000000E+00  0.00000000000E+00 -0.22367623176E+03  0.26065515725E+04  0.25969366653E+04 0.  0.
        3    1    3    3  502    0 -0.11674491451E+04 -0.40287316133E+03  0.29061489634E+03  0.12687400517E+04  0.10100000352E+00 0.  1.
       -3    1    3    3    0  502  0.11674491451E+04  0.40287316133E+03 -0.51429112810E+03  0.13378115208E+04  0.10100000352E+00 0. -1.
</event>
<event>
 5   0  0.1122628E-06  0.2600041E+04  0.7818609E-02  0.8368187E-01
        1   -1    0    0  501    0  0.00000000000E+00  0.00000000000E+00  0.11226894508E+04  0.11226894508E+04  0.50400001928E-02 0.  1.
       -1   -1    0    0    0  501  0.00000000000E+00  0.00000000000E+00 -0.15053609103E+04  0.15053609103E+04  0.50400001928E-02 0. -1.
    10030    2    1    2    0    0  0.00000000000E+00  0.00000000000E+00 -0.38267145950E+03  0.26280503610E+04  0.26000406255E+04 0.  0.
        2    1    3    3  502    0  0.23470155296E+03  0.11060547485E+04  0.45714485277E+03  0.12195996647E+04  0.25500000920E-02 0.  1.
       -2    1    3    3    0  502 -0.23470155296E+03 -0.11060547485E+04 -0.83981631226E+03  0.14084506964E+04  0.25500000920E-02 0. -1.
</event>
<event>
 5   0  0.2705807E-06  0.2593376E+04  0.7818609E-02  0.8370455E-01
       -2   -1    0    0    0  501  0.00000000000E+00  0.00000000000E+00  0.18110564793E+04  0.18110564793E+04  0.25500000920E-02 0. -1.
        2   -1    0    0  501    0  0.00000000000E+00  0.00000000000E+00 -0.92840815902E+03  0.92840815903E+03  0.25500000920E-02 0.  1.
    10030    2    1    2    0    0  0.00000000000E+00  0.00000000000E+00  0.88264832030E+03  0.27394646383E+04  0.25933758785E+04 0.  0.
        4    1    3    3  502    0  0.66489880875E+03 -0.25857423075E+03 -0.70246724966E+03  0.10012057273E+04  0.12699999809E+01 0.  1.
       -4    1    3    3    0  502 -0.66489880875E+03  0.25857423075E+03  0.15851155700E+04  0.17382589110E+04  0.12699999809E+01 0. -1.
</event>
<event>
 5   0  0.1088757E-06  0.2593547E+04  0.7818609E-02  0.8370396E-01
       -1   -1    0    0    0  501  0.00000000000E+00  0.00000000000E+00  0.84441135849E+03  0.84441135851E+03  0.50400001928E-02 0. -1.
        1   -1    0    0  501    0  0.00000000000E+00  0.00000000000E+00 -0.19914721977E+04  0.19914721978E+04  0.50400001928E-02 0.  1.
    10030    2    1    2    0    0  0.00000000000E+00  0.00000000000E+00 -0.11470608393E+04  0.28358835563E+04  0.25935471802E+04 0.  0.
        5    1    3    3  502    0  0.11440321328E+04  0.56692382094E+03 -0.32566094439E+03  0.13176833004E+04  0.46999998093E+01 0. -1.
       -5    1    3    3    0  502 -0.11440321328E+04 -0.56692382094E+03 -0.82139989487E+03  0.15182002558E+04  0.46999998093E+01 0.  1.
</event>
<event>
 5   0  0.9197000E-07  0.2613466E+04  0.7818609E-02  0.8363641E-01
       -4   -1    0    0    0  501  0.00000000000E+00  0.00000000000E+00  0.17530887376E+04  0.17530891976E+04  0.12699999809E+01 0.  1.
        4   -1    0    0  501    0  0.00000000000E+00  0.00000000000E+00 -0.97402334255E+03  0.97402417051E+03  0.12699999809E+01 0. -1.
    10030    2    1    2    0    0  0.00000000000E+00  0.00000000000E+00  0.77906539507E+03  0.27271133682E+04  0.26134659808E+04 0.  0.
        3    1    3    3  502    0 -0.10875372658E+03 -0.77032792964E+03 -0.70603674349E+03  0.10505809753E+04  0.10100000352E+00 0. -1.
       -3    1    3    3    0  502  0.10875372658E+03  0.77032792964E+03  0.14851021386E+04  0.16765323929E+04  0.10100000352E+00 0.  1.
</event>
<event>
 5   0  0.9197000E-07  0.2608654E+04  0.7818609E-02  0.8365268E-01
        3   -1    0    0  501    0  0.00000000000E+00  0.00000000000E+00  0.13793194809E+04  0.13793194846E+04  0.10100000352E+00 0.  1.
       -3   -1    0    0    0  501  0.00000000000E+00  0.00000000000E+00 -0.12334113690E+04  0.12334113731E+04  0.10100000352E+00 0. -1.
    10030    2    1    2    0    0  0.00000000000E+00  0.00000000000E+00  0.14590811187E+03  0.26127308577E+04  0.26086535526E+04 0.  0.
        4    1    3    3  502    0 -0.95990383225E+03 -0.42020991386E+03 -0.70496772007E+03  0.12629223405E+04  0.12699999809E+01 0. -1.
       -4    1    3    3    0  502  0.95990383225E+03  0.42020991386E+03  0.85087583194E+03  0.13498085172E+04  0.12699999809E+01 0.  1.
</event>
<event>
 5   0  0.1122628E-06  0.2602121E+04  0.7818609E-02  0.8367481E-01
        1   -1    0    0  501    0  0.00000000000E+00  0.00000000000E+00  0.16011946181E+04  0.16011946181E+04  0.50400001928E-02 0.  1.
       -1   -1    0    0    0  501  0.00000000000E+00  0.00000000000E+00 -0.10571850775E+04  0.10571850775E+04  0.50400001928E-02 0. -1.
    10030    2    1    2    0    0  0.00000000000E+00  0.00000000000E+00  0.54400954062E+03  0.26583796956E+04  0.26021214856E+04 0.  0.
        2    1    3    3  502    0  0.32988831900E+03  0.94289074424E+03  0.11236278258E+04  0.15034655797E+04  0.25500000920E-02 0.  1.
       -2    1    3    3    0  502 -0.32988831900E+03 -0.94289074424E+03 -0.57961828515E+03  0.11549141159E+04  0.25500000920E-02 0. -1.
</event>
<event>
 5   0  0.1055179E-06  0.2597985E+04  0.7818609E-02  0.8368886E-01
        1   -1    0    0  501    0  0.00000000000E+00  0.00000000000E+00  0.15742103692E+04  0.15742103692E+04  0.50400001928E-02 0.  1.
       -1   -1    0    0    0  501  0.00000000000E+00  0.00000000000E+00 -0.10718908277E+04  0.10718908277E+04  0.50400001928E-02 0. -1.
    10030    2    1    2    0    0  0.00000000000E+00  0.00000000000E+00  0.50231954144E+03  0.26461011969E+04  0.25979851082E+04 0.  0.
        3    1    3    3  502    0 -0.16825085915E+03 -0.49605102567E+03 -0.95955516052E+03  0.10932159384E+04  0.10100000352E+00 0. -1.
       -3    1    3    3    0  502  0.16825085915E+03  0.49605102567E+03  0.14618747020E+04  0.15528852585E+04  0.10100000352E+00 0.  1.
</event>
<event>
 5   0  0.1088757E-06  0.2601095E+04  0.7818609E-02  0.8367829E-01
        1   -1    0    0  501    0  0.00000000000E+00  0.00000000000E+00  0.11854434381E+04  0.11854434381E+04  0.50400001928E-02 0. -1.
       -1   -1    0    0    0  501  0.00000000000E+00  0.00000000000E+00 -0.14268284363E+04  0.14268284363E+04  0.50400001928E-02 0.  1.
    10030    2    1    2    0    0  0.00000000000E+00  0.00000000000E+00 -0.24138499817E+03  0.26122718745E+04  0.26010954671E+04 0.  0.
        5    1    3    3  502    0 -0.11922904161E+04  0.44632633649E+03  0.14622889040E+03  0.12814712690E+04  0.46999998093E+01 0.  1.
       -5    1    3    3    0  502  0.11922904161E+04 -0.44632633649E+03 -0.38761388856E+03  0.13308006055E+04  0.46999998093E+01 0. -1.
</event>
<event>
 5   0  0.2623368E-06  0.2605281E+04  0.7818609E-02  0.8366409E-01
       -2   -1    0    0    0  501  0.00000000000E+00  0.00000000000E+00  0.90421912191E+03  0.90421912191E+03  0.25500000920E-02 0.  1.
        2   -1    0    0  501    0  0.00000000000E+00  0.00000000000E+00 -0.18766169188E+04  0.18766169188E+04  0.25500000920E-02 0. -1.
    10030    2    1    2    0    0  0.00000000000E+00  0.00000000000E+00 -0.97239779689E+03  0.27808360407E+04  0.26052814838E+04 0.  0.
        5    1    3    3  502    0  0.94001290994E+03  0.32937655871E+03  0.40985567243E+03  0.10770872530E+04  0.46999998093E+01 0. -1.
       -5    1    3    3    0  502 -0.94001290994E+03 -0.32937655871E+03 -0.13822534693E+04  0.17037487877E+04  0.46999998093E+01 0.  1.
</event>
<event>
 5   0  0.1032076E-06  0.2605405E+04  0.7818609E-02  0.8366368E-01
       -1   -1    0    0    0  501  0.00000000000E+00  0.00000000000E+00  0.81103120085E+03  0.81103120086E+03  0.50400001928E-02 0.  1.
        1   -1    0    0  501    0  0.00000000000E+00  0.00000000000E+00 -0.20924391692E+04  0.20924391692E+04  0.50400001928E-02 0. -1.
    10030    2    1    2    0    0  0.00000000000E+00  0.00000000000E+00 -0.12814079684E+04  0.29034703701E+04  0.26054047303E+04 0.  0.
        1    1    3    3  502    0 -0.16788076357E+03 -0.11000049521E+04 -0.13955740038E+04  0.17848870120E+04  0.50400001928E-02 0. -1.
       -1    1    3    3    0  502  0.16788076357E+03  0.11000049521E+04  0.11416603545E+03  0.11185833581E+04  0.50400001928E-02 0.  1.
</event>
<event>
 5   0  0.1088757E-06  0.2598775E+04  0.7818609E-02  0.8368617E-01
       -1   -1    0    0    0  501  0.00000000000E+00  0.00000000000E+00  0.79212411523E+03  0.79212411524E+03  0.50400001928E-02 0. -1.
        1   -1    0    0  501    0  0.00000000000E+00  0.00000000000E+00 -0.21314937804E+04  0.21314937804E+04  0.50400001928E-02 0.  1.
    10030    2    1    2    0    0  0.00000000000E+00  0.00000000000E+00 -0.13393696652E+04  0.29236178957E+04  0.25987748074E+04 0.  0.
        5    1    3    3  502    0  0.12756851270E+04  0.22426472916E+03 -0.78615518272E+03  0.15151664177E+04  0.46999998093E+01 0. -1.
       -5    1    3    3    0  502 -0.12756851270E+04 -0.22426472916E+03 -0.55321448246E+03  0.14084514779E+04  0.46999998093E+01 0.  1.
</event>
<event>
 5   0  0.1100104E-06  0.2601779E+04  0.7818609E-02  0.8367597E-01
        1   -1    0    0  501    0  0.00000000000E+00  0.00000000000E+00  0.17438248649E+04  0.17438248650E+04  0.50400001928E-02 0.  1.
       -1   -1    0    0    0  501  0.00000000000E+00  0.00000000000E+00 -0.97046039872E+03  0.97046039873E+03  0.50400001928E-02 0. -1.
    10030    2    1    2    0    0  0.00000000000E+00  0.00000000000E+00  0.77336446623E+03  0.27142852637E+04  0.26017786022E+04 0.  0.
        4    1    3    3  502    0  0.77507487739E+03 -0.99403418589E+03  0.51111034635E+02  0.12615304115E+04  0.12699999809E+01 0. -1.
       -4    1    3    3    0  502 -0.77507487739E+03  0.99403418589E+03  0.72225343159E+03  0.14527548522E+04  0.12699999809E+01 0.  1.
</event>
<event>
 5   0  0.1122628E-06  0.2593664E+04  0.7818609E-02  0.8370357E-01
        1   -1    0    0  501    0  0.00000000000E+00  0.00000000000E+00  0.10274068851E+04  0.10274068851E+04  0.50400001928E-02 0.  1.
       -1   -1    0    0    0  501  0.00000000000E+00  0.00000000000E+00 -0.16369105016E+04  0.16369105016E+04  0.50400001928E-02 0. -1.
    10030    2    1    2    0    0  0.00000000000E+00  0.00000000000E+00 -0.60950361654E+03  0.26643173867E+04  0.25936639101E+04 0.  0.
        2    1    3    3  502    0  0.69055555842E+03 -0.47161939200E+03 -0.13229548827E+04  0.15650883208E+04  0.25500000920E-02 0. -1.
       -2    1    3    3    0  502 -0.69055555842E+03  0.47161939200E+03  0.71345126618E+03  0.10992290659E+04  0.25500000920E-02 0.  1.
</event>
<event>
 5   0  0.2746631E-06  0.2602074E+04  0.7818609E-02  0.8367497E-01
        2   -1    0    0  501    0  0.00000000000E+00  0.00000000000E+00  0.19619383661E+04  0.19619383661E+04  0.25500000920E-02 0.  1.
       -2   -1    0    0    0  501  0.00000000000E+00  0.00000000000E+00 -0.86276778627E+03  0.86276778627E+03  0.25500000920E-02 0. -1.
    10030    2    1    2    0    0  0.00000000000E+00  0.00000000000E+00  0.10991705798E+04  0.28247061523E+04  0.26020739581E+04 0.  0.
        2    1    3    3  502    0  0.10280254475E+04  0.54134874564E+03 -0.86002563855E+02  0.11650284229E+04  0.25500000920E-02 0. -1.
       -2    1    3    3    0  502 -0.10280254475E+04 -0.54134874564E+03  0.11851731437E+04  0.16596777294E+04  0.25500000920E-02 0.  1.
</event>
<event>
 5   0  0.2820028E-06  0.2599310E+04  0.7818609E-02  0.8368436E-01
        2   -1    0    0  501    0  0.00000000000E+00  0.00000000000E+00  0.11226601576E+04  0.11226601576E+04  0.25500000920E-02 0.  1.
       -2   -1    0    0    0  501  0.00000000000E+00  0.00000000000E+00 -0.15045540409E+04  0.15045540409E+04  0.25500000920E-02 0. -1.
    10030    2    1    2    0    0  0.00000000000E+00  0.00000000000E+00 -0.38189388334E+03  0.26272141985E+04  0.25993098135E+04 0.  0.
        3    1    3    3  502    0 -0.11848605175E+04 -0.48790236524E+03 -0.41044109910E+03  0.13455129394E+04  0.10100000352E+00 0.  1.
       -3    1    3    3    0  502  0.11848605175E+04  0.48790236524E+03  0.28547215765E+02  0.12817012592E+04  0.10100000352E+00 0. -1.
</event>
<event>
 5   0  0.2705807E-06  0.2606917E+04  0.7818609E-02  0.8365856E-01
        2   -1    0    0  501    0  0.00000000000E+00  0.00000000000E+00  0.20404193188E+04  0.20404193188E+04  0.25500000920E-02 0. -1.
       -2   -1    0    0    0  501  0.00000000000E+00  0.00000000000E+00 -0.83267374701E+03  0.83267374701E+03  0.25500000920E-02 0.  1.
    10030    2    1    2    0    0  0.00000000000E+00  0.00000000000E+00  0.12077455718E+04  0.28730930658E+04  0.26069166459E+04 0.  0.
        4    1    3    3  502    0  0.87372703177E+03 -0.40039124389E+03  0.15742813384E+04  0.18444715827E+04  0.12699999809E+01 0.  1.
       -4    1    3    3    0  502 -0.87372703177E+03  0.40039124389E+03 -0.36653576663E+03  0.10286214830E+04  0.12699999809E+01 0. -1.
</event>
<event>
 5   0  0.1088757E-06  0.2596765E+04  0.7818609E-02  0.8369301E-01
       -1   -1    0    0    0  501  0.00000000000E+00  0.00000000000E+00  0.10132484308E+04  0.10132484308E+04  0.50400001928E-02 0. -1.
        1   -1    0    0  501    0  0.00000000000E+00  0.00000000000E+00 -0.16637555357E+04  0.16637555357E+04  0.50400001928E-02 0.  1.
    10030    2    1    2    0    0  0.00000000000E+00  0.00000000000E+00 -0.65050710493E+03  0.26770039665E+04  0.25967654386E+04 0.  0.
        5    1    3    3  502    0 -0.49409124469E+03 -0.44096067706E+02  0.91169901107E+03  0.10379247555E+04  0.46999998093E+01 0. -1.
       -5    1    3    3    0  502  0.49409124469E+03  0.44096067706E+02 -0.15622061160E+04  0.16390792111E+04  0.46999998093E+01 0.  1.
</event>
<event>
 5   0  0.2586775E-06  0.2601673E+04  0.7818609E-02  0.8367633E-01
        2   -1    0    0  501    0  0.00000000000E+00  0.00000000000E+00  0.13537665246E+04  0.13537665246E+04  0.25500000920E-02 0. -1.
       -2   -1    0    0    0  501  0.00000000000E+00  0.00000000000E+00 -0.12499757174E+04  0.12499757174E+04  0.25500000920E-02 0.  1.
    10030    2    1    2    0    0  0.00000000000E+00  0.00000000000E+00  0.10379080719E+03  0.26037422419E+04  0.26016727563E+04 0.  0.
        1    1    3    3  502    0 -0.12436637531E+04 -0.14204910479E+03 -0.30236046121E+03  0.12877497146E+04  0.50400001928E-02 0. -1.
       -1    1    3    3    0  502  0.12436637531E+04  0.14204910479E+03  0.40615126840E+03  0.13159925273E+04  0.50400001928E-02 0.  1.
</event>
<event>
 5   0  0.2623368E-06  0.2601888E+04  0.7818609E-02  0.8367560E-01
        2   -1    0    0  501    0  0.00000000000E+00  0.00000000000E+00  0.71388002612E+03  0.71388002612E+03  0.25500000920E-02 0. -1.
       -2   -1    0    0    0  501  0.00000000000E+00  0.00000000000E+00 -0.23707845822E+04  0.23707845822E+04  0.25500000920E-02 0.  1.
    10030    2    1    2    0    0  0.00000000000E+00  0.00000000000E+00 -0.16569045561E+04  0.30846646083E+04  0.26018883600E+04 0.  0.
        5    1    3    3  502    0 -0.72472496680E+03  0.62007321150E+03  0.22041748548E+03  0.97893974433E+03  0.46999998093E+01 0. -1.
       -5    1    3    3    0  502  0.72472496680E+03 -0.62007321150E+03 -0.18773220416E+04  0.21057248640E+04  0.46999998093E+01 0.  1.
</event>
<event>
 5   0  0.1100104E-06  0.2600793E+04  0.7818609E-02  0.8367932E-01
       -1   -1    0    0    0  501  0.00000000000E+00  0.00000000000E+00  0.10799467442E+04  0.10799467442E+04  0.50400001928E-02 0.  1.
        1   -1    0    0  501    0  0.00000000000E+00  0.00000000000E+00 -0.15658471708E+04  0.15658471708E+04  0.50400001928E-02 0. -1.
    10030    2    1    2    0    0  0.00000000000E+00  0.00000000000E+00 -0.48590042667E+03  0.26457939150E+04  0.26007933820E+04 0.  0.
        4    1    3    3  502    0  0.55800558517E+01 -0.38677957501E+03 -0.15059634165E+04  0.15548495109E+04  0.12699999809E+01 0. -1.
       -4    1    3    3    0  502 -0.55800558517E+01  0.38677957501E+03  0.10200629899E+04  0.10909444041E+04  0.12699999809E+01 0.  1.
</event>
<event>
 5   0  0.1122628E-06  0.2609225E+04  0.7818609E-02  0.8365074E-01
       -1   -1    0    0    0  501  0.00000000000E+00  0.00000000000E+00  0.11678401247E+04  0.11678401247E+04  0.50400001928E-02 0.  1.
        1   -1    0    0  501    0  0.00000000000E+00  0.00000000000E+00 -0.14574032298E+04  0.14574032298E+04  0.50400001928E-02 0. -1.
    10030    2    1    2    0    0  0.00000000000E+00  0.00000000000E+00 -0.28956310512E+03  0.26252433545E+04  0.26092251491E+04 0.  0.
        2    1    3    3  502    0 -0.10650343999E+04 -0.69244513861E+03 -0.44364961442E+03  0.13455866837E+04  0.25500000920E-02 0.  1.
       -2    1    3    3    0  502  0.10650343999E+04  0.69244513861E+03  0.15408650930E+03  0.12796566708E+04  0.25500000920E-02 0. -1.
</event>
<event>
 5   0  0.1122628E-06  0.2607066E+04  0.7818609E-02  0.8365805E-01
        1   -1    0    0  501    0  0.00000000000E+00  0.00000000000E+00  0.16241143280E+04  0.16241143280E+04  0.50400001928E-02 0.  1.
       -1   -1    0    0    0  501  0.00000000000E+00  0.00000000000E+00 -0.10462303317E+04  0.10462303318E+04  0.50400001928E-02 0. -1.
    10030    2    1    2    0    0  0.00000000000E+00  0.00000000000E+00  0.57788399624E+03  0.26703446597E+04  0.26070655321E+04 0.  0.
        2    1    3    3  502    0  0.98758464194E+03 -0.60738873583E+03  0.89918232112E+03  0.14672332289E+04  0.25500000920E-02 0. -1.
       -2    1    3    3    0  502 -0.98758464194E+03  0.60738873583E+03 -0.32129832489E+03  0.12031114308E+04  0.25500000920E-02 0.  1.
</event>
<event>
 5   0  0.1055179E-06  0.2571052E+04  0.7818609E-02  0.8378101E-01
       -1   -1    0    0    0  501  0.00000000000E+00  0.00000000000E+00  0.85231024728E+03  0.85231024730E+03  0.50400001928E-02 0. -1.
        1   -1    0    0  501    0  0.00000000000E+00  0.00000000000E+00 -0.19389377598E+04  0.19389377598E+04  0.50400001928E-02 0.  1.
    10030    2    1    2    0    0  0.00000000000E+00  0.00000000000E+00 -0.10866275125E+04  0.27912480071E+04  0.25710515526E+04 0.  0.
        3    1    3    3  502    0 -0.12422772500E+04  0.32117016062E+03 -0.45801308897E+03  0.13624166169E+04  0.10100000352E+00 0.  1.
       -3    1    3    3    0  502  0.12422772500E+04 -0.32117016062E+03 -0.62861442354E+03  0.14288313902E+04  0.10100000352E+00 0. -1.
</event>
<event>
 5   0  0.1122628E-06  0.2601127E+04  0.7818609E-02  0.8367818E-01
       -1   -1    0    0    0  501  0.00000000000E+00  0.00000000000E+00  0.12129485222E+04  0.12129485222E+04  0.50400001928E-02 0.  1.
        1   -1    0    0  501    0  0.00000000000E+00  0.00000000000E+00 -0.13945074453E+04  0.13945074453E+04  0.50400001928E-02 0. -1.
    10030    2    1    2    0    0  0.00000000000E+00  0.00000000000E+00 -0.18155892309E+03  0.26074559674E+04  0.26011272517E+04 0.  0.
        2    1    3    3  502    0 -0.90380388079E+03 -0.63095708357E+03  0.60118800117E+03  0.12555458211E+04  0.25500000920E-02 0.  1.
       -2    1    3    3    0  502  0.90380388079E+03  0.63095708357E+03 -0.78274692426E+03  0.13519101463E+04  0.25500000920E-02 0. -1.
</event>
<event>
 5   0  0.2746631E-06  0.2602159E+04  0.7818609E-02  0.8367468E-01
       -2   -1    0    0    0  501  0.00000000000E+00  0.00000000000E+00  0.57265864443E+03  0.57265864444E+03  0.25500000920E-02 0. -1.
        2   -1    0    0  501    0  0.00000000000E+00  0.00000000000E+00 -0.29560503084E+04  0.29560503084E+04  0.25500000920E-02 0.  1.
    10030    2    1    2    0    0  0.00000000000E+00  0.00000000000E+00 -0.23833916640E+04  0.35287089528E+04  0.26021589210E+04 0.  0.
        2    1    3    3  502    0  0.23555023680E+03 -0.11017720596E+04 -0.30928907886E+03  0.11683515394E+04  0.25500000920E-02 0. -1.
       -2    1    3    3    0  502 -0.23555023680E+03  0.11017720596E+04 -0.20741025851E+04  0.23603574134E+04  0.25500000920E-02 0.  1.
</event>
<event>
 5   0  0.2746631E-06  0.2594234E+04  0.7818609E-02  0.8370162E-01
       -2   -1    0    0    0  501  0.00000000000E+00  0.00000000000E+00  0.89287475825E+03  0.89287475825E+03  0.25500000920E-02 0.  1.
        2   -1    0    0  501    0  0.00000000000E+00  0.00000000000E+00 -0.18843775210E+04  0.18843775210E+04  0.25500000920E-02 0. -1.
    10030    2    1    2    0    0  0.00000000000E+00  0.00000000000E+00 -0.99150276275E+03  0.27772522793E+04  0.25942344717E+04 0.  0.
        2    1    3    3  502    0 -0.24833224509E+03 -0.11925012239E+04 -0.97305856011E+03  0.15590288754E+04  0.25500000920E-02 0.  1.
       -2    1    3    3    0  502  0.24833224509E+03  0.11925012239E+04 -0.18444202636E+02  0.12182234038E+04  0.25500000920E-02 0. -1.
</event>
<event>
 5   0  0.2820028E-06  0.2598197E+04  0.7818609E-02  0.8368814E-01
       -2   -1    0    0    0  501  0.00000000000E+00  0.00000000000E+00  0.10395726940E+04  0.10395726940E+04  0.25500000920E-02 0.  1.
        2   -1    0    0  501    0  0.00000000000E+00  0.00000000000E+00 -0.16234144221E+04  0.16234144221E+04  0.25500000920E-02 0. -1.
    10030    2    1    2    0    0  0.00000000000E+00  0.00000000000E+00 -0.58384172816E+03  0.26629871161E+04  0.25981973014E+04 0.  0.
        3    1    3    3  502    0 -0.11505037040E+04  0.42401317524E+03  0.14798031765E+03  0.12350482299E+04  0.10100000352E+00 0.  1.
       -3    1    3    3    0  502  0.11505037040E+04 -0.42401317524E+03 -0.73182204581E+03  0.14279388862E+04  0.10100000352E+00 0. -1.
</event>
<event>
 5   0  0.1032076E-06  0.2599857E+04  0.7818609E-02  0.8368250E-01
       -1   -1    0    0    0  501  0.00000000000E+00  0.00000000000E+00  0.11491913689E+04  0.11491913689E+04  0.50400001928E-02 0. -1.
        1   -1    0    0  501    0  0.00000000000E+00  0.00000000000E+00 -0.14704377341E+04  0.14704377341E+04  0.50400001928E-02 0.  1.
    10030    2    1    2    0    0  0.00000000000E+00  0.00000000000E+00 -0.32124636521E+03  0.26196291031E+04  0.25998571904E+04 0.  0.
        1    1    3    3  502    0 -0.43593456678E+03  0.70568323040E+03 -0.11691278662E+04  0.14334879615E+04  0.50400001928E-02 0.  1.
       -1    1    3    3    0  502  0.43593456678E+03 -0.70568323040E+03  0.84788150094E+03  0.11861411416E+04  0.50400001928E-02 0. -1.
</event>
<event>
 5   0  0.1122628E-06  0.2602251E+04  0.7818609E-02  0.8367437E-01
        1   -1    0    0  501    0  0.00000000000E+00  0.00000000000E+00  0.21075132061E+04  0.21075132061E+04  0.50400001928E-02 0. -1.
       -1   -1    0    0    0  501  0.00000000000E+00  0.00000000000E+00 -0.80328198999E+03  0.80328199000E+03  0.50400001928E-02 0.  1.
    10030    2    1    2    0    0  0.00000000000E+00  0.00000000000E+00  0.13042312161E+04  0.29107951961E+04  0.26022508735E+04 0.  0.
        2    1    3    3  502    0  0.31014878721E+03 -0.11827930597E+04  0.15471645635E+03  0.12325294617E+04  0.25500000920E-02 0. -1.
       -2    1    3    3    0  502 -0.31014878721E+03  0.11827930597E+04  0.11495147598E+04  0.16782657344E+04  0.25500000920E-02 0.  1.
</event>
<event>
 5   0  0.1122628E-06  0.2595375E+04  0.7818609E-02  0.8369774E-01
        1   -1    0    0  501    0  0.00000000000E+00  0.00000000000E+00  0.10274454169E+04  0.10274454169E+04  0.50400001928E-02 0.  1.
       -1   -1    0    0    0  501  0.00000000000E+00  0.00000000000E+00 -0.16390097825E+04  0.16390097825E+04  0.50400001928E-02 0. -1.
    10030    2    1    2    0    0  0.00000000000E+00  0.00000000000E+00 -0.61156436561E+03  0.26664551994E+04  0.25953751862E+04 0.  0.
        2    1    3    3  502    0  0.22510860266E+03  0.16276657552E+03  0.99654049120E+03  0.10345336107E+04  0.25500000920E-02 0.  1.
       -2    1    3    3    0  502 -0.22510860266E+03 -0.16276657552E+03 -0.16081048568E+04  0.16319215887E+04  0.25500000920E-02 0. -1.
</event>
<event>
 5   0  0.2820028E-06  0.2599428E+04  0.7818609E-02  0.8368396E-01
        2   -1    0    0  501    0  0.00000000000E+00  0.00000000000E+00  0.15626999845E+04  0.15626999845E+04  0.25500000920E-02 0.  1.
       -2   -1    0    0    0  501  0.00000000000E+00  0.00000000000E+00 -0.10809857570E+04  0.10809857570E+04  0.25500000920E-02 0. -1.
    10030    2    1    2    0    0  0.00000000000E+00  0.00000000000E+00  0.48171422744E+03  0.26436857415E+04  0.25994279568E+04 0.  0.
        3    1    3    3  502    0  0.70885245265E+03 -0.10866742985E+04  0.16258188398E+03  0.13075800969E+04  0.10100000352E+00 0.  1.
       -3    1    3    3    0  502 -0.70885245265E+03  0.10866742985E+04  0.31913234347E+03  0.13361056446E+04  0.10100000352E+00 0. -1.
</event>
<event>
 5   0  0.2746631E-06  0.2610370E+04  0.7818609E-02  0.8364687E-01
        2   -1    0    0  501    0  0.00000000000E+00  0.00000000000E+00  0.19707029250E+04  0.19707029250E+04  0.25500000920E-02 0.  1.
       -2   -1    0    0    0  501  0.00000000000E+00  0.00000000000E+00 -0.86441627014E+03  0.86441627015E+03  0.25500000920E-02 0. -1.
    10030    2    1    2    0    0  0.00000000000E+00  0.00000000000E+00  0.11062866548E+04  0.28351191951E+04  0.26103698374E+04 0.  0.
        2    1    3    3  502    0 -0.80037390310E+03  0.66227367268E+03  0.14113007148E+04  0.17524196158E+04  0.25500000920E-02 0. -1.
       -2    1    3    3    0  502  0.80037390310E+03 -0.66227367268E+03 -0.30501405995E+03  0.10826995793E+04  0.25500000920E-02 0.  1.
</event>
<event>
 5   0  0.2746631E-06  0.2600395E+04  0.7818609E-02  0.8368067E-01
       -2   -1    0    0    0  501  0.00000000000E+00  0.00000000000E+00  0.73944936889E+03  0.73944936889E+03  0.25500000920E-02 0. -1.
        2   -1    0    0  501    0  0.00000000000E+00  0.00000000000E+00 -0.22861796205E+04  0.22861796205E+04  0.25500000920E-02 0.  1.
    10030    2    1    2    0    0  0.00000000000E+00  0.00000000000E+00 -0.15467302517E+04  0.30256289894E+04  0.26003954142E+04 0.  0.
        2    1    3    3  502    0  0.10254575045E+04  0.64073340532E+03 -0.21728747338E+03  0.12285423218E+04  0.25500000920E-02 0. -1.
       -2    1    3    3    0  502 -0.10254575045E+04 -0.64073340532E+03 -0.13294427783E+04  0.17970866676E+04  0.25500000920E-02 0.  1.
</event>
<event>
 5   0  0.1100104E-06  0.2609650E+04  0.7818609E-02  0.8364931E-01
        1   -1    0    0  501    0  0.00000000000E+00  0.00000000000E+00  0.19381155545E+04  0.19381155545E+04  0.50400001928E-02 0. -1.
       -1   -1    0    0    0  501  0.00000000000E+00  0.00000000000E+00 -0.87846601185E+03  0.87846601187E+03  0.50400001928E-02 0.  1.
    10030    2    1    2    0    0  0.00000000000E+00  0.00000000000E+00  0.10596495427E+04  0.28165815664E+04  0.26096502767E+04 0.  0.
        4    1    3    3  502    0  0.54403079984E+03  0.54123898280E+03 -0.60915475967E+03  0.97978583467E+03  0.12699999809E+01 0.  1.
       -4    1    3    3    0  502 -0.54403079984E+03 -0.54123898280E+03  0.16688043023E+04  0.18367957317E+04  0.12699999809E+01 0. -1.
</event>
<event>
 5   0  0.1088757E-06  0.2597004E+04  0.7818609E-02  0.8369219E-01
       -1   -1    0    0    0  501  0.00000000000E+00  0.00000000000E+00  0.12281937412E+04  0.12281937412E+04  0.50400001928E-02 0. -1.
        1   -1    0    0  501    0  0.00000000000E+00  0.00000000000E+00 -0.13728354157E+04  0.13728354157E+04  0.50400001928E-02 0.  1.
    10030    2    1    2    0    0  0.00000000000E+00  0.00000000000E+00 -0.14464167447E+03  0.26010291569E+04  0.25970043244E+04 0.  0.
        5    1    3    3  502    0 -0.62320941574E+03  0.14305600858E+03  0.10595770139E+04  0.12375704165E+04  0.46999998093E+01 0. -1.
       -5    1    3    3    0  502  0.62320941574E+03 -0.14305600858E+03 -0.12042186883E+04  0.13634587404E+04  0.46999998093E+01 0.  1.
</event>
<event>
 5   0  0.2586775E-06  0.2604124E+04  0.7818609E-02  0.8366802E-01
       -2   -1    0    0    0  501  0.00000000000E+00  0.00000000000E+00  0.15122912282E+04  0.15122912282E+04  0.25500000920E-02 0.  1.
        2   -1    0    0  501    0  0.00000000000E+00  0.00000000000E+00 -0.11210572520E+04  0.11210572520E+04  0.25500000920E-02 0. -1.
    10030    2    1    2    0    0  0.00000000000E+00  0.00000000000E+00  0.39123397616E+03  0.26333484802E+04  0.26041236903E+04 0.  0.
        1    1    3    3  502    0  0.39694204702E+03 -0.14078290606E+03  0.14415080507E+04  0.15017750416E+04  0.50400001928E-02 0.  1.
       -1    1    3    3    0  502 -0.39694204702E+03  0.14078290606E+03 -0.10502740745E+04  0.11315734386E+04  0.50400001928E-02 0. -1.
</event>
<event>
 5   0  0.2820028E-06  0.2601017E+04  0.7818609E-02  0.8367856E-01
       -2   -1    0    0    0  501  0.00000000000E+00  0.00000000000E+00  0.10036770620E+04  0.10036770620E+04  0.25500000920E-02 0. -1.
        2   -1    0    0  501    0  0.00000000000E+00  0.00000000000E+00 -0.16851259860E+04  0.16851259860E+04  0.25500000920E-02 0.  1.
    10030    2    1    2    0    0  0.00000000000E+00  0.00000000000E+00 -0.68144892397E+03  0.26888030480E+04  0.26010169539E+04 0.  0.
        3    1    3    3  502    0 -0.32716860594E+03  0.34177240770E+03 -0.15930034890E+04  0.16617785056E+04  0.10100000352E+00 0.  1.
       -3    1    3    3    0  502  0.32716860594E+03 -0.34177240770E+03  0.91155456505E+03  0.10270245424E+04  0.10100000352E+00 0. -1.
</event>
<event>
 5   0  0.1122628E-06  0.2602017E+04  0.7818609E-02  0.8367516E-01
       -1   -1    0    0    0  501  0.00000000000E+00  0.00000000000E+00  0.87376884686E+03  0.87376884687E+03  0.50400001928E-02 0.  1.
        1   -1    0    0  501    0  0.00000000000E+00  0.00000000000E+00 -0.19371516387E+04  0.19371516387E+04  0.50400001928E-02 0. -1.
    10030    2    1    2    0    0  0.00000000000E+00  0.00000000000E+00 -0.10633827918E+04  0.28109204856E+04  0.26020167206E+04 0.  0.
        2    1    3    3  502    0  0.95978808059E+03  0.35190006233E+03 -0.14010331443E+04  0.17343358052E+04  0.25500000920E-02 0. -1.
       -2    1    3    3    0  502 -0.95978808059E+03 -0.35190006233E+03  0.33765035252E+03  0.10765846804E+04  0.25500000920E-02 0.  1.
</event>
<event>
 5   0  0.2820028E-06  0.2600509E+04  0.7818609E-02  0.8368028E-01
        2   -1    0    0  501    0  0.00000000000E+00  0.00000000000E+00  0.16193664495E+04  0.16193664495E+04  0.25500000920E-02 0.  1.
       -2   -1    0    0    0  501  0.00000000000E+00  0.00000000000E+00 -0.10440269323E+04  0.10440269323E+04  0.25500000920E-02 0. -1.
    10030    2    1    2    0    0  0.00000000000E+00  0.00000000000E+00  0.57533951718E+03  0.26633933819E+04  0.26005093244E+04 0.  0.
        3    1    3    3  502    0  0.22831977691E+02  0.10335356615E+04 -0.52003540836E+03  0.11572182590E+04  0.10100000352E+00 0. -1.
       -3    1    3    3    0  502 -0.22831977691E+02 -0.10335356615E+04  0.10953749255E+04  0.15061751228E+04  0.10100000352E+00 0.  1.
</event>
<event>
 5   0  0.2746631E-06  0.2601224E+04  0.7818609E-02  0.8367786E-01
        2   -1    0    0  501    0  0.00000000000E+00  0.00000000000E+00  0.15175121108E+04  0.15175121108E+04  0.25500000920E-02 0. -1.
       -2   -1    0    0    0  501  0.00000000000E+00  0.00000000000E+00 -0.11147138296E+04  0.11147138296E+04  0.25500000920E-02 0.  1.
    10030    2    1    2    0    0  0.00000000000E+00  0.00000000000E+00  0.40279828122E+03  0.26322259404E+04  0.26012241245E+04 0.  0.
        2    1    3    3  502    0  0.73811914411E+03  0.32270093701E+03 -0.83186591868E+03  0.11579968361E+04  0.25500000920E-02 0.  1.
       -2    1    3    3    0  502 -0.73811914411E+03 -0.32270093701E+03  0.12346641999E+04  0.14742291044E+04  0.25500000920E-02 0. -1.
</event>
<event>
 5   0  0.2820028E-06  0.2600465E+04  0.7818609E-02  0.8368043E-01
       -2   -1    0    0    0  501  0.00000000000E+00  0.00000000000E+00  0.88768135305E+03  0.88768135305E+03  0.25500000920E-02 0. -1.
        2   -1    0    0  501    0  0.00000000000E+00  0.00000000000E+00 -0.19045173977E+04  0.19045173977E+04  0.25500000920E-02 0.  1.
    10030    2    1    2    0    0  0.00000000000E+00  0.00000000000E+00 -0.10168360447E+04  0.27921987508E+04  0.26004650204E+04 0.  0.
        3    1    3    3  502    0 -0.71806926634E+03  0.16782290255E+03  0.64143489719E+03  0.97735701533E+03  0.10100000352E+00 0. -1.
       -3    1    3    3    0  502  0.71806926634E+03 -0.16782290255E+03 -0.16582709419E+04  0.18148417355E+04  0.10100000352E+00 0.  1.
</event>
<event>
 5   0  0.1055179E-06  0.2601913E+04  0.7818609E-02  0.8367552E-01
        1   -1    0    0  501    0  0.00000000000E+00  0.00000000000E+00  0.11379609617E+04  0.11379609617E+04  0.50400001928E-02 0. -1.
       -1   -1    0    0    0  501  0.00000000000E+00  0.00000000000E+00 -0.14872983445E+04  0.14872983445E+04  0.50400001928E-02 0.  1.
    10030    2    1    2    0    0  0.00000000000E+00  0.00000000000E+00 -0.34933738283E+03  0.26252593061E+04  0.26019127229E+04 0.  0.
        3    1    3    3  502    0  0.50504285498E+03  0.67358123865E+03 -0.11753884331E+04  0.14457931904E+04  0.10100000352E+00 0.  1.
       -3    1    3    3    0  502 -0.50504285498E+03 -0.67358123865E+03  0.82605105028E+03  0.11794661158E+04  0.10100000352E+00 0. -1.
</event>
<event>
 5   0  0.1088757E-06  0.2603034E+04  0.7818609E-02  0.8367171E-01
        1   -1    0    0  501    0  0.00000000000E+00  0.00000000000E+00  0.93252490028E+03  0.93252490029E+03  0.50400001928E-02 0.  1.
       -1   -1    0    0    0  501  0.00000000000E+00  0.00000000000E+00 -0.18165164303E+04  0.18165164303E+04  0.50400001928E-02 0. -1.
    10030    2    1    2    0    0  0.00000000000E+00  0.00000000000E+00 -0.88399153004E+03  0.27490413306E+04  0.26030342319E+04 0.  0.
        5    1    3    3  502    0 -0.59830598500E+03 -0.93221902044E+02  0.77469469479E+03  0.98327734380E+03  0.46999998093E+01 0.  1.
       -5    1    3    3    0  502  0.59830598500E+03  0.93221902044E+02 -0.16586862248E+04  0.17657639868E+04  0.46999998093E+01 0. -1.
</event>
<event>
 5   0  0.2586775E-06  0.2600876E+04  0.7818609E-02  0.8367904E-01
       -2   -1    0    0    0  501  0.00000000000E+00  0.00000000000E+00  0.98489840844E+03  0.98489840844E+03  0.25500000920E-02 0. -1.
        2   -1    0    0  501    0  0.00000000000E+00  0.00000000000E+00 -0.17170688296E+04  0.17170688296E+04  0.25500000920E-02 0.  1.
    10030    2    1    2    0    0  0.00000000000E+00  0.00000000000E+00 -0.73217042121E+03  0.27019672381E+04  0.26008755122E+04 0.  0.
        1    1    3    3  502    0  0.50109015796E+03  0.60732817493E+03 -0.14413011491E+04  0.16423421875E+04  0.50400001928E-02 0.  1.
       -1    1    3    3    0  502 -0.50109015796E+03 -0.60732817493E+03  0.70913072791E+03  0.10596250506E+04  0.50400001928E-02 0. -1.
</event>
<event>
 5   0  0.1100104E-06  0.2642896E+04  0.7818609E-02  0.8353775E-01
        1   -1    0    0  501    0  0.00000000000E+00  0.00000000000E+00  0.18178323484E+04  0.18178323484E+04  0.50400001928E-02 0.  1.
       -1   -1    0    0    0  501  0.00000000000E+00  0.00000000000E+00 -0.96060797176E+03  0.96060797178E+03  0.50400001928E-02 0. -1.
    10030    2    1    2    0    0  0.00000000000E+00  0.00000000000E+00  0.85722437663E+03  0.27784403202E+04  0.26428955675E+04 0.  0.
        4    1    3    3  502    0  0.87137373672E+02 -0.84188438647E+03  0.14954791042E+04  0.17183776087E+04  0.12699999809E+01 0.  1.
       -4    1    3    3    0  502 -0.87137373672E+02  0.84188438647E+03 -0.63825472758E+03  0.10600627115E+04  0.12699999809E+01 0. -1.
</event>
<event>
 5   0  0.2746631E-06  0.2605072E+04  0.7818609E-02  0.8366480E-01
       -2   -1    0    0    0  501  0.00000000000E+00  0.00000000000E+00  0.72643085586E+03  0.72643085587E+03  0.25500000920E-02 0. -1.
        2   -1    0    0  501    0  0.00000000000E+00  0.00000000000E+00 -0.23355289373E+04  0.23355289373E+04  0.25500000920E-02 0.  1.
    10030    2    1    2    0    0  0.00000000000E+00  0.00000000000E+00 -0.16090980814E+04  0.30619597932E+04  0.26050721946E+04 0.  0.
        2    1    3    3  502    0  0.99704122604E+03  0.79672729677E+03 -0.11104531447E+04  0.16917363206E+04  0.25500000920E-02 0. -1.
       -2    1    3    3    0  502 -0.99704122604E+03 -0.79672729677E+03 -0.49864493673E+03  0.13702234726E+04  0.25500000920E-02 0.  1.
</event>
<event>
 5   0  0.1032076E-06  0.2600513E+04  0.7818609E-02  0.8368027E-01
       -1   -1    0    0    0  501  0.00000000000E+00  0.00000000000E+00  0.12768160114E+04  0.12768160114E+04  0.50400001928E-02 0. -1.
        1   -1    0    0  501    0  0.00000000000E+00  0.00000000000E+00 -0.13241271912E+04  0.13241271912E+04  0.50400001928E-02 0.  1.
    10030    2    1    2    0    0  0.00000000000E+00  0.00000000000E+00 -0.47311179782E+02  0.26009432027E+04  0.26005128717E+04 0.  0.
        1    1    3    3  502    0  0.12987679973E+03 -0.24379311743E+03  0.12471308058E+04  0.12773559856E+04  0.50400001928E-02 0. -1.
       -1    1    3    3    0  502 -0.12987679973E+03  0.24379311743E+03 -0.12944419856E+04  0.13235872171E+04  0.50400001928E-02 0.  1.
</event>
<event>
 5   0  0.2705807E-06  0.2600871E+04  0.7818609E-02  0.8367905E-01
        2   -1    0    0  501    0  0.00000000000E+00  0.00000000000E+00  0.19404520180E+04  0.19404520180E+04  0.25500000920E-02 0.  1.
       -2   -1    0    0    0  501  0.00000000000E+00  0.00000000000E+00 -0.87151491856E+03  0.87151491856E+03  0.25500000920E-02 0. -1.
    10030    2    1    2    0    0  0.00000000000E+00  0.00000000000E+00  0.10689370994E+04  0.28119669365E+04  0.26008713020E+04 0.  0.
        4    1    3    3  502    0 -0.56953695116E+03 -0.20300843351E+03 -0.71030064504E+03  0.93279868249E+03  0.12699999809E+01 0. -1.
       -4    1    3    3    0  502  0.56953695116E+03  0.20300843351E+03  0.17792377444E+04  0.18791682540E+04  0.12699999809E+01 0.  1.
</event>
<event>
 5   0  0.1100104E-06  0.2599260E+04  0.7818609E-02  0.8368453E-01
       -1   -1    0    0    0  501  0.00000000000E+00  0.00000000000E+00  0.12835672429E+04  0.12835672429E+04  0.50400001928E-02 0.  1.
        1   -1    0    0  501    0  0.00000000000E+00  0.00000000000E+00 -0.13158937911E+04  0.13158937911E+04  0.50400001928E-02 0. -1.
    10030    2    1    2    0    0  0.00000000000E+00  0.00000000000E+00 -0.32326548161E+02  0.25994610340E+04  0.25992600219E+04 0.  0.
        4    1    3    3  502    0  0.68887259027E+03 -0.83673613442E+03 -0.73341030769E+03  0.13086501047E+04  0.12699999809E+01 0. -1.
       -4    1    3    3    0  502 -0.68887259027E+03  0.83673613442E+03  0.70108375953E+03  0.12908109292E+04  0.12699999809E+01 0.  1.
</event>
<event>
 5   0  0.2623368E-06  0.2579732E+04  0.7818609E-02  0.8375119E-01
        2   -1    0    0  501    0  0.00000000000E+00  0.00000000000E+00  0.15440095411E+04  0.15440095411E+04  0.25500000920E-02 0.  1.
       -2   -1    0    0    0  501  0.00000000000E+00  0.00000000000E+00 -0.10775542863E+04  0.10775542863E+04  0.25500000920E-02 0. -1.
    10030    2    1    2    0    0  0.00000000000E+00  0.00000000000E+00  0.46645525487E+03  0.26215638274E+04  0.25797318458E+04 0.  0.
        5    1    3    3  502    0  0.11656564785E+04  0.51730137944E+03  0.36763245235E+02  0.12758249760E+04  0.46999998093E+01 0. -1.
       -5    1    3    3    0  502 -0.11656564785E+04 -0.51730137944E+03  0.42969200964E+03  0.13457388514E+04  0.46999998093E+01 0.  1.
</event>
<event>
 5   0  0.1100104E-06  0.2596709E+04  0.7818609E-02  0.8369320E-01
        1   -1    0    0  501    0  0.00000000000E+00  0.00000000000E+00  0.17801002949E+04  0.17801002949E+04  0.50400001928E-02 0.  1.
       -1   -1    0    0    0  501  0.00000000000E+00  0.00000000000E+00 -0.94698308872E+03  0.94698308874E+03  0.50400001928E-02 0. -1.
    10030    2    1    2    0    0  0.00000000000E+00  0.00000000000E+00  0.83311720616E+03  0.27270833836E+04  0.25967093603E+04 0.  0.
        4    1    3    3  502    0  0.21292989015E+01  0.86328827058E+03  0.14350172783E+04  0.16746782897E+04  0.12699999809E+01 0.  1.
       -4    1    3    3    0  502 -0.21292989015E+01 -0.86328827058E+03 -0.60190007213E+03  0.10524050939E+04  0.12699999809E+01 0. -1.
</event>
<event>
 5   0  0.1088757E-06  0.2588652E+04  0.7818609E-02  0.8372066E-01
        1   -1    0    0  501    0  0.00000000000E+00  0.00000000000E+00  0.15748002205E+04  0.15748002205E+04  0.50400001928E-02 0. -1.
       -1   -1    0    0    0  501  0.00000000000E+00  0.00000000000E+00 -0.10638044597E+04  0.10638044597E+04  0.50400001928E-02 0.  1.
    10030    2    1    2    0    0  0.00000000000E+00  0.00000000000E+00  0.51099576084E+03  0.26386046802E+04  0.25886517709E+04 0.  0.
        5    1    3    3  502    0 -0.26567496418E+03  0.11947966501E+04 -0.17349799304E+03  0.12362224174E+04  0.46999998093E+01 0.  1.
       -5    1    3    3    0  502  0.26567496418E+03 -0.11947966501E+04  0.68449375387E+03  0.14023822628E+04  0.46999998093E+01 0. -1.
</event>
<event>
 5   0  0.2586775E-06  0.2597144E+04  0.7818609E-02  0.8369172E-01
       -2   -1    0    0    0  501  0.00000000000E+00  0.00000000000E+00  0.62413429899E+03  0.62413429899E+03  0.25500000920E-02 0. -1.
        2   -1    0    0  501    0  0.00000000000E+00  0.00000000000E+00 -0.27018052061E+04  0.27018052061E+04  0.25500000920E-02 0.  1.
    10030    2    1    2    0    0  0.00000000000E+00  0.00000000000E+00 -0.20776709071E+04  0.33259395051E+04  0.25971440456E+04 0.  0.
        1    1    3    3  502    0  0.44969703603E+03  0.34492879865E+03 -0.25350653013E+04  0.25976449684E+04  0.50400001928E-02 0.  1.
       -1    1    3    3    0  502 -0.44969703603E+03 -0.34492879865E+03  0.45739439413E+03  0.72829453668E+03  0.50400001928E-02 0. -1.
</event>
<event>
 5   0  0.1055179E-06  0.2607996E+04  0.7818609E-02  0.8365490E-01
       -1   -1    0    0    0  501  0.00000000000E+00  0.00000000000E+00  0.10675151518E+04  0.10675151519E+04  0.50400001928E-02 0.  1.
        1   -1    0    0  501    0  0.00000000000E+00  0.00000000000E+00 -0.15928684783E+04  0.15928684783E+04  0.50400001928E-02 0. -1.
    10030    2    1    2    0    0  0.00000000000E+00  0.00000000000E+00 -0.52535332641E+03  0.26603836301E+04  0.26079963462E+04 0.  0.
        3    1    3    3  502    0 -0.10452083412E+03  0.29446490981E+02 -0.15882482651E+04  0.15919561120E+04  0.10100000352E+00 0. -1.
       -3    1    3    3    0  502  0.10452083412E+03 -0.29446490981E+02  0.10628949387E+04  0.10684275182E+04  0.10100000352E+00 0.  1.
</event>
<event>
 5   0  0.2586775E-06  0.2596224E+04  0.7818609E-02  0.8369485E-01
       -2   -1    0    0    0  501  0.00000000000E+00  0.00000000000E+00  0.17187772379E+04  0.17187772379E+04  0.25500000920E-02 0. -1.
        2   -1    0    0  501    0  0.00000000000E+00  0.00000000000E+00 -0.98040285895E+03  0.98040285895E+03  0.25500000920E-02 0.  1.
    10030    2    1    2    0    0  0.00000000000E+00  0.00000000000E+00  0.73837437898E+03  0.26991800969E+04  0.25962235019E+04 0.  0.
        1    1    3    3  502    0 -0.39956057022E+03 -0.12761919678E+03 -0.90800795100E+03  0.10002068525E+04  0.50400001928E-02 0.  1.
       -1    1    3    3    0  502  0.39956057022E+03  0.12761919678E+03  0.16463823300E+04  0.16989732444E+04  0.50400001928E-02 0. -1.
</event>
<event>
 5   0  0.1055179E-06  0.2598690E+04  0.7818609E-02  0.8368646E-01
        1   -1    0    0  501    0  0.00000000000E+00  0.00000000000E+00  0.25076450302E+04  0.25076450302E+04  0.50400001928E-02 0. -1.
       -1   -1    0    0    0  501  0.00000000000E+00  0.00000000000E+00 -0.67325997537E+03  0.67325997539E+03  0.50400001928E-02 0.  1.
    10030    2    1    2    0    0  0.00000000000E+00  0.00000000000E+00  0.18343850548E+04  0.31809050056E+04  0.25986896939E+04 0.  0.
        3    1    3    3  502    0 -0.43986566101E+03  0.91837157730E+03  0.19051155550E+04  0.21601744008E+04  0.10100000352E+00 0. -1.
       -3    1    3    3    0  502  0.43986566101E+03 -0.91837157730E+03 -0.70730500173E+02  0.10207306048E+04  0.10100000352E+00 0.  1.
</event>
<event>
 5   0  0.1088757E-06  0.2600010E+04  0.7818609E-02  0.8368198E-01
       -1   -1    0    0    0  501  0.00000000000E+00  0.00000000000E+00  0.10884717159E+04  0.10884717159E+04  0.50400001928E-02 0. -1.
        1   -1    0    0  501    0  0.00000000000E+00  0.00000000000E+00 -0.15526478249E+04  0.15526478249E+04  0.50400001928E-02 0.  1.
    10030    2    1    2    0    0  0.00000000000E+00  0.00000000000E+00 -0.46417610899E+03  0.26411195408E+04  0.26000101863E+04 0.  0.
        5    1    3    3  502    0 -0.51526653719E+03  0.10055651373E+04 -0.88516090837E+03  0.14353371637E+04  0.46999998093E+01 0.  1.
       -5    1    3    3    0  502  0.51526653719E+03 -0.10055651373E+04  0.42098479938E+03  0.12057823772E+04  0.46999998093E+01 0. -1.
</event>
<event>
 5   0  0.2705807E-06  0.2600180E+04  0.7818609E-02  0.8368140E-01
       -2   -1    0    0    0  501  0.00000000000E+00  0.00000000000E+00  0.10431451181E+04  0.10431451181E+04  0.25500000920E-02 0. -1.
        2   -1    0    0  501    0  0.00000000000E+00  0.00000000000E+00 -0.16203252246E+04  0.16203252246E+04  0.25500000920E-02 0.  1.
    10030    2    1    2    0    0  0.00000000000E+00  0.00000000000E+00 -0.57718010650E+03  0.26634703427E+04  0.26001802612E+04 0.  0.
        4    1    3    3  502    0  0.59318203324E+03  0.36129657655E+03  0.83717504646E+03  0.10877793030E+04  0.12699999809E+01 0. -1.
       -4    1    3    3    0  502 -0.59318203324E+03 -0.36129657655E+03 -0.14143551530E+04  0.15756910396E+04  0.12699999809E+01 0.  1.
</event>
<event>
 5   0  0.2746631E-06  0.2610047E+04  0.7818609E-02  0.8364796E-01
        2   -1    0    0  501    0  0.00000000000E+00  0.00000000000E+00  0.24244801617E+04  0.24244801617E+04  0.25500000920E-02 0. -1.
       -2   -1    0    0    0  501  0.00000000000E+00  0.00000000000E+00 -0.70245441114E+03  0.70245441114E+03  0.25500000920E-02 0.  1.
    10030    2    1    2    0    0  0.00000000000E+00  0.00000000000E+00  0.17220257506E+04  0.31269345729E+04  0.26100473439E+04 0.  0.
        2    1    3    3  502    0  0.19722551828E+03 -0.92514751151E+03 -0.21608277066E+03  0.97030283257E+03  0.25500000920E-02 0.  1.
       -2    1    3    3    0  502 -0.19722551828E+03  0.92514751151E+03  0.19381085212E+04  0.21566317403E+04  0.25500000920E-02 0. -1.
</event>
<event>
 5   0  0.1100104E-06  0.2597893E+04  0.7818609E-02  0.8368917E-01
       -1   -1    0    0    0  501  0.00000000000E+00  0.00000000000E+00  0.16952821572E+04  0.16952821572E+04  0.50400001928E-02 0. -1.
        1   -1    0    0  501    0  0.00000000000E+00  0.00000000000E+00 -0.99526905298E+03  0.99526905299E+03  0.50400001928E-02 0.  1.
    10030    2    1    2    0    0  0.00000000000E+00  0.00000000000E+00  0.70001310426E+03  0.26905512102E+04  0.25978928902E+04 0.  0.
        4    1    3    3  502    0  0.41082035773E+03 -0.92142133273E+03 -0.49738758842E+03  0.11248051675E+04  0.12699999809E+01 0.  1.
       -4    1    3    3    0  502 -0.41082035773E+03  0.92142133273E+03  0.11974006927E+04  0.15657460428E+04  0.12699999809E+01 0. -1.
</event>
<event>
 5   0  0.2623368E-06  0.2599032E+04  0.7818609E-02  0.8368530E-01
       -2   -1    0    0    0  501  0.00000000000E+00  0.00000000000E+00  0.11618085613E+04  0.11618085613E+04  0.25500000920E-02 0.  1.
        2   -1    0    0  501    0  0.00000000000E+00  0.00000000000E+00 -0.14535453262E+04  0.14535453262E+04  0.25500000920E-02 0. -1.
    10030    2    1    2    0    0  0.00000000000E+00  0.00000000000E+00 -0.29173676489E+03  0.26153538876E+04  0.25990316691E+04 0.  0.
        5    1    3    3  502    0 -0.29268853344E+03  0.91453595949E+03  0.73523126536E+03  0.12093922864E+04  0.46999998093E+01 0.  1.
       -5    1    3    3    0  502  0.29268853344E+03 -0.91453595949E+03 -0.10269680303E+04  0.14059616012E+04  0.46999998093E+01 0. -1.
</event>
<event>
 5   0  0.1032076E-06  0.2592526E+04  0.7818609E-02  0.8370744E-01
       -1   -1    0    0    0  501  0.00000000000E+00  0.00000000000E+00  0.65726251593E+03  0.65726251595E+03  0.50400001928E-02 0. -1.
        1   -1    0    0  501    0  0.00000000000E+00  0.00000000000E+00 -0.25565092251E+04  0.25565092251E+04  0.50400001928E-02 0.  1.
    10030    2    1    2    0    0  0.00000000000E+00  0.00000000000E+00 -0.18992467091E+04  0.32137717410E+04  0.25925259384E+04 0.  0.
        1    1    3    3  502    0 -0.41249920169E+03 -0.85684742696E+03  0.14234503883E+03  0.96156394202E+03  0.50400001928E-02 0. -1.
       -1    1    3    3    0  502  0.41249920169E+03  0.85684742696E+03 -0.20415917480E+04  0.22522077990E+04  0.50400001928E-02 0.  1.
</event>
<event>
 5   0  0.2705807E-06  0.2600105E+04  0.7818609E-02  0.8368166E-01
       -2   -1    0    0    0  501  0.00000000000E+00  0.00000000000E+00  0.92126268840E+03  0.92126268841E+03  0.25500000920E-02 0. -1.
        2   -1    0    0  501    0  0.00000000000E+00  0.00000000000E+00 -0.18345865728E+04  0.18345865728E+04  0.25500000920E-02 0.  1.
    10030    2    1    2    0    0  0.00000000000E+00  0.00000000000E+00 -0.91332388437E+03  0.27558492612E+04  0.26001047349E+04 0.  0.
        4    1    3    3  502    0 -0.10967220408E+04  0.44711067000E+03  0.11157395925E+03  0.11896039456E+04  0.12699999809E+01 0.  1.
       -4    1    3    3    0  502  0.10967220408E+04 -0.44711067000E+03 -0.10248978436E+04  0.15662453156E+04  0.12699999809E+01 0. -1.
</event>
<event>
 5   0  0.1122628E-06  0.2569062E+04  0.7818609E-02  0.8378787E-01
       -1   -1    0    0    0  501  0.00000000000E+00  0.00000000000E+00  0.80409310986E+03  0.80409310988E+03  0.50400001928E-02 0. -1.
        1   -1    0    0  501    0  0.00000000000E+00  0.00000000000E+00 -0.20520258795E+04  0.20520258795E+04  0.50400001928E-02 0.  1.
    10030    2    1    2    0    0  0.00000000000E+00  0.00000000000E+00 -0.12479327696E+04  0.28561189893E+04  0.25690619852E+04 0.  0.
        2    1    3    3  502    0  0.34128657287E+03 -0.84859702645E+03  0.37871015666E+03  0.98995697932E+03  0.25500000920E-02 0. -1.
       -2    1    3    3    0  502 -0.34128657287E+03  0.84859702645E+03 -0.16266429263E+04  0.18661620100E+04  0.25500000920E-02 0.  1.
</event>
<event>
 5   0  0.1122628E-06  0.2594607E+04  0.7818609E-02  0.8370035E-01
        1   -1    0    0  501    0  0.00000000000E+00  0.00000000000E+00  0.16815057295E+04  0.16815057295E+04  0.50400001928E-02 0.  1.
       -1   -1    0    0    0  501  0.00000000000E+00  0.00000000000E+00 -0.10008867177E+04  0.10008867178E+04  0.50400001928E-02 0. -1.
    10030    2    1    2    0    0  0.00000000000E+00  0.00000000000E+00  0.68061901176E+03  0.26823924473E+04  0.25946072924E+04 0.  0.
        2    1    3    3  502    0 -0.31619472608E+03 -0.88700084664E+03  0.12628270346E+04  0.15752719531E+04  0.25500000920E-02 0.  1.
       -2    1    3    3    0  502  0.31619472608E+03  0.88700084664E+03 -0.58220802288E+03  0.11071204942E+04  0.25500000920E-02 0. -1.
</event>
<event>
 5   0  0.2746631E-06  0.2658836E+04  0.7818609E-02  0.8348486E-01
       -2   -1    0    0    0  501  0.00000000000E+00  0.00000000000E+00  0.68033702891E+03  0.68033702892E+03  0.25500000920E-02 0. -1.
        2   -1    0    0  501    0  0.00000000000E+00  0.00000000000E+00 -0.25977595199E+04  0.25977595199E+04  0.25500000920E-02 0.  1.
    10030    2    1    2    0    0  0.00000000000E+00  0.00000000000E+00 -0.19174224909E+04  0.32780965488E+04  0.26588358306E+04 0.  0.
        2    1    3    3  502    0  0.97527843043E+03  0.25059697141E+03 -0.20288466713E+04  0.22649913188E+04  0.25500000920E-02 0.  1.
       -2    1    3    3    0  502 -0.97527843043E+03 -0.25059697141E+03  0.11142418032E+03  0.10131052299E+04  0.25500000920E-02 0. -1.
</event>
<event>
 5   0  0.1088757E-06  0.2600710E+04  0.7818609E-02  0.8367960E-01
       -1   -1    0    0    0  501  0.00000000000E+00  0.00000000000E+00  0.16480079712E+04  0.16480079712E+04  0.50400001928E-02 0.  1.
        1   -1    0    0  501    0  0.00000000000E+00  0.00000000000E+00 -0.10260403844E+04  0.10260403844E+04  0.50400001928E-02 0. -1.
    10030    2    1    2    0    0  0.00000000000E+00  0.00000000000E+00  0.62196758684E+03  0.26740483556E+04  0.26007096972E+04 0.  0.
        5    1    3    3  502    0  0.63000481375E+03  0.20865633605E+03  0.14607559296E+04  0.16044542710E+04  0.46999998093E+01 0.  1.
       -5    1    3    3    0  502 -0.63000481375E+03 -0.20865633605E+03 -0.83878834272E+03  0.10695940846E+04  0.46999998093E+01 0. -1.
</event>
<event>
 5   0  0.1100104E-06  0.2597006E+04  0.7818609E-02  0.8369219E-01
       -1   -1    0    0    0  501  0.00000000000E+00  0.00000000000E+00  0.15114093123E+04  0.15114093123E+04  0.50400001928E-02 0. -1.
        1   -1    0    0  501    0  0.00000000000E+00  0.00000000000E+00 -0.11155882263E+04  0.11155882263E+04  0.50400001928E-02 0.  1.
    10030    2    1    2    0    0  0.00000000000E+00  0.00000000000E+00  0.39582108605E+03  0.26269975386E+04  0.25970063026E+04 0.  0.
        4    1    3    3  502    0  0.59775652536E+03  0.11516768329E+04  0.14798030624E+03  0.13059755645E+04  0.12699999809E+01 0.  1.
       -4    1    3    3    0  502 -0.59775652536E+03 -0.11516768329E+04  0.24784077980E+03  0.13210219741E+04  0.12699999809E+01 0. -1.
</event>
<event>
 5   0  0.1088757E-06  0.2603312E+04  0.7818609E-02  0.8367077E-01
       -1   -1    0    0    0  501  0.00000000000E+00  0.00000000000E+00  0.14450275267E+04  0.14450275267E+04  0.50400001928E-02 0.  1.
        1   -1    0    0  501    0  0.00000000000E+00  0.00000000000E+00 -0.11725092078E+04  0.11725092078E+04  0.50400001928E-02 0. -1.
    10030    2    1    2    0    0  0.00000000000E+00  0.00000000000E+00  0.27251831893E+03  0.26175367345E+04  0.26033117989E+04 0.  0.
        5    1    3    3  502    0  0.11519873348E+04 -0.34342126419E+02 -0.47205230454E+03  0.12454355340E+04  0.46999998093E+01 0. -1.
       -5    1    3    3    0  502 -0.11519873348E+04  0.34342126419E+02  0.74457062348E+03  0.13721012005E+04  0.46999998093E+01 0.  1.
</event>
<event>
 5   0  0.2746631E-06  0.2600580E+04  0.7818609E-02  0.8368004E-01
       -2   -1    0    0    0  501  0.00000000000E+00  0.00000000000E+00  0.79356151366E+03  0.79356151367E+03  0.25500000920E-02 0. -1.
        2   -1    0    0  501    0  0.00000000000E+00  0.00000000000E+00 -0.21305891326E+04  0.21305891326E+04  0.25500000920E-02 0.  1.
    10030    2    1    2    0    0  0.00000000000E+00  0.00000000000E+00 -0.13370276190E+04  0.29241506463E+04  0.26005795793E+04 0.  0.
        2    1    3    3  502    0  0.80144534115E+03  0.10106605531E+04 -0.48373811658E+03  0.13775891818E+04  0.25500000920E-02 0.  1.
       -2    1    3    3    0  502 -0.80144534115E+03 -0.10106605531E+04 -0.85328950238E+03  0.15465614645E+04  0.25500000920E-02 0. -1.
</event>
<event>
 5   0  0.2746631E-06  0.2591892E+04  0.7818609E-02  0.8370960E-01
       -2   -1    0    0    0  501  0.00000000000E+00  0.00000000000E+00  0.13888840615E+04  0.13888840615E+04  0.25500000920E-02 0.  1.
        2   -1    0    0  501    0  0.00000000000E+00  0.00000000000E+00 -0.12092270186E+04  0.12092270186E+04  0.25500000920E-02 0. -1.
    10030    2    1    2    0    0  0.00000000000E+00  0.00000000000E+00  0.17965704288E+03  0.25981110800E+04  0.25918920755E+04 0.  0.
        2    1    3    3  502    0  0.46000194796E+03  0.35277825692E+03 -0.10720132959E+04  0.12187152240E+04  0.25500000920E-02 0. -1.
       -2    1    3    3    0  502 -0.46000194796E+03 -0.35277825692E+03  0.12516703388E+04  0.13793958560E+04  0.25500000920E-02 0.  1.
</event>
<event>
 5   0  0.1032076E-06  0.2600127E+04  0.7818609E-02  0.8368158E-01
        1   -1    0    0  501    0  0.00000000000E+00  0.00000000000E+00  0.12832090376E+04  0.12832090376E+04  0.50400001928E-02 0.  1.
       -1   -1    0    0    0  501  0.00000000000E+00  0.00000000000E+00 -0.13171389354E+04  0.13171389354E+04  0.50400001928E-02 0. -1.
    10030    2    1    2    0    0  0.00000000000E+00  0.00000000000E+00 -0.33929897800E+02  0.26003479729E+04  0.26001266012E+04 0.  0.
        1    1    3    3  502    0  0.36929127054E+03 -0.12370948697E+04 -0.16989894921E+03  0.13021695021E+04  0.50400001928E-02 0. -1.
       -1    1    3    3    0  502 -0.36929127054E+03  0.12370948697E+04  0.13596905141E+03  0.12981784708E+04  0.50400001928E-02 0.  1.
</event>
<event>
 5   0  0.2820028E-06  0.2591768E+04  0.7818609E-02  0.8371003E-01
        2   -1    0    0  501    0  0.00000000000E+00  0.00000000000E+00  0.19608341821E+04  0.19608341821E+04  0.25500000920E-02 0. -1.
       -2   -1    0    0    0  501  0.00000000000E+00  0.00000000000E+00 -0.85642924266E+03  0.85642924267E+03  0.25500000920E-02 0.  1.
    10030    2    1    2    0    0  0.00000000000E+00  0.00000000000E+00  0.11044049394E+04  0.28172634247E+04  0.25917683026E+04 0.  0.
        3    1    3    3  502    0  0.46839441062E+03 -0.50328323374E+03 -0.64183526514E+03  0.94055295175E+03  0.10100000352E+00 0.  1.
       -3    1    3    3    0  502 -0.46839441062E+03  0.50328323374E+03  0.17462402046E+04  0.18767104730E+04  0.10100000352E+00 0. -1.
</event>
<event>
 5   0  0.2820028E-06  0.2599885E+04  0.7818609E-02  0.8368240E-01
        2   -1    0    0  501    0  0.00000000000E+00  0.00000000000E+00  0.20601055471E+04  0.20601055471E+04  0.25500000920E-02 0. -1.
       -2   -1    0    0    0  501  0.00000000000E+00  0.00000000000E+00 -0.82027367620E+03  0.82027367620E+03  0.25500000920E-02 0.  1.
    10030    2    1    2    0    0  0.00000000000E+00  0.00000000000E+00  0.12398318709E+04  0.28803792233E+04  0.25998848825E+04 0.  0.
        3    1    3    3  502    0  0.98080937112E+03  0.80585212994E+03  0.93025423341E+03  0.15737717836E+04  0.10100000352E+00 0. -1.
       -3    1    3    3    0  502 -0.98080937112E+03 -0.80585212994E+03  0.30957763754E+03  0.13066074398E+04  0.10100000352E+00 0.  1.
</event>
<event>
 5   0  0.2705807E-06  0.2594425E+04  0.7818609E-02  0.8370097E-01
        2   -1    0    0  501    0  0.00000000000E+00  0.00000000000E+00  0.15868388144E+04  0.15868388144E+04  0.25500000920E-02 0. -1.
       -2   -1    0    0    0  501  0.00000000000E+00  0.00000000000E+00 -0.10604479677E+04  0.10604479677E+04  0.25500000920E-02 0.  1.
    10030    2    1    2    0    0  0.00000000000E+00  0.00000000000E+00  0.52639084677E+03  0.26472867821E+04  0.25944247885E+04 0.  0.
        4    1    3    3  502    0 -0.20627569276E+03 -0.69628348697E+03  0.13599910672E+04  0.15417320362E+04  0.12699999809E+01 0. -1.
       -4    1    3    3    0  502  0.20627569276E+03  0.69628348697E+03 -0.83360022048E+03  0.11055547459E+04  0.12699999809E+01 0.  1.
</event>
<event>
 5   0  0.1100104E-06  0.2596904E+04  0.7818609E-02  0.8369254E-01
        1   -1    0    0  501    0  0.00000000000E+00  0.00000000000E+00  0.23344238704E+04  0.23344238704E+04  0.50400001928E-02 0.  1.
       -1   -1    0    0    0  501  0.00000000000E+00  0.00000000000E+00 -0.72222420189E+03  0.72222420191E+03  0.50400001928E-02 0. -1.
    10030    2    1    2    0    0  0.00000000000E+00  0.00000000000E+00  0.16121996685E+04  0.30566480723E+04  0.25969038617E+04 0.  0.
        4    1    3    3  502    0 -0.91933167008E+03 -0.62266278502E+03  0.15983908810E+04  0.19462103393E+04  0.12699999809E+01 0.  1.
       -4    1    3    3    0  502  0.91933167008E+03  0.62266278502E+03  0.13808787562E+02  0.11104377330E+04  0.12699999809E+01 0. -1.
</event>
<event>
 5   0  0.1100104E-06  0.2603163E+04  0.7818609E-02  0.8367128E-01
        1   -1    0    0  501    0  0.00000000000E+00  0.00000000000E+00  0.18448152853E+04  0.18448152853E+04  0.50400001928E-02 0.  1.
       -1   -1    0    0    0  501  0.00000000000E+00  0.00000000000E+00 -0.91831119281E+03  0.91831119283E+03  0.50400001928E-02 0. -1.
    10030    2    1    2    0    0  0.00000000000E+00  0.00000000000E+00  0.92650409246E+03  0.27631264781E+04  0.26031630953E+04 0.  0.
        4    1    3    3  502    0 -0.12403762849E+04  0.39242298745E+03  0.50549431429E+03  0.13957274963E+04  0.12699999809E+01 0.  1.
       -4    1    3    3    0  502  0.12403762849E+04 -0.39242298745E+03  0.42100977817E+03  0.13673989818E+04  0.12699999809E+01 0. -1.
</event>
<event>
 5   0  0.2623368E-06  0.2600639E+04  0.7818609E-02  0.8367984E-01
       -2   -1    0    0    0  501  0.00000000000E+00  0.00000000000E+00  0.76320004768E+03  0.76320004769E+03  0.25500000920E-02 0. -1.
        2   -1    0    0  501    0  0.00000000000E+00  0.00000000000E+00 -0.22154482381E+04  0.22154482381E+04  0.25500000920E-02 0.  1.
    10030    2    1    2    0    0  0.00000000000E+00  0.00000000000E+00 -0.14522481904E+04  0.29786482858E+04  0.26006385377E+04 0.  0.
        5    1    3    3  502    0 -0.24061629722E+03  0.39166204037E+03 -0.21192763696E+04  0.21685593783E+04  0.46999998093E+01 0.  1.
       -5    1    3    3    0  502  0.24061629722E+03 -0.39166204037E+03  0.66702817915E+03  0.81008890755E+03  0.46999998093E+01 0. -1.
</event>
<event>
 5   0  0.1100104E-06  0.2599301E+04  0.7818609E-02  0.8368439E-01
       -1   -1    0    0    0  501  0.00000000000E+00  0.00000000000E+00  0.73727739778E+03  0.73727739779E+03  0.50400001928E-02 0. -1.
        1   -1    0    0  501    0  0.00000000000E+00  0.00000000000E+00 -0.22909847142E+04  0.22909847142E+04  0.50400001928E-02 0.  1.
    10030    2    1    2    0    0  0.00000000000E+00  0.00000000000E+00 -0.15537073164E+04  0.30282621120E+04  0.25993008663E+04 0.  0.
        4    1    3    3  502    0 -0.75254692439E+03  0.25592963319E+02 -0.20109645769E+04  0.21473150713E+04  0.12699999809E+01 0.  1.
       -4    1    3    3    0  502  0.75254692439E+03 -0.25592963319E+02  0.45725726051E+03  0.88094704062E+03  0.12699999809E+01 0. -1.
</event>
<event>
 5   0  0.2820028E-06  0.2596086E+04  0.7818609E-02  0.8369532E-01
        2   -1    0    0  501    0  0.00000000000E+00  0.00000000000E+00  0.84424413500E+03  0.84424413500E+03  0.25500000920E-02 0. -1.
       -2   -1    0    0    0  501  0.00000000000E+00  0.00000000000E+00 -0.19957684749E+04  0.19957684749E+04  0.25500000920E-02 0.  1.
    10030    2    1    2    0    0  0.00000000000E+00  0.00000000000E+00 -0.11515243399E+04  0.28400126099E+04  0.25960861540E+04 0.  0.
        3    1    3    3  502    0  0.10982148470E+04 -0.60322153133E+03 -0.94668335203E+03  0.15704016827E+04  0.10100000352E+00 0.  1.
       -3    1    3    3    0  502 -0.10982148470E+04  0.60322153133E+03 -0.20484098789E+03  0.12696109272E+04  0.10100000352E+00 0. -1.
</event>
<event>
 5   0  0.2820028E-06  0.2603256E+04  0.7818609E-02  0.8367096E-01
       -2   -1    0    0    0  501  0.00000000000E+00  0.00000000000E+00  0.12581103762E+04  0.12581103762E+04  0.25500000920E-02 0. -1.
        2   -1    0    0  501    0  0.00000000000E+00  0.00000000000E+00 -0.13466504036E+04  0.13466504036E+04  0.25500000920E-02 0.  1.
    10030    2    1    2    0    0  0.00000000000E+00  0.00000000000E+00 -0.88540027387E+02  0.26047607799E+04  0.26032555357E+04 0.  0.
        3    1    3    3  502    0 -0.10783454370E+04 -0.72334116568E+03  0.46245061241E+02  0.12993036363E+04  0.10100000352E+00 0. -1.
       -3    1    3    3    0  502  0.10783454370E+04  0.72334116568E+03 -0.13478508863E+03  0.13054571436E+04  0.10100000352E+00 0.  1.
</event>
<event>
 5   0  0.1100104E-06  0.2601564E+04  0.7818609E-02  0.8367670E-01
       -1   -1    0    0    0  501  0.00000000000E+00  0.00000000000E+00  0.10352035203E+04  0.10352035203E+04  0.50400001928E-02 0.  1.
        1   -1    0    0  501    0  0.00000000000E+00  0.00000000000E+00 -0.16344936907E+04  0.16344936907E+04  0.50400001928E-02 0. -1.
    10030    2    1    2    0    0  0.00000000000E+00  0.00000000000E+00 -0.59929017042E+03  0.26696972110E+04  0.26015638547E+04 0.  0.
        4    1    3    3  502    0  0.67192628157E+03  0.11137081243E+04 -0.31420453061E+03  0.13381168910E+04  0.12699999809E+01 0. -1.
       -4    1    3    3    0  502 -0.67192628157E+03 -0.11137081243E+04 -0.28508563981E+03  0.13315803201E+04  0.12699999809E+01 0.  1.
</event>
<event>
 5   0  0.1055179E-06  0.2596137E+04  0.7818609E-02  0.8369515E-01
       -1   -1    0    0    0  501  0.00000000000E+00  0.00000000000E+00  0.13311587935E+04  0.13311587935E+04  0.50400001928E-02 0. -1.
        1   -1    0    0  501    0  0.00000000000E+00  0.00000000000E+00 -0.12658008529E+04  0.12658008529E+04  0.50400001928E-02 0.  1.
    10030    2    1    2    0    0  0.00000000000E+00  0.00000000000E+00  0.65357940599E+02  0.25969596465E+04  0.25961370813E+04 0.  0.
        3    1    3    3  502    0  0.15164462072E+03  0.71878002641E+03  0.11032241622E+04  0.13254223401E+04  0.10100000352E+00 0. -1.
       -3    1    3    3    0  502 -0.15164462072E+03 -0.71878002641E+03 -0.10378662216E+04  0.12715373064E+04  0.10100000352E+00 0.  1.
</event>
<event>
 5   0  0.1100104E-06  0.2601375E+04  0.7818609E-02  0.8367734E-01
       -1   -1    0    0    0  501  0.00000000000E+00  0.00000000000E+00  0.11319065233E+04  0.11319065233E+04  0.50400001928E-02 0.  1.
        1   -1    0    0  501    0  0.00000000000E+00  0.00000000000E+00 -0.14946363165E+04  0.14946363165E+04  0.50400001928E-02 0. -1.
    10030    2    1    2    0    0  0.00000000000E+00  0.00000000000E+00 -0.36272979320E+03  0.26265428398E+04  0.26013754797E+04 0.  0.
        4    1    3    3  502    0  0.11390434435E+04 -0.21627184905E+02  0.45232099944E+03  0.12257583778E+04  0.12699999809E+01 0.  1.
       -4    1    3    3    0  502 -0.11390434435E+04  0.21627184905E+02 -0.81505079264E+03  0.14007844620E+04  0.12699999809E+01 0. -1.
</event>
<event>
 5   0  0.2623368E-06  0.2591317E+04  0.7818609E-02  0.8371157E-01
       -2   -1    0    0    0  501  0.00000000000E+00  0.00000000000E+00  0.13791324820E+04  0.13791324820E+04  0.25500000920E-02 0. -1.
        2   -1    0    0  501    0  0.00000000000E+00  0.00000000000E+00 -0.12172370097E+04  0.12172370097E+04  0.25500000920E-02 0.  1.
    10030    2    1    2    0    0  0.00000000000E+00  0.00000000000E+00  0.16189547222E+03  0.25963694917E+04  0.25913171156E+04 0.  0.
        5    1    3    3  502    0 -0.38145468138E+03 -0.12377942722E+04  0.11367139338E+03  0.13002252150E+04  0.46999998093E+01 0.  1.
       -5    1    3    3    0  502  0.38145468138E+03  0.12377942722E+04  0.48224078835E+02  0.12961442767E+04  0.46999998093E+01 0. -1.
</event>
<event>
 5   0  0.1100104E-06  0.2606262E+04  0.7818609E-02  0.8366077E-01
       -1   -1    0    0    0  501  0.00000000000E+00  0.00000000000E+00  0.10332594208E+04  0.10332594208E+04  0.50400001928E-02 0.  1.
        1   -1    0    0  501    0  0.00000000000E+00  0.00000000000E+00 -0.16434883003E+04  0.16434883003E+04  0.50400001928E-02 0. -1.
    10030    2    1    2    0    0  0.00000000000E+00  0.00000000000E+00 -0.61022887946E+03  0.26767477211E+04  0.26062615136E+04 0.  0.
        4    1    3    3  502    0  0.80133740354E+03  0.98039596015E+03 -0.62138806368E+03  0.14104760230E+04  0.12699999809E+01 0. -1.
       -4    1    3    3    0  502 -0.80133740354E+03 -0.98039596015E+03  0.11159184218E+02  0.12662716981E+04  0.12699999809E+01 0.  1.
</event>
<event>
 5   0  0.9197000E-07  0.2657474E+04  0.7818609E-02  0.8348937E-01
       -3   -1    0    0    0  501  0.00000000000E+00  0.00000000000E+00  0.12749573500E+04  0.12749573540E+04  0.10100000352E+00 0.  1.
        3   -1    0    0  501    0  0.00000000000E+00  0.00000000000E+00 -0.13847851105E+04  0.13847851142E+04  0.10100000352E+00 0. -1.
    10030    2    1    2    0    0  0.00000000000E+00  0.00000000000E+00 -0.10982776053E+03  0.26597424682E+04  0.26574739622E+04 0.  0.
        5    1    3    3  502    0 -0.69668915053E+03 -0.19948616744E+03 -0.11695743130E+04  0.13758984944E+04  0.46999998093E+01 0. -1.
       -5    1    3    3    0  502  0.69668915053E+03  0.19948616744E+03  0.10597465524E+04  0.12838439737E+04  0.46999998093E+01 0.  1.
</event>
<event>
 5   0  0.1122628E-06  0.2593597E+04  0.7818609E-02  0.8370379E-01
       -1   -1    0    0    0  501  0.00000000000E+00  0.00000000000E+00  0.15613472277E+04  0.15613472277E+04  0.50400001928E-02 0. -1.
        1   -1    0    0  501    0  0.00000000000E+00  0.00000000000E+00 -0.10770740955E+04  0.10770740955E+04  0.50400001928E-02 0.  1.
    10030    2    1    2    0    0  0.00000000000E+00  0.00000000000E+00  0.48427313218E+03  0.26384213231E+04  0.25935972339E+04 0.  0.
        2    1    3    3  502    0 -0.61188629333E+03  0.94183715967E+03 -0.41731414457E+03  0.11981707585E+04  0.25500000920E-02 0.  1.
       -2    1    3    3    0  502  0.61188629333E+03 -0.94183715967E+03  0.90158727676E+03  0.14402505646E+04  0.25500000920E-02 0. -1.
</event>
<event>
 5   0  0.1088757E-06  0.2600700E+04  0.7818609E-02  0.8367963E-01
        1   -1    0    0  501    0  0.00000000000E+00  0.00000000000E+00  0.14719377302E+04  0.14719377302E+04  0.50400001928E-02 0. -1.
       -1   -1    0    0    0  501  0.00000000000E+00  0.00000000000E+00 -0.11487648211E+04  0.11487648211E+04  0.50400001928E-02 0.  1.
    10030    2    1    2    0    0  0.00000000000E+00  0.00000000000E+00  0.32317290917E+03  0.26207025513E+04  0.26007001237E+04 0.  0.
        5    1    3    3  502    0  0.53623898920E+03 -0.49398781606E+03  0.12465811491E+04  0.14441477997E+04  0.46999998093E+01 0. -1.
       -5    1    3    3    0  502 -0.53623898920E+03  0.49398781606E+03 -0.92340823996E+03  0.11765547516E+04  0.46999998093E+01 0.  1.
</event>
<event>
 5   0  0.2746631E-06  0.2599028E+04  0.7818609E-02  0.8368531E-01
       -2   -1    0    0    0  501  0.00000000000E+00  0.00000000000E+00  0.15675898251E+04  0.15675898251E+04  0.25500000920E-02 0. -1.
        2   -1    0    0  501    0  0.00000000000E+00  0.00000000000E+00 -0.10772824783E+04  0.10772824783E+04  0.25500000920E-02 0.  1.
    10030    2    1    2    0    0  0.00000000000E+00  0.00000000000E+00  0.49030734683E+03  0.26448723034E+04  0.25990283198E+04 0.  0.
        2    1    3    3  502    0 -0.19783625666E+03 -0.70408757835E+03 -0.84797172012E+03  0.11197921863E+04  0.25500000920E-02 0.  1.
       -2    1    3    3    0  502  0.19783625666E+03  0.70408757835E+03  0.13382790669E+04  0.15250801171E+04  0.25500000920E-02 0. -1.
</event>
<event>
 5   0  0.2705807E-06  0.2597869E+04  0.7818609E-02  0.8368925E-01
        2   -1    0    0  501    0  0.00000000000E+00  0.00000000000E+00  0.14870653452E+04  0.14870653452E+04  0.25500000920E-02 0. -1.
       -2   -1    0    0    0  501  0.00000000000E+00  0.00000000000E+00 -0.11346043345E+04  0.11346043345E+04  0.25500000920E-02 0.  1.
    10030    2    1    2    0    0  0.00000000000E+00  0.00000000000E+00  0.35246101065E+03  0.26216696797E+04  0.25978689624E+04 0.  0.
        4    1    3    3  502    0  0.69298342574E+03  0.10551011228E+04  0.48524622098E+03  0.13523793534E+04  0.12699999809E+01 0. -1.
       -4    1    3    3    0  502 -0.69298342574E+03 -0.10551011228E+04 -0.13278521033E+03  0.12692903264E+04  0.12699999809E+01 0.  1.
</event>
<event>
 5   0  0.2820028E-06  0.2609129E+04  0.7818609E-02  0.8365107E-01
        2   -1    0    0  501    0  0.00000000000E+00  0.00000000000E+00  0.25187017394E+04  0.25187017394E+04  0.25500000920E-02 0.  1.
       -2   -1    0    0    0  501  0.00000000000E+00  0.00000000000E+00 -0.67570060343E+03  0.67570060343E+03  0.25500000920E-02 0. -1.
    10030    2    1    2    0    0  0.00000000000E+00  0.00000000000E+00  0.18430011359E+04  0.31944023428E+04  0.26091288087E+04 0.  0.
        3    1    3    3  502    0  0.10875571505E+04 -0.54194327514E+03  0.15027681021E+04  0.19325617837E+04  0.10100000352E+00 0.  1.
       -3    1    3    3    0  502 -0.10875571505E+04  0.54194327514E+03  0.34023303381E+03  0.12618405591E+04  0.10100000352E+00 0. -1.
</event>
<event>
 5   0  0.1032076E-06  0.2595878E+04  0.7818609E-02  0.8369603E-01
       -1   -1    0    0    0  501  0.00000000000E+00  0.00000000000E+00  0.98319733833E+03  0.98319733834E+03  0.50400001928E-02 0.  1.
        1   -1    0    0  501    0  0.00000000000E+00  0.00000000000E+00 -0.17134357291E+04  0.17134357291E+04  0.50400001928E-02 0. -1.
    10030    2    1    2    0    0  0.00000000000E+00  0.00000000000E+00 -0.73023839074E+03  0.26966330674E+04  0.25958778463E+04 0.  0.
        1    1    3    3  502    0  0.40603849188E+03 -0.12202852808E+04 -0.54708073888E+03  0.13975910555E+04  0.50400001928E-02 0. -1.
       -1    1    3    3    0  502 -0.40603849188E+03  0.12202852808E+04 -0.18315765185E+03  0.12990420120E+04  0.50400001928E-02 0.  1.
</event>
<event>
 5   0  0.1055179E-06  0.2599160E+04  0.7818609E-02  0.8368487E-01
       -1   -1    0    0    0  501  0.00000000000E+00  0.00000000000E+00  0.16567475692E+04  0.16567475692E+04  0.50400001928E-02 0. -1.
        1   -1    0    0  501    0  0.00000000000E+00  0.00000000000E+00 -0.10194116171E+04  0.10194116171E+04  0.50400001928E-02 0.  1.
    10030    2    1    2    0    0  0.00000000000E+00  0.00000000000E+00  0.63733595206E+03  0.26761591863E+04  0.25991596478E+04 0.  0.
        3    1    3    3  502    0  0.52677129516E+03  0.81063461509E+03 -0.57556054383E+03  0.11251161835E+04  0.10100000352E+00 0.  1.
       -3    1    3    3    0  502 -0.52677129516E+03 -0.81063461509E+03  0.12128964959E+04  0.15510430028E+04  0.10100000352E+00 0. -1.
</event>
<event>
 5   0  0.1088757E-06  0.2601254E+04  0.7818609E-02  0.8367775E-01
       -1   -1    0    0    0  501  0.00000000000E+00  0.00000000000E+00  0.18220116874E+04  0.18220116874E+04  0.50400001928E-02 0.  1.
        1   -1    0    0  501    0  0.00000000000E+00  0.00000000000E+00 -0.92844128893E+03  0.92844128895E+03  0.50400001928E-02 0. -1.
    10030    2    1    2    0    0  0.00000000000E+00  0.00000000000E+00  0.89357039845E+03  0.27504529763E+04  0.26012542202E+04 0.  0.
        5    1    3    3  502    0 -0.86908905388E+03 -0.59021473276E+03  0.12575367232E+04  0.16386243970E+04  0.46999998093E+01 0.  1.
       -5    1    3    3    0  502  0.86908905388E+03  0.59021473276E+03 -0.36396632471E+03  0.11118285793E+04  0.46999998093E+01 0. -1.
</event>
<event>
 5   0  0.1088757E-06  0.2601264E+04  0.7818609E-02  0.8367772E-01
        1   -1    0    0  501    0  0.00000000000E+00  0.00000000000E+00  0.12147672873E+04  0.12147672873E+04  0.50400001928E-02 0.  1.
       -1   -1    0    0    0  501  0.00000000000E+00  0.00000000000E+00 -0.13925657349E+04  0.13925657349E+04  0.50400001928E-02 0. -1.
    10030    2    1    2    0    0  0.00000000000E+00  0.00000000000E+00 -0.17779844758E+03  0.26073330222E+04  0.26012637699E+04 0.  0.
        5    1    3    3  502    0 -0.11553591555E+03  0.84410541981E+03  0.89612390503E+03  0.12364961184E+04  0.46999998093E+01 0.  1.
       -5    1    3    3    0  502  0.11553591555E+03 -0.84410541981E+03 -0.10739223526E+04  0.13708369039E+04  0.46999998093E+01 0. -1.
</event>
<event>
 5   0  0.2746631E-06  0.2532706E+04  0.7818609E-02  0.8391426E-01
       -2   -1    0    0    0  501  0.00000000000E+00  0.00000000000E+00  0.12386514971E+04  0.12386514971E+04  0.25500000920E-02 0.  1.
        2   -1    0    0  501    0  0.00000000000E+00  0.00000000000E+00 -0.12946743517E+04  0.12946743517E+04  0.25500000920E-02 0. -1.
    10030    2    1    2    0    0  0.00000000000E+00  0.00000000000E+00 -0.56022854550E+02  0.25333258488E+04  0.25327063185E+04 0.  0.
        2    1    3    3  502    0 -0.87151561149E+03  0.91035367724E+03  0.95982782606E+02  0.12639208730E+04  0.25500000920E-02 0.  1.
       -2    1    3    3    0  502  0.87151561149E+03 -0.91035367724E+03 -0.15200563716E+03  0.12694049758E+04  0.25500000920E-02 0. -1.
</event>
<event>
 5   0  0.2746631E-06  0.2612112E+04  0.7818609E-02  0.8364099E-01
       -2   -1    0    0    0  501  0.00000000000E+00  0.00000000000E+00  0.16820372465E+04  0.16820372465E+04  0.25500000920E-02 0. -1.
        2   -1    0    0  501    0  0.00000000000E+00  0.00000000000E+00 -0.10141171476E+04  0.10141171476E+04  0.25500000920E-02 0.  1.
    10030    2    1    2    0    0  0.00000000000E+00  0.00000000000E+00  0.66792009890E+03  0.26961543941E+04  0.26121124130E+04 0.  0.
        2    1    3    3  502    0  0.62447547406E+03 -0.81882546373E+03 -0.49521558888E+03  0.11426649716E+04  0.25500000920E-02 0.  1.
       -2    1    3    3    0  502 -0.62447547406E+03  0.81882546373E+03  0.11631356878E+04  0.15534894225E+04  0.25500000920E-02 0. -1.
</event>
<event>
 5   0  0.1055179E-06  0.2587567E+04  0.7818609E-02  0.8372437E-01
        1   -1    0    0  501    0  0.00000000000E+00  0.00000000000E+00  0.15622495851E+04  0.15622495851E+04  0.50400001928E-02 0.  1.
       -1   -1    0    0    0  501  0.00000000000E+00  0.00000000000E+00 -0.10714521941E+04  0.10714521942E+04  0.50400001928E-02 0. -1.
    10030    2    1    2    0    0  0.00000000000E+00  0.00000000000E+00  0.49079739099E+03  0.26337017793E+04  0.25875670007E+04 0.  0.
        3    1    3    3  502    0 -0.11213374877E+04  0.17388161384E+03 -0.38716664633E+03  0.11989706415E+04  0.10100000352E+00 0. -1.
       -3    1    3    3    0  502  0.11213374877E+04 -0.17388161384E+03  0.87796403731E+03  0.14347311378E+04  0.10100000352E+00 0.  1.
</event>
<event>
 5   0  0.1032076E-06  0.2602938E+04  0.7818609E-02  0.8367204E-01
       -1   -1    0    0    0  501  0.00000000000E+00  0.00000000000E+00  0.98414106234E+03  0.98414106235E+03  0.50400001928E-02 0.  1.
        1   -1    0    0  501    0  0.00000000000E+00  0.00000000000E+00 -0.17211163369E+04  0.17211163369E+04  0.50400001928E-02 0. -1.
    10030    2    1    2    0    0  0.00000000000E+00  0.00000000000E+00 -0.73697527452E+03  0.27052573992E+04  0.26029377712E+04 0.  0.
        1    1    3    3  502    0  0.64512765567E+02 -0.12977138039E+04 -0.29072503074E+03  0.13314443501E+04  0.50400001928E-02 0. -1.
       -1    1    3    3    0  502 -0.64512765567E+02  0.12977138039E+04 -0.44625024378E+03  0.13738130491E+04  0.50400001928E-02 0.  1.
</event>
<event>
 5   0  0.2586775E-06  0.2599464E+04  0.7818609E-02  0.8368383E-01
        2   -1    0    0  501    0  0.00000000000E+00  0.00000000000E+00  0.17327318151E+04  0.17327318151E+04  0.25500000920E-02 0.  1.
       -2   -1    0    0    0  501  0.00000000000E+00  0.00000000000E+00 -0.97493645650E+03  0.97493645650E+03  0.25500000920E-02 0. -1.
    10030    2    1    2    0    0  0.00000000000E+00  0.00000000000E+00  0.75779535865E+03  0.27076682717E+04  0.25994641109E+04 0.  0.
        1    1    3    3  502    0 -0.72887053378E+02  0.90993307686E+03  0.13426195864E+04  0.16235510712E+04  0.50400001928E-02 0.  1.
       -1    1    3    3    0  502  0.72887053378E+02 -0.90993307686E+03 -0.58482422777E+03  0.10841172005E+04  0.50400001928E-02 0. -1.
</event>
<event>
 5   0  0.2623368E-06  0.2592494E+04  0.7818609E-02  0.8370755E-01
       -2   -1    0    0    0  501  0.00000000000E+00  0.00000000000E+00  0.16637693405E+04  0.16637693405E+04  0.25500000920E-02 0.  1.
        2   -1    0    0  501    0  0.00000000000E+00  0.00000000000E+00 -0.10099090713E+04  0.10099090713E+04  0.25500000920E-02 0. -1.
    10030    2    1    2    0    0  0.00000000000E+00  0.00000000000E+00  0.65386026919E+03  0.26736784118E+04  0.25924935869E+04 0.  0.
        5    1    3    3  502    0  0.30934838582E+02 -0.32624381202E+03 -0.96647321712E+03  0.10205315079E+04  0.46999998093E+01 0. -1.
       -5    1    3    3    0  502 -0.30934838582E+02  0.32624381202E+03  0.16203334863E+04  0.16531469039E+04  0.46999998093E+01 0.  1.
</event>
<event>
 5   0  0.1122628E-06  0.2598922E+04  0.7818609E-02  0.8368568E-01
       -1   -1    0    0    0  501  0.00000000000E+00  0.00000000000E+00  0.16543812381E+04  0.16543812381E+04  0.50400001928E-02 0. -1.
        1   -1    0    0  501    0  0.00000000000E+00  0.00000000000E+00 -0.10206828756E+04  0.10206828756E+04  0.50400001928E-02 0.  1.
    10030    2    1    2    0    0  0.00000000000E+00  0.00000000000E+00  0.63369836247E+03  0.26750641138E+04  0.25989217761E+04 0.  0.
        2    1    3    3  502    0 -0.80203821018E+03  0.82036690590E+03 -0.31121763375E+03  0.11887487398E+04  0.25500000920E-02 0.  1.
       -2    1    3    3    0  502  0.80203821018E+03 -0.82036690590E+03  0.94491599622E+03  0.14863153739E+04  0.25500000920E-02 0. -1.
</event>
<event>
 5   0  0.1122628E-06  0.2599644E+04  0.7818609E-02  0.8368322E-01
        1   -1    0    0  501    0  0.00000000000E+00  0.00000000000E+00  0.90884871084E+03  0.90884871086E+03  0.50400001928E-02 0. -1.
       -1   -1    0    0    0  501  0.00000000000E+00  0.00000000000E+00 -0.18589857687E+04  0.18589857687E+04  0.50400001928E-02 0.  1.
    10030    2    1    2    0    0  0.00000000000E+00  0.00000000000E+00 -0.95013705784E+03  0.27678344795E+04  0.25996436828E+04 0.  0.
        2    1    3    3  502    0 -0.66074520615E+01 -0.12996511978E+04 -0.49636048717E+03  0.13912263035E+04  0.25500000920E-02 0.  1.
       -2    1    3    3    0  502  0.66074520615E+01  0.12996511978E+04 -0.45377657067E+03  0.13766081761E+04  0.25500000920E-02 0. -1.
</event>
<event>
 5   0  0.1055179E-06  0.2597184E+04  0.7818609E-02  0.8369158E-01
       -1   -1    0    0    0  501  0.00000000000E+00  0.00000000000E+00  0.21495670284E+04  0.21495670284E+04  0.50400001928E-02 0. -1.
        1   -1    0    0  501    0  0.00000000000E+00  0.00000000000E+00 -0.78450247517E+03  0.78450247519E+03  0.50400001928E-02 0.  1.
    10030    2    1    2    0    0  0.00000000000E+00  0.00000000000E+00  0.13650645532E+04  0.29340695036E+04  0.25971835933E+04 0.  0.
        3    1    3    3  502    0  0.95397281430E+02  0.82728861343E+02  0.21426149905E+04  0.21463326195E+04  0.10100000352E+00 0. -1.
       -3    1    3    3    0  502 -0.95397281430E+02 -0.82728861343E+02 -0.77755043729E+03  0.78773688408E+03  0.10100000352E+00 0.  1.
</event>
<event>
 5   0  0.2820028E-06  0.2596725E+04  0.7818609E-02  0.8369314E-01
       -2   -1    0    0    0  501  0.00000000000E+00  0.00000000000E+00  0.21819456408E+04  0.21819456408E+04  0.25500000920E-02 0. -1.
        2   -1    0    0  501    0  0.00000000000E+00  0.00000000000E+00 -0.77258829386E+03  0.77258829386E+03  0.25500000920E-02 0.  1.
    10030    2    1    2    0    0  0.00000000000E+00  0.00000000000E+00  0.14093573470E+04  0.29545339347E+04  0.25967253686E+04 0.  0.
        3    1    3    3  502    0 -0.21060639481E+03 -0.10659847855E+04  0.15132856292E+04  0.18629847079E+04  0.10100000352E+00 0.  1.
       -3    1    3    3    0  502  0.21060639481E+03  0.10659847855E+04 -0.10392828218E+03  0.10915492268E+04  0.10100000352E+00 0. -1.
</event>
<event>
 5   0  0.1088757E-06  0.2602418E+04  0.7818609E-02  0.8367380E-01
       -1   -1    0    0    0  501  0.00000000000E+00  0.00000000000E+00  0.14396524800E+04  0.14396524800E+04  0.50400001928E-02 0. -1.
        1   -1    0    0  501    0  0.00000000000E+00  0.00000000000E+00 -0.11760785460E+04  0.11760785460E+04  0.50400001928E-02 0.  1.
    10030    2    1    2    0    0  0.00000000000E+00  0.00000000000E+00  0.26357393401E+03  0.26157310261E+04  0.26024176417E+04 0.  0.
        5    1    3    3  502    0 -0.95031106038E+03 -0.88727907986E+03  0.78915312250E+02  0.13025379048E+04  0.46999998093E+01 0. -1.
       -5    1    3    3    0  502  0.95031106038E+03  0.88727907986E+03  0.18465862176E+03  0.13131931212E+04  0.46999998093E+01 0.  1.
</event>
<event>
 5   0  0.1122628E-06  0.2600351E+04  0.7818609E-02  0.8368082E-01
        1   -1    0    0  501    0  0.00000000000E+00  0.00000000000E+00  0.16493715591E+04  0.16493715591E+04  0.50400001928E-02 0. -1.
       -1   -1    0    0    0  501  0.00000000000E+00  0.00000000000E+00 -0.10249090454E+04  0.10249090455E+04  0.50400001928E-02 0.  1.
    10030    2    1    2    0    0  0.00000000000E+00  0.00000000000E+00  0.62446251366E+03  0.26742806046E+04  0.26003506150E+04 0.  0.
        2    1    3    3  502    0 -0.59698951411E+03  0.98607993820E+03 -0.30628731574E+03  0.11927120542E+04  0.25500000920E-02 0.  1.
       -2    1    3    3    0  502  0.59698951411E+03 -0.98607993820E+03  0.93074982940E+03  0.14815685504E+04  0.25500000920E-02 0. -1.
</event>
<event>
 5   0  0.2820028E-06  0.2598318E+04  0.7818609E-02  0.8368773E-01
        2   -1    0    0  501    0  0.00000000000E+00  0.00000000000E+00  0.19558025897E+04  0.19558025897E+04  0.25500000920E-02 0.  1.
       -2   -1    0    0    0  501  0.00000000000E+00  0.00000000000E+00 -0.86297798495E+03  0.86297798495E+03  0.25500000920E-02 0. -1.
    10030    2    1    2    0    0  0.00000000000E+00  0.00000000000E+00  0.10928246047E+04  0.28187805746E+04  0.25983183622E+04 0.  0.
        3    1    3    3  502    0 -0.38367369194E+02 -0.12638926653E+04  0.86990417020E+03  0.15348061766E+04  0.10100000352E+00 0.  1.
       -3    1    3    3    0  502  0.38367369194E+02  0.12638926653E+04  0.22292043453E+03  0.12839743980E+04  0.10100000352E+00 0. -1.
</event>
<event>
 5   0  0.2623368E-06  0.2587558E+04  0.7818609E-02  0.8372440E-01
        2   -1    0    0  501    0  0.00000000000E+00  0.00000000000E+00  0.94854696206E+03  0.94854696207E+03  0.25500000920E-02 0. -1.
       -2   -1    0    0    0  501  0.00000000000E+00  0.00000000000E+00 -0.17646613445E+04  0.17646613445E+04  0.25500000920E-02 0.  1.
    10030    2    1    2    0    0  0.00000000000E+00  0.00000000000E+00 -0.81611438245E+03  0.27132083066E+04  0.25875580437E+04 0.  0.
        5    1    3    3  502    0 -0.29205751024E+03  0.39875597067E+03 -0.16617493597E+04  0.17337061279E+04  0.46999998093E+01 0.  1.
       -5    1    3    3    0  502  0.29205751024E+03 -0.39875597067E+03  0.84563497721E+03  0.97950217872E+03  0.46999998093E+01 0. -1.
</event>
<event>
 5   0  0.2623368E-06  0.2597649E+04  0.7818609E-02  0.8369000E-01
        2   -1    0    0  501    0  0.00000000000E+00  0.00000000000E+00  0.17478137263E+04  0.17478137263E+04  0.25500000920E-02 0.  1.
       -2   -1    0    0    0  501  0.00000000000E+00  0.00000000000E+00 -0.96517464218E+03  0.96517464218E+03  0.25500000920E-02 0. -1.
    10030    2    1    2    0    0  0.00000000000E+00  0.00000000000E+00  0.78263908407E+03  0.27129883684E+04  0.25976493126E+04 0.  0.
        5    1    3    3  502    0 -0.11992872867E+04  0.26796473865E+01  0.91208344866E+03  0.15067234265E+04  0.46999998093E+01 0.  1.
       -5    1    3    3    0  502  0.11992872867E+04 -0.26796473865E+01 -0.12944436458E+03  0.12062649419E+04  0.46999998093E+01 0. -1.
</event>
<event>
 5   0  0.2623368E-06  0.2601611E+04  0.7818609E-02  0.8367654E-01
        2   -1    0    0  501    0  0.00000000000E+00  0.00000000000E+00  0.18922918756E+04  0.18922918756E+04  0.25500000920E-02 0. -1.
       -2   -1    0    0    0  501  0.00000000000E+00  0.00000000000E+00 -0.89420433067E+03  0.89420433067E+03  0.25500000920E-02 0.  1.
    10030    2    1    2    0    0  0.00000000000E+00  0.00000000000E+00  0.99808754493E+03  0.27864962063E+04  0.26016114929E+04 0.  0.
        5    1    3    3  502    0  0.56521573805E+02 -0.11533013436E+04 -0.14250103287E+03  0.11634549032E+04  0.46999998093E+01 0.  1.
       -5    1    3    3    0  502 -0.56521573805E+02  0.11533013436E+04  0.11405885778E+04  0.16230413030E+04  0.46999998093E+01 0. -1.
</event>
<event>
 5   0  0.2746631E-06  0.2597552E+04  0.7818609E-02  0.8369033E-01
        2   -1    0    0  501    0  0.00000000000E+00  0.00000000000E+00  0.18055581065E+04  0.18055581065E+04  0.25500000920E-02 0. -1.
       -2   -1    0    0    0  501  0.00000000000E+00  0.00000000000E+00 -0.93423706562E+03  0.93423706563E+03  0.25500000920E-02 0.  1.
    10030    2    1    2    0    0  0.00000000000E+00  0.00000000000E+00  0.87132104089E+03  0.27397951721E+04  0.25975521610E+04 0.  0.
        2    1    3    3  502    0 -0.70955536443E+03  0.10683288192E+04  0.21943714263E+03  0.13011333293E+04  0.25500000920E-02 0.  1.
       -2    1    3    3    0  502  0.70955536443E+03 -0.10683288192E+04  0.65188389826E+03  0.14386618428E+04  0.25500000920E-02 0. -1.
</event>
<event>
 5   0  0.2705807E-06  0.2600905E+04  0.7818609E-02  0.8367894E-01
        2   -1    0    0  501    0  0.00000000000E+00  0.00000000000E+00  0.11522263823E+04  0.11522263823E+04  0.25500000920E-02 0.  1.
       -2   -1    0    0    0  501  0.00000000000E+00  0.00000000000E+00 -0.14677465035E+04  0.14677465035E+04  0.25500000920E-02 0. -1.
    10030    2    1    2    0    0  0.00000000000E+00  0.00000000000E+00 -0.31552012120E+03  0.26199728859E+04  0.26009046457E+04 0.  0.
        4    1    3    3  502    0  0.10831765197E+04  0.45660657744E+03  0.40256768808E+03  0.12425068594E+04  0.12699999809E+01 0.  1.
       -4    1    3    3    0  502 -0.10831765197E+04 -0.45660657744E+03 -0.71808780928E+03  0.13774660265E+04  0.12699999809E+01 0. -1.
</event>
<event>
 5   0  0.2820028E-06  0.2611092E+04  0.7818609E-02  0.8364443E-01
       -2   -1    0    0    0  501  0.00000000000E+00  0.00000000000E+00  0.18911463643E+04  0.18911463643E+04  0.25500000920E-02 0. -1.
        2   -1    0    0  501    0  0.00000000000E+00  0.00000000000E+00 -0.90127913597E+03  0.90127913598E+03  0.25500000920E-02 0.  1.
    10030    2    1    2    0    0  0.00000000000E+00  0.00000000000E+00  0.98986722837E+03  0.27924255003E+04  0.26110923088E+04 0.  0.
        3    1    3    3  502    0  0.28986539852E+03  0.91720042955E+03 -0.44907528193E+03  0.10615776921E+04  0.10100000352E+00 0. -1.
       -3    1    3    3    0  502 -0.28986539852E+03 -0.91720042955E+03  0.14389425103E+04  0.17308478083E+04  0.10100000352E+00 0.  1.
</event>
<event>
 5   0  0.2623368E-06  0.2599923E+04  0.7818609E-02  0.8368227E-01
       -2   -1    0    0    0  501  0.00000000000E+00  0.00000000000E+00  0.11509957925E+04  0.11509957925E+04  0.25500000920E-02 0. -1.
        2   -1    0    0  501    0  0.00000000000E+00  0.00000000000E+00 -0.14682069125E+04  0.14682069125E+04  0.25500000920E-02 0.  1.
    10030    2    1    2    0    0  0.00000000000E+00  0.00000000000E+00 -0.31721112001E+03  0.26192027050E+04  0.25999230595E+04 0.  0.
        5    1    3    3  502    0  0.53699770913E+03 -0.11797574663E+04 -0.25774092382E+03  0.13216076167E+04  0.46999998093E+01 0. -1.
       -5    1    3    3    0  502 -0.53699770913E+03  0.11797574663E+04 -0.59470196183E+02  0.12975950883E+04  0.46999998093E+01 0.  1.
</event>
<event>
 5   0  0.2586775E-06  0.2605838E+04  0.7818609E-02  0.8366221E-01
       -2   -1    0    0    0  501  0.00000000000E+00  0.00000000000E+00  0.93181767315E+03  0.93181767315E+03  0.25500000920E-02 0.  1.
        2   -1    0    0  501    0  0.00000000000E+00  0.00000000000E+00 -0.18218134947E+04  0.18218134947E+04  0.25500000920E-02 0. -1.
    10030    2    1    2    0    0  0.00000000000E+00  0.00000000000E+00 -0.88999582155E+03  0.27536311678E+04  0.26058380698E+04 0.  0.
        1    1    3    3  502    0 -0.12375457502E+04  0.16327229572E+02 -0.87529286800E+03  0.15158903876E+04  0.50400001928E-02 0.  1.
       -1    1    3    3    0  502  0.12375457502E+04 -0.16327229572E+02 -0.14702953552E+02  0.12377407803E+04  0.50400001928E-02 0. -1.
</event>
<event>
 5   0  0.9197000E-07  0.2595957E+04  0.7818609E-02  0.8369576E-01
        3   -1    0    0  501    0  0.00000000000E+00  0.00000000000E+00  0.16892876071E+04  0.16892876101E+04  0.10100000352E+00 0.  1.
       -3   -1    0    0    0  501  0.00000000000E+00  0.00000000000E+00 -0.99731280259E+03  0.99731280771E+03  0.10100000352E+00 0. -1.
    10030    2    1    2    0    0  0.00000000000E+00  0.00000000000E+00  0.69197480447E+03  0.26866004178E+04  0.25959569863E+04 0.  0.
        4    1    3    3  502    0 -0.10485883431E+04  0.76145106115E+03  0.42204729356E+03  0.13628905909E+04  0.12699999809E+01 0. -1.
       -4    1    3    3    0  502  0.10485883431E+04 -0.76145106115E+03  0.26992751091E+03  0.13237098269E+04  0.12699999809E+01 0.  1.
</event>
<event>
 5   0  0.2586775E-06  0.2595739E+04  0.7818609E-02  0.8369650E-01
       -2   -1    0    0    0  501  0.00000000000E+00  0.00000000000E+00  0.13465065478E+04  0.13465065478E+04  0.25500000920E-02 0.  1.
        2   -1    0    0  501    0  0.00000000000E+00  0.00000000000E+00 -0.12509894012E+04  0.12509894012E+04  0.25500000920E-02 0. -1.
    10030    2    1    2    0    0  0.00000000000E+00  0.00000000000E+00  0.95517146640E+02  0.25974959490E+04  0.25957391394E+04 0.  0.
        1    1    3    3  502    0 -0.73276076805E+03  0.22541355763E+03 -0.10001922046E+04  0.12602119113E+04  0.50400001928E-02 0. -1.
       -1    1    3    3    0  502  0.73276076805E+03 -0.22541355763E+03  0.10957093512E+04  0.13372840377E+04  0.50400001928E-02 0.  1.
</event>
<event>
 5   0  0.1122628E-06  0.2601093E+04  0.7818609E-02  0.8367830E-01
        1   -1    0    0  501    0  0.00000000000E+00  0.00000000000E+00  0.18758263642E+04  0.18758263642E+04  0.50400001928E-02 0. -1.
       -1   -1    0    0    0  501  0.00000000000E+00  0.00000000000E+00 -0.90169422334E+03  0.90169422335E+03  0.50400001928E-02 0.  1.
    10030    2    1    2    0    0  0.00000000000E+00  0.00000000000E+00  0.97413214085E+03  0.27775205876E+04  0.26010934598E+04 0.  0.
        2    1    3    3  502    0  0.52396067584E+03  0.11393765048E+04  0.85497613286E+03  0.15177937268E+04  0.25500000920E-02 0.  1.
       -2    1    3    3    0  502 -0.52396067584E+03 -0.11393765048E+04  0.11915600800E+03  0.12597268607E+04  0.25500000920E-02 0. -1.
</event>
<event>
 5   0  0.2820028E-06  0.2594612E+04  0.7818609E-02  0.8370034E-01
        2   -1    0    0  501    0  0.00000000000E+00  0.00000000000E+00  0.32122230526E+04  0.32122230526E+04  0.25500000920E-02 0.  1.
       -2   -1    0    0    0  501  0.00000000000E+00  0.00000000000E+00 -0.52393704500E+03  0.52393704501E+03  0.25500000920E-02 0. -1.
    10030    2    1    2    0    0  0.00000000000E+00  0.00000000000E+00  0.26882860076E+04  0.37361600976E+04  0.25946118431E+04 0.  0.
        3    1    3    3  502    0  0.10714218297E+04 -0.42913811133E+03  0.21971326672E+04  0.24818332384E+04  0.10100000352E+00 0.  1.
       -3    1    3    3    0  502 -0.10714218297E+04  0.42913811133E+03  0.49115334035E+03  0.12543268592E+04  0.10100000352E+00 0. -1.
</event>
<event>
 5   0  0.1100104E-06  0.2598199E+04  0.7818609E-02  0.8368813E-01
       -1   -1    0    0    0  501  0.00000000000E+00  0.00000000000E+00  0.11298694565E+04  0.11298694565E+04  0.50400001928E-02 0. -1.
        1   -1    0    0  501    0  0.00000000000E+00  0.00000000000E+00 -0.14936766448E+04  0.14936766448E+04  0.50400001928E-02 0.  1.
    10030    2    1    2    0    0  0.00000000000E+00  0.00000000000E+00 -0.36380718837E+03  0.26235461013E+04  0.25981990831E+04 0.  0.
        4    1    3    3  502    0  0.92255892625E+03 -0.77356535225E+03 -0.67465986201E+03  0.13801035718E+04  0.12699999809E+01 0.  1.
       -4    1    3    3    0  502 -0.92255892625E+03  0.77356535225E+03  0.31085267364E+03  0.12434425295E+04  0.12699999809E+01 0. -1.
</event>
<event>
 5   0  0.1032076E-06  0.2599323E+04  0.7818609E-02  0.8368431E-01
        1   -1    0    0  501    0  0.00000000000E+00  0.00000000000E+00  0.16906850240E+04  0.16906850240E+04  0.50400001928E-02 0.  1.
       -1   -1    0    0    0  501  0.00000000000E+00  0.00000000000E+00 -0.99907460219E+03  0.99907460220E+03  0.50400001928E-02 0. -1.
    10030    2    1    2    0    0  0.00000000000E+00  0.00000000000E+00  0.69161042184E+03  0.26897596262E+04  0.25993233487E+04 0.  0.
        1    1    3    3  502    0 -0.10831642557E+04  0.65690990042E+02 -0.39431387423E+03  0.11545750484E+04  0.50400001928E-02 0. -1.
       -1    1    3    3    0  502  0.10831642557E+04 -0.65690990042E+02  0.10859242961E+04  0.15351845778E+04  0.50400001928E-02 0.  1.
</event>
<event>
 5   0  0.1088757E-06  0.2603354E+04  0.7818609E-02  0.8367063E-01
        1   -1    0    0  501    0  0.00000000000E+00  0.00000000000E+00  0.23088060323E+04  0.23088060323E+04  0.50400001928E-02 0. -1.
       -1   -1    0    0    0  501  0.00000000000E+00  0.00000000000E+00 -0.73386973592E+03  0.73386973594E+03  0.50400001928E-02 0.  1.
    10030    2    1    2    0    0  0.00000000000E+00  0.00000000000E+00  0.15749362964E+04  0.30426757683E+04  0.26033538932E+04 0.  0.
        5    1    3    3  502    0  0.61786899068E+03 -0.11421980815E+04  0.89175750662E+03  0.15753196779E+04  0.46999998093E+01 0. -1.
       -5    1    3    3    0  502 -0.61786899068E+03  0.11421980815E+04  0.68317878977E+03  0.14673560903E+04  0.46999998093E+01 0.  1.
</event>
<event>
 5   0  0.2705807E-06  0.2580734E+04  0.7818609E-02  0.8374775E-01
       -2   -1    0    0    0  501  0.00000000000E+00  0.00000000000E+00  0.12480040879E+04  0.12480040879E+04  0.25500000920E-02 0.  1.
        2   -1    0    0  501    0  0.00000000000E+00  0.00000000000E+00 -0.13341678014E+04  0.13341678014E+04  0.25500000920E-02 0. -1.
    10030    2    1    2    0    0  0.00000000000E+00  0.00000000000E+00 -0.86163713529E+02  0.25821718893E+04  0.25807339034E+04 0.  0.
        4    1    3    3  502    0 -0.31988520265E+03  0.52685636467E+02  0.12065908299E+04  0.12493859944E+04  0.12699999809E+01 0.  1.
       -4    1    3    3    0  502  0.31988520265E+03 -0.52685636467E+02 -0.12927545435E+04  0.13327858949E+04  0.12699999809E+01 0. -1.
</event>
<event>
 5   0  0.1122628E-06  0.2601285E+04  0.7818609E-02  0.8367765E-01
        1   -1    0    0  501    0  0.00000000000E+00  0.00000000000E+00  0.15016978353E+04  0.15016978353E+04  0.50400001928E-02 0. -1.
       -1   -1    0    0    0  501  0.00000000000E+00  0.00000000000E+00 -0.11265052155E+04  0.11265052155E+04  0.50400001928E-02 0.  1.
    10030    2    1    2    0    0  0.00000000000E+00  0.00000000000E+00  0.37519261984E+03  0.26282030508E+04  0.26012846392E+04 0.  0.
        2    1    3    3  502    0  0.81970944317E+02 -0.73865332762E+03 -0.89084913830E+03  0.11601466120E+04  0.25500000920E-02 0.  1.
       -2    1    3    3    0  502 -0.81970944317E+02  0.73865332762E+03  0.12660417581E+04  0.14680564388E+04  0.25500000920E-02 0. -1.
</event>
<event>
 5   0  0.2746631E-06  0.2605495E+04  0.7818609E-02  0.8366337E-01
       -2   -1    0    0    0  501  0.00000000000E+00  0.00000000000E+00  0.12325283066E+04  0.12325283066E+04  0.25500000920E-02 0. -1.
        2   -1    0    0  501    0  0.00000000000E+00  0.00000000000E+00 -0.13769671987E+04  0.13769671987E+04  0.25500000920E-02 0.  1.
    10030    2    1    2    0    0  0.00000000000E+00  0.00000000000E+00 -0.14443889212E+03  0.26094955053E+04  0.26054950007E+04 0.  0.
        2    1    3    3  502    0 -0.92570659469E+03 -0.26968667884E+03 -0.94962817152E+03  0.13533134405E+04  0.25500000920E-02 0.  1.
       -2    1    3    3    0  502  0.92570659469E+03  0.26968667884E+03  0.80518927940E+03  0.12561820648E+04  0.25500000920E-02 0. -1.
</event>
<event>
 5   0  0.2586775E-06  0.2602852E+04  0.7818609E-02  0.8367233E-01
       -2   -1    0    0    0  501  0.00000000000E+00  0.00000000000E+00  0.14786777170E+04  0.14786777170E+04  0.25500000920E-02 0. -1.
        2   -1    0    0  501    0  0.00000000000E+00  0.00000000000E+00 -0.11454217849E+04  0.11454217849E+04  0.25500000920E-02 0.  1.
    10030    2    1    2    0    0  0.00000000000E+00  0.00000000000E+00  0.33325593216E+03  0.26240995019E+04  0.26028520280E+04 0.  0.
        1    1    3    3  502    0 -0.43377466877E+03  0.27276362427E+03  0.13727000839E+04  0.14652187476E+04  0.50400001928E-02 0. -1.
       -1    1    3    3    0  502  0.43377466877E+03 -0.27276362427E+03 -0.10394441518E+04  0.11588807543E+04  0.50400001928E-02 0.  1.
</event>
<event>
 5   0  0.2623368E-06  0.2597325E+04  0.7818609E-02  0.8369110E-01
       -2   -1    0    0    0  501  0.00000000000E+00  0.00000000000E+00  0.62474203534E+03  0.62474203534E+03  0.25500000920E-02 0.  1.
        2   -1    0    0  501    0  0.00000000000E+00  0.00000000000E+00 -0.26995528879E+04  0.26995528879E+04  0.25500000920E-02 0. -1.
    10030    2    1    2    0    0  0.00000000000E+00  0.00000000000E+00 -0.20748108526E+04  0.33242949233E+04  0.25973249051E+04 0.  0.
        5    1    3    3  502    0  0.45715709322E+03 -0.10443133742E+04 -0.18335341984E+04  0.21590397815E+04  0.46999998093E+01 0. -1.
       -5    1    3    3    0  502 -0.45715709322E+03  0.10443133742E+04 -0.24127665412E+03  0.11652551417E+04  0.46999998093E+01 0.  1.
</event>
<event>
 5   0  0.1122628E-06  0.2604997E+04  0.7818609E-02  0.8366506E-01
       -1   -1    0    0    0  501  0.00000000000E+00  0.00000000000E+00  0.11118909658E+04  0.11118909658E+04  0.50400001928E-02 0.  1.
        1   -1    0    0  501    0  0.00000000000E+00  0.00000000000E+00 -0.15257811495E+04  0.15257811495E+04  0.50400001928E-02 0. -1.
    10030    2    1    2    0    0  0.00000000000E+00  0.00000000000E+00 -0.41389018367E+03  0.26376721153E+04  0.26049969489E+04 0.  0.
        2    1    3    3  502    0  0.80472389137E+03 -0.22609112376E+03  0.80448606223E+03  0.11601273904E+04  0.25500000920E-02 0.  1.
       -2    1    3    3    0  502 -0.80472389137E+03  0.22609112376E+03 -0.12183762459E+04  0.14775447249E+04  0.25500000920E-02 0. -1.
</event>
<event>
 5   0  0.1100104E-06  0.2597196E+04  0.7818609E-02  0.8369154E-01
       -1   -1    0    0    0  501  0.00000000000E+00  0.00000000000E+00  0.13111842397E+04  0.13111842398E+04  0.50400001928E-02 0. -1.
        1   -1    0    0  501    0  0.00000000000E+00  0.00000000000E+00 -0.12861324514E+04  0.12861324514E+04  0.50400001928E-02 0.  1.
    10030    2    1    2    0    0  0.00000000000E+00  0.00000000000E+00  0.25051788350E+02  0.25973166912E+04  0.25971958729E+04 0.  0.
        4    1    3    3  502    0  0.52796642151E+03  0.38082271891E+03 -0.11111724516E+04  0.12878199857E+04  0.12699999809E+01 0.  1.
       -4    1    3    3    0  502 -0.52796642151E+03 -0.38082271891E+03  0.11362242399E+04  0.13094967055E+04  0.12699999809E+01 0. -1.
</event>
<event>
 5   0  0.2705807E-06  0.2598095E+04  0.7818609E-02  0.8368849E-01
        2   -1    0    0  501    0  0.00000000000E+00  0.00000000000E+00  0.10804307877E+04  0.10804307877E+04  0.25500000920E-02 0.  1.
       -2   -1    0    0    0  501  0.00000000000E+00  0.00000000000E+00 -0.15618990492E+04  0.15618990492E+04  0.25500000920E-02 0. -1.
    10030    2    1    2    0    0  0.00000000000E+00  0.00000000000E+00 -0.48146826147E+03  0.26423298369E+04  0.25980945480E+04 0.  0.
        4    1    3    3  502    0  0.63368017783E+03  0.10658168264E+04 -0.63463467734E+03  0.13929389297E+04  0.12699999809E+01 0.  1.
       -4    1    3    3    0  502 -0.63368017783E+03 -0.10658168264E+04  0.15316641587E+03  0.12493909072E+04  0.12699999809E+01 0. -1.
</event>
<event>
 5   0  0.2820028E-06  0.2598872E+04  0.7818609E-02  0.8368584E-01
        2   -1    0    0  501    0  0.00000000000E+00  0.00000000000E+00  0.14602952627E+04  0.14602952627E+04  0.25500000920E-02 0. -1.
       -2   -1    0    0    0  501  0.00000000000E+00  0.00000000000E+00 -0.11562965652E+04  0.11562965652E+04  0.25500000920E-02 0.  1.
    10030    2    1    2    0    0  0.00000000000E+00  0.00000000000E+00  0.30399869749E+03  0.26165918279E+04  0.25988723681E+04 0.  0.
        3    1    3    3  502    0 -0.83151729270E+03  0.25760285515E+03  0.11233331884E+04  0.14211466150E+04  0.10100000352E+00 0. -1.
       -3    1    3    3    0  502  0.83151729270E+03 -0.25760285515E+03 -0.81933449086E+03  0.11954452129E+04  0.10100000352E+00 0.  1.
</event>
<event>
 5   0  0.1032076E-06  0.2597701E+04  0.7818609E-02  0.8368983E-01
       -1   -1    0    0    0  501  0.00000000000E+00  0.00000000000E+00  0.15274870745E+04  0.15274870745E+04  0.50400001928E-02 0. -1.
        1   -1    0    0  501    0  0.00000000000E+00  0.00000000000E+00 -0.11044362362E+04  0.11044362362E+04  0.50400001928E-02 0.  1.
    10030    2    1    2    0    0  0.00000000000E+00  0.00000000000E+00  0.42305083830E+03  0.26319233107E+04  0.25977005797E+04 0.  0.
        1    1    3    3  502    0 -0.29231895869E+03  0.12554846616E+04  0.50306612833E+02  0.12900476210E+04  0.50400001928E-02 0.  1.
       -1    1    3    3    0  502  0.29231895869E+03 -0.12554846616E+04  0.37274422547E+03  0.13418756897E+04  0.50400001928E-02 0. -1.
</event>
<event>
 5   0  0.1032076E-06  0.2588081E+04  0.7818609E-02  0.8372261E-01
       -1   -1    0    0    0  501  0.00000000000E+00  0.00000000000E+00  0.11076582180E+04  0.11076582180E+04  0.50400001928E-02 0.  1.
        1   -1    0    0  501    0  0.00000000000E+00  0.00000000000E+00 -0.15117843656E+04  0.15117843656E+04  0.50400001928E-02 0. -1.
    10030    2    1    2    0    0  0.00000000000E+00  0.00000000000E+00 -0.40412614753E+03  0.26194425836E+04  0.25880806606E+04 0.  0.
        1    1    3    3  502    0 -0.10207438981E+04  0.29906679237E+03 -0.94800237755E+03  0.14248043935E+04  0.50400001928E-02 0. -1.
       -1    1    3    3    0  502  0.10207438981E+04 -0.29906679237E+03  0.54387623002E+03  0.11946381901E+04  0.50400001928E-02 0.  1.
</event>
<event>
 5   0  0.1122628E-06  0.2607857E+04  0.7818609E-02  0.8365537E-01
        1   -1    0    0  501    0  0.00000000000E+00  0.00000000000E+00  0.12818887076E+04  0.12818887076E+04  0.50400001928E-02 0.  1.
       -1   -1    0    0    0  501  0.00000000000E+00  0.00000000000E+00 -0.13263471541E+04  0.13263471541E+04  0.50400001928E-02 0. -1.
    10030    2    1    2    0    0  0.00000000000E+00  0.00000000000E+00 -0.44458446478E+02  0.26082358617E+04  0.26078569279E+04 0.  0.
        2    1    3    3  502    0  0.94141595236E+03 -0.87223291233E+03  0.20840174766E+03  0.13001867316E+04  0.25500000920E-02 0.  1.
       -2    1    3    3    0  502 -0.94141595236E+03  0.87223291233E+03 -0.25286019414E+03  0.13080491300E+04  0.25500000920E-02 0. -1.
</event>
<event>
 5   0  0.1122628E-06  0.2599106E+04  0.7818609E-02  0.8368505E-01
       -1   -1    0    0    0  501  0.00000000000E+00  0.00000000000E+00  0.81275582956E+03  0.81275582958E+03  0.50400001928E-02 0.  1.
        1   -1    0    0  501    0  0.00000000000E+00  0.00000000000E+00 -0.20779157057E+04  0.20779157057E+04  0.50400001928E-02 0. -1.
    10030    2    1    2    0    0  0.00000000000E+00  0.00000000000E+00 -0.12651598762E+04  0.28906715353E+04  0.25991060796E+04 0.  0.
        2    1    3    3  502    0 -0.51307308265E+03 -0.11936124226E+04 -0.59952183554E+03  0.14308672317E+04  0.25500000920E-02 0. -1.
       -2    1    3    3    0  502  0.51307308265E+03  0.11936124226E+04 -0.66563804064E+03  0.14598043036E+04  0.25500000920E-02 0.  1.
</event>
<event>
 5   0  0.2623368E-06  0.2601853E+04  0.7818609E-02  0.8367572E-01
       -2   -1    0    0    0  501  0.00000000000E+00  0.00000000000E+00  0.84955573191E+03  0.84955573191E+03  0.25500000920E-02 0.  1.
        2   -1    0    0  501    0  0.00000000000E+00  0.00000000000E+00 -0.19921108280E+04  0.19921108280E+04  0.25500000920E-02 0. -1.
    10030    2    1    2    0    0  0.00000000000E+00  0.00000000000E+00 -0.11425550960E+04  0.28416665599E+04  0.26018525496E+04 0.  0.
        5    1    3    3  502    0  0.44005760045E+03 -0.51262773973E+03 -0.17854789907E+04  0.19090299127E+04  0.46999998093E+01 0. -1.
       -5    1    3    3    0  502 -0.44005760045E+03  0.51262773973E+03  0.64292389469E+03  0.93263664716E+03  0.46999998093E+01 0.  1.
</event>
<event>
 5   0  0.1088757E-06  0.2602585E+04  0.7818609E-02  0.8367324E-01
        1   -1    0    0  501    0  0.00000000000E+00  0.00000000000E+00  0.26472657372E+04  0.26472657372E+04  0.50400001928E-02 0. -1.
       -1   -1    0    0    0  501  0.00000000000E+00  0.00000000000E+00 -0.63966475368E+03  0.63966475370E+03  0.50400001928E-02 0.  1.
    10030    2    1    2    0    0  0.00000000000E+00  0.00000000000E+00  0.20076009835E+04  0.32869304909E+04  0.26025853191E+04 0.  0.
        5    1    3    3  502    0  0.51774513440E+01 -0.12507607081E+04  0.14572522681E+04  0.19204258428E+04  0.46999998093E+01 0.  1.
       -5    1    3    3    0  502 -0.51774513440E+01  0.12507607081E+04  0.55034871549E+03  0.13665046482E+04  0.46999998093E+01 0. -1.
</event>
<event>
 5   0  0.1055179E-06  0.2611819E+04  0.7818609E-02  0.8364197E-01
        1   -1    0    0  501    0  0.00000000000E+00  0.00000000000E+00  0.18053410358E+04  0.18053410358E+04  0.50400001928E-02 0.  1.
       -1   -1    0    0    0  501  0.00000000000E+00  0.00000000000E+00 -0.94464156279E+03  0.94464156280E+03  0.50400001928E-02 0. -1.
    10030    2    1    2    0    0  0.00000000000E+00  0.00000000000E+00  0.86069947297E+03  0.27499825986E+04  0.26118194252E+04 0.  0.
        3    1    3    3  502    0  0.11994053378E+04 -0.15289183527E+03  0.94985823855E+03  0.15375889441E+04  0.10100000352E+00 0.  1.
       -3    1    3    3    0  502 -0.11994053378E+04  0.15289183527E+03 -0.89158765580E+02  0.12123936544E+04  0.10100000352E+00 0. -1.
</event>
<event>
 5   0  0.1088757E-06  0.2601673E+04  0.7818609E-02  0.8367633E-01
       -1   -1    0    0    0  501  0.00000000000E+00  0.00000000000E+00  0.14255192916E+04  0.14255192916E+04  0.50400001928E-02 0. -1.
        1   -1    0    0  501    0  0.00000000000E+00  0.00000000000E+00 -0.11870586179E+04  0.11870586180E+04  0.50400001928E-02 0.  1.
    10030    2    1    2    0    0  0.00000000000E+00  0.00000000000E+00  0.23846067365E+03  0.26125779096E+04  0.26016725083E+04 0.  0.
        5    1    3    3  502    0 -0.34929790733E+03 -0.27083551479E+03 -0.11093324157E+04  0.11941530064E+04  0.46999998093E+01 0.  1.
       -5    1    3    3    0  502  0.34929790733E+03  0.27083551479E+03  0.13477930894E+04  0.14184249032E+04  0.46999998093E+01 0. -1.
</event>
<event>
 5   0  0.1032076E-06  0.2606174E+04  0.7818609E-02  0.8366107E-01
       -1   -1    0    0    0  501  0.00000000000E+00  0.00000000000E+00  0.78419135671E+03  0.78419135673E+03  0.50400001928E-02 0.  1.
        1   -1    0    0  501    0  0.00000000000E+00  0.00000000000E+00 -0.21653331008E+04  0.21653331008E+04  0.50400001928E-02 0. -1.
    10030    2    1    2    0    0  0.00000000000E+00  0.00000000000E+00 -0.13811417441E+04  0.29495244575E+04  0.26061738254E+04 0.  0.
        1    1    3    3  502    0 -0.25862606754E+03  0.12767909457E+04 -0.72550753816E+03  0.14911216415E+04  0.50400001928E-02 0.  1.
       -1    1    3    3    0  502  0.25862606754E+03 -0.12767909457E+04 -0.65563420590E+03  0.14584028160E+04  0.50400001928E-02 0. -1.
</event>
<event>
 5   0  0.2746631E-06  0.2598632E+04  0.7818609E-02  0.8368666E-01
       -2   -1    0    0    0  501  0.00000000000E+00  0.00000000000E+00  0.11639093798E+04  0.11639093798E+04  0.25500000920E-02 0.  1.
        2   -1    0    0  501    0  0.00000000000E+00  0.00000000000E+00 -0.14504755655E+04  0.14504755655E+04  0.25500000920E-02 0. -1.
    10030    2    1    2    0    0  0.00000000000E+00  0.00000000000E+00 -0.28656618570E+03  0.26143849454E+04  0.25986320370E+04 0.  0.
        2    1    3    3  502    0  0.26749935134E+03 -0.10261883176E+04  0.61200333851E+03  0.12244045297E+04  0.25500000920E-02 0.  1.
       -2    1    3    3    0  502 -0.26749935134E+03  0.10261883176E+04 -0.89856952422E+03  0.13899804157E+04  0.25500000920E-02 0. -1.
</event>
<event>
 5   0  0.2586775E-06  0.2595774E+04  0.7818609E-02  0.8369638E-01
       -2   -1    0    0    0  501  0.00000000000E+00  0.00000000000E+00  0.96848020964E+03  0.96848020964E+03  0.25500000920E-02 0.  1.
        2   -1    0    0  501    0  0.00000000000E+00  0.00000000000E+00 -0.17393339612E+04  0.17393339612E+04  0.25500000920E-02 0. -1.
    10030    2    1    2    0    0  0.00000000000E+00  0.00000000000E+00 -0.77085375158E+03  0.27078141709E+04  0.25957738880E+04 0.  0.
        1    1    3    3  502    0 -0.57671938010E+03  0.69147212715E+03  0.58967715827E+03  0.10763169129E+04  0.50400001928E-02 0.  1.
       -1    1    3    3    0  502  0.57671938010E+03 -0.69147212715E+03 -0.13605309099E+04  0.16314972579E+04  0.50400001928E-02 0. -1.
</event>
<event>
 5   0  0.1088757E-06  0.2597259E+04  0.7818609E-02  0.8369133E-01
        1   -1    0    0  501    0  0.00000000000E+00  0.00000000000E+00  0.16344488544E+04  0.16344488544E+04  0.50400001928E-02 0. -1.
       -1   -1    0    0    0  501  0.00000000000E+00  0.00000000000E+00 -0.10318090725E+04  0.10318090725E+04  0.50400001928E-02 0.  1.
    10030    2    1    2    0    0  0.00000000000E+00  0.00000000000E+00  0.60263978187E+03  0.26662579269E+04  0.25972594453E+04 0.  0.
        5    1    3    3  502    0 -0.30878055173E+03  0.17660219914E+03  0.15834523044E+04  0.16229223815E+04  0.46999998093E+01 0. -1.
       -5    1    3    3    0  502  0.30878055173E+03 -0.17660219914E+03 -0.98081252258E+03  0.10433355454E+04  0.46999998093E+01 0.  1.
</event>
<event>
 5   0  0.1122628E-06  0.2601270E+04  0.7818609E-02  0.8367770E-01
        1   -1    0    0  501    0  0.00000000000E+00  0.00000000000E+00  0.23758386741E+04  0.23758386741E+04  0.50400001928E-02 0.  1.
       -1   -1    0    0    0  501  0.00000000000E+00  0.00000000000E+00 -0.71202285307E+03  0.71202285308E+03  0.50400001928E-02 0. -1.
    10030    2    1    2    0    0  0.00000000000E+00  0.00000000000E+00  0.16638158210E+04  0.30878615271E+04  0.26012700215E+04 0.  0.
        2    1    3    3  502    0 -0.81211655423E+03  0.73950915797E+03  0.50086201444E+01  0.10983770658E+04  0.25500000920E-02 0. -1.
       -2    1    3    3    0  502  0.81211655423E+03 -0.73950915797E+03  0.16588072008E+04  0.19894844614E+04  0.25500000920E-02 0.  1.
</event>
<event>
 5   0  0.1055179E-06  0.2600097E+04  0.7818609E-02  0.8368168E-01
       -1   -1    0    0    0  501  0.00000000000E+00  0.00000000000E+00  0.23672881039E+04  0.23672881039E+04  0.50400001928E-02 0.  1.
        1   -1    0    0  501    0  0.00000000000E+00  0.00000000000E+00 -0.71395005699E+03  0.71395005701E+03  0.50400001928E-02 0. -1.
    10030    2    1    2    0    0  0.00000000000E+00  0.00000000000E+00  0.16533380469E+04  0.30812381609E+04  0.26000965188E+04 0.  0.
        3    1    3    3  502    0 -0.11153648564E+04  0.84617447005E+02  0.41556790322E+02  0.11193417048E+04  0.10100000352E+00 0. -1.
       -3    1    3    3    0  502  0.11153648564E+04 -0.84617447005E+02  0.16117812566E+04  0.19618964561E+04  0.10100000352E+00 0.  1.
</event>
<event>
 5   0  0.2746631E-06  0.2607249E+04  0.7818609E-02  0.8365743E-01
        2   -1    0    0  501    0  0.00000000000E+00  0.00000000000E+00  0.18966662843E+04  0.18966662843E+04  0.25500000920E-02 0.  1.
       -2   -1    0    0    0  501  0.00000000000E+00  0.00000000000E+00 -0.89601231475E+03  0.89601231475E+03  0.25500000920E-02 0. -1.
    10030    2    1    2    0    0  0.00000000000E+00  0.00000000000E+00  0.10006539695E+04  0.27926785990E+04  0.26072486247E+04 0.  0.
        2    1    3    3  502    0  0.88982817259E+03  0.78941386961E+03 -0.70961083348E+02  0.11916391692E+04  0.25500000920E-02 0. -1.
       -2    1    3    3    0  502 -0.88982817259E+03 -0.78941386961E+03  0.10716150529E+04  0.16010394298E+04  0.25500000920E-02 0.  1.
</event>
<event>
 5   0  0.2586775E-06  0.2600103E+04  0.7818609E-02  0.8368166E-01
       -2   -1    0    0    0  501  0.00000000000E+00  0.00000000000E+00  0.64308334252E+03  0.64308334253E+03  0.25500000920E-02 0.  1.
        2   -1    0    0  501    0  0.00000000000E+00  0.00000000000E+00 -0.26281722473E+04  0.26281722473E+04  0.25500000920E-02 0. -1.
    10030    2    1    2    0    0  0.00000000000E+00  0.00000000000E+00 -0.19850889048E+04  0.32712555898E+04  0.26001029161E+04 0.  0.
        1    1    3    3  502    0  0.12818007569E+04 -0.72904521499E+02 -0.73530304459E+03  0.14795265517E+04  0.50400001928E-02 0. -1.
       -1    1    3    3    0  502 -0.12818007569E+04  0.72904521499E+02 -0.12497858602E+04  0.17917290381E+04  0.50400001928E-02 0.  1.
</event>
<event>
 5   0  0.1032076E-06  0.2596683E+04  0.7818609E-02  0.8369329E-01
       -1   -1    0    0    0  501  0.00000000000E+00  0.00000000000E+00  0.11656606301E+04  0.11656606301E+04  0.50400001928E-02 0. -1.
        1   -1    0    0  501    0  0.00000000000E+00  0.00000000000E+00 -0.14461248767E+04  0.14461248767E+04  0.50400001928E-02 0.  1.
    10030    2    1    2    0    0  0.00000000000E+00  0.00000000000E+00 -0.28046424662E+03  0.26117855068E+04  0.25966831420E+04 0.  0.
        1    1    3    3  502    0  0.10894842112E+04 -0.55742911236E+03  0.29586512944E+03  0.12590628406E+04  0.50400001928E-02 0.  1.
       -1    1    3    3    0  502 -0.10894842112E+04  0.55742911236E+03 -0.57632937606E+03  0.13527226662E+04  0.50400001928E-02 0. -1.
</event>
<event>
 5   0  0.2746631E-06  0.2601072E+04  0.7818609E-02  0.8367837E-01
        2   -1    0    0  501    0  0.00000000000E+00  0.00000000000E+00  0.16589510684E+04  0.16589510684E+04  0.25500000920E-02 0. -1.
       -2   -1    0    0    0  501  0.00000000000E+00  0.00000000000E+00 -0.10195565683E+04  0.10195565683E+04  0.25500000920E-02 0.  1.
    10030    2    1    2    0    0  0.00000000000E+00  0.00000000000E+00  0.63939450008E+03  0.26785076367E+04  0.26010724391E+04 0.  0.
        2    1    3    3  502    0  0.65086958130E+03 -0.10143623481E+04 -0.18355641658E+03  0.12191206434E+04  0.25500000920E-02 0.  1.
       -2    1    3    3    0  502 -0.65086958130E+03  0.10143623481E+04  0.82295091666E+03  0.14593869933E+04  0.25500000920E-02 0. -1.
</event>
<event>
 5   0  0.1100104E-06  0.2559471E+04  0.7818609E-02  0.8382100E-01
       -1   -1    0    0    0  501  0.00000000000E+00  0.00000000000E+00  0.11501599390E+04  0.11501599390E+04  0.50400001928E-02 0. -1.
        1   -1    0    0  501    0  0.00000000000E+00  0.00000000000E+00 -0.14239090836E+04  0.14239090836E+04  0.50400001928E-02 0.  1.
    10030    2    1    2    0    0  0.00000000000E+00  0.00000000000E+00 -0.27374914457E+03  0.25740690226E+04  0.25594711835E+04 0.  0.
        4    1    3    3  502    0 -0.80469319436E+02 -0.11754647271E+04  0.36550318309E+03  0.12336072413E+04  0.12699999809E+01 0.  1.
       -4    1    3    3    0  502  0.80469319436E+02  0.11754647271E+04 -0.63925232765E+03  0.13404617814E+04  0.12699999809E+01 0. -1.
</event>
<event>
 5   0  0.1055179E-06  0.2589986E+04  0.7818609E-02  0.8371611E-01
       -1   -1    0    0    0  501  0.00000000000E+00  0.00000000000E+00  0.10182202199E+04  0.10182202200E+04  0.50400001928E-02 0. -1.
        1   -1    0    0  501    0  0.00000000000E+00  0.00000000000E+00 -0.16469986990E+04  0.16469986990E+04  0.50400001928E-02 0.  1.
    10030    2    1    2    0    0  0.00000000000E+00  0.00000000000E+00 -0.62877847905E+03  0.26652189190E+04  0.25899863919E+04 0.  0.
        3    1    3    3  502    0  0.57473568742E+02  0.21350477611E+03  0.99865268502E+03  0.10228365930E+04  0.10100000352E+00 0. -1.
       -3    1    3    3    0  502 -0.57473568742E+02 -0.21350477611E+03 -0.16274311641E+04  0.16423823259E+04  0.10100000352E+00 0.  1.
</event>
<event>
 5   0  0.2623368E-06  0.2600859E+04  0.7818609E-02  0.8367909E-01
       -2   -1    0    0    0  501  0.00000000000E+00  0.00000000000E+00  0.10449219077E+04  0.10449219077E+04  0.25500000920E-02 0. -1.
        2   -1    0    0  501    0  0.00000000000E+00  0.00000000000E+00 -0.16184145910E+04  0.16184145910E+04  0.25500000920E-02 0.  1.
    10030    2    1    2    0    0  0.00000000000E+00  0.00000000000E+00 -0.57349268331E+03  0.26633364988E+04  0.26008589827E+04 0.  0.
        5    1    3    3  502    0  0.16553738703E+03 -0.24052573699E+03 -0.15844045118E+04  0.16110912462E+04  0.46999998093E+01 0.  1.
       -5    1    3    3    0  502 -0.16553738703E+03  0.24052573699E+03  0.10109118285E+04  0.10522452526E+04  0.46999998093E+01 0. -1.
</event>
<event>
 5   0  0.2746631E-06  0.2601869E+04  0.7818609E-02  0.8367567E-01
       -2   -1    0    0    0  501  0.00000000000E+00  0.00000000000E+00  0.11386177116E+04  0.11386177116E+04  0.25500000920E-02 0.  1.
        2   -1    0    0  501    0  0.00000000000E+00  0.00000000000E+00 -0.14863904389E+04  0.14863904389E+04  0.25500000920E-02 0. -1.
    10030    2    1    2    0    0  0.00000000000E+00  0.00000000000E+00 -0.34777272737E+03  0.26250081505E+04  0.26018689284E+04 0.  0.
        2    1    3    3  502    0  0.74264536655E+03  0.99303160546E+03  0.22305458962E+03  0.12599155765E+04  0.25500000920E-02 0. -1.
       -2    1    3    3    0  502 -0.74264536655E+03 -0.99303160546E+03 -0.57082731699E+03  0.13650925740E+04  0.25500000920E-02 0.  1.
</event>
<event>
 5   0  0.9197000E-07  0.2602811E+04  0.7818609E-02  0.8367247E-01
        3   -1    0    0  501    0  0.00000000000E+00  0.00000000000E+00  0.10660492739E+04  0.10660492787E+04  0.10100000352E+00 0.  1.
       -3   -1    0    0    0  501  0.00000000000E+00  0.00000000000E+00 -0.15887217051E+04  0.15887217083E+04  0.10100000352E+00 0. -1.
    10030    2    1    2    0    0  0.00000000000E+00  0.00000000000E+00 -0.52267243116E+03  0.26547709869E+04  0.26028105046E+04 0.  0.
        2    1    3    3  502    0  0.10329209382E+04  0.41977542582E+03  0.42327002647E+03  0.11925999279E+04  0.25500000920E-02 0. -1.
       -2    1    3    3    0  502 -0.10329209382E+04 -0.41977542582E+03 -0.94594245764E+03  0.14621710590E+04  0.25500000920E-02 0.  1.
</event>
<event>
 5   0  0.1088757E-06  0.2600959E+04  0.7818609E-02  0.8367876E-01
       -1   -1    0    0    0  501  0.00000000000E+00  0.00000000000E+00  0.91883364122E+03  0.91883364124E+03  0.50400001928E-02 0. -1.
        1   -1    0    0  501    0  0.00000000000E+00  0.00000000000E+00 -0.18406449923E+04  0.18406449924E+04  0.50400001928E-02 0.  1.
    10030    2    1    2    0    0  0.00000000000E+00  0.00000000000E+00 -0.92181135112E+03  0.27594786336E+04  0.26009587006E+04 0.  0.
        5    1    3    3  502    0  0.69643410844E+03  0.81438155882E+03  0.32088081123E+03  0.11185814122E+04  0.46999998093E+01 0. -1.
       -5    1    3    3    0  502 -0.69643410844E+03 -0.81438155882E+03 -0.12426921623E+04  0.16408972214E+04  0.46999998093E+01 0.  1.
</event>
<event>
 5   0  0.1122628E-06  0.2599568E+04  0.7818609E-02  0.8368348E-01
        1   -1    0    0  501    0  0.00000000000E+00  0.00000000000E+00  0.17478816194E+04  0.17478816194E+04  0.50400001928E-02 0.  1.
       -1   -1    0    0    0  501  0.00000000000E+00  0.00000000000E+00 -0.96656350149E+03  0.96656350150E+03  0.50400001928E-02 0. -1.
    10030    2    1    2    0    0  0.00000000000E+00  0.00000000000E+00  0.78131811793E+03  0.27144451209E+04  0.25995681013E+04 0.  0.
        2    1    3    3  502    0 -0.78976175956E+03 -0.47540102685E+03  0.13475098498E+04  0.16326397547E+04  0.25500000920E-02 0.  1.
       -2    1    3    3    0  502  0.78976175956E+03  0.47540102685E+03 -0.56619173188E+03  0.10818053662E+04  0.25500000920E-02 0. -1.
</event>
<event>
 5   0  0.1032076E-06  0.2599642E+04  0.7818609E-02  0.8368323E-01
       -1   -1    0    0    0  501  0.00000000000E+00  0.00000000000E+00  0.10003749561E+04  0.10003749561E+04  0.50400001928E-02 0.  1.
        1   -1    0    0  501    0  0.00000000000E+00  0.00000000000E+00 -0.16889008497E+04  0.16889008497E+04  0.50400001928E-02 0. -1.
    10030    2    1    2    0    0  0.00000000000E+00  0.00000000000E+00 -0.68852589363E+03  0.26892758059E+04  0.25996416010E+04 0.  0.
        1    1    3    3  502    0  0.64776274375E+03  0.31001059880E+03  0.77652808787E+03  0.10576856881E+04  0.50400001928E-02 0.  1.
       -1    1    3    3    0  502 -0.64776274375E+03 -0.31001059880E+03 -0.14650539815E+04  0.16315901177E+04  0.50400001928E-02 0. -1.
</event>
<event>
 5   0  0.2746631E-06  0.2585953E+04  0.7818609E-02  0.8372988E-01
       -2   -1    0    0    0  501  0.00000000000E+00  0.00000000000E+00  0.87609613326E+03  0.87609613327E+03  0.25500000920E-02 0.  1.
        2   -1    0    0  501    0  0.00000000000E+00  0.00000000000E+00 -0.19082246690E+04  0.19082246690E+04  0.25500000920E-02 0. -1.
    10030    2    1    2    0    0  0.00000000000E+00  0.00000000000E+00 -0.10321285357E+04  0.27843208022E+04  0.25859530188E+04 0.  0.
        2    1    3    3  502    0 -0.12389467732E+04  0.32639216257E+03 -0.32874368276E+03  0.13227219510E+04  0.25500000920E-02 0.  1.
       -2    1    3    3    0  502  0.12389467732E+04 -0.32639216257E+03 -0.70338485295E+03  0.14615988513E+04  0.25500000920E-02 0. -1.
</event>
<event>
 5   0  0.1032076E-06  0.2597959E+04  0.7818609E-02  0.8368895E-01
       -1   -1    0    0    0  501  0.00000000000E+00  0.00000000000E+00  0.23893598201E+04  0.23893598201E+04  0.50400001928E-02 0.  1.
        1   -1    0    0  501    0  0.00000000000E+00  0.00000000000E+00 -0.70619212812E+03  0.70619212813E+03  0.50400001928E-02 0. -1.
    10030    2    1    2    0    0  0.00000000000E+00  0.00000000000E+00  0.16831676920E+04  0.30955519483E+04  0.25979585033E+04 0.  0.
        1    1    3    3  502    0  0.32471290220E+03  0.33113460905E+02 -0.65653413280E+03  0.73319304259E+03  0.50400001928E-02 0. -1.
       -1    1    3    3    0  502 -0.32471290220E+03 -0.33113460905E+02  0.23397018248E+04  0.23623589057E+04  0.50400001928E-02 0.  1.
</event>
<event>
 5   0  0.2623368E-06  0.2599035E+04  0.7818609E-02  0.8368529E-01
        2   -1    0    0  501    0  0.00000000000E+00  0.00000000000E+00  0.13056561823E+04  0.13056561823E+04  0.25500000920E-02 0.  1.
       -2   -1    0    0    0  501  0.00000000000E+00  0.00000000000E+00 -0.12934073220E+04  0.12934073220E+04  0.25500000920E-02 0. -1.
    10030    2    1    2    0    0  0.00000000000E+00  0.00000000000E+00  0.12248860286E+02  0.25990635044E+04  0.25990346410E+04 0.  0.
        5    1    3    3  502    0  0.12913254161E+04  0.53721267448E+02 -0.12921321517E+03  0.12988939333E+04  0.46999998093E+01 0. -1.
       -5    1    3    3    0  502 -0.12913254161E+04 -0.53721267448E+02  0.14146207546E+03  0.13001695711E+04  0.46999998093E+01 0.  1.
</event>
<event>
 5   0  0.1055179E-06  0.2597428E+04  0.7818609E-02  0.8369075E-01
        1   -1    0    0  501    0  0.00000000000E+00  0.00000000000E+00  0.15079501057E+04  0.15079501057E+04  0.50400001928E-02 0.  1.
       -1   -1    0    0    0  501  0.00000000000E+00  0.00000000000E+00 -0.11185103230E+04  0.11185103230E+04  0.50400001928E-02 0. -1.
    10030    2    1    2    0    0  0.00000000000E+00  0.00000000000E+00  0.38943978263E+03  0.26264604287E+04  0.25974277736E+04 0.  0.
        3    1    3    3  502    0  0.70500639441E+03  0.39343146523E+02  0.12968921252E+04  0.14766553741E+04  0.10100000352E+00 0.  1.
       -3    1    3    3    0  502 -0.70500639441E+03 -0.39343146523E+02 -0.90745234255E+03  0.11498050546E+04  0.10100000352E+00 0. -1.
</event>
<event>
 5   0  0.1088757E-06  0.2595212E+04  0.7818609E-02  0.8369829E-01
        1   -1    0    0  501    0  0.00000000000E+00  0.00000000000E+00  0.14369971518E+04  0.14369971518E+04  0.50400001928E-02 0. -1.
       -1   -1    0    0    0  501  0.00000000000E+00  0.00000000000E+00 -0.11717359894E+04  0.11717359894E+04  0.50400001928E-02 0.  1.
    10030    2    1    2    0    0  0.00000000000E+00  0.00000000000E+00  0.26526116239E+03  0.26087331412E+04  0.25952119601E+04 0.  0.
        5    1    3    3  502    0 -0.33932769634E+03 -0.70289851418E+03 -0.90937501502E+03  0.11984133739E+04  0.46999998093E+01 0.  1.
       -5    1    3    3    0  502  0.33932769634E+03  0.70289851418E+03  0.11746361774E+04  0.14103197673E+04  0.46999998093E+01 0. -1.
</event>
<event>
 5   0  0.1088757E-06  0.2594728E+04  0.7818609E-02  0.8369994E-01
       -1   -1    0    0    0  501  0.00000000000E+00  0.00000000000E+00  0.69878285987E+03  0.69878285988E+03  0.50400001928E-02 0. -1.
        1   -1    0    0  501    0  0.00000000000E+00  0.00000000000E+00 -0.24086926850E+04  0.24086926850E+04  0.50400001928E-02 0.  1.
    10030    2    1    2    0    0  0.00000000000E+00  0.00000000000E+00 -0.17099098252E+04  0.31074755449E+04  0.25947278570E+04 0.  0.
        5    1    3    3  502    0 -0.58871574456E+03 -0.10023475038E+04 -0.15448500815E+04  0.19333573416E+04  0.46999998093E+01 0.  1.
       -5    1    3    3    0  502  0.58871574456E+03  0.10023475038E+04 -0.16505974371E+03  0.11741182033E+04  0.46999998093E+01 0. -1.
</event>
<event>
 5   0  0.2746631E-06  0.2603455E+04  0.7818609E-02  0.8367029E-01
       -2   -1    0    0    0  501  0.00000000000E+00  0.00000000000E+00  0.10538192163E+04  0.10538192163E+04  0.25500000920E-02 0.  1.
        2   -1    0    0  501    0  0.00000000000E+00  0.00000000000E+00 -0.16079557233E+04  0.16079557233E+04  0.25500000920E-02 0. -1.
    10030    2    1    2    0    0  0.00000000000E+00  0.00000000000E+00 -0.55413650700E+03  0.26617749396E+04  0.26034551198E+04 0.  0.
        2    1    3    3  502    0  0.71865370374E+03 -0.50552851534E+03  0.70490109196E+03  0.11264580663E+04  0.25500000920E-02 0.  1.
       -2    1    3    3    0  502 -0.71865370374E+03  0.50552851534E+03 -0.12590375990E+04  0.15353168733E+04  0.25500000920E-02 0. -1.
</event>
<event>
 5   0  0.9197000E-07  0.2601016E+04  0.7818609E-02  0.8367856E-01
        3   -1    0    0  501    0  0.00000000000E+00  0.00000000000E+00  0.16926089394E+04  0.16926089424E+04  0.10100000352E+00 0.  1.
       -3   -1    0    0    0  501  0.00000000000E+00  0.00000000000E+00 -0.99923881779E+03  0.99923882290E+03  0.10100000352E+00 0. -1.
    10030    2    1    2    0    0  0.00000000000E+00  0.00000000000E+00  0.69337012163E+03  0.26918477653E+04  0.26010156221E+04 0.  0.
        2    1    3    3  502    0  0.12000511749E+04 -0.36010174275E+03 -0.14092417330E+02  0.12529942872E+04  0.25500000920E-02 0. -1.
       -2    1    3    3    0  502 -0.12000511749E+04  0.36010174275E+03  0.70746253896E+03  0.14388534781E+04  0.25500000920E-02 0.  1.
</event>
<event>
 5   0  0.1032076E-06  0.2599313E+04  0.7818609E-02  0.8368435E-01
       -1   -1    0    0    0  501  0.00000000000E+00  0.00000000000E+00  0.10835830796E+04  0.10835830796E+04  0.50400001928E-02 0.  1.
        1   -1    0    0  501    0  0.00000000000E+00  0.00000000000E+00 -0.15588160570E+04  0.15588160570E+04  0.50400001928E-02 0. -1.
    10030    2    1    2    0    0  0.00000000000E+00  0.00000000000E+00 -0.47523297736E+03  0.26423991366E+04  0.25993127581E+04 0.  0.
        1    1    3    3  502    0 -0.58950681414E+03  0.11274065816E+04  0.32385079690E+02  0.12726400424E+04  0.50400001928E-02 0.  1.
       -1    1    3    3    0  502  0.58950681414E+03 -0.11274065816E+04 -0.50761805705E+03  0.13697590942E+04  0.50400001928E-02 0. -1.
</event>
<event>
 5   0  0.2746631E-06  0.2598957E+04  0.7818609E-02  0.8368556E-01
        2   -1    0    0  501    0  0.00000000000E+00  0.00000000000E+00  0.10685823109E+04  0.10685823109E+04  0.25500000920E-02 0. -1.
       -2   -1    0    0    0  501  0.00000000000E+00  0.00000000000E+00 -0.15802656331E+04  0.15802656331E+04  0.25500000920E-02 0.  1.
    10030    2    1    2    0    0  0.00000000000E+00  0.00000000000E+00 -0.51168332223E+03  0.26488479439E+04  0.25989566383E+04 0.  0.
        2    1    3    3  502    0 -0.85066773671E+03 -0.53758461668E+03  0.58214075003E+03  0.11625492124E+04  0.25500000920E-02 0. -1.
       -2    1    3    3    0  502  0.85066773671E+03  0.53758461668E+03 -0.10938240723E+04  0.14862987316E+04  0.25500000920E-02 0.  1.
</event>
<event>
 5   0  0.1122628E-06  0.2597676E+04  0.7818609E-02  0.8368991E-01
        1   -1    0    0  501    0  0.00000000000E+00  0.00000000000E+00  0.10827716528E+04  0.10827716528E+04  0.50400001928E-02 0.  1.
       -1   -1    0    0    0  501  0.00000000000E+00  0.00000000000E+00 -0.15580197808E+04  0.15580197809E+04  0.50400001928E-02 0. -1.
    10030    2    1    2    0    0  0.00000000000E+00  0.00000000000E+00 -0.47524812803E+03  0.26407914337E+04  0.25976756174E+04 0.  0.
        2    1    3    3  502    0 -0.12034964745E+04 -0.32532177166E+03  0.13276040226E+03  0.12537397432E+04  0.25500000920E-02 0.  1.
       -2    1    3    3    0  502  0.12034964745E+04  0.32532177166E+03 -0.60800853029E+03  0.13870516905E+04  0.25500000920E-02 0. -1.
</event>
<event>
 5   0  0.1122628E-06  0.2600121E+04  0.7818609E-02  0.8368160E-01
       -1   -1    0    0    0  501  0.00000000000E+00  0.00000000000E+00  0.13589296246E+04  0.13589296247E+04  0.50400001928E-02 0. -1.
        1   -1    0    0  501    0  0.00000000000E+00  0.00000000000E+00 -0.12437415408E+04  0.12437415408E+04  0.50400001928E-02 0.  1.
    10030    2    1    2    0    0  0.00000000000E+00  0.00000000000E+00  0.11518808387E+03  0.26026711654E+04  0.26001209396E+04 0.  0.
        2    1    3    3  502    0 -0.37287801152E+03  0.94134218277E+03  0.87386557440E+03  0.13374618345E+04  0.25500000920E-02 0. -1.
       -2    1    3    3    0  502  0.37287801152E+03 -0.94134218277E+03 -0.75867749053E+03  0.12652093310E+04  0.25500000920E-02 0.  1.
</event>
<event>
 5   0  0.1100104E-06  0.2598943E+04  0.7818609E-02  0.8368560E-01
       -1   -1    0    0    0  501  0.00000000000E+00  0.00000000000E+00  0.11986729351E+04  0.11986729351E+04  0.50400001928E-02 0.  1.
        1   -1    0    0  501    0  0.00000000000E+00  0.00000000000E+00 -0.14087463318E+04  0.14087463318E+04  0.50400001928E-02 0. -1.
    10030    2    1    2    0    0  0.00000000000E+00  0.00000000000E+00 -0.21007339669E+03  0.26074192669E+04  0.25989429393E+04 0.  0.
        4    1    3    3  502    0  0.25904261297E+03  0.11952269950E+04 -0.54573445703E+03  0.13392155746E+04  0.12699999809E+01 0. -1.
       -4    1    3    3    0  502 -0.25904261297E+03 -0.11952269950E+04  0.33566106034E+03  0.12682036923E+04  0.12699999809E+01 0.  1.
</event>
<event>
 5   0  0.1100104E-06  0.2599093E+04  0.7818609E-02  0.8368509E-01
       -1   -1    0    0    0  501  0.00000000000E+00  0.00000000000E+00  0.75537953838E+03  0.75537953840E+03  0.50400001928E-02 0. -1.
        1   -1    0    0  501    0  0.00000000000E+00  0.00000000000E+00 -0.22357253258E+04  0.22357253258E+04  0.50400001928E-02 0.  1.
    10030    2    1    2    0    0  0.00000000000E+00  0.00000000000E+00 -0.14803457874E+04  0.29911048642E+04  0.25990930454E+04 0.  0.
        4    1    3    3  502    0  0.92576470937E+03 -0.90903599911E+02  0.30417639988E+03  0.97868721088E+03  0.12699999809E+01 0. -1.
       -4    1    3    3    0  502 -0.92576470937E+03  0.90903599911E+02 -0.17845221873E+04  0.20124176533E+04  0.12699999809E+01 0.  1.
</event>
<event>
 5   0  0.1088757E-06  0.2598373E+04  0.7818609E-02  0.8368754E-01
       -1   -1    0    0    0  501  0.00000000000E+00  0.00000000000E+00  0.12399367113E+04  0.12399367113E+04  0.50400001928E-02 0.  1.
        1   -1    0    0  501    0  0.00000000000E+00  0.00000000000E+00 -0.13612679684E+04  0.13612679684E+04  0.50400001928E-02 0. -1.
    10030    2    1    2    0    0  0.00000000000E+00  0.00000000000E+00 -0.12133125706E+03  0.26012046797E+04  0.25983734358E+04 0.  0.
        5    1    3    3  502    0  0.51983484472E+03  0.40173641186E+03 -0.11827096471E+04  0.13529392483E+04  0.46999998093E+01 0. -1.
       -5    1    3    3    0  502 -0.51983484472E+03 -0.40173641186E+03  0.10613783900E+04  0.12482654314E+04  0.46999998093E+01 0.  1.
</event>
<event>
 5   0  0.1055179E-06  0.2596108E+04  0.7818609E-02  0.8369524E-01
       -1   -1    0    0    0  501  0.00000000000E+00  0.00000000000E+00  0.14984424948E+04  0.14984424948E+04  0.50400001928E-02 0.  1.
        1   -1    0    0  501    0  0.00000000000E+00  0.00000000000E+00 -0.11244641066E+04  0.11244641066E+04  0.50400001928E-02 0. -1.
    10030    2    1    2    0    0  0.00000000000E+00  0.00000000000E+00  0.37397838815E+03  0.26229066014E+04  0.25961084732E+04 0.  0.
        3    1    3    3  502    0  0.22802037152E+03 -0.86945530276E+03  0.11331381949E+04  0.14463567998E+04  0.10100000352E+00 0.  1.
       -3    1    3    3    0  502 -0.22802037152E+03  0.86945530276E+03 -0.75915980674E+03  0.11765498016E+04  0.10100000352E+00 0. -1.
</event>
<event>
 5   0  0.2623368E-06  0.2599946E+04  0.7818609E-02  0.8368220E-01
        2   -1    0    0  501    0  0.00000000000E+00  0.00000000000E+00  0.10052266034E+04  0.10052266034E+04  0.25500000920E-02 0. -1.
       -2   -1    0    0    0  501  0.00000000000E+00  0.00000000000E+00 -0.16811430301E+04  0.16811430301E+04  0.25500000920E-02 0.  1.
    10030    2    1    2    0    0  0.00000000000E+00  0.00000000000E+00 -0.67591642665E+03  0.26863696335E+04  0.25999459210E+04 0.  0.
        5    1    3    3  502    0  0.11350497659E+04  0.22981656755E+03  0.27222610561E+03  0.11896565758E+04  0.46999998093E+01 0. -1.
       -5    1    3    3    0  502 -0.11350497659E+04 -0.22981656755E+03 -0.94814253226E+03  0.14967130577E+04  0.46999998093E+01 0.  1.
</event>
<event>
 5   0  0.1088757E-06  0.2599668E+04  0.7818609E-02  0.8368314E-01
       -1   -1    0    0    0  501  0.00000000000E+00  0.00000000000E+00  0.10374511563E+04  0.10374511563E+04  0.50400001928E-02 0.  1.
        1   -1    0    0  501    0  0.00000000000E+00  0.00000000000E+00 -0.16285761204E+04  0.16285761204E+04  0.50400001928E-02 0. -1.
    10030    2    1    2    0    0  0.00000000000E+00  0.00000000000E+00 -0.59112496414E+03  0.26660272768E+04  0.25996678090E+04 0.  0.
        5    1    3    3  502    0 -0.11082898474E+03  0.33011114876E+03  0.98871796588E+03  0.10482565242E+04  0.46999998093E+01 0.  1.
       -5    1    3    3    0  502  0.11082898474E+03 -0.33011114876E+03 -0.15798429300E+04  0.16177707526E+04  0.46999998093E+01 0. -1.
</event>
<event>
 5   0  0.2586775E-06  0.2600959E+04  0.7818609E-02  0.8367876E-01
        2   -1    0    0  501    0  0.00000000000E+00  0.00000000000E+00  0.18404442001E+04  0.18404442001E+04  0.25500000920E-02 0.  1.
       -2   -1    0    0    0  501  0.00000000000E+00  0.00000000000E+00 -0.91893409033E+03  0.91893409034E+03  0.25500000920E-02 0. -1.
    10030    2    1    2    0    0  0.00000000000E+00  0.00000000000E+00  0.92151010981E+03  0.27593782905E+04  0.26009589900E+04 0.  0.
        1    1    3    3  502    0 -0.54540178615E+03  0.96552588247E+03 -0.25999402252E+03  0.11389908822E+04  0.50400001928E-02 0. -1.
       -1    1    3    3    0  502  0.54540178615E+03 -0.96552588247E+03  0.11815041323E+04  0.16203874082E+04  0.50400001928E-02 0.  1.
</event>
<event>
 5   0  0.1055179E-06  0.2599826E+04  0.7818609E-02  0.8368260E-01
       -1   -1    0    0    0  501  0.00000000000E+00  0.00000000000E+00  0.72868809616E+03  0.72868809617E+03  0.50400001928E-02 0.  1.
        1   -1    0    0  501    0  0.00000000000E+00  0.00000000000E+00 -0.23189263652E+04  0.23189263652E+04  0.50400001928E-02 0. -1.
    10030    2    1    2    0    0  0.00000000000E+00  0.00000000000E+00 -0.15902382690E+04  0.30476144614E+04  0.25998261774E+04 0.  0.
        3    1    3    3  502    0 -0.10668122120E+04 -0.32369631254E+03 -0.11465747842E+02  0.11148986824E+04  0.10100000352E+00 0.  1.
       -3    1    3    3    0  502  0.10668122120E+04  0.32369631254E+03 -0.15787725212E+04  0.19327157790E+04  0.10100000352E+00 0. -1.
</event>
<event>
 5   0  0.1100104E-06  0.2600362E+04  0.7818609E-02  0.8368078E-01
       -1   -1    0    0    0  501  0.00000000000E+00  0.00000000000E+00  0.80175123886E+03  0.80175123887E+03  0.50400001928E-02 0. -1.
        1   -1    0    0  501    0  0.00000000000E+00  0.00000000000E+00 -0.21084723563E+04  0.21084723563E+04  0.50400001928E-02 0.  1.
    10030    2    1    2    0    0  0.00000000000E+00  0.00000000000E+00 -0.13067211175E+04  0.29102235952E+04  0.26003617624E+04 0.  0.
        4    1    3    3  502    0 -0.40251317992E+03  0.79370509224E+03 -0.17141954096E+04  0.19314378448E+04  0.12699999809E+01 0. -1.
       -4    1    3    3    0  502  0.40251317992E+03 -0.79370509224E+03  0.40747429210E+03  0.97878575034E+03  0.12699999809E+01 0.  1.
</event>
<event>
 5   0  0.2586775E-06  0.2597731E+04  0.7818609E-02  0.8368972E-01
        2   -1    0    0  501    0  0.00000000000E+00  0.00000000000E+00  0.13814938874E+04  0.13814938875E+04  0.25500000920E-02 0.  1.
       -2   -1    0    0    0  501  0.00000000000E+00  0.00000000000E+00 -0.12211788509E+04  0.12211788509E+04  0.25500000920E-02 0. -1.
    10030    2    1    2    0    0  0.00000000000E+00  0.00000000000E+00  0.16031503656E+03  0.26026727383E+04  0.25977306388E+04 0.  0.
        1    1    3    3  502    0 -0.78982723220E+03 -0.58928945320E+03 -0.76759762477E+03  0.12491177807E+04  0.50400001928E-02 0. -1.
       -1    1    3    3    0  502  0.78982723220E+03  0.58928945320E+03  0.92791266133E+03  0.13535549577E+04  0.50400001928E-02 0.  1.
</event>
<event>
 5   0  0.2820028E-06  0.2604533E+04  0.7818609E-02  0.8366663E-01
        2   -1    0    0  501    0  0.00000000000E+00  0.00000000000E+00  0.13389206185E+04  0.13389206185E+04  0.25500000920E-02 0. -1.
       -2   -1    0    0    0  501  0.00000000000E+00  0.00000000000E+00 -0.12666156394E+04  0.12666156394E+04  0.25500000920E-02 0.  1.
    10030    2    1    2    0    0  0.00000000000E+00  0.00000000000E+00  0.72304979105E+02  0.26055362580E+04  0.26045328145E+04 0.  0.
        3    1    3    3  502    0  0.32984271083E+03 -0.90679040515E+03  0.91103658320E+03  0.13270466152E+04  0.10100000352E+00 0. -1.
       -3    1    3    3    0  502 -0.32984271083E+03  0.90679040515E+03 -0.83873160410E+03  0.12784896428E+04  0.10100000352E+00 0.  1.
</event>
<event>
 5   0  0.2586775E-06  0.2598760E+04  0.7818609E-02  0.8368623E-01
       -2   -1    0    0    0  501  0.00000000000E+00  0.00000000000E+00  0.77875533071E+03  0.77875533071E+03  0.25500000920E-02 0. -1.
        2   -1    0    0  501    0  0.00000000000E+00  0.00000000000E+00 -0.21680595685E+04  0.21680595685E+04  0.25500000920E-02 0.  1.
    10030    2    1    2    0    0  0.00000000000E+00  0.00000000000E+00 -0.13893042378E+04  0.29468148992E+04  0.25987596628E+04 0.  0.
        1    1    3    3  502    0  0.12083491915E+04  0.34429730194E+03 -0.10702890801E+04  0.16505051092E+04  0.50400001928E-02 0.  1.
       -1    1    3    3    0  502 -0.12083491915E+04 -0.34429730194E+03 -0.31901515772E+03  0.12963097900E+04  0.50400001928E-02 0. -1.
</event>
<event>
 5   0  0.2820028E-06  0.2599063E+04  0.7818609E-02  0.8368520E-01
        2   -1    0    0  501    0  0.00000000000E+00  0.00000000000E+00  0.11866207665E+04  0.11866207665E+04  0.25500000920E-02 0.  1.
       -2   -1    0    0    0  501  0.00000000000E+00  0.00000000000E+00 -0.14231858243E+04  0.14231858243E+04  0.25500000920E-02 0. -1.
    10030    2    1    2    0    0  0.00000000000E+00  0.00000000000E+00 -0.23656505783E+03  0.26098065908E+04  0.25990627955E+04 0.  0.
        3    1    3    3  502    0  0.11645466789E+04  0.43263203662E+03 -0.50122811031E+03  0.13396152714E+04  0.10100000352E+00 0. -1.
       -3    1    3    3    0  502 -0.11645466789E+04 -0.43263203662E+03  0.26466305249E+03  0.12701913195E+04  0.10100000352E+00 0.  1.
</event>
<event>
 5   0  0.2746631E-06  0.2587007E+04  0.7818609E-02  0.8372628E-01
       -2   -1    0    0    0  501  0.00000000000E+00  0.00000000000E+00  0.14607717179E+04  0.14607717179E+04  0.25500000920E-02 0.  1.
        2   -1    0    0  501    0  0.00000000000E+00  0.00000000000E+00 -0.11453889682E+04  0.11453889682E+04  0.25500000920E-02 0. -1.
    10030    2    1    2    0    0  0.00000000000E+00  0.00000000000E+00  0.31538274971E+03  0.26061606861E+04  0.25870073913E+04 0.  0.
        2    1    3    3  502    0 -0.38985857731E+03  0.12311264454E+04  0.83049794927E+02  0.12940476434E+04  0.25500000920E-02 0. -1.
       -2    1    3    3    0  502  0.38985857731E+03 -0.12311264454E+04  0.23233295478E+03  0.13121130427E+04  0.25500000920E-02 0.  1.
</event>
<event>
 5   0  0.2586775E-06  0.2603721E+04  0.7818609E-02  0.8366938E-01
        2   -1    0    0  501    0  0.00000000000E+00  0.00000000000E+00  0.14672782532E+04  0.14672782532E+04  0.25500000920E-02 0.  1.
       -2   -1    0    0    0  501  0.00000000000E+00  0.00000000000E+00 -0.11550913221E+04  0.11550913221E+04  0.25500000920E-02 0. -1.
    10030    2    1    2    0    0  0.00000000000E+00  0.00000000000E+00  0.31218693110E+03  0.26223695752E+04  0.26037207049E+04 0.  0.
        1    1    3    3  502    0 -0.45697317240E+03 -0.84213341176E+03  0.10437842609E+04  0.14168622893E+04  0.50400001928E-02 0.  1.
       -1    1    3    3    0  502  0.45697317240E+03  0.84213341176E+03 -0.73159732979E+03  0.12055072860E+04  0.50400001928E-02 0. -1.
</event>
<event>
 5   0  0.1088757E-06  0.2598351E+04  0.7818609E-02  0.8368761E-01
        1   -1    0    0  501    0  0.00000000000E+00  0.00000000000E+00  0.91983913022E+03  0.91983913023E+03  0.50400001928E-02 0.  1.
       -1   -1    0    0    0  501  0.00000000000E+00  0.00000000000E+00 -0.18349485496E+04  0.18349485496E+04  0.50400001928E-02 0. -1.
    10030    2    1    2    0    0  0.00000000000E+00  0.00000000000E+00 -0.91510941934E+03  0.27547876798E+04  0.25983513834E+04 0.  0.
        5    1    3    3  502    0  0.11834420860E+04  0.33251652464E+03 -0.11848127585E+02  0.12293351367E+04  0.46999998093E+01 0. -1.
       -5    1    3    3    0  502 -0.11834420860E+04 -0.33251652464E+03 -0.90326129175E+03  0.15254525431E+04  0.46999998093E+01 0.  1.
</event>
<event>
 5   0  0.1088757E-06  0.2607303E+04  0.7818609E-02  0.8365725E-01
       -1   -1    0    0    0  501  0.00000000000E+00  0.00000000000E+00  0.62118370751E+03  0.62118370753E+03  0.50400001928E-02 0.  1.
        1   -1    0    0  501    0  0.00000000000E+00  0.00000000000E+00 -0.27359171304E+04  0.27359171304E+04  0.50400001928E-02 0. -1.
    10030    2    1    2    0    0  0.00000000000E+00  0.00000000000E+00 -0.21147334229E+04  0.33571008379E+04  0.26073029333E+04 0.  0.
        5    1    3    3  502    0 -0.58881349559E+01  0.94206253597E+03  0.10285904173E+03  0.94769117559E+03  0.46999998093E+01 0.  1.
       -5    1    3    3    0  502  0.58881349559E+01 -0.94206253597E+03 -0.22175924646E+04  0.24094096623E+04  0.46999998093E+01 0. -1.
</event>
<event>
 5   0  0.2746631E-06  0.2616307E+04  0.7818609E-02  0.8362683E-01
        2   -1    0    0  501    0  0.00000000000E+00  0.00000000000E+00  0.15513677359E+04  0.15513677359E+04  0.25500000920E-02 0. -1.
       -2   -1    0    0    0  501  0.00000000000E+00  0.00000000000E+00 -0.11030689439E+04  0.11030689439E+04  0.25500000920E-02 0.  1.
    10030    2    1    2    0    0  0.00000000000E+00  0.00000000000E+00  0.44829879192E+03  0.26544366798E+04  0.26163069927E+04 0.  0.
        2    1    3    3  502    0  0.55988285217E+03 -0.38250373614E+03 -0.91085345582E+03  0.11355315646E+04  0.25500000920E-02 0.  1.
       -2    1    3    3    0  502 -0.55988285217E+03  0.38250373614E+03  0.13591522477E+04  0.15189051152E+04  0.25500000920E-02 0. -1.
</event>
<event>
 5   0  0.1055179E-06  0.2600510E+04  0.7818609E-02  0.8368028E-01
       -1   -1    0    0    0  501  0.00000000000E+00  0.00000000000E+00  0.12535876615E+04  0.12535876615E+04  0.50400001928E-02 0.  1.
        1   -1    0    0  501    0  0.00000000000E+00  0.00000000000E+00 -0.13486591724E+04  0.13486591724E+04  0.50400001928E-02 0. -1.
    10030    2    1    2    0    0  0.00000000000E+00  0.00000000000E+00 -0.95071510917E+02  0.26022468339E+04  0.26005095640E+04 0.  0.
        3    1    3    3  502    0 -0.10811612213E+04 -0.30919622902E+03  0.60570245781E+03  0.12772577548E+04  0.10100000352E+00 0.  1.
       -3    1    3    3    0  502  0.10811612213E+04  0.30919622902E+03 -0.70077396873E+03  0.13249890792E+04  0.10100000352E+00 0. -1.
</event>
<event>
 5   0  0.1088757E-06  0.2593236E+04  0.7818609E-02  0.8370502E-01
        1   -1    0    0  501    0  0.00000000000E+00  0.00000000000E+00  0.20873522684E+04  0.20873522684E+04  0.50400001928E-02 0. -1.
       -1   -1    0    0    0  501  0.00000000000E+00  0.00000000000E+00 -0.80543083056E+03  0.80543083058E+03  0.50400001928E-02 0.  1.
    10030    2    1    2    0    0  0.00000000000E+00  0.00000000000E+00  0.12819214378E+04  0.28927830989E+04  0.25932357172E+04 0.  0.
        5    1    3    3  502    0 -0.19423125806E+03 -0.22248385363E+03 -0.76740055874E+03  0.82228374318E+03  0.46999998093E+01 0.  1.
       -5    1    3    3    0  502  0.19423125806E+03  0.22248385363E+03  0.20493219965E+04  0.20704993558E+04  0.46999998093E+01 0. -1.
</event>
<event>
 5   0  0.2623368E-06  0.2599935E+04  0.7818609E-02  0.8368223E-01
       -2   -1    0    0    0  501  0.00000000000E+00  0.00000000000E+00  0.35763229572E+04  0.35763229572E+04  0.25500000920E-02 0. -1.
        2   -1    0    0  501    0  0.00000000000E+00  0.00000000000E+00 -0.47252869852E+03  0.47252869853E+03  0.25500000920E-02 0.  1.
    10030    2    1    2    0    0  0.00000000000E+00  0.00000000000E+00  0.31037942587E+04  0.40488516557E+04  0.25999347934E+04 0.  0.
        5    1    3    3  502    0  0.12060454324E+04  0.40564899828E+03  0.11375396880E+04  0.17067850850E+04  0.46999998093E+01 0.  1.
       -5    1    3    3    0  502 -0.12060454324E+04 -0.40564899828E+03  0.19662545707E+04  0.23420665707E+04  0.46999998093E+01 0. -1.
</event>
<event>
 5   0  0.2820028E-06  0.2598455E+04  0.7818609E-02  0.8368726E-01
        2   -1    0    0  501    0  0.00000000000E+00  0.00000000000E+00  0.16874897887E+04  0.16874897887E+04  0.25500000920E-02 0. -1.
       -2   -1    0    0    0  501  0.00000000000E+00  0.00000000000E+00 -0.10002973268E+04  0.10002973268E+04  0.25500000920E-02 0.  1.
    10030    2    1    2    0    0  0.00000000000E+00  0.00000000000E+00  0.68719246193E+03  0.26877871155E+04  0.25984545596E+04 0.  0.
        3    1    3    3  502    0  0.40273948253E+03  0.10243344143E+04 -0.37044866120E+03  0.11613321248E+04  0.10100000352E+00 0.  1.
       -3    1    3    3    0  502 -0.40273948253E+03 -0.10243344143E+04  0.10576411231E+04  0.15264549907E+04  0.10100000352E+00 0. -1.
</event>
<event>
 5   0  0.1088757E-06  0.2597939E+04  0.7818609E-02  0.8368902E-01
       -1   -1    0    0    0  501  0.00000000000E+00  0.00000000000E+00  0.78386494301E+03  0.78386494303E+03  0.50400001928E-02 0.  1.
        1   -1    0    0  501    0  0.00000000000E+00  0.00000000000E+00 -0.21525663845E+04  0.21525663846E+04  0.50400001928E-02 0. -1.
    10030    2    1    2    0    0  0.00000000000E+00  0.00000000000E+00 -0.13687014415E+04  0.29364313276E+04  0.25979386647E+04 0.  0.
        5    1    3    3  502    0  0.15489030125E+03 -0.12722034363E+04 -0.92360635894E+03  0.15797352263E+04  0.46999998093E+01 0.  1.
       -5    1    3    3    0  502 -0.15489030125E+03  0.12722034363E+04 -0.44509508259E+03  0.13566961013E+04  0.46999998093E+01 0. -1.
</event>
<event>
 5   0  0.2746631E-06  0.2588624E+04  0.7818609E-02  0.8372076E-01
        2   -1    0    0  501    0  0.00000000000E+00  0.00000000000E+00  0.18761006724E+04  0.18761006725E+04  0.25500000920E-02 0.  1.
       -2   -1    0    0    0  501  0.00000000000E+00  0.00000000000E+00 -0.89293905283E+03  0.89293905283E+03  0.25500000920E-02 0. -1.
    10030    2    1    2    0    0  0.00000000000E+00  0.00000000000E+00  0.98316161962E+03  0.27690397253E+04  0.25886240032E+04 0.  0.
        2    1    3    3  502    0 -0.41207936099E+03  0.96838757669E+03  0.12975236257E+04  0.16706739532E+04  0.25500000920E-02 0.  1.
       -2    1    3    3    0  502  0.41207936099E+03 -0.96838757669E+03 -0.31436200612E+03  0.10983657721E+04  0.25500000920E-02 0. -1.
</event>
<event>
 5   0  0.1032076E-06  0.2599290E+04  0.7818609E-02  0.8368442E-01
       -1   -1    0    0    0  501  0.00000000000E+00  0.00000000000E+00  0.12044253440E+04  0.12044253440E+04  0.50400001928E-02 0. -1.
        1   -1    0    0  501    0  0.00000000000E+00  0.00000000000E+00 -0.14023928559E+04  0.14023928559E+04  0.50400001928E-02 0.  1.
    10030    2    1    2    0    0  0.00000000000E+00  0.00000000000E+00 -0.19796751191E+03  0.26068181999E+04  0.25992902862E+04 0.  0.
        1    1    3    3  502    0  0.25334386430E+02  0.55692696462E+03 -0.12763804194E+04  0.13928231941E+04  0.50400001928E-02 0.  1.
       -1    1    3    3    0  502 -0.25334386430E+02 -0.55692696462E+03  0.10784129075E+04  0.12139950058E+04  0.50400001928E-02 0. -1.
</event>
<event>
 5   0  0.9197000E-07  0.2599787E+04  0.7818609E-02  0.8368274E-01
       -3   -1    0    0    0  501  0.00000000000E+00  0.00000000000E+00  0.72242691422E+03  0.72242692128E+03  0.10100000352E+00 0. -1.
        3   -1    0    0  501    0  0.00000000000E+00  0.00000000000E+00 -0.23389530620E+04  0.23389530642E+04  0.10100000352E+00 0.  1.
    10030    2    1    2    0    0  0.00000000000E+00  0.00000000000E+00 -0.16165261478E+04  0.30613799855E+04  0.25997866506E+04 0.  0.
        3    1    3    3  502    0  0.91213947776E+03 -0.39172382217E+03 -0.17964774769E+04  0.20525051316E+04  0.10100000352E+00 0.  1.
       -3    1    3    3    0  502 -0.91213947776E+03  0.39172382217E+03  0.17995132915E+03  0.10088748539E+04  0.10100000352E+00 0. -1.
</event>
<event>
 5   0  0.2586775E-06  0.2600540E+04  0.7818609E-02  0.8368018E-01
        2   -1    0    0  501    0  0.00000000000E+00  0.00000000000E+00  0.16956202131E+04  0.16956202131E+04  0.25500000920E-02 0. -1.
       -2   -1    0    0    0  501  0.00000000000E+00  0.00000000000E+00 -0.99709942747E+03  0.99709942748E+03  0.25500000920E-02 0.  1.
    10030    2    1    2    0    0  0.00000000000E+00  0.00000000000E+00  0.69852078558E+03  0.26927196405E+04  0.26005399006E+04 0.  0.
        1    1    3    3  502    0 -0.64826415643E+03 -0.30103788748E+03  0.14739628656E+04  0.16381198844E+04  0.50400001928E-02 0. -1.
       -1    1    3    3    0  502  0.64826415643E+03  0.30103788748E+03 -0.77544208005E+03  0.10545997562E+04  0.50400001928E-02 0.  1.
</event>
<event>
 5   0  0.1122628E-06  0.2602847E+04  0.7818609E-02  0.8367235E-01
        1   -1    0    0  501    0  0.00000000000E+00  0.00000000000E+00  0.17278689709E+04  0.17278689709E+04  0.50400001928E-02 0.  1.
       -1   -1    0    0    0  501  0.00000000000E+00  0.00000000000E+00 -0.98022655640E+03  0.98022655642E+03  0.50400001928E-02 0. -1.
    10030    2    1    2    0    0  0.00000000000E+00  0.00000000000E+00  0.74764241452E+03  0.27080955273E+04  0.26028469423E+04 0.  0.
        2    1    3    3  502    0 -0.10564028502E+03  0.11255319505E+04 -0.29701475465E+03  0.11688455013E+04  0.25500000920E-02 0. -1.
       -2    1    3    3    0  502  0.10564028502E+03 -0.11255319505E+04  0.10446571692E+04  0.15392500260E+04  0.25500000920E-02 0.  1.
</event>
<event>
 5   0  0.1055179E-06  0.2593126E+04  0.7818609E-02  0.8370540E-01
       -1   -1    0    0    0  501  0.00000000000E+00  0.00000000000E+00  0.11276493811E+04  0.11276493811E+04  0.50400001928E-02 0. -1.
        1   -1    0    0  501    0  0.00000000000E+00  0.00000000000E+00 -0.14907783725E+04  0.14907783725E+04  0.50400001928E-02 0.  1.
    10030    2    1    2    0    0  0.00000000000E+00  0.00000000000E+00 -0.36312899143E+03  0.26184277537E+04  0.25931257657E+04 0.  0.
        3    1    3    3  502    0  0.12247928081E+04 -0.41932076723E+03 -0.25387306565E+03  0.13192417793E+04  0.10100000352E+00 0. -1.
       -3    1    3    3    0  502 -0.12247928081E+04  0.41932076723E+03 -0.10925592577E+03  0.12991859744E+04  0.10100000352E+00 0.  1.
</event>
<event>
 5   0  0.1088757E-06  0.2598043E+04  0.7818609E-02  0.8368866E-01
       -1   -1    0    0    0  501  0.00000000000E+00  0.00000000000E+00  0.10825723971E+04  0.10825723971E+04  0.50400001928E-02 0.  1.
        1   -1    0    0  501    0  0.00000000000E+00  0.00000000000E+00 -0.15587469146E+04  0.15587469146E+04  0.50400001928E-02 0. -1.
    10030    2    1    2    0    0  0.00000000000E+00  0.00000000000E+00 -0.47617451748E+03  0.26413193117E+04  0.25980426354E+04 0.  0.
        5    1    3    3  502    0  0.12613164741E+04 -0.30221972326E+03 -0.16492828596E+03  0.13074706263E+04  0.46999998093E+01 0.  1.
       -5    1    3    3    0  502 -0.12613164741E+04  0.30221972326E+03 -0.31124623153E+03  0.13338486854E+04  0.46999998093E+01 0. -1.
</event>
<event>
 5   0  0.1122628E-06  0.2601247E+04  0.7818609E-02  0.8367778E-01
       -1   -1    0    0    0  501  0.00000000000E+00  0.00000000000E+00  0.26991529105E+04  0.26991529105E+04  0.50400001928E-02 0.  1.
        1   -1    0    0  501    0  0.00000000000E+00  0.00000000000E+00 -0.62672313824E+03  0.62672313826E+03  0.50400001928E-02 0. -1.
    10030    2    1    2    0    0  0.00000000000E+00  0.00000000000E+00  0.20724297722E+04  0.33258760487E+04  0.26012470722E+04 0.  0.
        2    1    3    3  502    0 -0.81017427831E+03  0.45992647597E+03 -0.12419333270E+03  0.93986100484E+03  0.25500000920E-02 0. -1.
       -2    1    3    3    0  502  0.81017427831E+03 -0.45992647597E+03  0.21966231049E+04  0.23860150439E+04  0.25500000920E-02 0.  1.
</event>
<event>
 5   0  0.2705807E-06  0.2609093E+04  0.7818609E-02  0.8365119E-01
       -2   -1    0    0    0  501  0.00000000000E+00  0.00000000000E+00  0.97500657221E+03  0.97500657222E+03  0.25500000920E-02 0. -1.
        2   -1    0    0  501    0  0.00000000000E+00  0.00000000000E+00 -0.17454671761E+04  0.17454671762E+04  0.25500000920E-02 0.  1.
    10030    2    1    2    0    0  0.00000000000E+00  0.00000000000E+00 -0.77046060394E+03  0.27204737484E+04  0.26090933048E+04 0.  0.
        4    1    3    3  502    0  0.12455181074E+04  0.20531978588E+03 -0.41983079714E+02  0.12630264297E+04  0.12699999809E+01 0. -1.
       -4    1    3    3    0  502 -0.12455181074E+04 -0.20531978588E+03 -0.72847752422E+03  0.14574473186E+04  0.12699999809E+01 0.  1.
</event>
<event>
 5   0  0.1100104E-06  0.2600654E+04  0.7818609E-02  0.8367979E-01
        1   -1    0    0  501    0  0.00000000000E+00  0.00000000000E+00  0.98178342574E+03  0.98178342575E+03  0.50400001928E-02 0.  1.
       -1   -1    0    0    0  501  0.00000000000E+00  0.00000000000E+00 -0.17222235252E+04  0.17222235252E+04  0.50400001928E-02 0. -1.
    10030    2    1    2    0    0  0.00000000000E+00  0.00000000000E+00 -0.74044009945E+03  0.27040069509E+04  0.26006541581E+04 0.  0.
        4    1    3    3  502    0  0.85230557765E+03 -0.18112316447E+03  0.63334205490E+03  0.10771973681E+04  0.12699999809E+01 0.  1.
       -4    1    3    3    0  502 -0.85230557765E+03  0.18112316447E+03 -0.13737821543E+04  0.16268095829E+04  0.12699999809E+01 0. -1.
</event>
<event>
 5   0  0.1055179E-06  0.2630479E+04  0.7818609E-02  0.8357921E-01
        1   -1    0    0  501    0  0.00000000000E+00  0.00000000000E+00  0.10282012065E+04  0.10282012065E+04  0.50400001928E-02 0.  1.
       -1   -1    0    0    0  501  0.00000000000E+00  0.00000000000E+00 -0.16824088678E+04  0.16824088678E+04  0.50400001928E-02 0. -1.
    10030    2    1    2    0    0  0.00000000000E+00  0.00000000000E+00 -0.65420766125E+03  0.27106100743E+04  0.26304789128E+04 0.  0.
        3    1    3    3  502    0  0.56468931524E+03  0.11718662479E+04 -0.52721077968E+03  0.14036009910E+04  0.10100000352E+00 0. -1.
       -3    1    3    3    0  502 -0.56468931524E+03 -0.11718662479E+04 -0.12699688156E+03  0.13070090833E+04  0.10100000352E+00 0.  1.
</event>
<event>
 5   0  0.9197000E-07  0.2585364E+04  0.7818609E-02  0.8373190E-01
        4   -1    0    0  501    0  0.00000000000E+00  0.00000000000E+00  0.19489878319E+04  0.19489882457E+04  0.12699999809E+01 0. -1.
       -4   -1    0    0    0  501  0.00000000000E+00  0.00000000000E+00 -0.85738053416E+03  0.85738147475E+03  0.12699999809E+01 0.  1.
    10030    2    1    2    0    0  0.00000000000E+00  0.00000000000E+00  0.10916072978E+04  0.28063697204E+04  0.25853635171E+04 0.  0.
        3    1    3    3  502    0 -0.54246946329E+03 -0.14899672299E+03  0.18091466168E+04  0.18945935272E+04  0.10100000352E+00 0. -1.
       -3    1    3    3    0  502  0.54246946329E+03  0.14899672299E+03 -0.71753931902E+03  0.91177619326E+03  0.10100000352E+00 0.  1.
</event>
<event>
 5   0  0.2586775E-06  0.2598115E+04  0.7818609E-02  0.8368842E-01
       -2   -1    0    0    0  501  0.00000000000E+00  0.00000000000E+00  0.12969038778E+04  0.12969038778E+04  0.25500000920E-02 0.  1.
        2   -1    0    0  501    0  0.00000000000E+00  0.00000000000E+00 -0.13012144667E+04  0.13012144667E+04  0.25500000920E-02 0. -1.
    10030    2    1    2    0    0  0.00000000000E+00  0.00000000000E+00 -0.43105888492E+01  0.25981183445E+04  0.25981147686E+04 0.  0.
        1    1    3    3  502    0 -0.12087001028E+04 -0.47601859569E+03 -0.28229493879E+01  0.12990602800E+04  0.50400001928E-02 0.  1.
       -1    1    3    3    0  502  0.12087001028E+04  0.47601859569E+03 -0.14876394613E+01  0.12990580645E+04  0.50400001928E-02 0. -1.
</event>
<event>
 5   0  0.2820028E-06  0.2556142E+04  0.7818609E-02  0.8383253E-01
        2   -1    0    0  501    0  0.00000000000E+00  0.00000000000E+00  0.18108314895E+04  0.18108314895E+04  0.25500000920E-02 0.  1.
       -2   -1    0    0    0  501  0.00000000000E+00  0.00000000000E+00 -0.90205301277E+03  0.90205301277E+03  0.25500000920E-02 0. -1.
    10030    2    1    2    0    0  0.00000000000E+00  0.00000000000E+00  0.90877847671E+03  0.27128845023E+04  0.25561424066E+04 0.  0.
        3    1    3    3  502    0 -0.12358105596E+04  0.24787492901E+03  0.22975953146E+03  0.12811944318E+04  0.10100000352E+00 0. -1.
       -3    1    3    3    0  502  0.12358105596E+04 -0.24787492901E+03  0.67901894525E+03  0.14316900704E+04  0.10100000352E+00 0.  1.
</event>
<event>
 5   0  0.2820028E-06  0.2598584E+04  0.7818609E-02  0.8368682E-01
       -2   -1    0    0    0  501  0.00000000000E+00  0.00000000000E+00  0.89684691405E+03  0.89684691406E+03  0.25500000920E-02 0.  1.
        2   -1    0    0  501    0  0.00000000000E+00  0.00000000000E+00 -0.18823279210E+04  0.18823279210E+04  0.25500000920E-02 0. -1.
    10030    2    1    2    0    0  0.00000000000E+00  0.00000000000E+00 -0.98548100693E+03  0.27791748350E+04  0.25985842201E+04 0.  0.
        3    1    3    3  502    0  0.94713472407E+03 -0.46565898554E+03  0.31772103567E+03  0.11022019520E+04  0.10100000352E+00 0.  1.
       -3    1    3    3    0  502 -0.94713472407E+03  0.46565898554E+03 -0.13032020426E+04  0.16769728830E+04  0.10100000352E+00 0. -1.
</event>
<event>
 5   0  0.1100104E-06  0.2599262E+04  0.7818609E-02  0.8368452E-01
       -1   -1    0    0    0  501  0.00000000000E+00  0.00000000000E+00  0.23804406173E+04  0.23804406173E+04  0.50400001928E-02 0.  1.
        1   -1    0    0  501    0  0.00000000000E+00  0.00000000000E+00 -0.70954978934E+03  0.70954978936E+03  0.50400001928E-02 0. -1.
    10030    2    1    2    0    0  0.00000000000E+00  0.00000000000E+00  0.16708908280E+04  0.30899904067E+04  0.25992623097E+04 0.  0.
        4    1    3    3  502    0 -0.12244315877E+04  0.26993659565E+03  0.12419734584E+04  0.17648224168E+04  0.12699999809E+01 0.  1.
       -4    1    3    3    0  502  0.12244315877E+04 -0.26993659565E+03  0.42891736959E+03  0.13251679899E+04  0.12699999809E+01 0. -1.
</event>
<event>
 5   0  0.2586775E-06  0.2596487E+04  0.7818609E-02  0.8369395E-01
       -2   -1    0    0    0  501  0.00000000000E+00  0.00000000000E+00  0.16982645198E+04  0.16982645198E+04  0.25500000920E-02 0.  1.
        2   -1    0    0  501    0  0.00000000000E+00  0.00000000000E+00 -0.99244621948E+03  0.99244621948E+03  0.25500000920E-02 0. -1.
    10030    2    1    2    0    0  0.00000000000E+00  0.00000000000E+00  0.70581830036E+03  0.26907107393E+04  0.25964870132E+04 0.  0.
        1    1    3    3  502    0 -0.11683207479E+03 -0.92952559174E+03 -0.57846536956E+03  0.11010403004E+04  0.50400001928E-02 0. -1.
       -1    1    3    3    0  502  0.11683207479E+03  0.92952559174E+03  0.12842836699E+04  0.15896704389E+04  0.50400001928E-02 0.  1.
</event>
<event>
 5   0  0.1122628E-06  0.2590166E+04  0.7818609E-02  0.8371549E-01
       -1   -1    0    0    0  501  0.00000000000E+00  0.00000000000E+00  0.21088306358E+04  0.21088306358E+04  0.50400001928E-02 0.  1.
        1   -1    0    0  501    0  0.00000000000E+00  0.00000000000E+00 -0.79534148717E+03  0.79534148719E+03  0.50400001928E-02 0. -1.
    10030    2    1    2    0    0  0.00000000000E+00  0.00000000000E+00  0.13134891486E+04  0.29041721230E+04  0.25901663994E+04 0.  0.
        2    1    3    3  502    0 -0.69186769687E+03  0.90793730244E+03  0.13426307602E+04  0.17622963466E+04  0.25500000920E-02 0.  1.
       -2    1    3    3    0  502  0.69186769687E+03 -0.90793730244E+03 -0.29141611556E+02  0.11418757764E+04  0.25500000920E-02 0. -1.
</event>
<event>
 5   0  0.1032076E-06  0.2601005E+04  0.7818609E-02  0.8367860E-01
       -1   -1    0    0    0  501  0.00000000000E+00  0.00000000000E+00  0.15672775969E+04  0.15672775969E+04  0.50400001928E-02 0.  1.
        1   -1    0    0  501    0  0.00000000000E+00  0.00000000000E+00 -0.10791369391E+04  0.10791369391E+04  0.50400001928E-02 0. -1.
    10030    2    1    2    0    0  0.00000000000E+00  0.00000000000E+00  0.48814065780E+03  0.26464145361E+04  0.26010053047E+04 0.  0.
        1    1    3    3  502    0 -0.48300985291E+03  0.10078965792E+04 -0.43248447263E+03  0.11984143071E+04  0.50400001928E-02 0. -1.
       -1    1    3    3    0  502  0.48300985291E+03 -0.10078965792E+04  0.92062513043E+03  0.14480002290E+04  0.50400001928E-02 0.  1.
</event>
<event>
 5   0  0.1088757E-06  0.2595743E+04  0.7818609E-02  0.8369649E-01
       -1   -1    0    0    0  501  0.00000000000E+00  0.00000000000E+00  0.12444502694E+04  0.12444502694E+04  0.50400001928E-02 0. -1.
        1   -1    0    0  501    0  0.00000000000E+00  0.00000000000E+00 -0.13535855738E+04  0.13535855738E+04  0.50400001928E-02 0.  1.
    10030    2    1    2    0    0  0.00000000000E+00  0.00000000000E+00 -0.10913530442E+03  0.25980358433E+04  0.25957426159E+04 0.  0.
        5    1    3    3  502    0  0.89216067590E+03  0.14262940879E+03  0.87800333891E+03  0.12598435510E+04  0.46999998093E+01 0. -1.
       -5    1    3    3    0  502 -0.89216067590E+03 -0.14262940879E+03 -0.98713864333E+03  0.13381922922E+04  0.46999998093E+01 0.  1.
</event>
<event>
 5   0  0.2746631E-06  0.2592464E+04  0.7818609E-02  0.8370765E-01
       -2   -1    0    0    0  501  0.00000000000E+00  0.00000000000E+00  0.20109587993E+04  0.20109587993E+04  0.25500000920E-02 0. -1.
        2   -1    0    0  501    0  0.00000000000E+00  0.00000000000E+00 -0.83553073469E+03  0.83553073469E+03  0.25500000920E-02 0.  1.
    10030    2    1    2    0    0  0.00000000000E+00  0.00000000000E+00  0.11754280646E+04  0.28464895340E+04  0.25924643743E+04 0.  0.
        2    1    3    3  502    0  0.73915352896E+03 -0.10518052670E+04  0.77004459353E+03  0.14985362642E+04  0.25500000920E-02 0.  1.
       -2    1    3    3    0  502 -0.73915352896E+03  0.10518052670E+04  0.40538347106E+03  0.13479532698E+04  0.25500000920E-02 0. -1.
</event>
<event>
 5   0  0.2586775E-06  0.2606625E+04  0.7818609E-02  0.8365954E-01
        2   -1    0    0  501    0  0.00000000000E+00  0.00000000000E+00  0.13766652027E+04  0.13766652027E+04  0.25500000920E-02 0. -1.
       -2   -1    0    0    0  501  0.00000000000E+00  0.00000000000E+00 -0.12338679478E+04  0.12338679478E+04  0.25500000920E-02 0.  1.
    10030    2    1    2    0    0  0.00000000000E+00  0.00000000000E+00  0.14279725484E+03  0.26105331505E+04  0.26066246899E+04 0.  0.
        1    1    3    3  502    0  0.67849608430E+03 -0.10271954956E+04  0.49998369111E+03  0.13287103574E+04  0.50400001928E-02 0.  1.
       -1    1    3    3    0  502 -0.67849608430E+03  0.10271954956E+04 -0.35718643628E+03  0.12818227931E+04  0.50400001928E-02 0. -1.
</event>
<event>
 5   0  0.2623368E-06  0.2598647E+04  0.7818609E-02  0.8368661E-01
        2   -1    0    0  501    0  0.00000000000E+00  0.00000000000E+00  0.20408141129E+04  0.20408141129E+04  0.25500000920E-02 0.  1.
       -2   -1    0    0    0  501  0.00000000000E+00  0.00000000000E+00 -0.82723899243E+03  0.82723899243E+03  0.25500000920E-02 0. -1.
    10030    2    1    2    0    0  0.00000000000E+00  0.00000000000E+00  0.12135751205E+04  0.28680531053E+04  0.25986465789E+04 0.  0.
        5    1    3    3  502    0  0.60618432132E+03  0.50271699107E+03 -0.53381078187E+03  0.95139888867E+03  0.46999998093E+01 0. -1.
       -5    1    3    3    0  502 -0.60618432132E+03 -0.50271699107E+03  0.17473859023E+04  0.19166542166E+04  0.46999998093E+01 0.  1.
</event>
<event>
 5   0  0.9197000E-07  0.2590224E+04  0.7818609E-02  0.8371530E-01
        3   -1    0    0  501    0  0.00000000000E+00  0.00000000000E+00  0.17153628473E+04  0.17153628502E+04  0.10100000352E+00 0. -1.
       -3   -1    0    0    0  501  0.00000000000E+00  0.00000000000E+00 -0.97781928107E+03  0.97781928629E+03  0.10100000352E+00 0.  1.
    10030    2    1    2    0    0  0.00000000000E+00  0.00000000000E+00  0.73754356620E+03  0.26931821365E+04  0.25902238337E+04 0.  0.
        4    1    3    3  502    0  0.10155252858E+04 -0.41661527822E+03  0.10834456549E+04  0.15423086579E+04  0.12699999809E+01 0. -1.
       -4    1    3    3    0  502 -0.10155252858E+04  0.41661527822E+03 -0.34590208869E+03  0.11508734787E+04  0.12699999809E+01 0.  1.
</event>
<event>
 5   0  0.9197000E-07  0.2557137E+04  0.7818609E-02  0.8382908E-01
        4   -1    0    0  501    0  0.00000000000E+00  0.00000000000E+00  0.89736500387E+03  0.89736590255E+03  0.12699999809E+01 0.  1.
       -4   -1    0    0    0  501  0.00000000000E+00  0.00000000000E+00 -0.18217061530E+04  0.18217065957E+04  0.12699999809E+01 0. -1.
    10030    2    1    2    0    0  0.00000000000E+00  0.00000000000E+00 -0.92434114916E+03  0.27190724983E+04  0.25571368150E+04 0.  0.
        1    1    3    3  502    0  0.45690088243E+03  0.76639919170E+03 -0.14359197636E+04  0.16905595834E+04  0.50400001928E-02 0. -1.
       -1    1    3    3    0  502 -0.45690088243E+03 -0.76639919170E+03  0.51157861442E+03  0.10285129149E+04  0.50400001928E-02 0.  1.
</event>
<event>
 5   0  0.2705807E-06  0.2605680E+04  0.7818609E-02  0.8366274E-01
       -2   -1    0    0    0  501  0.00000000000E+00  0.00000000000E+00  0.71945292449E+03  0.71945292449E+03  0.25500000920E-02 0. -1.
        2   -1    0    0  501    0  0.00000000000E+00  0.00000000000E+00 -0.23592817831E+04  0.23592817831E+04  0.25500000920E-02 0.  1.
    10030    2    1    2    0    0  0.00000000000E+00  0.00000000000E+00 -0.16398288586E+04  0.30787347076E+04  0.26056800867E+04 0.  0.
        4    1    3    3  502    0 -0.56130267734E+03 -0.11728591712E+04 -0.91685342941E+03  0.15910000487E+04  0.12699999809E+01 0. -1.
       -4    1    3    3    0  502  0.56130267734E+03  0.11728591712E+04 -0.72297542919E+03  0.14877346589E+04  0.12699999809E+01 0.  1.
</event>
<event>
 5   0  0.2586775E-06  0.2598922E+04  0.7818609E-02  0.8368568E-01
       -2   -1    0    0    0  501  0.00000000000E+00  0.00000000000E+00  0.12140261756E+04  0.12140261756E+04  0.25500000920E-02 0.  1.
        2   -1    0    0  501    0  0.00000000000E+00  0.00000000000E+00 -0.13909077685E+04  0.13909077685E+04  0.25500000920E-02 0. -1.
    10030    2    1    2    0    0  0.00000000000E+00  0.00000000000E+00 -0.17688159292E+03  0.26049339441E+04  0.25989216524E+04 0.  0.
        1    1    3    3  502    0  0.64526860554E+03 -0.11273962674E+04 -0.53654288758E+02  0.13001048803E+04  0.50400001928E-02 0. -1.
       -1    1    3    3    0  502 -0.64526860554E+03  0.11273962674E+04 -0.12322730416E+03  0.13048290638E+04  0.50400001928E-02 0.  1.
</event>
<event>
 5   0  0.1032076E-06  0.2599031E+04  0.7818609E-02  0.8368530E-01
        1   -1    0    0  501    0  0.00000000000E+00  0.00000000000E+00  0.13571435264E+04  0.13571435264E+04  0.50400001928E-02 0.  1.
       -1   -1    0    0    0  501  0.00000000000E+00  0.00000000000E+00 -0.12443348273E+04  0.12443348273E+04  0.50400001928E-02 0. -1.
    10030    2    1    2    0    0  0.00000000000E+00  0.00000000000E+00  0.11280869905E+03  0.26014783537E+04  0.25990313238E+04 0.  0.
        1    1    3    3  502    0 -0.10596273299E+04 -0.11172623251E+03 -0.68823702549E+03  0.12684490658E+04  0.50400001928E-02 0. -1.
       -1    1    3    3    0  502  0.10596273299E+04  0.11172623251E+03  0.80104572454E+03  0.13330292878E+04  0.50400001928E-02 0.  1.
</event>
<event>
 5   0  0.1088757E-06  0.2606149E+04  0.7818609E-02  0.8366115E-01
       -1   -1    0    0    0  501  0.00000000000E+00  0.00000000000E+00  0.11576612731E+04  0.11576612731E+04  0.50400001928E-02 0. -1.
        1   -1    0    0  501    0  0.00000000000E+00  0.00000000000E+00 -0.14667531339E+04  0.14667531339E+04  0.50400001928E-02 0.  1.
    10030    2    1    2    0    0  0.00000000000E+00  0.00000000000E+00 -0.30909186086E+03  0.26244144070E+04  0.26061491134E+04 0.  0.
        5    1    3    3  502    0 -0.76403384709E+03 -0.10034785010E+04  0.17526187803E+03  0.12733639061E+04  0.46999998093E+01 0. -1.
       -5    1    3    3    0  502  0.76403384709E+03  0.10034785010E+04 -0.48435373889E+03  0.13510505009E+04  0.46999998093E+01 0.  1.
</event>
<event>
 5   0  0.2623368E-06  0.2599779E+04  0.7818609E-02  0.8368276E-01
        2   -1    0    0  501    0  0.00000000000E+00  0.00000000000E+00  0.16141102043E+04  0.16141102043E+04  0.25500000920E-02 0.  1.
       -2   -1    0    0    0  501  0.00000000000E+00  0.00000000000E+00 -0.10468383709E+04  0.10468383709E+04  0.25500000920E-02 0. -1.
    10030    2    1    2    0    0  0.00000000000E+00  0.00000000000E+00  0.56727183334E+03  0.26609485752E+04  0.25997788343E+04 0.  0.
        5    1    3    3  502    0 -0.24081176871E+03 -0.75587687564E+03 -0.77032558839E+03  0.11057864899E+04  0.46999998093E+01 0. -1.
       -5    1    3    3    0  502  0.24081176871E+03  0.75587687564E+03  0.13375974217E+04  0.15551620853E+04  0.46999998093E+01 0.  1.
</event>
<event>
 5   0  0.2623368E-06  0.2600487E+04  0.7818609E-02  0.8368036E-01
       -2   -1    0    0    0  501  0.00000000000E+00  0.00000000000E+00  0.60485428575E+03  0.60485428576E+03  0.25500000920E-02 0. -1.
        2   -1    0    0  501    0  0.00000000000E+00  0.00000000000E+00 -0.27951089311E+04  0.27951089311E+04  0.25500000920E-02 0.  1.
    10030    2    1    2    0    0  0.00000000000E+00  0.00000000000E+00 -0.21902546453E+04  0.33999632168E+04  0.26004873513E+04 0.  0.
        5    1    3    3  502    0  0.23546959366E+03 -0.11769985419E+04 -0.17486346833E+04  0.21209707313E+04  0.46999998093E+01 0. -1.
       -5    1    3    3    0  502 -0.23546959366E+03  0.11769985419E+04 -0.44161996203E+03  0.12789924856E+04  0.46999998093E+01 0.  1.
</event>
<event>
 5   0  0.2623368E-06  0.2598058E+04  0.7818609E-02  0.8368861E-01
       -2   -1    0    0    0  501  0.00000000000E+00  0.00000000000E+00  0.11293769882E+04  0.11293769882E+04  0.25500000920E-02 0. -1.
        2   -1    0    0  501    0  0.00000000000E+00  0.00000000000E+00 -0.14941656214E+04  0.14941656214E+04  0.25500000920E-02 0.  1.
    10030    2    1    2    0    0  0.00000000000E+00  0.00000000000E+00 -0.36478863322E+03  0.26235426097E+04  0.25980579435E+04 0.  0.
        5    1    3    3  502    0  0.86053121812E+03  0.92495526905E+03 -0.48768076211E+03  0.13542196435E+04  0.46999998093E+01 0.  1.
       -5    1    3    3    0  502 -0.86053121812E+03 -0.92495526905E+03  0.12289212889E+03  0.12693229662E+04  0.46999998093E+01 0. -1.
</event>
<event>
 5   0  0.2705807E-06  0.2605629E+04  0.7818609E-02  0.8366292E-01
        2   -1    0    0  501    0  0.00000000000E+00  0.00000000000E+00  0.18261319649E+04  0.18261319649E+04  0.25500000920E-02 0.  1.
       -2   -1    0    0    0  501  0.00000000000E+00  0.00000000000E+00 -0.92946508824E+03  0.92946508825E+03  0.25500000920E-02 0. -1.
    10030    2    1    2    0    0  0.00000000000E+00  0.00000000000E+00  0.89666687669E+03  0.27555970532E+04  0.26056292199E+04 0.  0.
        4    1    3    3  502    0 -0.54107847687E+03  0.84837833385E+03  0.13234964629E+04  0.16625751760E+04  0.12699999809E+01 0. -1.
       -4    1    3    3    0  502  0.54107847687E+03 -0.84837833385E+03 -0.42682958624E+03  0.10930218772E+04  0.12699999809E+01 0.  1.
</event>
<event>
 5   0  0.2705807E-06  0.2586991E+04  0.7818609E-02  0.8372634E-01
        2   -1    0    0  501    0  0.00000000000E+00  0.00000000000E+00  0.14159771710E+04  0.14159771710E+04  0.25500000920E-02 0.  1.
       -2   -1    0    0    0  501  0.00000000000E+00  0.00000000000E+00 -0.11816080586E+04  0.11816080586E+04  0.25500000920E-02 0. -1.
    10030    2    1    2    0    0  0.00000000000E+00  0.00000000000E+00  0.23436911239E+03  0.25975852296E+04  0.25869905575E+04 0.  0.
        4    1    3    3  502    0  0.66784632179E+03  0.10584921109E+04  0.44517836665E+03  0.13283861070E+04  0.12699999809E+01 0.  1.
       -4    1    3    3    0  502 -0.66784632179E+03 -0.10584921109E+04 -0.21080925427E+03  0.12691991226E+04  0.12699999809E+01 0. -1.
</event>
<event>
 5   0  0.1088757E-06  0.2602104E+04  0.7818609E-02  0.8367487E-01
        1   -1    0    0  501    0  0.00000000000E+00  0.00000000000E+00  0.25090561731E+04  0.25090561731E+04  0.50400001928E-02 0. -1.
       -1   -1    0    0    0  501  0.00000000000E+00  0.00000000000E+00 -0.67465087950E+03  0.67465087952E+03  0.50400001928E-02 0.  1.
    10030    2    1    2    0    0  0.00000000000E+00  0.00000000000E+00  0.18344052936E+04  0.31837070527E+04  0.26021044975E+04 0.  0.
        5    1    3    3  502    0  0.41151757117E+03  0.11877597111E+04  0.13277544459E+04  0.18284074495E+04  0.46999998093E+01 0. -1.
       -5    1    3    3    0  502 -0.41151757117E+03 -0.11877597111E+04  0.50665084773E+03  0.13552996032E+04  0.46999998093E+01 0.  1.
</event>
<event>
 5   0  0.2820028E-06  0.2593895E+04  0.7818609E-02  0.8370278E-01
        2   -1    0    0  501    0  0.00000000000E+00  0.00000000000E+00  0.11687237473E+04  0.11687237473E+04  0.25500000920E-02 0.  1.
       -2   -1    0    0    0  501  0.00000000000E+00  0.00000000000E+00 -0.14392390086E+04  0.14392390086E+04  0.25500000920E-02 0. -1.
    10030    2    1    2    0    0  0.00000000000E+00  0.00000000000E+00 -0.27051526135E+03  0.26079627559E+04  0.25938949920E+04 0.  0.
        3    1    3    3  502    0  0.75107646444E+03  0.10411564266E+04  0.49997566139E+02  0.12847654755E+04  0.10100000352E+00 0.  1.
       -3    1    3    3    0  502 -0.75107646444E+03 -0.10411564266E+04 -0.32051282749E+03  0.13231972804E+04  0.10100000352E+00 0. -1.
</event>
<event>
 5   0  0.2746631E-06  0.2596626E+04  0.7818609E-02  0.8369348E-01
       -2   -1    0    0    0  501  0.00000000000E+00  0.00000000000E+00  0.94286410007E+03  0.94286410007E+03  0.25500000920E-02 0.  1.
        2   -1    0    0  501    0  0.00000000000E+00  0.00000000000E+00 -0.17877627228E+04  0.17877627228E+04  0.25500000920E-02 0. -1.
    10030    2    1    2    0    0  0.00000000000E+00  0.00000000000E+00 -0.84489862270E+03  0.27306268228E+04  0.25966264966E+04 0.  0.
        2    1    3    3  502    0 -0.24564057247E+03  0.11851626439E+04 -0.91644375298E+03  0.15181630135E+04  0.25500000920E-02 0. -1.
       -2    1    3    3    0  502  0.24564057247E+03 -0.11851626439E+04  0.71545130275E+02  0.12124638093E+04  0.25500000920E-02 0.  1.
</event>
<event>
 5   0  0.1055179E-06  0.2598008E+04  0.7818609E-02  0.8368878E-01
       -1   -1    0    0    0  501  0.00000000000E+00  0.00000000000E+00  0.88595883065E+03  0.88595883066E+03  0.50400001928E-02 0. -1.
        1   -1    0    0  501    0  0.00000000000E+00  0.00000000000E+00 -0.19046166705E+04  0.19046166705E+04  0.50400001928E-02 0.  1.
    10030    2    1    2    0    0  0.00000000000E+00  0.00000000000E+00 -0.10186578398E+04  0.27905755011E+04  0.25980084359E+04 0.  0.
        3    1    3    3  502    0 -0.34827470288E+03  0.64830353985E+03 -0.16590997010E+04  0.18149943737E+04  0.10100000352E+00 0.  1.
       -3    1    3    3    0  502  0.34827470288E+03 -0.64830353985E+03  0.64044186119E+03  0.97558112744E+03  0.10100000352E+00 0. -1.
</event>
<event>
 5   0  0.2623368E-06  0.2598665E+04  0.7818609E-02  0.8368655E-01
        2   -1    0    0  501    0  0.00000000000E+00  0.00000000000E+00  0.11938262999E+04  0.11938262999E+04  0.25500000920E-02 0. -1.
       -2   -1    0    0    0  501  0.00000000000E+00  0.00000000000E+00 -0.14141627013E+04  0.14141627013E+04  0.25500000920E-02 0.  1.
    10030    2    1    2    0    0  0.00000000000E+00  0.00000000000E+00 -0.22033640134E+03  0.26079890012E+04  0.25986647534E+04 0.  0.
        5    1    3    3  502    0 -0.11620655573E+04  0.56134434872E+03  0.41166420934E+02  0.12912089689E+04  0.46999998093E+01 0. -1.
       -5    1    3    3    0  502  0.11620655573E+04 -0.56134434872E+03 -0.26150282227E+03  0.13167800322E+04  0.46999998093E+01 0.  1.
</event>
<event>
 5   0  0.2746631E-06  0.2598967E+04  0.7818609E-02  0.8368552E-01
        2   -1    0    0  501    0  0.00000000000E+00  0.00000000000E+00  0.14322242636E+04  0.14322242636E+04  0.25500000920E-02 0.  1.
       -2   -1    0    0    0  501  0.00000000000E+00  0.00000000000E+00 -0.11790452665E+04  0.11790452665E+04  0.25500000920E-02 0. -1.
    10030    2    1    2    0    0  0.00000000000E+00  0.00000000000E+00  0.25317899712E+03  0.26112695300E+04  0.25989669013E+04 0.  0.
        2    1    3    3  502    0 -0.85654045483E+03  0.59562738843E+03 -0.65181891783E+03  0.12301631755E+04  0.25500000920E-02 0. -1.
       -2    1    3    3    0  502  0.85654045483E+03 -0.59562738843E+03  0.90499791495E+03  0.13811063546E+04  0.25500000920E-02 0.  1.
</event>
<event>
 5   0  0.1032076E-06  0.2603508E+04  0.7818609E-02  0.8367011E-01
       -1   -1    0    0    0  501  0.00000000000E+00  0.00000000000E+00  0.10330923443E+04  0.10330923443E+04  0.50400001928E-02 0.  1.
        1   -1    0    0  501    0  0.00000000000E+00  0.00000000000E+00 -0.16402826933E+04  0.16402826933E+04  0.50400001928E-02 0. -1.
    10030    2    1    2    0    0  0.00000000000E+00  0.00000000000E+00 -0.60719034902E+03  0.26733750376E+04  0.26035080126E+04 0.  0.
        1    1    3    3  502    0  0.62338717530E+03 -0.52255112644E+03  0.73999138674E+03  0.10996629041E+04  0.50400001928E-02 0.  1.
       -1    1    3    3    0  502 -0.62338717530E+03  0.52255112644E+03 -0.13471817358E+04  0.15737121335E+04  0.50400001928E-02 0. -1.
</event>
<event>
 5   0  0.2623368E-06  0.2601905E+04  0.7818609E-02  0.8367555E-01
        2   -1    0    0  501    0  0.00000000000E+00  0.00000000000E+00  0.18212846204E+04  0.18212846204E+04  0.25500000920E-02 0.  1.
       -2   -1    0    0    0  501  0.00000000000E+00  0.00000000000E+00 -0.92927647129E+03  0.92927647130E+03  0.25500000920E-02 0. -1.
    10030    2    1    2    0    0  0.00000000000E+00  0.00000000000E+00  0.89200814911E+03  0.27505610917E+04  0.26019046449E+04 0.  0.
        5    1    3    3  502    0  0.10211198506E+04 -0.80482964650E+03  0.49349687124E+03  0.13906824803E+04  0.46999998093E+01 0.  1.
       -5    1    3    3    0  502 -0.10211198506E+04  0.80482964650E+03  0.39851127786E+03  0.13598786114E+04  0.46999998093E+01 0. -1.
</event>
<event>
 5   0  0.2623368E-06  0.2599332E+04  0.7818609E-02  0.8368428E-01
        2   -1    0    0  501    0  0.00000000000E+00  0.00000000000E+00  0.17991670851E+04  0.17991670851E+04  0.25500000920E-02 0.  1.
       -2   -1    0    0    0  501  0.00000000000E+00  0.00000000000E+00 -0.93884093548E+03  0.93884093548E+03  0.25500000920E-02 0. -1.
    10030    2    1    2    0    0  0.00000000000E+00  0.00000000000E+00  0.86032614963E+03  0.27380080206E+04  0.25993319982E+04 0.  0.
        5    1    3    3  502    0 -0.11481614856E+04 -0.42651583370E+03  0.88800004375E+03  0.15128637484E+04  0.46999998093E+01 0.  1.
       -5    1    3    3    0  502  0.11481614856E+04  0.42651583370E+03 -0.27673894127E+02  0.12251442722E+04  0.46999998093E+01 0. -1.
</event>
<event>
 5   0  0.2820028E-06  0.2612843E+04  0.7818609E-02  0.8363852E-01
       -2   -1    0    0    0  501  0.00000000000E+00  0.00000000000E+00  0.13050217369E+04  0.13050217369E+04  0.25500000920E-02 0.  1.
        2   -1    0    0  501    0  0.00000000000E+00  0.00000000000E+00 -0.13078226060E+04  0.13078226060E+04  0.25500000920E-02 0. -1.
    10030    2    1    2    0    0  0.00000000000E+00  0.00000000000E+00 -0.28008691602E+01  0.26128443429E+04  0.26128428417E+04 0.  0.
        3    1    3    3  502    0 -0.97310899540E+03  0.28074769212E+03  0.82381306362E+03  0.13055375742E+04  0.10100000352E+00 0.  1.
       -3    1    3    3    0  502  0.97310899540E+03 -0.28074769212E+03 -0.82661393278E+03  0.13073067688E+04  0.10100000352E+00 0. -1.
</event>
<event>
 5   0  0.1122628E-06  0.2601617E+04  0.7818609E-02  0.8367652E-01
       -1   -1    0    0    0  501  0.00000000000E+00  0.00000000000E+00  0.12906638498E+04  0.12906638498E+04  0.50400001928E-02 0. -1.
        1   -1    0    0  501    0  0.00000000000E+00  0.00000000000E+00 -0.13110330217E+04  0.13110330217E+04  0.50400001928E-02 0.  1.
    10030    2    1    2    0    0  0.00000000000E+00  0.00000000000E+00 -0.20369171889E+02  0.26016968715E+04  0.26016171333E+04 0.  0.
        2    1    3    3  502    0  0.74841981797E+03 -0.52612078320E+03 -0.93496566614E+03  0.13080887200E+04  0.25500000920E-02 0.  1.
       -2    1    3    3    0  502 -0.74841981797E+03  0.52612078320E+03  0.91459649425E+03  0.12936081515E+04  0.25500000920E-02 0. -1.
</event>
<event>
 5   0  0.1088757E-06  0.2586820E+04  0.7818609E-02  0.8372692E-01
        1   -1    0    0  501    0  0.00000000000E+00  0.00000000000E+00  0.14502960409E+04  0.14502960409E+04  0.50400001928E-02 0.  1.
       -1   -1    0    0    0  501  0.00000000000E+00  0.00000000000E+00 -0.11534952032E+04  0.11534952033E+04  0.50400001928E-02 0. -1.
    10030    2    1    2    0    0  0.00000000000E+00  0.00000000000E+00  0.29680083762E+03  0.26037912441E+04  0.25868200760E+04 0.  0.
        5    1    3    3  502    0 -0.66553874880E+03  0.77293352160E+02  0.12619910415E+04  0.14288315392E+04  0.46999998093E+01 0.  1.
       -5    1    3    3    0  502  0.66553874880E+03 -0.77293352160E+02 -0.96519020393E+03  0.11749597049E+04  0.46999998093E+01 0. -1.
</event>
<event>
 5   0  0.2746631E-06  0.2599880E+04  0.7818609E-02  0.8368242E-01
        2   -1    0    0  501    0  0.00000000000E+00  0.00000000000E+00  0.21759097437E+04  0.21759097438E+04  0.25500000920E-02 0.  1.
       -2   -1    0    0    0  501  0.00000000000E+00  0.00000000000E+00 -0.77661521805E+03  0.77661521806E+03  0.25500000920E-02 0. -1.
    10030    2    1    2    0    0  0.00000000000E+00  0.00000000000E+00  0.13992945257E+04  0.29525249618E+04  0.25998804743E+04 0.  0.
        2    1    3    3  502    0 -0.39587036829E+03  0.10288095290E+04  0.14820703922E+04  0.18470774328E+04  0.25500000920E-02 0.  1.
       -2    1    3    3    0  502  0.39587036829E+03 -0.10288095290E+04 -0.82775866463E+02  0.11054475290E+04  0.25500000920E-02 0. -1.
</event>
<event>
 5   0  0.2586775E-06  0.2599953E+04  0.7818609E-02  0.8368217E-01
       -2   -1    0    0    0  501  0.00000000000E+00  0.00000000000E+00  0.59752276503E+03  0.59752276504E+03  0.25500000920E-02 0. -1.
        2   -1    0    0  501    0  0.00000000000E+00  0.00000000000E+00 -0.28282423475E+04  0.28282423475E+04  0.25500000920E-02 0.  1.
    10030    2    1    2    0    0  0.00000000000E+00  0.00000000000E+00 -0.22307195825E+04  0.34257651126E+04  0.25999532209E+04 0.  0.
        1    1    3    3  502    0 -0.61261127910E+02 -0.12355131462E+04 -0.16419050485E+04  0.20557475157E+04  0.50400001928E-02 0.  1.
       -1    1    3    3    0  502  0.61261127910E+02  0.12355131462E+04 -0.58881453399E+03  0.13700175968E+04  0.50400001928E-02 0. -1.
</event>
<event>
 5   0  0.1122628E-06  0.2600138E+04  0.7818609E-02  0.8368154E-01
        1   -1    0    0  501    0  0.00000000000E+00  0.00000000000E+00  0.19282185793E+04  0.19282185793E+04  0.50400001928E-02 0.  1.
       -1   -1    0    0    0  501  0.00000000000E+00  0.00000000000E+00 -0.87654959943E+03  0.87654959944E+03  0.50400001928E-02 0. -1.
    10030    2    1    2    0    0  0.00000000000E+00  0.00000000000E+00  0.10516689798E+04  0.28047681787E+04  0.26001378604E+04 0.  0.
        2    1    3    3  502    0 -0.12381606263E+04  0.38916204226E+03  0.44446311164E+03  0.13718732774E+04  0.25500000920E-02 0. -1.
       -2    1    3    3    0  502  0.12381606263E+04 -0.38916204226E+03  0.60720586819E+03  0.14328949013E+04  0.25500000920E-02 0.  1.
</event>
<event>
 5   0  0.1055179E-06  0.2601627E+04  0.7818609E-02  0.8367649E-01
       -1   -1    0    0    0  501  0.00000000000E+00  0.00000000000E+00  0.86771329871E+03  0.86771329873E+03  0.50400001928E-02 0. -1.
        1   -1    0    0  501    0  0.00000000000E+00  0.00000000000E+00 -0.19500867664E+04  0.19500867664E+04  0.50400001928E-02 0.  1.
    10030    2    1    2    0    0  0.00000000000E+00  0.00000000000E+00 -0.10823734677E+04  0.28178000652E+04  0.26016273529E+04 0.  0.
        3    1    3    3  502    0  0.73833777810E+03 -0.57704927811E+02 -0.16994584502E+04  0.18538154081E+04  0.10100000352E+00 0.  1.
       -3    1    3    3    0  502 -0.73833777810E+03  0.57704927811E+02  0.61708498246E+03  0.96398465706E+03  0.10100000352E+00 0. -1.
</event>
<event>
 5   0  0.2746631E-06  0.2597151E+04  0.7818609E-02  0.8369170E-01
       -2   -1    0    0    0  501  0.00000000000E+00  0.00000000000E+00  0.82887614614E+03  0.82887614615E+03  0.25500000920E-02 0.  1.
        2   -1    0    0  501    0  0.00000000000E+00  0.00000000000E+00 -0.20344391383E+04  0.20344391383E+04  0.25500000920E-02 0. -1.
    10030    2    1    2    0    0  0.00000000000E+00  0.00000000000E+00 -0.12055629921E+04  0.28633152844E+04  0.25971508023E+04 0.  0.
        2    1    3    3  502    0  0.25727329711E+03  0.12720584383E+04 -0.65178750028E+03  0.14522910057E+04  0.25500000920E-02 0. -1.
       -2    1    3    3    0  502 -0.25727329711E+03 -0.12720584383E+04 -0.55377549186E+03  0.14110242787E+04  0.25500000920E-02 0.  1.
</event>
<event>
 5   0  0.1032076E-06  0.2588939E+04  0.7818609E-02  0.8371968E-01
        1   -1    0    0  501    0  0.00000000000E+00  0.00000000000E+00  0.12219669872E+04  0.12219669872E+04  0.50400001928E-02 0.  1.
       -1   -1    0    0    0  501  0.00000000000E+00  0.00000000000E+00 -0.13712732565E+04  0.13712732565E+04  0.50400001928E-02 0. -1.
    10030    2    1    2    0    0  0.00000000000E+00  0.00000000000E+00 -0.14930626928E+03  0.25932402437E+04  0.25889385082E+04 0.  0.
        1    1    3    3  502    0  0.25855421623E+03  0.38012335533E+03  0.11374428919E+04  0.12268334770E+04  0.50400001928E-02 0.  1.
       -1    1    3    3    0  502 -0.25855421623E+03 -0.38012335533E+03 -0.12867491612E+04  0.13664067666E+04  0.50400001928E-02 0. -1.
</event>
<event>
 5   0  0.1032076E-06  0.2592061E+04  0.7818609E-02  0.8370903E-01
       -1   -1    0    0    0  501  0.00000000000E+00  0.00000000000E+00  0.91051658419E+03  0.91051658421E+03  0.50400001928E-02 0. -1.
        1   -1    0    0  501    0  0.00000000000E+00  0.00000000000E+00 -0.18447709022E+04  0.18447709023E+04  0.50400001928E-02 0.  1.
    10030    2    1    2    0    0  0.00000000000E+00  0.00000000000E+00 -0.93425431805E+03  0.27552874865E+04  0.25920605707E+04 0.  0.
        1    1    3    3  502    0 -0.15825583571E+03 -0.26946366964E+03  0.86986960444E+03  0.92429903578E+03  0.50400001928E-02 0. -1.
       -1    1    3    3    0  502  0.15825583571E+03  0.26946366964E+03 -0.18041239225E+04  0.18309884507E+04  0.50400001928E-02 0.  1.
</event>
<event>
 5   0  0.1122628E-06  0.2604241E+04  0.7818609E-02  0.8366762E-01
       -1   -1    0    0    0  501  0.00000000000E+00  0.00000000000E+00  0.29327665877E+04  0.29327665877E+04  0.50400001928E-02 0.  1.
        1   -1    0    0  501    0  0.00000000000E+00  0.00000000000E+00 -0.57812912316E+03  0.57812912318E+03  0.50400001928E-02 0. -1.
    10030    2    1    2    0    0  0.00000000000E+00  0.00000000000E+00  0.23546374645E+04  0.35108957109E+04  0.26042409841E+04 0.  0.
        2    1    3    3  502    0 -0.99733809114E+03 -0.83634002317E+03  0.11274214398E+04  0.17219834510E+04  0.25500000920E-02 0. -1.
       -2    1    3    3    0  502  0.99733809114E+03  0.83634002317E+03  0.12272160247E+04  0.17889122599E+04  0.25500000920E-02 0.  1.
</event>
<event>
 5   0  0.2705807E-06  0.2601925E+04  0.7818609E-02  0.8367548E-01
       -2   -1    0    0    0  501  0.00000000000E+00  0.00000000000E+00  0.82814858727E+03  0.82814858727E+03  0.25500000920E-02 0. -1.
        2   -1    0    0  501    0  0.00000000000E+00  0.00000000000E+00 -0.20437191411E+04  0.20437191411E+04  0.25500000920E-02 0.  1.
    10030    2    1    2    0    0  0.00000000000E+00  0.00000000000E+00 -0.12155705539E+04  0.28718677284E+04  0.26019247641E+04 0.  0.
        4    1    3    3  502    0 -0.13575555198E+03 -0.11420811101E+04  0.63346406677E+02  0.11518651015E+04  0.12699999809E+01 0. -1.
       -4    1    3    3    0  502  0.13575555198E+03  0.11420811101E+04 -0.12789169605E+04  0.17200026269E+04  0.12699999809E+01 0.  1.
</event>
<event>
 5   0  0.2623368E-06  0.2597145E+04  0.7818609E-02  0.8369172E-01
        2   -1    0    0  501    0  0.00000000000E+00  0.00000000000E+00  0.67738561906E+03  0.67738561907E+03  0.25500000920E-02 0. -1.
       -2   -1    0    0    0  501  0.00000000000E+00  0.00000000000E+00 -0.24894099971E+04  0.24894099971E+04  0.25500000920E-02 0.  1.
    10030    2    1    2    0    0  0.00000000000E+00  0.00000000000E+00 -0.18120243781E+04  0.31667956162E+04  0.25971449956E+04 0.  0.
        5    1    3    3  502    0  0.53678290306E+03  0.96099732753E+03 -0.17460432471E+04  0.20640593158E+04  0.46999998093E+01 0.  1.
       -5    1    3    3    0  502 -0.53678290306E+03 -0.96099732753E+03 -0.65981130981E+02  0.11027363004E+04  0.46999998093E+01 0. -1.
</event>
<event>
 5   0  0.2705807E-06  0.2598969E+04  0.7818609E-02  0.8368552E-01
       -2   -1    0    0    0  501  0.00000000000E+00  0.00000000000E+00  0.77269607905E+03  0.77269607906E+03  0.25500000920E-02 0. -1.
        2   -1    0    0  501    0  0.00000000000E+00  0.00000000000E+00 -0.21854125400E+04  0.21854125400E+04  0.25500000920E-02 0.  1.
    10030    2    1    2    0    0  0.00000000000E+00  0.00000000000E+00 -0.14127164609E+04  0.29581086190E+04  0.25989687961E+04 0.  0.
        4    1    3    3  502    0  0.75898558484E+03  0.65320613889E+03 -0.16490072267E+04  0.19292391828E+04  0.12699999809E+01 0.  1.
       -4    1    3    3    0  502 -0.75898558484E+03 -0.65320613889E+03  0.23629076579E+03  0.10288694362E+04  0.12699999809E+01 0. -1.
</event>
<event>
 5   0  0.2586775E-06  0.2600582E+04  0.7818609E-02  0.8368004E-01
       -2   -1    0    0    0  501  0.00000000000E+00  0.00000000000E+00  0.11650784702E+04  0.11650784702E+04  0.25500000920E-02 0.  1.
        2   -1    0    0  501    0  0.00000000000E+00  0.00000000000E+00 -0.14511954628E+04  0.14511954628E+04  0.25500000920E-02 0. -1.
    10030    2    1    2    0    0  0.00000000000E+00  0.00000000000E+00 -0.28611699263E+03  0.26162739330E+04  0.26005819270E+04 0.  0.
        1    1    3    3  502    0 -0.43062118653E+03  0.59578561294E+03 -0.12220793567E+04  0.14261392138E+04  0.50400001928E-02 0. -1.
       -1    1    3    3    0  502  0.43062118653E+03 -0.59578561294E+03  0.93596236410E+03  0.11901347192E+04  0.50400001928E-02 0.  1.
</event>
<event>
 5   0  0.2623368E-06  0.2596661E+04  0.7818609E-02  0.8369336E-01
       -2   -1    0    0    0  501  0.00000000000E+00  0.00000000000E+00  0.14856777826E+04  0.14856777826E+04  0.25500000920E-02 0.  1.
        2   -1    0    0  501    0  0.00000000000E+00  0.00000000000E+00 -0.11346078924E+04  0.11346078924E+04  0.25500000920E-02 0. -1.
    10030    2    1    2    0    0  0.00000000000E+00  0.00000000000E+00  0.35106989014E+03  0.26202856750E+04  0.25966607308E+04 0.  0.
        5    1    3    3  502    0  0.74291856734E+03  0.51956714281E+02 -0.89763145690E+03  0.11663583584E+04  0.46999998093E+01 0. -1.
       -5    1    3    3    0  502 -0.74291856734E+03 -0.51956714281E+02  0.12487013470E+04  0.14539273166E+04  0.46999998093E+01 0.  1.
</event>
<event>
 5   0  0.2820028E-06  0.2593082E+04  0.7818609E-02  0.8370555E-01
        2   -1    0    0  501    0  0.00000000000E+00  0.00000000000E+00  0.17874894088E+04  0.17874894088E+04  0.25500000920E-02 0. -1.
       -2   -1    0    0    0  501  0.00000000000E+00  0.00000000000E+00 -0.94043559333E+03  0.94043559333E+03  0.25500000920E-02 0.  1.
    10030    2    1    2    0    0  0.00000000000E+00  0.00000000000E+00  0.84705381542E+03  0.27279250021E+04  0.25930820756E+04 0.  0.
        3    1    3    3  502    0 -0.42319265024E+03 -0.75709773851E+03 -0.59029300693E+03  0.10491591152E+04  0.10100000352E+00 0.  1.
       -3    1    3    3    0  502  0.42319265024E+03  0.75709773851E+03  0.14373468224E+04  0.16787658868E+04  0.10100000352E+00 0. -1.
</event>
<event>
 5   0  0.2705807E-06  0.2599585E+04  0.7818609E-02  0.8368342E-01
        2   -1    0    0  501    0  0.00000000000E+00  0.00000000000E+00  0.13658238141E+04  0.13658238141E+04  0.25500000920E-02 0. -1.
       -2   -1    0    0    0  501  0.00000000000E+00  0.00000000000E+00 -0.12369538480E+04  0.12369538480E+04  0.25500000920E-02 0.  1.
    10030    2    1    2    0    0  0.00000000000E+00  0.00000000000E+00  0.12886996614E+03  0.26027776622E+04  0.25995853689E+04 0.  0.
        4    1    3    3  502    0 -0.75988046394E+03 -0.75496884523E+03  0.80158846670E+03  0.13378871251E+04  0.12699999809E+01 0. -1.
       -4    1    3    3    0  502  0.75988046394E+03  0.75496884523E+03 -0.67271850056E+03  0.12648905370E+04  0.12699999809E+01 0.  1.
</event>
<event>
 5   0  0.1055179E-06  0.2600360E+04  0.7818609E-02  0.8368079E-01
        1   -1    0    0  501    0  0.00000000000E+00  0.00000000000E+00  0.14441697302E+04  0.14441697302E+04  0.50400001928E-02 0.  1.
       -1   -1    0    0    0  501  0.00000000000E+00  0.00000000000E+00 -0.11705464771E+04  0.11705464771E+04  0.50400001928E-02 0. -1.
    10030    2    1    2    0    0  0.00000000000E+00  0.00000000000E+00  0.27362325311E+03  0.26147162074E+04  0.26003598137E+04 0.  0.
        3    1    3    3  502    0  0.64603154732E+03 -0.29823916084E+03 -0.95738939919E+03  0.11928528112E+04  0.10100000352E+00 0. -1.
       -3    1    3    3    0  502 -0.64603154732E+03  0.29823916084E+03  0.12310126523E+04  0.14218633962E+04  0.10100000352E+00 0.  1.
</event>
<event>
 5   0  0.1122628E-06  0.2600505E+04  0.7818609E-02  0.8368030E-01
        1   -1    0    0  501    0  0.00000000000E+00  0.00000000000E+00  0.13962949375E+04  0.13962949375E+04  0.50400001928E-02 0.  1.
       -1   -1    0    0    0  501  0.00000000000E+00  0.00000000000E+00 -0.12108159362E+04  0.12108159362E+04  0.50400001928E-02 0. -1.
    10030    2    1    2    0    0  0.00000000000E+00  0.00000000000E+00  0.18547900128E+03  0.26071108738E+04  0.26005046911E+04 0.  0.
        2    1    3    3  502    0  0.28450862999E+03 -0.11037636951E+04  0.71996187021E+03  0.13481782337E+04  0.25500000920E-02 0.  1.
       -2    1    3    3    0  502 -0.28450862999E+03  0.11037636951E+04 -0.53448286893E+03  0.12589326401E+04  0.25500000920E-02 0. -1.
</event>
<event>
 5   0  0.1055179E-06  0.2601177E+04  0.7818609E-02  0.8367801E-01
       -1   -1    0    0    0  501  0.00000000000E+00  0.00000000000E+00  0.14099582143E+04  0.14099582143E+04  0.50400001928E-02 0.  1.
        1   -1    0    0  501    0  0.00000000000E+00  0.00000000000E+00 -0.11997027165E+04  0.11997027165E+04  0.50400001928E-02 0. -1.
    10030    2    1    2    0    0  0.00000000000E+00  0.00000000000E+00  0.21025549781E+03  0.26096609309E+04  0.26011771950E+04 0.  0.
        3    1    3    3  502    0 -0.18423493686E+03  0.42323283812E+03  0.13250137575E+04  0.14031143984E+04  0.10100000352E+00 0. -1.
       -3    1    3    3    0  502  0.18423493686E+03 -0.42323283812E+03 -0.11147582597E+04  0.12065465325E+04  0.10100000352E+00 0.  1.
</event>
<event>
 5   0  0.2705807E-06  0.2595988E+04  0.7818609E-02  0.8369565E-01
       -2   -1    0    0    0  501  0.00000000000E+00  0.00000000000E+00  0.84219120904E+03  0.84219120904E+03  0.25500000920E-02 0. -1.
        2   -1    0    0  501    0  0.00000000000E+00  0.00000000000E+00 -0.20004820438E+04  0.20004820438E+04  0.25500000920E-02 0.  1.
    10030    2    1    2    0    0  0.00000000000E+00  0.00000000000E+00 -0.11582908348E+04  0.28426732529E+04  0.25959879747E+04 0.  0.
        4    1    3    3  502    0  0.45657965043E+03 -0.40278299205E+03  0.67612251918E+03  0.90985844488E+03  0.12699999809E+01 0. -1.
       -4    1    3    3    0  502 -0.45657965043E+03  0.40278299205E+03 -0.18344133540E+04  0.19328148080E+04  0.12699999809E+01 0.  1.
</event>
<event>
 5   0  0.1032076E-06  0.2599366E+04  0.7818609E-02  0.8368417E-01
       -1   -1    0    0    0  501  0.00000000000E+00  0.00000000000E+00  0.15666058297E+04  0.15666058297E+04  0.50400001928E-02 0. -1.
        1   -1    0    0  501    0  0.00000000000E+00  0.00000000000E+00 -0.10782391363E+04  0.10782391363E+04  0.50400001928E-02 0.  1.
    10030    2    1    2    0    0  0.00000000000E+00  0.00000000000E+00  0.48836669340E+03  0.26448449660E+04  0.25993658587E+04 0.  0.
        1    1    3    3  502    0 -0.10193703679E+04 -0.66115470578E+03  0.71370491272E+03  0.14091189426E+04  0.50400001928E-02 0. -1.
       -1    1    3    3    0  502  0.10193703679E+04  0.66115470578E+03 -0.22533821931E+03  0.12357260235E+04  0.50400001928E-02 0.  1.
</event>
<event>
 5   0  0.1088757E-06  0.2607619E+04  0.7818609E-02  0.8365618E-01
       -1   -1    0    0    0  501  0.00000000000E+00  0.00000000000E+00  0.13131368169E+04  0.13131368170E+04  0.50400001928E-02 0.  1.
        1   -1    0    0  501    0  0.00000000000E+00  0.00000000000E+00 -0.12945488719E+04  0.12945488719E+04  0.50400001928E-02 0. -1.
    10030    2    1    2    0    0  0.00000000000E+00  0.00000000000E+00  0.18587945080E+02  0.26076856888E+04  0.26076194393E+04 0.  0.
        5    1    3    3  502    0 -0.14471765841E+03  0.10928358688E+04 -0.68690203830E+03  0.12988802627E+04  0.46999998093E+01 0. -1.
       -5    1    3    3    0  502  0.14471765841E+03 -0.10928358688E+04  0.70548998338E+03  0.13088054261E+04  0.46999998093E+01 0.  1.
</event>
<event>
 5   0  0.1032076E-06  0.2592145E+04  0.7818609E-02  0.8370874E-01
        1   -1    0    0  501    0  0.00000000000E+00  0.00000000000E+00  0.13069520429E+04  0.13069520429E+04  0.50400001928E-02 0.  1.
       -1   -1    0    0    0  501  0.00000000000E+00  0.00000000000E+00 -0.12852837393E+04  0.12852837393E+04  0.50400001928E-02 0. -1.
    10030    2    1    2    0    0  0.00000000000E+00  0.00000000000E+00  0.21668303525E+02  0.25922357822E+04  0.25921452188E+04 0.  0.
        1    1    3    3  502    0  0.11798995359E+04  0.44937634023E+03  0.30359375861E+03  0.12985650466E+04  0.50400001928E-02 0. -1.
       -1    1    3    3    0  502 -0.11798995359E+04 -0.44937634023E+03 -0.28192545508E+03  0.12936707356E+04  0.50400001928E-02 0.  1.
</event>
<event>
 5   0  0.1122628E-06  0.2600155E+04  0.7818609E-02  0.8368148E-01
       -1   -1    0    0    0  501  0.00000000000E+00  0.00000000000E+00  0.13377839429E+04  0.13377839429E+04  0.50400001928E-02 0. -1.
        1   -1    0    0  501    0  0.00000000000E+00  0.00000000000E+00 -0.12634340668E+04  0.12634340668E+04  0.50400001928E-02 0.  1.
    10030    2    1    2    0    0  0.00000000000E+00  0.00000000000E+00  0.74349876146E+02  0.26012180097E+04  0.26001552319E+04 0.  0.
        2    1    3    3  502    0 -0.77650470944E+03 -0.98064681043E+03 -0.31733423139E+03  0.12904761699E+04  0.25500000920E-02 0.  1.
       -2    1    3    3    0  502  0.77650470944E+03  0.98064681043E+03  0.39168410753E+03  0.13107418398E+04  0.25500000920E-02 0. -1.
</event>
<event>
 5   0  0.2623368E-06  0.2600362E+04  0.7818609E-02  0.8368078E-01
       -2   -1    0    0    0  501  0.00000000000E+00  0.00000000000E+00  0.61584520298E+03  0.61584520299E+03  0.25500000920E-02 0.  1.
        2   -1    0    0  501    0  0.00000000000E+00  0.00000000000E+00 -0.27449605709E+04  0.27449605709E+04  0.25500000920E-02 0. -1.
    10030    2    1    2    0    0  0.00000000000E+00  0.00000000000E+00 -0.21291153679E+04  0.33608057739E+04  0.26003621286E+04 0.  0.
        5    1    3    3  502    0 -0.40194700561E+03  0.32814058813E+03 -0.26053314414E+04  0.26565036515E+04  0.46999998093E+01 0. -1.
       -5    1    3    3    0  502  0.40194700561E+03 -0.32814058813E+03  0.47621607351E+03  0.70430212236E+03  0.46999998093E+01 0.  1.
</event>
<event>
 5   0  0.2705807E-06  0.2600484E+04  0.7818609E-02  0.8368037E-01
       -2   -1    0    0    0  501  0.00000000000E+00  0.00000000000E+00  0.15502748211E+04  0.15502748211E+04  0.25500000920E-02 0.  1.
        2   -1    0    0  501    0  0.00000000000E+00  0.00000000000E+00 -0.10905354255E+04  0.10905354255E+04  0.25500000920E-02 0. -1.
    10030    2    1    2    0    0  0.00000000000E+00  0.00000000000E+00  0.45973939551E+03  0.26408102466E+04  0.26004842716E+04 0.  0.
        4    1    3    3  502    0  0.10314782360E+04 -0.14212386410E+03 -0.56097594776E+03  0.11827265834E+04  0.12699999809E+01 0. -1.
       -4    1    3    3    0  502 -0.10314782360E+04  0.14212386410E+03  0.10207153433E+04  0.14580836632E+04  0.12699999809E+01 0.  1.
</event>
<event>
 5   0  0.1055179E-06  0.2596637E+04  0.7818609E-02  0.8369344E-01
       -1   -1    0    0    0  501  0.00000000000E+00  0.00000000000E+00  0.11762006610E+04  0.11762006610E+04  0.50400001928E-02 0.  1.
        1   -1    0    0  501    0  0.00000000000E+00  0.00000000000E+00 -0.14331155849E+04  0.14331155849E+04  0.50400001928E-02 0. -1.
    10030    2    1    2    0    0  0.00000000000E+00  0.00000000000E+00 -0.25691492397E+03  0.26093162459E+04  0.25966374397E+04 0.  0.
        3    1    3    3  502    0  0.34015702133E+03 -0.38997595089E+02 -0.13869317796E+04  0.14285682983E+04  0.10100000352E+00 0. -1.
       -3    1    3    3    0  502 -0.34015702133E+03  0.38997595089E+02  0.11300168556E+04  0.11807479476E+04  0.10100000352E+00 0.  1.
</event>
<event>
 5   0  0.1122628E-06  0.2602153E+04  0.7818609E-02  0.8367470E-01
        1   -1    0    0  501    0  0.00000000000E+00  0.00000000000E+00  0.14866619372E+04  0.14866619372E+04  0.50400001928E-02 0. -1.
       -1   -1    0    0    0  501  0.00000000000E+00  0.00000000000E+00 -0.11386581305E+04  0.11386581305E+04  0.50400001928E-02 0.  1.
    10030    2    1    2    0    0  0.00000000000E+00  0.00000000000E+00  0.34800380678E+03  0.26253200677E+04  0.26021527258E+04 0.  0.
        2    1    3    3  502    0  0.38543551110E+03  0.24705900870E+03 -0.10547083507E+04  0.11497862376E+04  0.25500000920E-02 0.  1.
       -2    1    3    3    0  502 -0.38543551110E+03 -0.24705900870E+03  0.14027121575E+04  0.14755338301E+04  0.25500000920E-02 0. -1.
</event>
<event>
 5   0  0.2705807E-06  0.2606933E+04  0.7818609E-02  0.8365850E-01
       -2   -1    0    0    0  501  0.00000000000E+00  0.00000000000E+00  0.78605509325E+03  0.78605509325E+03  0.25500000920E-02 0.  1.
        2   -1    0    0  501    0  0.00000000000E+00  0.00000000000E+00 -0.21614585776E+04  0.21614585776E+04  0.25500000920E-02 0. -1.
    10030    2    1    2    0    0  0.00000000000E+00  0.00000000000E+00 -0.13754034844E+04  0.29475136709E+04  0.26069334658E+04 0.  0.
        4    1    3    3  502    0 -0.10039787226E+04  0.52298658544E+03 -0.14182899712E+04  0.18146725047E+04  0.12699999809E+01 0. -1.
       -4    1    3    3    0  502  0.10039787226E+04 -0.52298658544E+03  0.42886486842E+02  0.11328411661E+04  0.12699999809E+01 0.  1.
</event>
<event>
 5   0  0.1032076E-06  0.2603257E+04  0.7818609E-02  0.8367096E-01
        1   -1    0    0  501    0  0.00000000000E+00  0.00000000000E+00  0.15196536360E+04  0.15196536360E+04  0.50400001928E-02 0. -1.
       -1   -1    0    0    0  501  0.00000000000E+00  0.00000000000E+00 -0.11148838607E+04  0.11148838607E+04  0.50400001928E-02 0.  1.
    10030    2    1    2    0    0  0.00000000000E+00  0.00000000000E+00  0.40476977535E+03  0.26345374967E+04  0.26032574307E+04 0.  0.
        1    1    3    3  502    0  0.43142388492E+03  0.93880746507E+03  0.10035737160E+04  0.14403632279E+04  0.50400001928E-02 0. -1.
       -1    1    3    3    0  502 -0.43142388492E+03 -0.93880746507E+03 -0.59880394062E+03  0.11941742688E+04  0.50400001928E-02 0.  1.
</event>
<event>
 5   0  0.2586775E-06  0.2600042E+04  0.7818609E-02  0.8368187E-01
        2   -1    0    0  501    0  0.00000000000E+00  0.00000000000E+00  0.22040574926E+04  0.22040574926E+04  0.25500000920E-02 0. -1.
       -2   -1    0    0    0  501  0.00000000000E+00  0.00000000000E+00 -0.76679251555E+03  0.76679251555E+03  0.25500000920E-02 0.  1.
    10030    2    1    2    0    0  0.00000000000E+00  0.00000000000E+00  0.14372649770E+04  0.29708500081E+04  0.26000421451E+04 0.  0.
        1    1    3    3  502    0  0.36211472707E+03 -0.90631515829E+03  0.16998999550E+04  0.19601515499E+04  0.50400001928E-02 0. -1.
       -1    1    3    3    0  502 -0.36211472707E+03  0.90631515829E+03 -0.26263497796E+03  0.10106984582E+04  0.50400001928E-02 0.  1.
</event>
<event>
 5   0  0.1032076E-06  0.2600170E+04  0.7818609E-02  0.8368144E-01
        1   -1    0    0  501    0  0.00000000000E+00  0.00000000000E+00  0.14857944173E+04  0.14857944173E+04  0.50400001928E-02 0.  1.
       -1   -1    0    0    0  501  0.00000000000E+00  0.00000000000E+00 -0.11375871363E+04  0.11375871363E+04  0.50400001928E-02 0. -1.
    10030    2    1    2    0    0  0.00000000000E+00  0.00000000000E+00  0.34820728102E+03  0.26233815535E+04  0.26001696993E+04 0.  0.
        1    1    3    3  502    0 -0.79823088559E+02 -0.12493263619E+03 -0.11290305129E+04  0.11387228759E+04  0.50400001928E-02 0. -1.
       -1    1    3    3    0  502  0.79823088559E+02  0.12493263619E+03  0.14772377940E+04  0.14846586776E+04  0.50400001928E-02 0.  1.
</event>
<event>
 5   0  0.1032076E-06  0.2600820E+04  0.7818609E-02  0.8367923E-01
        1   -1    0    0  501    0  0.00000000000E+00  0.00000000000E+00  0.17456070704E+04  0.17456070704E+04  0.50400001928E-02 0. -1.
       -1   -1    0    0    0  501  0.00000000000E+00  0.00000000000E+00 -0.96875534913E+03  0.96875534915E+03  0.50400001928E-02 0.  1.
    10030    2    1    2    0    0  0.00000000000E+00  0.00000000000E+00  0.77685172130E+03  0.27143624196E+04  0.26008200145E+04 0.  0.
        1    1    3    3  502    0  0.10695998991E+04  0.40730384953E+03  0.10327311839E+04  0.15415816774E+04  0.50400001928E-02 0.  1.
       -1    1    3    3    0  502 -0.10695998991E+04 -0.40730384953E+03 -0.25587946257E+03  0.11727807422E+04  0.50400001928E-02 0. -1.
</event>
<event>
 5   0  0.2820028E-06  0.2599093E+04  0.7818609E-02  0.8368509E-01
        2   -1    0    0  501    0  0.00000000000E+00  0.00000000000E+00  0.26291467831E+04  0.26291467831E+04  0.25500000920E-02 0.  1.
       -2   -1    0    0    0  501  0.00000000000E+00  0.00000000000E+00 -0.64234581996E+03  0.64234581997E+03  0.25500000920E-02 0. -1.
    10030    2    1    2    0    0  0.00000000000E+00  0.00000000000E+00  0.19868009632E+04  0.32714926031E+04  0.25990932621E+04 0.  0.
        3    1    3    3  502    0  0.29156875291E+03 -0.45614696689E+02 -0.59960957339E+03  0.66829984957E+03  0.10100000352E+00 0. -1.
       -3    1    3    3    0  502 -0.29156875291E+03  0.45614696689E+02  0.25864105365E+04  0.26031927535E+04  0.10100000352E+00 0.  1.
</event>
<event>
 5   0  0.1088757E-06  0.2610666E+04  0.7818609E-02  0.8364587E-01
       -1   -1    0    0    0  501  0.00000000000E+00  0.00000000000E+00  0.10269772575E+04  0.10269772575E+04  0.50400001928E-02 0. -1.
        1   -1    0    0  501    0  0.00000000000E+00  0.00000000000E+00 -0.16591357304E+04  0.16591357304E+04  0.50400001928E-02 0.  1.
    10030    2    1    2    0    0  0.00000000000E+00  0.00000000000E+00 -0.63215847296E+03  0.26861129879E+04  0.26106663228E+04 0.  0.
        5    1    3    3  502    0 -0.51428360524E+03  0.10579968419E+04 -0.89813775055E+03  0.14800400174E+04  0.46999998093E+01 0.  1.
       -5    1    3    3    0  502  0.51428360524E+03 -0.10579968419E+04  0.26597927759E+03  0.12060729705E+04  0.46999998093E+01 0. -1.
</event>
<event>
 5   0  0.2820028E-06  0.2608896E+04  0.7818609E-02  0.8365186E-01
       -2   -1    0    0    0  501  0.00000000000E+00  0.00000000000E+00  0.10517772916E+04  0.10517772916E+04  0.25500000920E-02 0. -1.
        2   -1    0    0  501    0  0.00000000000E+00  0.00000000000E+00 -0.16178182904E+04  0.16178182904E+04  0.25500000920E-02 0.  1.
    10030    2    1    2    0    0  0.00000000000E+00  0.00000000000E+00 -0.56604099882E+03  0.26695955820E+04  0.26088959655E+04 0.  0.
        3    1    3    3  502    0 -0.44107133924E+03 -0.11449024471E+04 -0.73631595333E+03  0.14309111548E+04  0.10100000352E+00 0.  1.
       -3    1    3    3    0  502  0.44107133924E+03  0.11449024471E+04  0.17027495451E+03  0.12386844271E+04  0.10100000352E+00 0. -1.
</event>
<event>
 5   0  0.2705807E-06  0.2603246E+04  0.7818609E-02  0.8367099E-01
        2   -1    0    0  501    0  0.00000000000E+00  0.00000000000E+00  0.16584992346E+04  0.16584992346E+04  0.25500000920E-02 0.  1.
       -2   -1    0    0    0  501  0.00000000000E+00  0.00000000000E+00 -0.10215394673E+04  0.10215394673E+04  0.25500000920E-02 0. -1.
    10030    2    1    2    0    0  0.00000000000E+00  0.00000000000E+00  0.63695976724E+03  0.26800387019E+04  0.26032459927E+04 0.  0.
        4    1    3    3  502    0 -0.68111891667E+03  0.83433408396E+03 -0.43395944255E+03  0.11611885088E+04  0.12699999809E+01 0. -1.
       -4    1    3    3    0  502  0.68111891667E+03 -0.83433408396E+03  0.10709192098E+04  0.15188501931E+04  0.12699999809E+01 0.  1.
</event>
<event>
 5   0  0.2820028E-06  0.2595884E+04  0.7818609E-02  0.8369601E-01
        2   -1    0    0  501    0  0.00000000000E+00  0.00000000000E+00  0.22471256339E+04  0.22471256339E+04  0.25500000920E-02 0. -1.
       -2   -1    0    0    0  501  0.00000000000E+00  0.00000000000E+00 -0.74969263855E+03  0.74969263855E+03  0.25500000920E-02 0.  1.
    10030    2    1    2    0    0  0.00000000000E+00  0.00000000000E+00  0.14974329953E+04  0.29968182724E+04  0.25958840849E+04 0.  0.
        3    1    3    3  502    0  0.15256590469E+03  0.82426363927E+03  0.18927097890E+04  0.20700331538E+04  0.10100000352E+00 0. -1.
       -3    1    3    3    0  502 -0.15256590469E+03 -0.82426363927E+03 -0.39527679366E+03  0.92678511863E+03  0.10100000352E+00 0.  1.
</event>
<event>
 5   0  0.2586775E-06  0.2602517E+04  0.7818609E-02  0.8367347E-01
       -2   -1    0    0    0  501  0.00000000000E+00  0.00000000000E+00  0.12996847426E+04  0.12996847426E+04  0.25500000920E-02 0.  1.
        2   -1    0    0  501    0  0.00000000000E+00  0.00000000000E+00 -0.13028342671E+04  0.13028342671E+04  0.25500000920E-02 0. -1.
    10030    2    1    2    0    0  0.00000000000E+00  0.00000000000E+00 -0.31495244975E+01  0.26025190097E+04  0.26025171039E+04 0.  0.
        1    1    3    3  502    0 -0.16839613180E+03  0.95361749036E+03  0.86763830163E+03  0.13002075979E+04  0.50400001928E-02 0.  1.
       -1    1    3    3    0  502  0.16839613180E+03 -0.95361749036E+03 -0.87078782613E+03  0.13023114118E+04  0.50400001928E-02 0. -1.
</event>
<event>
 5   0  0.1122628E-06  0.2600778E+04  0.7818609E-02  0.8367937E-01
       -1   -1    0    0    0  501  0.00000000000E+00  0.00000000000E+00  0.12138303357E+04  0.12138303357E+04  0.50400001928E-02 0. -1.
        1   -1    0    0  501    0  0.00000000000E+00  0.00000000000E+00 -0.13931204370E+04  0.13931204370E+04  0.50400001928E-02 0.  1.
    10030    2    1    2    0    0  0.00000000000E+00  0.00000000000E+00 -0.17929010132E+03  0.26069507726E+04  0.26007782279E+04 0.  0.
        2    1    3    3  502    0  0.57375100803E+03  0.57538078613E+03  0.92802733152E+03  0.12334861152E+04  0.25500000920E-02 0. -1.
       -2    1    3    3    0  502 -0.57375100803E+03 -0.57538078613E+03 -0.11073174328E+04  0.13734646575E+04  0.25500000920E-02 0.  1.
</event>
<event>
 5   0  0.1100104E-06  0.2601934E+04  0.7818609E-02  0.8367545E-01
        1   -1    0    0  501    0  0.00000000000E+00  0.00000000000E+00  0.96563332906E+03  0.96563332908E+03  0.50400001928E-02 0. -1.
       -1   -1    0    0    0  501  0.00000000000E+00  0.00000000000E+00 -0.17527515951E+04  0.17527515951E+04  0.50400001928E-02 0.  1.
    10030    2    1    2    0    0  0.00000000000E+00  0.00000000000E+00 -0.78711826601E+03  0.27183849242E+04  0.26019341712E+04 0.  0.
        4    1    3    3  502    0 -0.63684336582E+03 -0.12494649006E+03  0.78443803942E+03  0.10180990858E+04  0.12699999809E+01 0. -1.
       -4    1    3    3    0  502  0.63684336582E+03  0.12494649006E+03 -0.15715563054E+04  0.17002858383E+04  0.12699999809E+01 0.  1.
</event>
<event>
 5   0  0.2623368E-06  0.2590763E+04  0.7818609E-02  0.8371345E-01
       -2   -1    0    0    0  501  0.00000000000E+00  0.00000000000E+00  0.13183022024E+04  0.13183022024E+04  0.25500000920E-02 0.  1.
        2   -1    0    0  501    0  0.00000000000E+00  0.00000000000E+00 -0.12728596848E+04  0.12728596848E+04  0.25500000920E-02 0. -1.
    10030    2    1    2    0    0  0.00000000000E+00  0.00000000000E+00  0.45442517612E+02  0.25911618872E+04  0.25907633824E+04 0.  0.
        5    1    3    3  502    0  0.12323660590E+04 -0.32469131596E+03  0.25479376122E+03  0.12996509166E+04  0.46999998093E+01 0. -1.
       -5    1    3    3    0  502 -0.12323660590E+04  0.32469131596E+03 -0.20935124361E+03  0.12915109707E+04  0.46999998093E+01 0.  1.
</event>
<event>
 5   0  0.1032076E-06  0.2615769E+04  0.7818609E-02  0.8362865E-01
        1   -1    0    0  501    0  0.00000000000E+00  0.00000000000E+00  0.23720781239E+04  0.23720781239E+04  0.50400001928E-02 0.  1.
       -1   -1    0    0    0  501  0.00000000000E+00  0.00000000000E+00 -0.72112363176E+03  0.72112363177E+03  0.50400001928E-02 0. -1.
    10030    2    1    2    0    0  0.00000000000E+00  0.00000000000E+00  0.16509544922E+04  0.30932017557E+04  0.26157687907E+04 0.  0.
        1    1    3    3  502    0  0.30144107457E+03  0.20285677208E+03  0.23111981714E+04  0.23395842748E+04  0.50400001928E-02 0.  1.
       -1    1    3    3    0  502 -0.30144107457E+03 -0.20285677208E+03 -0.66024367927E+03  0.75361748086E+03  0.50400001928E-02 0. -1.
</event>
<event>
 5   0  0.1100104E-06  0.2598564E+04  0.7818609E-02  0.8368689E-01
       -1   -1    0    0    0  501  0.00000000000E+00  0.00000000000E+00  0.10191245357E+04  0.10191245357E+04  0.50400001928E-02 0.  1.
        1   -1    0    0  501    0  0.00000000000E+00  0.00000000000E+00 -0.16564542087E+04  0.16564542087E+04  0.50400001928E-02 0. -1.
    10030    2    1    2    0    0  0.00000000000E+00  0.00000000000E+00 -0.63732967304E+03  0.26755787444E+04  0.25985635466E+04 0.  0.
        4    1    3    3  502    0  0.10047025774E+04  0.24660009875E+03  0.49069361295E+03  0.11449981277E+04  0.12699999809E+01 0.  1.
       -4    1    3    3    0  502 -0.10047025774E+04 -0.24660009875E+03 -0.11280232860E+04  0.15305806167E+04  0.12699999809E+01 0. -1.
</event>
<event>
 5   0  0.1088757E-06  0.2605604E+04  0.7818609E-02  0.8366300E-01
       -1   -1    0    0    0  501  0.00000000000E+00  0.00000000000E+00  0.12585851971E+04  0.12585851971E+04  0.50400001928E-02 0.  1.
        1   -1    0    0  501    0  0.00000000000E+00  0.00000000000E+00 -0.13485721648E+04  0.13485721648E+04  0.50400001928E-02 0. -1.
    10030    2    1    2    0    0  0.00000000000E+00  0.00000000000E+00 -0.89986967758E+02  0.26071573619E+04  0.26056039329E+04 0.  0.
        5    1    3    3  502    0  0.43957204708E+03  0.12162875688E+04 -0.20222353807E+03  0.13090055324E+04  0.46999998093E+01 0. -1.
       -5    1    3    3    0  502 -0.43957204708E+03 -0.12162875688E+04  0.11223657031E+03  0.12981518295E+04  0.46999998093E+01 0.  1.
</event>
<event>
 5   0  0.2705807E-06  0.2597060E+04  0.7818609E-02  0.8369200E-01
        2   -1    0    0  501    0  0.00000000000E+00  0.00000000000E+00  0.87120069135E+03  0.87120069136E+03  0.25500000920E-02 0. -1.
       -2   -1    0    0    0  501  0.00000000000E+00  0.00000000000E+00 -0.19354672057E+04  0.19354672057E+04  0.25500000920E-02 0.  1.
    10030    2    1    2    0    0  0.00000000000E+00  0.00000000000E+00 -0.10642665144E+04  0.28066678971E+04  0.25970601593E+04 0.  0.
        4    1    3    3  502    0 -0.90406085803E+03  0.93171580894E+03 -0.50237209234E+03  0.13920487476E+04  0.12699999809E+01 0.  1.
       -4    1    3    3    0  502  0.90406085803E+03 -0.93171580894E+03 -0.56189442202E+03  0.14146191495E+04  0.12699999809E+01 0. -1.
</event>
<event>
 5   0  0.1032076E-06  0.2603435E+04  0.7818609E-02  0.8367035E-01
       -1   -1    0    0    0  501  0.00000000000E+00  0.00000000000E+00  0.23816295268E+04  0.23816295268E+04  0.50400001928E-02 0.  1.
        1   -1    0    0  501    0  0.00000000000E+00  0.00000000000E+00 -0.71147427176E+03  0.71147427178E+03  0.50400001928E-02 0. -1.
    10030    2    1    2    0    0  0.00000000000E+00  0.00000000000E+00  0.16701552551E+04  0.30931037986E+04  0.26034347568E+04 0.  0.
        1    1    3    3  502    0 -0.95034448161E+03 -0.39891030004E+03  0.17797246729E+04  0.20566244121E+04  0.50400001928E-02 0.  1.
       -1    1    3    3    0  502  0.95034448161E+03  0.39891030004E+03 -0.10956941785E+03  0.10364793865E+04  0.50400001928E-02 0. -1.
</event>
<event>
 5   0  0.2746631E-06  0.2577200E+04  0.7818609E-02  0.8375987E-01
        2   -1    0    0  501    0  0.00000000000E+00  0.00000000000E+00  0.10844827485E+04  0.10844827485E+04  0.25500000920E-02 0.  1.
       -2   -1    0    0    0  501  0.00000000000E+00  0.00000000000E+00 -0.15311350718E+04  0.15311350718E+04  0.25500000920E-02 0. -1.
    10030    2    1    2    0    0  0.00000000000E+00  0.00000000000E+00 -0.44665232328E+03  0.26156178204E+04  0.25771996982E+04 0.  0.
        2    1    3    3  502    0 -0.32626914033E+03  0.53808355461E+03 -0.13645907393E+04  0.15026953615E+04  0.25500000920E-02 0. -1.
       -2    1    3    3    0  502  0.32626914033E+03 -0.53808355461E+03  0.91793841606E+03  0.11129224588E+04  0.25500000920E-02 0.  1.
</event>
<event>
 5   0  0.2623368E-06  0.2598823E+04  0.7818609E-02  0.8368601E-01
       -2   -1    0    0    0  501  0.00000000000E+00  0.00000000000E+00  0.10514968922E+04  0.10514968922E+04  0.25500000920E-02 0. -1.
        2   -1    0    0  501    0  0.00000000000E+00  0.00000000000E+00 -0.16057781528E+04  0.16057781528E+04  0.25500000920E-02 0.  1.
    10030    2    1    2    0    0  0.00000000000E+00  0.00000000000E+00 -0.55428126065E+03  0.26572750450E+04  0.25988233778E+04 0.  0.
        5    1    3    3  502    0 -0.25388410649E+03 -0.62753796361E+03 -0.14112251409E+04  0.15651963211E+04  0.46999998093E+01 0.  1.
       -5    1    3    3    0  502  0.25388410649E+03  0.62753796361E+03  0.85694388025E+03  0.10920787239E+04  0.46999998093E+01 0. -1.
</event>
<event>
 5   0  0.1055179E-06  0.2598268E+04  0.7818609E-02  0.8368790E-01
        1   -1    0    0  501    0  0.00000000000E+00  0.00000000000E+00  0.25566991150E+04  0.25566991150E+04  0.50400001928E-02 0. -1.
       -1   -1    0    0    0  501  0.00000000000E+00  0.00000000000E+00 -0.66012812245E+03  0.66012812247E+03  0.50400001928E-02 0.  1.
    10030    2    1    2    0    0  0.00000000000E+00  0.00000000000E+00  0.18965709926E+04  0.32168272375E+04  0.25982678742E+04 0.  0.
        3    1    3    3  502    0  0.26654977009E+03 -0.86258143202E+03 -0.20826533105E+03  0.92653654279E+03  0.10100000352E+00 0.  1.
       -3    1    3    3    0  502 -0.26654977009E+03  0.86258143202E+03  0.21048363236E+04  0.22902906947E+04  0.10100000352E+00 0. -1.
</event>
<event>
 5   0  0.1088757E-06  0.2601032E+04  0.7818609E-02  0.8367851E-01
       -1   -1    0    0    0  501  0.00000000000E+00  0.00000000000E+00  0.82138871503E+03  0.82138871504E+03  0.50400001928E-02 0. -1.
        1   -1    0    0  501    0  0.00000000000E+00  0.00000000000E+00 -0.20591248507E+04  0.20591248508E+04  0.50400001928E-02 0.  1.
    10030    2    1    2    0    0  0.00000000000E+00  0.00000000000E+00 -0.12377361357E+04  0.28805135658E+04  0.26010320377E+04 0.  0.
        5    1    3    3  502    0 -0.36174610097E+03  0.26832160507E+03 -0.19699860051E+04  0.20208225245E+04  0.46999998093E+01 0.  1.
       -5    1    3    3    0  502  0.36174610097E+03 -0.26832160507E+03  0.73224986936E+03  0.85969104130E+03  0.46999998093E+01 0. -1.
</event>
<event>
 5   0  0.2746631E-06  0.2600014E+04  0.7818609E-02  0.8368197E-01
        2   -1    0    0  501    0  0.00000000000E+00  0.00000000000E+00  0.25626539553E+04  0.25626539553E+04  0.25500000920E-02 0. -1.
       -2   -1    0    0    0  501  0.00000000000E+00  0.00000000000E+00 -0.65947947973E+03  0.65947947973E+03  0.25500000920E-02 0.  1.
    10030    2    1    2    0    0  0.00000000000E+00  0.00000000000E+00  0.19031744756E+04  0.32221334350E+04  0.26000136132E+04 0.  0.
        2    1    3    3  502    0 -0.10178122544E+04 -0.67597762992E+03  0.15018174487E+04  0.19360638395E+04  0.25500000920E-02 0. -1.
       -2    1    3    3    0  502  0.10178122544E+04  0.67597762992E+03  0.40135702685E+03  0.12860695955E+04  0.25500000920E-02 0.  1.
</event>
<event>
 5   0  0.1100104E-06  0.2599919E+04  0.7818609E-02  0.8368229E-01
       -1   -1    0    0    0  501  0.00000000000E+00  0.00000000000E+00  0.93678182987E+03  0.93678182988E+03  0.50400001928E-02 0.  1.
        1   -1    0    0  501    0  0.00000000000E+00  0.00000000000E+00 -0.18039361360E+04  0.18039361360E+04  0.50400001928E-02 0. -1.
    10030    2    1    2    0    0  0.00000000000E+00  0.00000000000E+00 -0.86715430618E+03  0.27407179659E+04  0.25999189176E+04 0.  0.
        4    1    3    3  502    0  0.59057756056E+03 -0.35734291351E+03 -0.15947840601E+04  0.17377610952E+04  0.12699999809E+01 0. -1.
       -4    1    3    3    0  502 -0.59057756056E+03  0.35734291351E+03  0.72762975389E+03  0.10029568707E+04  0.12699999809E+01 0.  1.
</event>
<event>
 5   0  0.2820028E-06  0.2602953E+04  0.7818609E-02  0.8367199E-01
        2   -1    0    0  501    0  0.00000000000E+00  0.00000000000E+00  0.15651354450E+04  0.15651354450E+04  0.25500000920E-02 0.  1.
       -2   -1    0    0    0  501  0.00000000000E+00  0.00000000000E+00 -0.10822331739E+04  0.10822331739E+04  0.25500000920E-02 0. -1.
    10030    2    1    2    0    0  0.00000000000E+00  0.00000000000E+00  0.48290227114E+03  0.26473686189E+04  0.26029533229E+04 0.  0.
        3    1    3    3  502    0  0.63562381543E+03  0.10948691495E+04  0.54840451778E+03  0.13796751845E+04  0.10100000352E+00 0.  1.
       -3    1    3    3    0  502 -0.63562381543E+03 -0.10948691495E+04 -0.65502246644E+02  0.12676934345E+04  0.10100000352E+00 0. -1.
</event>
<event>
 5   0  0.2623368E-06  0.2600073E+04  0.7818609E-02  0.8368176E-01
       -2   -1    0    0    0  501  0.00000000000E+00  0.00000000000E+00  0.13647042702E+04  0.13647042702E+04  0.25500000920E-02 0.  1.
        2   -1    0    0  501    0  0.00000000000E+00  0.00000000000E+00 -0.12384334195E+04  0.12384334195E+04  0.25500000920E-02 0. -1.
    10030    2    1    2    0    0  0.00000000000E+00  0.00000000000E+00  0.12627085069E+03  0.26031376897E+04  0.26000733650E+04 0.  0.
        5    1    3    3  502    0  0.11764391187E+04  0.40039479997E+03  0.44535530539E+03  0.13201092507E+04  0.46999998093E+01 0.  1.
       -5    1    3    3    0  502 -0.11764391187E+04 -0.40039479997E+03 -0.31908445470E+03  0.12830284389E+04  0.46999998093E+01 0. -1.
</event>
<event>
 5   0  0.2586775E-06  0.2603588E+04  0.7818609E-02  0.8366983E-01
       -2   -1    0    0    0  501  0.00000000000E+00  0.00000000000E+00  0.22630113064E+04  0.22630113064E+04  0.25500000920E-02 0.  1.
        2   -1    0    0  501    0  0.00000000000E+00  0.00000000000E+00 -0.74885526881E+03  0.74885526881E+03  0.25500000920E-02 0. -1.
    10030    2    1    2    0    0  0.00000000000E+00  0.00000000000E+00  0.15141560376E+04  0.30118665752E+04  0.26035882472E+04 0.  0.
        1    1    3    3  502    0  0.41560272765E+03  0.11037283470E+04  0.11954241017E+03  0.11854249361E+04  0.50400001928E-02 0. -1.
       -1    1    3    3    0  502 -0.41560272765E+03 -0.11037283470E+04  0.13946136274E+04  0.18264416391E+04  0.50400001928E-02 0.  1.
</event>
<event>
 5   0  0.1100104E-06  0.2601058E+04  0.7818609E-02  0.8367842E-01
       -1   -1    0    0    0  501  0.00000000000E+00  0.00000000000E+00  0.11703210508E+04  0.11703210508E+04  0.50400001928E-02 0.  1.
        1   -1    0    0  501    0  0.00000000000E+00  0.00000000000E+00 -0.14452239649E+04  0.14452239649E+04  0.50400001928E-02 0. -1.
    10030    2    1    2    0    0  0.00000000000E+00  0.00000000000E+00 -0.27490291406E+03  0.26155450157E+04  0.26010582686E+04 0.  0.
        4    1    3    3  502    0 -0.84755911029E+03  0.58516183844E+03 -0.93597980507E+03  0.13917006255E+04  0.12699999809E+01 0. -1.
       -4    1    3    3    0  502  0.84755911029E+03 -0.58516183844E+03  0.66107689102E+03  0.12238443902E+04  0.12699999809E+01 0.  1.
</event>
<event>
 5   0  0.2586775E-06  0.2615293E+04  0.7818609E-02  0.8363025E-01
        2   -1    0    0  501    0  0.00000000000E+00  0.00000000000E+00  0.30049448927E+04  0.30049448927E+04  0.25500000920E-02 0.  1.
       -2   -1    0    0    0  501  0.00000000000E+00  0.00000000000E+00 -0.56904201533E+03  0.56904201533E+03  0.25500000920E-02 0. -1.
    10030    2    1    2    0    0  0.00000000000E+00  0.00000000000E+00  0.24359028773E+04  0.35739869080E+04  0.26152934043E+04 0.  0.
        1    1    3    3  502    0 -0.87877885727E+03 -0.67215319596E+03  0.26536375975E+03  0.11377434350E+04  0.50400001928E-02 0. -1.
       -1    1    3    3    0  502  0.87877885727E+03  0.67215319596E+03  0.21705391176E+04  0.24362434730E+04  0.50400001928E-02 0.  1.
</event>
<event>
 5   0  0.1032076E-06  0.2602361E+04  0.7818609E-02  0.8367400E-01
        1   -1    0    0  501    0  0.00000000000E+00  0.00000000000E+00  0.15145814612E+04  0.15145814612E+04  0.50400001928E-02 0. -1.
       -1   -1    0    0    0  501  0.00000000000E+00  0.00000000000E+00 -0.11178470880E+04  0.11178470880E+04  0.50400001928E-02 0.  1.
    10030    2    1    2    0    0  0.00000000000E+00  0.00000000000E+00  0.39673437325E+03  0.26324285492E+04  0.26023608327E+04 0.  0.
        1    1    3    3  502    0  0.31962062771E+03 -0.60397191215E+03  0.13184690641E+04  0.14850252824E+04  0.50400001928E-02 0. -1.
       -1    1    3    3    0  502 -0.31962062771E+03  0.60397191215E+03 -0.92173469086E+03  0.11474032668E+04  0.50400001928E-02 0.  1.
</event>
<event>
 5   0  0.2705807E-06  0.2597573E+04  0.7818609E-02  0.8369026E-01
       -2   -1    0    0    0  501  0.00000000000E+00  0.00000000000E+00  0.61166269348E+03  0.61166269349E+03  0.25500000920E-02 0.  1.
        2   -1    0    0  501    0  0.00000000000E+00  0.00000000000E+00 -0.27578051465E+04  0.27578051466E+04  0.25500000920E-02 0. -1.
    10030    2    1    2    0    0  0.00000000000E+00  0.00000000000E+00 -0.21461424531E+04  0.33694678400E+04  0.25975731166E+04 0.  0.
        4    1    3    3  502    0  0.83886243423E+03  0.96421160986E+03 -0.77317553316E+03  0.14937189261E+04  0.12699999809E+01 0. -1.
       -4    1    3    3    0  502 -0.83886243423E+03 -0.96421160986E+03 -0.13729669199E+04  0.18757489140E+04  0.12699999809E+01 0.  1.
</event>
<event>
 5   0  0.1032076E-06  0.2592397E+04  0.7818609E-02  0.8370788E-01
        1   -1    0    0  501    0  0.00000000000E+00  0.00000000000E+00  0.16137407870E+04  0.16137407870E+04  0.50400001928E-02 0. -1.
       -1   -1    0    0    0  501  0.00000000000E+00  0.00000000000E+00 -0.10411400506E+04  0.10411400506E+04  0.50400001928E-02 0.  1.
    10030    2    1    2    0    0  0.00000000000E+00  0.00000000000E+00  0.57260073636E+03  0.26548808376E+04  0.25923967016E+04 0.  0.
        1    1    3    3  502    0 -0.43594589426E+03  0.26227346843E+03 -0.93461491265E+03  0.10641152334E+04  0.50400001928E-02 0.  1.
       -1    1    3    3    0  502  0.43594589426E+03 -0.26227346843E+03  0.15072156490E+04  0.15907656042E+04  0.50400001928E-02 0. -1.
</event>
<event>
 5   0  0.2623368E-06  0.2585941E+04  0.7818609E-02  0.8372992E-01
       -2   -1    0    0    0  501  0.00000000000E+00  0.00000000000E+00  0.76210613227E+03  0.76210613228E+03  0.25500000920E-02 0. -1.
        2   -1    0    0  501    0  0.00000000000E+00  0.00000000000E+00 -0.21936225948E+04  0.21936225948E+04  0.25500000920E-02 0.  1.
    10030    2    1    2    0    0  0.00000000000E+00  0.00000000000E+00 -0.14315164625E+04  0.29557287271E+04  0.25859414003E+04 0.  0.
        5    1    3    3  502    0 -0.83906664208E+03 -0.35402895339E+03  0.33330190414E+03  0.96978429508E+03  0.46999998093E+01 0. -1.
       -5    1    3    3    0  502  0.83906664208E+03  0.35402895339E+03 -0.17648183667E+04  0.19859444320E+04  0.46999998093E+01 0.  1.
</event>
<event>
 5   0  0.2623368E-06  0.2600021E+04  0.7818609E-02  0.8368194E-01
       -2   -1    0    0    0  501  0.00000000000E+00  0.00000000000E+00  0.11952168459E+04  0.11952168459E+04  0.25500000920E-02 0. -1.
        2   -1    0    0  501    0  0.00000000000E+00  0.00000000000E+00 -0.14139918590E+04  0.14139918590E+04  0.25500000920E-02 0.  1.
    10030    2    1    2    0    0  0.00000000000E+00  0.00000000000E+00 -0.21877501315E+03  0.26092087049E+04  0.26000206844E+04 0.  0.
        5    1    3    3  502    0  0.59372186126E+03 -0.17890201556E+03  0.10372320007E+04  0.12084634430E+04  0.46999998093E+01 0.  1.
       -5    1    3    3    0  502 -0.59372186126E+03  0.17890201556E+03 -0.12560070139E+04  0.14007452619E+04  0.46999998093E+01 0. -1.
</event>
<event>
 5   0  0.2746631E-06  0.2588623E+04  0.7818609E-02  0.8372076E-01
        2   -1    0    0  501    0  0.00000000000E+00  0.00000000000E+00  0.24667773829E+04  0.24667773829E+04  0.25500000920E-02 0. -1.
       -2   -1    0    0    0  501  0.00000000000E+00  0.00000000000E+00 -0.67912169714E+03  0.67912169714E+03  0.25500000920E-02 0.  1.
    10030    2    1    2    0    0  0.00000000000E+00  0.00000000000E+00  0.17876556858E+04  0.31458990800E+04  0.25886228329E+04 0.  0.
        2    1    3    3  502    0 -0.10938841544E+04 -0.37618246398E+03  0.15994710705E+04  0.19739309752E+04  0.25500000920E-02 0. -1.
       -2    1    3    3    0  502  0.10938841544E+04  0.37618246398E+03  0.18818461528E+03  0.11719681049E+04  0.25500000920E-02 0.  1.
</event>
<event>
 5   0  0.2746631E-06  0.2608562E+04  0.7818609E-02  0.8365299E-01
        2   -1    0    0  501    0  0.00000000000E+00  0.00000000000E+00  0.14755079047E+04  0.14755079047E+04  0.25500000920E-02 0. -1.
       -2   -1    0    0    0  501  0.00000000000E+00  0.00000000000E+00 -0.11529241536E+04  0.11529241536E+04  0.25500000920E-02 0.  1.
    10030    2    1    2    0    0  0.00000000000E+00  0.00000000000E+00  0.32258375105E+03  0.26284320583E+04  0.26085618277E+04 0.  0.
        2    1    3    3  502    0  0.15017966016E+03  0.11080089178E+04 -0.51532221948E+03  0.12311761377E+04  0.25500000920E-02 0.  1.
       -2    1    3    3    0  502 -0.15017966016E+03 -0.11080089178E+04  0.83790597053E+03  0.13972559206E+04  0.25500000920E-02 0. -1.
</event>
<event>
 5   0  0.2586775E-06  0.2601081E+04  0.7818609E-02  0.8367834E-01
       -2   -1    0    0    0  501  0.00000000000E+00  0.00000000000E+00  0.90026006596E+03  0.90026006596E+03  0.25500000920E-02 0.  1.
        2   -1    0    0  501    0  0.00000000000E+00  0.00000000000E+00 -0.18787972552E+04  0.18787972552E+04  0.25500000920E-02 0. -1.
    10030    2    1    2    0    0  0.00000000000E+00  0.00000000000E+00 -0.97853718920E+03  0.27790573211E+04  0.26010814219E+04 0.  0.
        1    1    3    3  502    0 -0.56070429167E+03  0.35915679544E+03  0.70432063930E+03  0.96925253127E+03  0.50400001928E-02 0.  1.
       -1    1    3    3    0  502  0.56070429167E+03 -0.35915679544E+03 -0.16828578285E+04  0.18098047899E+04  0.50400001928E-02 0. -1.
</event>
<event>
 5   0  0.1055179E-06  0.2606996E+04  0.7818609E-02  0.8365829E-01
        1   -1    0    0  501    0  0.00000000000E+00  0.00000000000E+00  0.13698401795E+04  0.13698401795E+04  0.50400001928E-02 0. -1.
       -1   -1    0    0    0  501  0.00000000000E+00  0.00000000000E+00 -0.12403691475E+04  0.12403691475E+04  0.50400001928E-02 0.  1.
    10030    2    1    2    0    0  0.00000000000E+00  0.00000000000E+00  0.12947103198E+03  0.26102093270E+04  0.26069963526E+04 0.  0.
        3    1    3    3  502    0 -0.10270640092E+04 -0.33513824369E+02  0.86767389081E+03  0.13449318371E+04  0.10100000352E+00 0. -1.
       -3    1    3    3    0  502  0.10270640092E+04  0.33513824369E+02 -0.73820285883E+03  0.12652774899E+04  0.10100000352E+00 0.  1.
</event>
<event>
 5   0  0.1055179E-06  0.2593243E+04  0.7818609E-02  0.8370500E-01
       -1   -1    0    0    0  501  0.00000000000E+00  0.00000000000E+00  0.13643430322E+04  0.13643430322E+04  0.50400001928E-02 0. -1.
        1   -1    0    0  501    0  0.00000000000E+00  0.00000000000E+00 -0.12322611564E+04  0.12322611564E+04  0.50400001928E-02 0.  1.
    10030    2    1    2    0    0  0.00000000000E+00  0.00000000000E+00  0.13208187572E+03  0.25966041886E+04  0.25932426979E+04 0.  0.
        3    1    3    3  502    0  0.11628496415E+04 -0.22740831953E+03  0.59330977631E+03  0.13251227617E+04  0.10100000352E+00 0. -1.
       -3    1    3    3    0  502 -0.11628496415E+04  0.22740831953E+03 -0.46122790059E+03  0.12714814270E+04  0.10100000352E+00 0.  1.
</event>
<event>
 5   0  0.9197000E-07  0.2602648E+04  0.7818609E-02  0.8367302E-01
        3   -1    0    0  501    0  0.00000000000E+00  0.00000000000E+00  0.10655815165E+04  0.10655815213E+04  0.10100000352E+00 0.  1.
       -3   -1    0    0    0  501  0.00000000000E+00  0.00000000000E+00 -0.15892200982E+04  0.15892201014E+04  0.10100000352E+00 0. -1.
    10030    2    1    2    0    0  0.00000000000E+00  0.00000000000E+00 -0.52363858165E+03  0.26548016227E+04  0.26026475542E+04 0.  0.
        3    1    3    3  502    0 -0.21108074060E+03  0.18601669293E+03  0.10341866450E+04  0.10717739109E+04  0.10100000352E+00 0.  1.
       -3    1    3    3    0  502  0.21108074060E+03 -0.18601669293E+03 -0.15578252267E+04  0.15830277118E+04  0.10100000352E+00 0. -1.
</event>
<event>
 5   0  0.2820028E-06  0.2600146E+04  0.7818609E-02  0.8368151E-01
       -2   -1    0    0    0  501  0.00000000000E+00  0.00000000000E+00  0.69624237252E+03  0.69624237253E+03  0.25500000920E-02 0. -1.
        2   -1    0    0  501    0  0.00000000000E+00  0.00000000000E+00 -0.24275888665E+04  0.24275888665E+04  0.25500000920E-02 0.  1.
    10030    2    1    2    0    0  0.00000000000E+00  0.00000000000E+00 -0.17313464939E+04  0.31238312390E+04  0.26001463281E+04 0.  0.
        3    1    3    3  502    0 -0.32744322732E+03 -0.12118094093E+04 -0.12721838374E+04  0.17872193032E+04  0.10100000352E+00 0.  1.
       -3    1    3    3    0  502  0.32744322732E+03  0.12118094093E+04 -0.45916265656E+03  0.13366119358E+04  0.10100000352E+00 0. -1.
</event>
<event>
 5   0  0.1032076E-06  0.2607555E+04  0.7818609E-02  0.8365639E-01
        1   -1    0    0  501    0  0.00000000000E+00  0.00000000000E+00  0.29944376311E+04  0.29944376311E+04  0.50400001928E-02 0. -1.
       -1   -1    0    0    0  501  0.00000000000E+00  0.00000000000E+00 -0.56766457900E+03  0.56766457902E+03  0.50400001928E-02 0.  1.
    10030    2    1    2    0    0  0.00000000000E+00  0.00000000000E+00  0.24267730521E+04  0.35621022101E+04  0.26075553127E+04 0.  0.
        1    1    3    3  502    0 -0.37494541299E+02  0.57063513820E+03 -0.38719356961E+03  0.69061506062E+03  0.50400001928E-02 0.  1.
       -1    1    3    3    0  502  0.37494541299E+02 -0.57063513820E+03  0.28139666217E+04  0.28714871495E+04  0.50400001928E-02 0. -1.
</event>
<event>
 5   0  0.2746631E-06  0.2599820E+04  0.7818609E-02  0.8368262E-01
       -2   -1    0    0    0  501  0.00000000000E+00  0.00000000000E+00  0.58861763046E+03  0.58861763046E+03  0.25500000920E-02 0.  1.
        2   -1    0    0  501    0  0.00000000000E+00  0.00000000000E+00 -0.28707358506E+04  0.28707358506E+04  0.25500000920E-02 0. -1.
    10030    2    1    2    0    0  0.00000000000E+00  0.00000000000E+00 -0.22821182201E+04  0.34593534811E+04  0.25998197892E+04 0.  0.
        2    1    3    3  502    0  0.15849372962E+03 -0.69676147504E+03  0.30384726582E+03  0.77647921826E+03  0.25500000920E-02 0.  1.
       -2    1    3    3    0  502 -0.15849372962E+03  0.69676147504E+03 -0.25859654859E+04  0.26828742628E+04  0.25500000920E-02 0. -1.
</event>
<event>
 5   0  0.1100104E-06  0.2598093E+04  0.7818609E-02  0.8368849E-01
        1   -1    0    0  501    0  0.00000000000E+00  0.00000000000E+00  0.18822206338E+04  0.18822206338E+04  0.50400001928E-02 0.  1.
       -1   -1    0    0    0  501  0.00000000000E+00  0.00000000000E+00 -0.89655888017E+03  0.89655888019E+03  0.50400001928E-02 0. -1.
    10030    2    1    2    0    0  0.00000000000E+00  0.00000000000E+00  0.98566175366E+03  0.27787795140E+04  0.25980928573E+04 0.  0.
        4    1    3    3  502    0  0.10235269940E+04 -0.31098051541E+02  0.13477623363E+04  0.16926427634E+04  0.12699999809E+01 0.  1.
       -4    1    3    3    0  502 -0.10235269940E+04  0.31098051541E+02 -0.36210058265E+03  0.10861367507E+04  0.12699999809E+01 0. -1.
</event>
<event>
 5   0  0.1032076E-06  0.2652574E+04  0.7818609E-02  0.8350559E-01
       -1   -1    0    0    0  501  0.00000000000E+00  0.00000000000E+00  0.12868181945E+04  0.12868181945E+04  0.50400001928E-02 0.  1.
        1   -1    0    0  501    0  0.00000000000E+00  0.00000000000E+00 -0.13669664950E+04  0.13669664950E+04  0.50400001928E-02 0. -1.
    10030    2    1    2    0    0  0.00000000000E+00  0.00000000000E+00 -0.80148300516E+02  0.26537846895E+04  0.26525741136E+04 0.  0.
        1    1    3    3  502    0 -0.74272206840E+03  0.10261253939E+04 -0.43327764174E+03  0.13387676833E+04  0.50400001928E-02 0. -1.
       -1    1    3    3    0  502  0.74272206840E+03 -0.10261253939E+04  0.35312934122E+03  0.13150170062E+04  0.50400001928E-02 0.  1.
</event>
<event>
 5   0  0.1122628E-06  0.2599804E+04  0.7818609E-02  0.8368268E-01
        1   -1    0    0  501    0  0.00000000000E+00  0.00000000000E+00  0.17649758360E+04  0.17649758360E+04  0.50400001928E-02 0.  1.
       -1   -1    0    0    0  501  0.00000000000E+00  0.00000000000E+00 -0.95737609264E+03  0.95737609265E+03  0.50400001928E-02 0. -1.
    10030    2    1    2    0    0  0.00000000000E+00  0.00000000000E+00  0.80759974332E+03  0.27223519286E+04  0.25998043538E+04 0.  0.
        2    1    3    3  502    0 -0.92765697913E+03 -0.66213303910E+03 -0.25078908494E+03  0.11669887735E+04  0.25500000920E-02 0. -1.
       -2    1    3    3    0  502  0.92765697913E+03  0.66213303910E+03  0.10583888283E+04  0.15553631551E+04  0.25500000920E-02 0.  1.
</event>
<event>
 5   0  0.1055179E-06  0.2592124E+04  0.7818609E-02  0.8370881E-01
        1   -1    0    0  501    0  0.00000000000E+00  0.00000000000E+00  0.13938066510E+04  0.13938066510E+04  0.50400001928E-02 0.  1.
       -1   -1    0    0    0  501  0.00000000000E+00  0.00000000000E+00 -0.12051722902E+04  0.12051722902E+04  0.50400001928E-02 0. -1.
    10030    2    1    2    0    0  0.00000000000E+00  0.00000000000E+00  0.18863436077E+03  0.25989789412E+04  0.25921243440E+04 0.  0.
        3    1    3    3  502    0 -0.27363443532E+03  0.99913792574E+03 -0.68660361965E+03  0.12428100980E+04  0.10100000352E+00 0. -1.
       -3    1    3    3    0  502  0.27363443532E+03 -0.99913792574E+03  0.87523798042E+03  0.13561688433E+04  0.10100000352E+00 0.  1.
</event>
<event>
 5   0  0.2705807E-06  0.2598952E+04  0.7818609E-02  0.8368557E-01
       -2   -1    0    0    0  501  0.00000000000E+00  0.00000000000E+00  0.71921437823E+03  0.71921437823E+03  0.25500000920E-02 0. -1.
        2   -1    0    0  501    0  0.00000000000E+00  0.00000000000E+00 -0.23478916759E+04  0.23478916760E+04  0.25500000920E-02 0.  1.
    10030    2    1    2    0    0  0.00000000000E+00  0.00000000000E+00 -0.16286772977E+04  0.30671060542E+04  0.25989516747E+04 0.  0.
        4    1    3    3  502    0 -0.11345038951E+04 -0.27422450420E+03 -0.14017676474E+03  0.11755633990E+04  0.12699999809E+01 0. -1.
       -4    1    3    3    0  502  0.11345038951E+04  0.27422450420E+03 -0.14885005330E+04  0.18915426552E+04  0.12699999809E+01 0.  1.
</event>
<event>
 5   0  0.2705807E-06  0.2601251E+04  0.7818609E-02  0.8367776E-01
       -2   -1    0    0    0  501  0.00000000000E+00  0.00000000000E+00  0.13110038911E+04  0.13110038911E+04  0.25500000920E-02 0.  1.
        2   -1    0    0  501    0  0.00000000000E+00  0.00000000000E+00 -0.12903294229E+04  0.12903294229E+04  0.25500000920E-02 0. -1.
    10030    2    1    2    0    0  0.00000000000E+00  0.00000000000E+00  0.20674468185E+02  0.26013333140E+04  0.26012511560E+04 0.  0.
        4    1    3    3  502    0  0.40287161204E+03 -0.33395807611E+03 -0.11804109800E+04  0.12912030154E+04  0.12699999809E+01 0. -1.
       -4    1    3    3    0  502 -0.40287161204E+03  0.33395807611E+03  0.12010854482E+04  0.13101302986E+04  0.12699999809E+01 0.  1.
</event>
<event>
 5   0  0.1122628E-06  0.2598668E+04  0.7818609E-02  0.8368654E-01
       -1   -1    0    0    0  501  0.00000000000E+00  0.00000000000E+00  0.14669541582E+04  0.14669541582E+04  0.50400001928E-02 0.  1.
        1   -1    0    0  501    0  0.00000000000E+00  0.00000000000E+00 -0.11508671121E+04  0.11508671121E+04  0.50400001928E-02 0. -1.
    10030    2    1    2    0    0  0.00000000000E+00  0.00000000000E+00  0.31608704606E+03  0.26178212703E+04  0.25986683479E+04 0.  0.
        2    1    3    3  502    0  0.37326680029E+03 -0.10050138970E+04 -0.58145701765E+03  0.12196201461E+04  0.25500000920E-02 0. -1.
       -2    1    3    3    0  502 -0.37326680029E+03  0.10050138970E+04  0.89754406371E+03  0.13982011242E+04  0.25500000920E-02 0.  1.
</event>
<event>
 5   0  0.2705807E-06  0.2601700E+04  0.7818609E-02  0.8367624E-01
        2   -1    0    0  501    0  0.00000000000E+00  0.00000000000E+00  0.19928582391E+04  0.19928582391E+04  0.25500000920E-02 0.  1.
       -2   -1    0    0    0  501  0.00000000000E+00  0.00000000000E+00 -0.84913735174E+03  0.84913735175E+03  0.25500000920E-02 0. -1.
    10030    2    1    2    0    0  0.00000000000E+00  0.00000000000E+00  0.11437208873E+04  0.28419955908E+04  0.26016997271E+04 0.  0.
        4    1    3    3  502    0  0.81589491582E+03 -0.17572687451E+03 -0.51811907085E+03  0.98235097219E+03  0.12699999809E+01 0. -1.
       -4    1    3    3    0  502 -0.81589491582E+03  0.17572687451E+03  0.16618399582E+04  0.18596446186E+04  0.12699999809E+01 0.  1.
</event>
<event>
 5   0  0.2586775E-06  0.2605177E+04  0.7818609E-02  0.8366445E-01
       -2   -1    0    0    0  501  0.00000000000E+00  0.00000000000E+00  0.11026404062E+04  0.11026404062E+04  0.25500000920E-02 0. -1.
        2   -1    0    0  501    0  0.00000000000E+00  0.00000000000E+00 -0.15387940240E+04  0.15387940240E+04  0.25500000920E-02 0.  1.
    10030    2    1    2    0    0  0.00000000000E+00  0.00000000000E+00 -0.43615361781E+03  0.26414344302E+04  0.26051767446E+04 0.  0.
        1    1    3    3  502    0 -0.58105803118E+03 -0.10466660693E+03 -0.13953363590E+04  0.15151062963E+04  0.50400001928E-02 0.  1.
       -1    1    3    3    0  502  0.58105803118E+03  0.10466660693E+03  0.95918274119E+03  0.11263281339E+04  0.50400001928E-02 0. -1.
</event>
<event>
 5   0  0.2705807E-06  0.2602365E+04  0.7818609E-02  0.8367398E-01
       -2   -1    0    0    0  501  0.00000000000E+00  0.00000000000E+00  0.59463350481E+03  0.59463350482E+03  0.25500000920E-02 0.  1.
        2   -1    0    0  501    0  0.00000000000E+00  0.00000000000E+00 -0.28472597795E+04  0.28472597795E+04  0.25500000920E-02 0. -1.
    10030    2    1    2    0    0  0.00000000000E+00  0.00000000000E+00 -0.22526262747E+04  0.34418932843E+04  0.26023651257E+04 0.  0.
        4    1    3    3  502    0 -0.51104153075E+03 -0.42209799226E+03 -0.26072401479E+04  0.26901734076E+04  0.12699999809E+01 0. -1.
       -4    1    3    3    0  502  0.51104153075E+03  0.42209799226E+03  0.35461387315E+03  0.75171987678E+03  0.12699999809E+01 0.  1.
</event>
<event>
 5   0  0.1055179E-06  0.2603183E+04  0.7818609E-02  0.8367121E-01
        1   -1    0    0  501    0  0.00000000000E+00  0.00000000000E+00  0.14611253149E+04  0.14611253149E+04  0.50400001928E-02 0.  1.
       -1   -1    0    0    0  501  0.00000000000E+00  0.00000000000E+00 -0.11594767536E+04  0.11594767536E+04  0.50400001928E-02 0. -1.
    10030    2    1    2    0    0  0.00000000000E+00  0.00000000000E+00  0.30164856134E+03  0.26206020685E+04  0.26031833103E+04 0.  0.
        3    1    3    3  502    0  0.99534151522E+03  0.85378805019E+02  0.99076119255E+03  0.14069833059E+04  0.10100000352E+00 0.  1.
       -3    1    3    3    0  502 -0.99534151522E+03 -0.85378805019E+02 -0.68911263121E+03  0.12136187626E+04  0.10100000352E+00 0. -1.
</event>
<event>
 5   0  0.2623368E-06  0.2608339E+04  0.7818609E-02  0.8365374E-01
       -2   -1    0    0    0  501  0.00000000000E+00  0.00000000000E+00  0.10969107099E+04  0.10969107099E+04  0.25500000920E-02 0.  1.
        2   -1    0    0  501    0  0.00000000000E+00  0.00000000000E+00 -0.15505896081E+04  0.15505896081E+04  0.25500000920E-02 0. -1.
    10030    2    1    2    0    0  0.00000000000E+00  0.00000000000E+00 -0.45367889823E+03  0.26475003180E+04  0.26083392016E+04 0.  0.
        5    1    3    3  502    0 -0.47699096165E+03  0.10570345907E+04  0.37877069584E+03  0.12199720625E+04  0.46999998093E+01 0.  1.
       -5    1    3    3    0  502  0.47699096165E+03 -0.10570345907E+04 -0.83244959407E+03  0.14275282554E+04  0.46999998093E+01 0. -1.
</event>
<event>
 5   0  0.1055179E-06  0.2601474E+04  0.7818609E-02  0.8367701E-01
        1   -1    0    0  501    0  0.00000000000E+00  0.00000000000E+00  0.10707100567E+04  0.10707100567E+04  0.50400001928E-02 0. -1.
       -1   -1    0    0    0  501  0.00000000000E+00  0.00000000000E+00 -0.15801822083E+04  0.15801822083E+04  0.50400001928E-02 0.  1.
    10030    2    1    2    0    0  0.00000000000E+00  0.00000000000E+00 -0.50947215156E+03  0.26508922650E+04  0.26014741835E+04 0.  0.
        3    1    3    3  502    0 -0.90539384680E+03  0.92194926868E+03 -0.10294839428E+03  0.12962742202E+04  0.10100000352E+00 0. -1.
       -3    1    3    3    0  502  0.90539384680E+03 -0.92194926868E+03 -0.40652375728E+03  0.13546180448E+04  0.10100000352E+00 0.  1.
</event>
<event>
 5   0  0.1055179E-06  0.2596119E+04  0.7818609E-02  0.8369521E-01
        1   -1    0    0  501    0  0.00000000000E+00  0.00000000000E+00  0.11805964038E+04  0.11805964038E+04  0.50400001928E-02 0. -1.
       -1   -1    0    0    0  501  0.00000000000E+00  0.00000000000E+00 -0.14272099228E+04  0.14272099228E+04  0.50400001928E-02 0.  1.
    10030    2    1    2    0    0  0.00000000000E+00  0.00000000000E+00 -0.24661351901E+03  0.26078063266E+04  0.25961193365E+04 0.  0.
        3    1    3    3  502    0 -0.92729295850E+03  0.39260473113E+03 -0.94610844817E+03  0.13817133971E+04  0.10100000352E+00 0.  1.
       -3    1    3    3    0  502  0.92729295850E+03 -0.39260473113E+03  0.69949492916E+03  0.12260929296E+04  0.10100000352E+00 0. -1.
</event>
<event>
 5   0  0.2820028E-06  0.2599579E+04  0.7818609E-02  0.8368344E-01
       -2   -1    0    0    0  501  0.00000000000E+00  0.00000000000E+00  0.11061719260E+04  0.11061719260E+04  0.25500000920E-02 0. -1.
        2   -1    0    0  501    0  0.00000000000E+00  0.00000000000E+00 -0.15272963769E+04  0.15272963769E+04  0.25500000920E-02 0.  1.
    10030    2    1    2    0    0  0.00000000000E+00  0.00000000000E+00 -0.42112445083E+03  0.26334683029E+04  0.25995787157E+04 0.  0.
        3    1    3    3  502    0 -0.45308322498E+03  0.50054442106E+03 -0.13357276906E+04  0.14966621529E+04  0.10100000352E+00 0.  1.
       -3    1    3    3    0  502  0.45308322498E+03 -0.50054442106E+03  0.91460323980E+03  0.11368061500E+04  0.10100000352E+00 0. -1.
</event>
<event>
 5   0  0.1032076E-06  0.2601354E+04  0.7818609E-02  0.8367741E-01
       -1   -1    0    0    0  501  0.00000000000E+00  0.00000000000E+00  0.74587344346E+03  0.74587344348E+03  0.50400001928E-02 0. -1.
        1   -1    0    0  501    0  0.00000000000E+00  0.00000000000E+00 -0.22681606146E+04  0.22681606146E+04  0.50400001928E-02 0.  1.
    10030    2    1    2    0    0  0.00000000000E+00  0.00000000000E+00 -0.15222871712E+04  0.30140340581E+04  0.26013540843E+04 0.  0.
        1    1    3    3  502    0 -0.30500884918E+01  0.87209575264E+03 -0.18792168862E+04  0.20717182266E+04  0.50400001928E-02 0.  1.
       -1    1    3    3    0  502  0.30500884918E+01 -0.87209575264E+03  0.35692971508E+03  0.94231583153E+03  0.50400001928E-02 0. -1.
</event>
<event>
 5   0  0.1100104E-06  0.2586533E+04  0.7818609E-02  0.8372790E-01
        1   -1    0    0  501    0  0.00000000000E+00  0.00000000000E+00  0.27500652413E+04  0.27500652413E+04  0.50400001928E-02 0.  1.
       -1   -1    0    0    0  501  0.00000000000E+00  0.00000000000E+00 -0.60818132151E+03  0.60818132153E+03  0.50400001928E-02 0. -1.
    10030    2    1    2    0    0  0.00000000000E+00  0.00000000000E+00  0.21418839198E+04  0.33582465628E+04  0.25865330562E+04 0.  0.
        4    1    3    3  502    0 -0.47228114158E+03 -0.58169526996E+03 -0.29765195709E+03  0.80623641958E+03  0.12699999809E+01 0. -1.
       -4    1    3    3    0  502  0.47228114158E+03  0.58169526996E+03  0.24395358769E+04  0.25520101432E+04  0.12699999809E+01 0.  1.
</event>
<event>
 5   0  0.1088757E-06  0.2602608E+04  0.7818609E-02  0.8367316E-01
       -1   -1    0    0    0  501  0.00000000000E+00  0.00000000000E+00  0.12591553450E+04  0.12591553450E+04  0.50400001928E-02 0. -1.
        1   -1    0    0  501    0  0.00000000000E+00  0.00000000000E+00 -0.13448630529E+04  0.13448630529E+04  0.50400001928E-02 0.  1.
    10030    2    1    2    0    0  0.00000000000E+00  0.00000000000E+00 -0.85707707900E+02  0.26040183979E+04  0.26026075397E+04 0.  0.
        5    1    3    3  502    0  0.12441525454E+04 -0.71508034043E+02  0.33196964176E+03  0.12896723957E+04  0.46999998093E+01 0. -1.
       -5    1    3    3    0  502 -0.12441525454E+04  0.71508034043E+02 -0.41767734966E+03  0.13143460022E+04  0.46999998093E+01 0.  1.
</event>
<event>
 5   0  0.1100104E-06  0.2604130E+04  0.7818609E-02  0.8366800E-01
       -1   -1    0    0    0  501  0.00000000000E+00  0.00000000000E+00  0.20352200178E+04  0.20352200178E+04  0.50400001928E-02 0.  1.
        1   -1    0    0  501    0  0.00000000000E+00  0.00000000000E+00 -0.83301742461E+03  0.83301742463E+03  0.50400001928E-02 0. -1.
    10030    2    1    2    0    0  0.00000000000E+00  0.00000000000E+00  0.12022025932E+04  0.28682374424E+04  0.26041303637E+04 0.  0.
        4    1    3    3  502    0 -0.74061012795E+03 -0.47565254207E+03 -0.45570012663E+03  0.99116745341E+03  0.12699999809E+01 0. -1.
       -4    1    3    3    0  502  0.74061012795E+03  0.47565254207E+03  0.16579027198E+04  0.18770699890E+04  0.12699999809E+01 0.  1.
</event>
<event>
 5   0  0.1032076E-06  0.2622752E+04  0.7818609E-02  0.8360514E-01
       -1   -1    0    0    0  501  0.00000000000E+00  0.00000000000E+00  0.16123225049E+04  0.16123225049E+04  0.50400001928E-02 0. -1.
        1   -1    0    0  501    0  0.00000000000E+00  0.00000000000E+00 -0.10666024207E+04  0.10666024207E+04  0.50400001928E-02 0.  1.
    10030    2    1    2    0    0  0.00000000000E+00  0.00000000000E+00  0.54572008416E+03  0.26789249256E+04  0.26227520559E+04 0.  0.
        1    1    3    3  502    0  0.33670330807E+03 -0.80182889497E+03  0.12754157628E+04  0.15436916993E+04  0.50400001928E-02 0. -1.
       -1    1    3    3    0  502 -0.33670330807E+03  0.80182889497E+03 -0.72969567866E+03  0.11352332262E+04  0.50400001928E-02 0.  1.
</event>
<event>
 5   0  0.2705807E-06  0.2606919E+04  0.7818609E-02  0.8365855E-01
        2   -1    0    0  501    0  0.00000000000E+00  0.00000000000E+00  0.12439444476E+04  0.12439444476E+04  0.25500000920E-02 0. -1.
       -2   -1    0    0    0  501  0.00000000000E+00  0.00000000000E+00 -0.13658223617E+04  0.13658223617E+04  0.25500000920E-02 0.  1.
    10030    2    1    2    0    0  0.00000000000E+00  0.00000000000E+00 -0.12187791414E+03  0.26097668093E+04  0.26069193645E+04 0.  0.
        4    1    3    3  502    0  0.80270199704E+03 -0.71868707976E+02  0.96463593514E+03  0.12569883482E+04  0.12699999809E+01 0. -1.
       -4    1    3    3    0  502 -0.80270199704E+03  0.71868707976E+02 -0.10865138493E+04  0.13527784611E+04  0.12699999809E+01 0.  1.
</event>
<event>
 5   0  0.1100104E-06  0.2594895E+04  0.7818609E-02  0.8369937E-01
        1   -1    0    0  501    0  0.00000000000E+00  0.00000000000E+00  0.11739970493E+04  0.11739970493E+04  0.50400001928E-02 0.  1.
       -1   -1    0    0    0  501  0.00000000000E+00  0.00000000000E+00 -0.14338787360E+04  0.14338787360E+04  0.50400001928E-02 0. -1.
    10030    2    1    2    0    0  0.00000000000E+00  0.00000000000E+00 -0.25988168666E+03  0.26078757853E+04  0.25948945297E+04 0.  0.
        4    1    3    3  502    0 -0.36167491242E+03  0.10576784311E+03 -0.13776718112E+04  0.14282775680E+04  0.12699999809E+01 0. -1.
       -4    1    3    3    0  502  0.36167491242E+03 -0.10576784311E+03  0.11177901245E+04  0.11795982173E+04  0.12699999809E+01 0.  1.
</event>
<event>
 5   0  0.1032076E-06  0.2591107E+04  0.7818609E-02  0.8371228E-01
        1   -1    0    0  501    0  0.00000000000E+00  0.00000000000E+00  0.12778392124E+04  0.12778392124E+04  0.50400001928E-02 0.  1.
       -1   -1    0    0    0  501  0.00000000000E+00  0.00000000000E+00 -0.13135128514E+04  0.13135128514E+04  0.50400001928E-02 0. -1.
    10030    2    1    2    0    0  0.00000000000E+00  0.00000000000E+00 -0.35673638958E+02  0.25913520638E+04  0.25911065031E+04 0.  0.
        1    1    3    3  502    0  0.12904087279E+04  0.11291775311E+03 -0.41357629163E+02  0.12959998292E+04  0.50400001928E-02 0.  1.
       -1    1    3    3    0  502 -0.12904087279E+04 -0.11291775311E+03  0.56839902053E+01  0.12953522346E+04  0.50400001928E-02 0. -1.
</event>
<event>
 5   0  0.1055179E-06  0.2598897E+04  0.7818609E-02  0.8368576E-01
       -1   -1    0    0    0  501  0.00000000000E+00  0.00000000000E+00  0.84616663839E+03  0.84616663840E+03  0.50400001928E-02 0. -1.
        1   -1    0    0  501    0  0.00000000000E+00  0.00000000000E+00 -0.19955485104E+04  0.19955485104E+04  0.50400001928E-02 0.  1.
    10030    2    1    2    0    0  0.00000000000E+00  0.00000000000E+00 -0.11493818720E+04  0.28417151488E+04  0.25988971313E+04 0.  0.
        3    1    3    3  502    0 -0.10518253703E+04  0.44157170815E+03  0.10573994473E+03  0.11456452894E+04  0.10100000352E+00 0. -1.
       -3    1    3    3    0  502  0.10518253703E+04 -0.44157170815E+03 -0.12551218167E+04  0.16960698594E+04  0.10100000352E+00 0.  1.
</event>
<event>
 5   0  0.1055179E-06  0.2599211E+04  0.7818609E-02  0.8368469E-01
        1   -1    0    0  501    0  0.00000000000E+00  0.00000000000E+00  0.14995716889E+04  0.14995716889E+04  0.50400001928E-02 0. -1.
       -1   -1    0    0    0  501  0.00000000000E+00  0.00000000000E+00 -0.11263048034E+04  0.11263048034E+04  0.50400001928E-02 0.  1.
    10030    2    1    2    0    0  0.00000000000E+00  0.00000000000E+00  0.37326688551E+03  0.26258764924E+04  0.25992112622E+04 0.  0.
        3    1    3    3  502    0 -0.42286709641E+03  0.12007133633E+04  0.45093855247E+03  0.13505090708E+04  0.10100000352E+00 0. -1.
       -3    1    3    3    0  502  0.42286709641E+03 -0.12007133633E+04 -0.77671666961E+02  0.12753674216E+04  0.10100000352E+00 0.  1.
</event>
<event>
 5   0  0.2705807E-06  0.2602506E+04  0.7818609E-02  0.8367351E-01
        2   -1    0    0  501    0  0.00000000000E+00  0.00000000000E+00  0.11997186647E+04  0.11997186647E+04  0.25500000920E-02 0. -1.
       -2   -1    0    0    0  501  0.00000000000E+00  0.00000000000E+00 -0.14113802021E+04  0.14113802021E+04  0.25500000920E-02 0.  1.
    10030    2    1    2    0    0  0.00000000000E+00  0.00000000000E+00 -0.21166153741E+03  0.26110988667E+04  0.26025058473E+04 0.  0.
        4    1    3    3  502    0  0.67949017422E+03  0.50716391170E+03 -0.10961742551E+04  0.13858289002E+04  0.12699999809E+01 0.  1.
       -4    1    3    3    0  502 -0.67949017422E+03 -0.50716391170E+03  0.88451271769E+03  0.12252699665E+04  0.12699999809E+01 0. -1.
</event>
<event>
 5   0  0.1122628E-06  0.2595050E+04  0.7818609E-02  0.8369884E-01
       -1   -1    0    0    0  501  0.00000000000E+00  0.00000000000E+00  0.69325397071E+03  0.69325397073E+03  0.50400001928E-02 0.  1.
        1   -1    0    0  501    0  0.00000000000E+00  0.00000000000E+00 -0.24285060274E+04  0.24285060274E+04  0.50400001928E-02 0. -1.
    10030    2    1    2    0    0  0.00000000000E+00  0.00000000000E+00 -0.17352520567E+04  0.31217599982E+04  0.25950502473E+04 0.  0.
        2    1    3    3  502    0 -0.33412045773E+03 -0.86288061010E+03 -0.19618447839E+04  0.21691091222E+04  0.25500000920E-02 0. -1.
       -2    1    3    3    0  502  0.33412045773E+03  0.86288061010E+03  0.22659272720E+03  0.95265087603E+03  0.25500000920E-02 0.  1.
</event>
<event>
 5   0  0.1100104E-06  0.2602516E+04  0.7818609E-02  0.8367347E-01
       -1   -1    0    0    0  501  0.00000000000E+00  0.00000000000E+00  0.10594480455E+04  0.10594480455E+04  0.50400001928E-02 0. -1.
        1   -1    0    0  501    0  0.00000000000E+00  0.00000000000E+00 -0.15982596223E+04  0.15982596223E+04  0.50400001928E-02 0.  1.
    10030    2    1    2    0    0  0.00000000000E+00  0.00000000000E+00 -0.53881157679E+03  0.26577076678E+04  0.26025164998E+04 0.  0.
        4    1    3    3  502    0  0.50705499081E+03  0.24232139513E+03  0.92913044036E+03  0.10858680446E+04  0.12699999809E+01 0. -1.
       -4    1    3    3    0  502 -0.50705499081E+03 -0.24232139513E+03 -0.14679420171E+04  0.15718396231E+04  0.12699999809E+01 0.  1.
</event>
<event>
 5   0  0.2705807E-06  0.2593808E+04  0.7818609E-02  0.8370308E-01
       -2   -1    0    0    0  501  0.00000000000E+00  0.00000000000E+00  0.19933940849E+04  0.19933940849E+04  0.25500000920E-02 0.  1.
        2   -1    0    0  501    0  0.00000000000E+00  0.00000000000E+00 -0.84376689582E+03  0.84376689582E+03  0.25500000920E-02 0. -1.
    10030    2    1    2    0    0  0.00000000000E+00  0.00000000000E+00  0.11496271891E+04  0.28371609807E+04  0.25938079645E+04 0.  0.
        4    1    3    3  502    0  0.53229980412E+03 -0.32780550069E+02  0.18679025078E+04  0.19425444750E+04  0.12699999809E+01 0.  1.
       -4    1    3    3    0  502 -0.53229980412E+03  0.32780550069E+02 -0.71827531870E+03  0.89461650571E+03  0.12699999809E+01 0. -1.
</event>
<event>
 5   0  0.2623368E-06  0.2609131E+04  0.7818609E-02  0.8365106E-01
       -2   -1    0    0    0  501  0.00000000000E+00  0.00000000000E+00  0.80292019519E+03  0.80292019519E+03  0.25500000920E-02 0.  1.
        2   -1    0    0  501    0  0.00000000000E+00  0.00000000000E+00 -0.21196275809E+04  0.21196275809E+04  0.25500000920E-02 0. -1.
    10030    2    1    2    0    0  0.00000000000E+00  0.00000000000E+00 -0.13167073857E+04  0.29225477761E+04  0.26091314961E+04 0.  0.
        5    1    3    3  502    0 -0.14843299902E+03 -0.37936711191E+02 -0.21095065070E+04  0.21150676921E+04  0.46999998093E+01 0. -1.
       -5    1    3    3    0  502  0.14843299902E+03  0.37936711191E+02  0.79279912129E+03  0.80748008395E+03  0.46999998093E+01 0.  1.
</event>
<event>
 5   0  0.1100104E-06  0.2594607E+04  0.7818609E-02  0.8370035E-01
        1   -1    0    0  501    0  0.00000000000E+00  0.00000000000E+00  0.12032579480E+04  0.12032579480E+04  0.50400001928E-02 0. -1.
       -1   -1    0    0    0  501  0.00000000000E+00  0.00000000000E+00 -0.13986998111E+04  0.13986998111E+04  0.50400001928E-02 0.  1.
    10030    2    1    2    0    0  0.00000000000E+00  0.00000000000E+00 -0.19544186311E+03  0.26019577591E+04  0.25946072262E+04 0.  0.
        4    1    3    3  502    0 -0.67909233668E+03 -0.93698790320E+03  0.49035518524E+03  0.12568064899E+04  0.12699999809E+01 0. -1.
       -4    1    3    3    0  502  0.67909233668E+03  0.93698790320E+03 -0.68579704835E+03  0.13451512692E+04  0.12699999809E+01 0.  1.
</event>
<event>
 5   0  0.2705807E-06  0.2600541E+04  0.7818609E-02  0.8368017E-01
        2   -1    0    0  501    0  0.00000000000E+00  0.00000000000E+00  0.15298626056E+04  0.15298626056E+04  0.25500000920E-02 0.  1.
       -2   -1    0    0    0  501  0.00000000000E+00  0.00000000000E+00 -0.11051342954E+04  0.11051342954E+04  0.25500000920E-02 0. -1.
    10030    2    1    2    0    0  0.00000000000E+00  0.00000000000E+00  0.42472831022E+03  0.26349969009E+04  0.26005411995E+04 0.  0.
        4    1    3    3  502    0  0.11019026060E+04 -0.55055570562E+03 -0.20956765738E+03  0.12494883569E+04  0.12699999809E+01 0. -1.
       -4    1    3    3    0  502 -0.11019026060E+04  0.55055570562E+03  0.63429596759E+03  0.13855085440E+04  0.12699999809E+01 0.  1.
</event>
<event>
 5   0  0.2820028E-06  0.2590528E+04  0.7818609E-02  0.8371426E-01
        2   -1    0    0  501    0  0.00000000000E+00  0.00000000000E+00  0.24834134072E+04  0.24834134072E+04  0.25500000920E-02 0. -1.
       -2   -1    0    0    0  501  0.00000000000E+00  0.00000000000E+00 -0.67556546967E+03  0.67556546967E+03  0.25500000920E-02 0.  1.
    10030    2    1    2    0    0  0.00000000000E+00  0.00000000000E+00  0.18078479375E+04  0.31589788768E+04  0.25905276256E+04 0.  0.
        3    1    3    3  502    0  0.51886415577E+03  0.73825164198E+03  0.20370620462E+04  0.22279715638E+04  0.10100000352E+00 0. -1.
       -3    1    3    3    0  502 -0.51886415577E+03 -0.73825164198E+03 -0.22921410869E+03  0.93100731300E+03  0.10100000352E+00 0.  1.
</event>
<event>
 5   0  0.1088757E-06  0.2596167E+04  0.7818609E-02  0.8369504E-01
        1   -1    0    0  501    0  0.00000000000E+00  0.00000000000E+00  0.17626525221E+04  0.17626525221E+04  0.50400001928E-02 0. -1.
       -1   -1    0    0    0  501  0.00000000000E+00  0.00000000000E+00 -0.95595720322E+03  0.95595720323E+03  0.50400001928E-02 0.  1.
    10030    2    1    2    0    0  0.00000000000E+00  0.00000000000E+00  0.80669531890E+03  0.27186097254E+04  0.25961666937E+04 0.  0.
        5    1    3    3  502    0  0.59849413046E+02  0.73758238806E+03 -0.71343514636E+03  0.10279209743E+04  0.46999998093E+01 0.  1.
       -5    1    3    3    0  502 -0.59849413046E+02 -0.73758238806E+03  0.15201304653E+04  0.16906887510E+04  0.46999998093E+01 0. -1.
</event>
<event>
 5   0  0.2746631E-06  0.2601081E+04  0.7818609E-02  0.8367834E-01
       -2   -1    0    0    0  501  0.00000000000E+00  0.00000000000E+00  0.11237803244E+04  0.11237803245E+04  0.25500000920E-02 0. -1.
        2   -1    0    0  501    0  0.00000000000E+00  0.00000000000E+00 -0.15051029916E+04  0.15051029916E+04  0.25500000920E-02 0.  1.
    10030    2    1    2    0    0  0.00000000000E+00  0.00000000000E+00 -0.38132266718E+03  0.26288833161E+04  0.26010806433E+04 0.  0.
        2    1    3    3  502    0  0.46213898389E+03  0.48310705038E+03  0.93680743485E+03  0.11509009656E+04  0.25500000920E-02 0. -1.
       -2    1    3    3    0  502 -0.46213898389E+03 -0.48310705038E+03 -0.13181301020E+04  0.14779823505E+04  0.25500000920E-02 0.  1.
</event>
<event>
 5   0  0.1088757E-06  0.2596278E+04  0.7818609E-02  0.8369467E-01
       -1   -1    0    0    0  501  0.00000000000E+00  0.00000000000E+00  0.97842515923E+03  0.97842515925E+03  0.50400001928E-02 0. -1.
        1   -1    0    0  501    0  0.00000000000E+00  0.00000000000E+00 -0.17223239974E+04  0.17223239974E+04  0.50400001928E-02 0.  1.
    10030    2    1    2    0    0  0.00000000000E+00  0.00000000000E+00 -0.74389883817E+03  0.27007491567E+04  0.25962782065E+04 0.  0.
        5    1    3    3  502    0 -0.89218851244E+02  0.90075342985E+03  0.59599051380E+03  0.10837635938E+04  0.46999998093E+01 0. -1.
       -5    1    3    3    0  502  0.89218851244E+02 -0.90075342985E+03 -0.13398893520E+04  0.16169855628E+04  0.46999998093E+01 0.  1.
</event>
<event>
 5   0  0.2746631E-06  0.2605231E+04  0.7818609E-02  0.8366426E-01
       -2   -1    0    0    0  501  0.00000000000E+00  0.00000000000E+00  0.72186113100E+03  0.72186113100E+03  0.25500000920E-02 0. -1.
        2   -1    0    0  501    0  0.00000000000E+00  0.00000000000E+00 -0.23506011186E+04  0.23506011186E+04  0.25500000920E-02 0.  1.
    10030    2    1    2    0    0  0.00000000000E+00  0.00000000000E+00 -0.16287399876E+04  0.30724622496E+04  0.26052313387E+04 0.  0.
        2    1    3    3  502    0  0.63552660656E+02 -0.51300752405E+03  0.59571829128E+03  0.78873058960E+03  0.25500000920E-02 0. -1.
       -2    1    3    3    0  502 -0.63552660656E+02  0.51300752405E+03 -0.22244582789E+04  0.22837316600E+04  0.25500000920E-02 0.  1.
</event>
<event>
 5   0  0.1055179E-06  0.2600292E+04  0.7818609E-02  0.8368102E-01
       -1   -1    0    0    0  501  0.00000000000E+00  0.00000000000E+00  0.10999364427E+04  0.10999364427E+04  0.50400001928E-02 0.  1.
        1   -1    0    0  501    0  0.00000000000E+00  0.00000000000E+00 -0.15367978246E+04  0.15367978246E+04  0.50400001928E-02 0. -1.
    10030    2    1    2    0    0  0.00000000000E+00  0.00000000000E+00 -0.43686138191E+03  0.26367342673E+04  0.26002922392E+04 0.  0.
        3    1    3    3  502    0 -0.11546332109E+04 -0.57054859153E+03 -0.37957813681E+02  0.12884658912E+04  0.10100000352E+00 0.  1.
       -3    1    3    3    0  502  0.11546332109E+04  0.57054859153E+03 -0.39890356823E+03  0.13482683761E+04  0.10100000352E+00 0. -1.
</event>
<event>
 5   0  0.2820028E-06  0.2595598E+04  0.7818609E-02  0.8369698E-01
        2   -1    0    0  501    0  0.00000000000E+00  0.00000000000E+00  0.16620582884E+04  0.16620582884E+04  0.25500000920E-02 0. -1.
       -2   -1    0    0    0  501  0.00000000000E+00  0.00000000000E+00 -0.10133712267E+04  0.10133712267E+04  0.25500000920E-02 0.  1.
    10030    2    1    2    0    0  0.00000000000E+00  0.00000000000E+00  0.64868706169E+03  0.26754295151E+04  0.25955978475E+04 0.  0.
        3    1    3    3  502    0 -0.31286314002E+03 -0.20818948422E+03 -0.95606019279E+03  0.10272669118E+04  0.10100000352E+00 0.  1.
       -3    1    3    3    0  502  0.31286314002E+03  0.20818948422E+03  0.16047472545E+04  0.16481626032E+04  0.10100000352E+00 0. -1.
</event>
<event>
 5   0  0.1100104E-06  0.2603115E+04  0.7818609E-02  0.8367144E-01
        1   -1    0    0  501    0  0.00000000000E+00  0.00000000000E+00  0.96478730752E+03  0.96478730753E+03  0.50400001928E-02 0.  1.
       -1   -1    0    0    0  501  0.00000000000E+00  0.00000000000E+00 -0.17558815594E+04  0.17558815594E+04  0.50400001928E-02 0. -1.
    10030    2    1    2    0    0  0.00000000000E+00  0.00000000000E+00 -0.79109425190E+03  0.27206688670E+04  0.26031152430E+04 0.  0.
        4    1    3    3  502    0  0.72851227505E+03  0.45762269884E+03 -0.14163318499E+04  0.16571500208E+04  0.12699999809E+01 0. -1.
       -4    1    3    3    0  502 -0.72851227505E+03 -0.45762269884E+03  0.62523759799E+03  0.10635188462E+04  0.12699999809E+01 0.  1.
</event>
<event>
 5   0  0.1032076E-06  0.2599836E+04  0.7818609E-02  0.8368257E-01
        1   -1    0    0  501    0  0.00000000000E+00  0.00000000000E+00  0.11559874025E+04  0.11559874025E+04  0.50400001928E-02 0. -1.
       -1   -1    0    0    0  501  0.00000000000E+00  0.00000000000E+00 -0.14617697127E+04  0.14617697127E+04  0.50400001928E-02 0.  1.
    10030    2    1    2    0    0  0.00000000000E+00  0.00000000000E+00 -0.30578231022E+03  0.26177571152E+04  0.25998364358E+04 0.  0.
        1    1    3    3  502    0 -0.81359612906E+03  0.63135171203E+03 -0.95160786494E+03  0.14021772977E+04  0.50400001928E-02 0.  1.
       -1    1    3    3    0  502  0.81359612906E+03 -0.63135171203E+03  0.64582555472E+03  0.12155798175E+04  0.50400001928E-02 0. -1.
</event>
<event>
 5   0  0.2746631E-06  0.2596261E+04  0.7818609E-02  0.8369472E-01
       -2   -1    0    0    0  501  0.00000000000E+00  0.00000000000E+00  0.14219262316E+04  0.14219262316E+04  0.25500000920E-02 0. -1.
        2   -1    0    0  501    0  0.00000000000E+00  0.00000000000E+00 -0.11851124983E+04  0.11851124983E+04  0.25500000920E-02 0.  1.
    10030    2    1    2    0    0  0.00000000000E+00  0.00000000000E+00  0.23681373333E+03  0.26070387299E+04  0.25962608103E+04 0.  0.
        2    1    3    3  502    0 -0.11775432801E+03  0.29620565503E+03  0.13820181719E+04  0.14183011314E+04  0.25500000920E-02 0. -1.
       -2    1    3    3    0  502  0.11775432801E+03 -0.29620565503E+03 -0.11452044386E+04  0.11887375985E+04  0.25500000920E-02 0.  1.
</event>
<event>
 5   0  0.1055179E-06  0.2598698E+04  0.7818609E-02  0.8368644E-01
       -1   -1    0    0    0  501  0.00000000000E+00  0.00000000000E+00  0.13814641180E+04  0.13814641180E+04  0.50400001928E-02 0.  1.
        1   -1    0    0  501    0  0.00000000000E+00  0.00000000000E+00 -0.12221148834E+04  0.12221148834E+04  0.50400001928E-02 0. -1.
    10030    2    1    2    0    0  0.00000000000E+00  0.00000000000E+00  0.15934923459E+03  0.26035790015E+04  0.25986980275E+04 0.  0.
        3    1    3    3  502    0 -0.71798976577E+03 -0.50329192009E+02 -0.10041453499E+04  0.12354554728E+04  0.10100000352E+00 0. -1.
       -3    1    3    3    0  502  0.71798976577E+03  0.50329192009E+02  0.11634945845E+04  0.13681235287E+04  0.10100000352E+00 0.  1.
</event>
<event>
 5   0  0.2705807E-06  0.2577576E+04  0.7818609E-02  0.8375858E-01
        2   -1    0    0  501    0  0.00000000000E+00  0.00000000000E+00  0.86912074515E+03  0.86912074516E+03  0.25500000920E-02 0.  1.
       -2   -1    0    0    0  501  0.00000000000E+00  0.00000000000E+00 -0.19110972811E+04  0.19110972811E+04  0.25500000920E-02 0. -1.
    10030    2    1    2    0    0  0.00000000000E+00  0.00000000000E+00 -0.10419765360E+04  0.27802180263E+04  0.25775758325E+04 0.  0.
        4    1    3    3  502    0 -0.66280497149E+03 -0.21938464392E+03 -0.16894513310E+04  0.18280282998E+04  0.12699999809E+01 0. -1.
       -4    1    3    3    0  502  0.66280497149E+03  0.21938464392E+03  0.64747479498E+03  0.95218972650E+03  0.12699999809E+01 0.  1.
</event>
<event>
 5   0  0.2820028E-06  0.2597699E+04  0.7818609E-02  0.8368983E-01
        2   -1    0    0  501    0  0.00000000000E+00  0.00000000000E+00  0.18147920436E+04  0.18147920436E+04  0.25500000920E-02 0. -1.
       -2   -1    0    0    0  501  0.00000000000E+00  0.00000000000E+00 -0.92958850404E+03  0.92958850404E+03  0.25500000920E-02 0.  1.
    10030    2    1    2    0    0  0.00000000000E+00  0.00000000000E+00  0.88520353955E+03  0.27443805476E+04  0.25976988439E+04 0.  0.
        3    1    3    3  502    0  0.12952579802E+04 -0.22720299058E+02  0.54170911407E+03  0.14041574775E+04  0.10100000352E+00 0.  1.
       -3    1    3    3    0  502 -0.12952579802E+04  0.22720299058E+02  0.34349442549E+03  0.13402230701E+04  0.10100000352E+00 0. -1.
</event>
<event>
 5   0  0.2623368E-06  0.2597163E+04  0.7818609E-02  0.8369166E-01
        2   -1    0    0  501    0  0.00000000000E+00  0.00000000000E+00  0.12902252153E+04  0.12902252153E+04  0.25500000920E-02 0.  1.
       -2   -1    0    0    0  501  0.00000000000E+00  0.00000000000E+00 -0.13069916255E+04  0.13069916255E+04  0.25500000920E-02 0. -1.
    10030    2    1    2    0    0  0.00000000000E+00  0.00000000000E+00 -0.16766410194E+02  0.25972168407E+04  0.25971627221E+04 0.  0.
        5    1    3    3  502    0 -0.36058895275E+03  0.73041337023E+03 -0.10197219225E+04  0.13051371474E+04  0.46999998093E+01 0. -1.
       -5    1    3    3    0  502  0.36058895275E+03 -0.73041337023E+03  0.10029555123E+04  0.12920796933E+04  0.46999998093E+01 0.  1.
</event>
<event>
 5   0  0.1100104E-06  0.2599596E+04  0.7818609E-02  0.8368338E-01
        1   -1    0    0  501    0  0.00000000000E+00  0.00000000000E+00  0.18934334109E+04  0.18934334109E+04  0.50400001928E-02 0.  1.
       -1   -1    0    0    0  501  0.00000000000E+00  0.00000000000E+00 -0.89228137532E+03  0.89228137534E+03  0.50400001928E-02 0. -1.
    10030    2    1    2    0    0  0.00000000000E+00  0.00000000000E+00  0.10011520356E+04  0.27857147863E+04  0.25995964056E+04 0.  0.
        4    1    3    3  502    0  0.82620724079E+03 -0.25949101418E+03  0.15392605919E+04  0.17661480045E+04  0.12699999809E+01 0.  1.
       -4    1    3    3    0  502 -0.82620724079E+03  0.25949101418E+03 -0.53810855630E+03  0.10195667817E+04  0.12699999809E+01 0. -1.
</event>
<event>
 5   0  0.1055179E-06  0.2596521E+04  0.7818609E-02  0.8369384E-01
       -1   -1    0    0    0  501  0.00000000000E+00  0.00000000000E+00  0.89776761590E+03  0.89776761592E+03  0.50400001928E-02 0. -1.
        1   -1    0    0  501    0  0.00000000000E+00  0.00000000000E+00 -0.18774128455E+04  0.18774128455E+04  0.50400001928E-02 0.  1.
    10030    2    1    2    0    0  0.00000000000E+00  0.00000000000E+00 -0.97964522956E+03  0.27751804614E+04  0.25965210990E+04 0.  0.
        3    1    3    3  502    0  0.90288798759E+03 -0.71267633525E+03  0.15356573774E+03  0.11604726291E+04  0.10100000352E+00 0.  1.
       -3    1    3    3    0  502 -0.90288798759E+03  0.71267633525E+03 -0.11332109673E+04  0.16147078323E+04  0.10100000352E+00 0. -1.
</event>
<event>
 5   0  0.1088757E-06  0.2597149E+04  0.7818609E-02  0.8369170E-01
        1   -1    0    0  501    0  0.00000000000E+00  0.00000000000E+00  0.98178010740E+03  0.98178010741E+03  0.50400001928E-02 0. -1.
       -1   -1    0    0    0  501  0.00000000000E+00  0.00000000000E+00 -0.17175900697E+04  0.17175900697E+04  0.50400001928E-02 0.  1.
    10030    2    1    2    0    0  0.00000000000E+00  0.00000000000E+00 -0.73580996229E+03  0.26993701771E+04  0.25971490239E+04 0.  0.
        5    1    3    3  502    0 -0.48156574980E+03 -0.82183737779E+03 -0.12852247729E+04  0.15997334321E+04  0.46999998093E+01 0.  1.
       -5    1    3    3    0  502  0.48156574980E+03  0.82183737779E+03  0.54941481060E+03  0.10996367450E+04  0.46999998093E+01 0. -1.
</event>
<event>
 5   0  0.2705807E-06  0.2574250E+04  0.7818609E-02  0.8377001E-01
       -2   -1    0    0    0  501  0.00000000000E+00  0.00000000000E+00  0.99837739669E+03  0.99837739670E+03  0.25500000920E-02 0.  1.
        2   -1    0    0  501    0  0.00000000000E+00  0.00000000000E+00 -0.16593835470E+04  0.16593835470E+04  0.25500000920E-02 0. -1.
    10030    2    1    2    0    0  0.00000000000E+00  0.00000000000E+00 -0.66100615035E+03  0.26577609437E+04  0.25742502022E+04 0.  0.
        4    1    3    3  502    0  0.10663588637E+04  0.16079732039E+03  0.39493806472E+03  0.11484575274E+04  0.12699999809E+01 0.  1.
       -4    1    3    3    0  502 -0.10663588637E+04 -0.16079732039E+03 -0.10559442151E+04  0.15093034164E+04  0.12699999809E+01 0. -1.
</event>
<event>
 5   0  0.2586775E-06  0.2632031E+04  0.7818609E-02  0.8357402E-01
       -2   -1    0    0    0  501  0.00000000000E+00  0.00000000000E+00  0.13478692258E+04  0.13478692258E+04  0.25500000920E-02 0. -1.
        2   -1    0    0  501    0  0.00000000000E+00  0.00000000000E+00 -0.12849146013E+04  0.12849146014E+04  0.25500000920E-02 0.  1.
    10030    2    1    2    0    0  0.00000000000E+00  0.00000000000E+00  0.62954624461E+02  0.26327838272E+04  0.26320310401E+04 0.  0.
        1    1    3    3  502    0 -0.21849857233E+03 -0.11781974666E+04  0.57569721084E+03  0.13294051959E+04  0.50400001928E-02 0. -1.
       -1    1    3    3    0  502  0.21849857233E+03  0.11781974666E+04 -0.51274258638E+03  0.13033786312E+04  0.50400001928E-02 0.  1.
</event>
<event>
 5   0  0.2623368E-06  0.2598687E+04  0.7818609E-02  0.8368647E-01
       -2   -1    0    0    0  501  0.00000000000E+00  0.00000000000E+00  0.12715329315E+04  0.12715329315E+04  0.25500000920E-02 0. -1.
        2   -1    0    0  501    0  0.00000000000E+00  0.00000000000E+00 -0.13277625747E+04  0.13277625747E+04  0.25500000920E-02 0.  1.
    10030    2    1    2    0    0  0.00000000000E+00  0.00000000000E+00 -0.56229643224E+02  0.25992955061E+04  0.25986872369E+04 0.  0.
        5    1    3    3  502    0 -0.80027102879E+03 -0.20209323343E+03  0.97561214351E+03  0.12779344815E+04  0.46999998093E+01 0. -1.
       -5    1    3    3    0  502  0.80027102879E+03  0.20209323343E+03 -0.10318417867E+04  0.13213610246E+04  0.46999998093E+01 0.  1.
</event>
<event>
 5   0  0.2705807E-06  0.2624469E+04  0.7818609E-02  0.8359937E-01
       -2   -1    0    0    0  501  0.00000000000E+00  0.00000000000E+00  0.15684078884E+04  0.15684078884E+04  0.25500000920E-02 0.  1.
        2   -1    0    0  501    0  0.00000000000E+00  0.00000000000E+00 -0.10979024351E+04  0.10979024351E+04  0.25500000920E-02 0. -1.
    10030    2    1    2    0    0  0.00000000000E+00  0.00000000000E+00  0.47050545330E+03  0.26663103234E+04  0.26244685861E+04 0.  0.
        4    1    3    3  502    0  0.74188175715E+03  0.10739176617E+04  0.37257251849E+03  0.13573870414E+04  0.12699999809E+01 0.  1.
       -4    1    3    3    0  502 -0.74188175715E+03 -0.10739176617E+04  0.97932934816E+02  0.13089232821E+04  0.12699999809E+01 0. -1.
</event>
<event>
 5   0  0.2746631E-06  0.2597876E+04  0.7818609E-02  0.8368923E-01
        2   -1    0    0  501    0  0.00000000000E+00  0.00000000000E+00  0.25594560832E+04  0.25594560832E+04  0.25500000920E-02 0. -1.
       -2   -1    0    0    0  501  0.00000000000E+00  0.00000000000E+00 -0.65921805964E+03  0.65921805964E+03  0.25500000920E-02 0.  1.
    10030    2    1    2    0    0  0.00000000000E+00  0.00000000000E+00  0.19002380235E+04  0.32186741428E+04  0.25978758037E+04 0.  0.
        2    1    3    3  502    0 -0.43331952081E+02  0.76744814272E+03 -0.34718045818E+03  0.84343854571E+03  0.25500000920E-02 0.  1.
       -2    1    3    3    0  502  0.43331952081E+02 -0.76744814272E+03  0.22474184817E+04  0.23752355971E+04  0.25500000920E-02 0. -1.
</event>
<event>
 5   0  0.2623368E-06  0.2612119E+04  0.7818609E-02  0.8364096E-01
        2   -1    0    0  501    0  0.00000000000E+00  0.00000000000E+00  0.10117188299E+04  0.10117188299E+04  0.25500000920E-02 0.  1.
       -2   -1    0    0    0  501  0.00000000000E+00  0.00000000000E+00 -0.16860334696E+04  0.16860334696E+04  0.25500000920E-02 0. -1.
    10030    2    1    2    0    0  0.00000000000E+00  0.00000000000E+00 -0.67431463973E+03  0.26977522995E+04  0.26121192997E+04 0.  0.
        5    1    3    3  502    0  0.65807457309E+03  0.66322956669E+01  0.82794984441E+03  0.10576526679E+04  0.46999998093E+01 0.  1.
       -5    1    3    3    0  502 -0.65807457309E+03 -0.66322956669E+01 -0.15022644841E+04  0.16400996315E+04  0.46999998093E+01 0. -1.
</event>
<event>
 5   0  0.2623368E-06  0.2602391E+04  0.7818609E-02  0.8367389E-01
        2   -1    0    0  501    0  0.00000000000E+00  0.00000000000E+00  0.14015335627E+04  0.14015335627E+04  0.25500000920E-02 0. -1.
       -2   -1    0    0    0  501  0.00000000000E+00  0.00000000000E+00 -0.12080411586E+04  0.12080411586E+04  0.25500000920E-02 0.  1.
    10030    2    1    2    0    0  0.00000000000E+00  0.00000000000E+00  0.19349240408E+03  0.26095747213E+04  0.26023913840E+04 0.  0.
        5    1    3    3  502    0 -0.11201835911E+04 -0.63938609175E+02  0.75749501297E+03  0.13537799704E+04  0.46999998093E+01 0. -1.
       -5    1    3    3    0  502  0.11201835911E+04  0.63938609175E+02 -0.56400260890E+03  0.12557947509E+04  0.46999998093E+01 0.  1.
</event>
<event>
 5   0  0.1122628E-06  0.2610251E+04  0.7818609E-02  0.8364728E-01
        1   -1    0    0  501    0  0.00000000000E+00  0.00000000000E+00  0.17121494662E+04  0.17121494662E+04  0.50400001928E-02 0.  1.
       -1   -1    0    0    0  501  0.00000000000E+00  0.00000000000E+00 -0.99486184795E+03  0.99486184796E+03  0.50400001928E-02 0. -1.
    10030    2    1    2    0    0  0.00000000000E+00  0.00000000000E+00  0.71728761823E+03  0.27070113142E+04  0.26102507021E+04 0.  0.
        2    1    3    3  502    0 -0.39217128013E+03  0.10742728436E+04  0.10108374366E+04  0.15263200119E+04  0.25500000920E-02 0.  1.
       -2    1    3    3    0  502  0.39217128013E+03 -0.10742728436E+04 -0.29354981836E+03  0.11806913023E+04  0.25500000920E-02 0. -1.
</event>
<event>
 5   0  0.1122628E-06  0.2600708E+04  0.7818609E-02  0.8367961E-01
       -1   -1    0    0    0  501  0.00000000000E+00  0.00000000000E+00  0.24781518649E+04  0.24781518650E+04  0.50400001928E-02 0. -1.
        1   -1    0    0  501    0  0.00000000000E+00  0.00000000000E+00 -0.68233104351E+03  0.68233104353E+03  0.50400001928E-02 0.  1.
    10030    2    1    2    0    0  0.00000000000E+00  0.00000000000E+00  0.17958208214E+04  0.31604829085E+04  0.26007075560E+04 0.  0.
        2    1    3    3  502    0  0.49055089694E+03  0.11515452886E+03 -0.55886704515E+03  0.75248463251E+03  0.25500000920E-02 0.  1.
       -2    1    3    3    0  502 -0.49055089694E+03 -0.11515452886E+03  0.23546878666E+04  0.24079982760E+04  0.25500000920E-02 0. -1.
</event>
<event>
 5   0  0.9197000E-07  0.2560902E+04  0.7818609E-02  0.8381604E-01
       -4   -1    0    0    0  501  0.00000000000E+00  0.00000000000E+00  0.17407283705E+04  0.17407288338E+04  0.12699999809E+01 0.  1.
        4   -1    0    0  501    0  0.00000000000E+00  0.00000000000E+00 -0.94187767303E+03  0.94187852925E+03  0.12699999809E+01 0. -1.
    10030    2    1    2    0    0  0.00000000000E+00  0.00000000000E+00  0.79885069744E+03  0.26826073630E+04  0.25609021510E+04 0.  0.
        3    1    3    3  502    0 -0.39562017084E+03  0.38549579022E+03  0.16095008059E+04  0.17016507216E+04  0.10100000352E+00 0.  1.
       -3    1    3    3    0  502  0.39562017084E+03 -0.38549579022E+03 -0.81065010845E+03  0.98095664144E+03  0.10100000352E+00 0. -1.
</event>
<event>
 5   0  0.1088757E-06  0.2600909E+04  0.7818609E-02  0.8367893E-01
        1   -1    0    0  501    0  0.00000000000E+00  0.00000000000E+00  0.18220148705E+04  0.18220148705E+04  0.50400001928E-02 0.  1.
       -1   -1    0    0    0  501  0.00000000000E+00  0.00000000000E+00 -0.92819292211E+03  0.92819292212E+03  0.50400001928E-02 0. -1.
    10030    2    1    2    0    0  0.00000000000E+00  0.00000000000E+00  0.89382194840E+03  0.27502077926E+04  0.26009085388E+04 0.  0.
        5    1    3    3  502    0 -0.10508491044E+04 -0.79063477840E+02  0.12526382167E+04  0.16369665438E+04  0.46999998093E+01 0.  1.
       -5    1    3    3    0  502  0.10508491044E+04  0.79063477840E+02 -0.35881626825E+03  0.11132412488E+04  0.46999998093E+01 0. -1.
</event>
<event>
 5   0  0.2820028E-06  0.2600882E+04  0.7818609E-02  0.8367902E-01
        2   -1    0    0  501    0  0.00000000000E+00  0.00000000000E+00  0.14294476261E+04  0.14294476261E+04  0.25500000920E-02 0. -1.
       -2   -1    0    0    0  501  0.00000000000E+00  0.00000000000E+00 -0.11830772524E+04  0.11830772524E+04  0.25500000920E-02 0.  1.
    10030    2    1    2    0    0  0.00000000000E+00  0.00000000000E+00  0.24637037364E+03  0.26125248785E+04  0.26008821349E+04 0.  0.
        3    1    3    3  502    0 -0.92934507815E+03 -0.82473238501E+03 -0.26230505477E+03  0.12699093405E+04  0.10100000352E+00 0.  1.
       -3    1    3    3    0  502  0.92934507815E+03  0.82473238501E+03  0.50867542841E+03  0.13426155380E+04  0.10100000352E+00 0. -1.
</event>
<event>
 5   0  0.1032076E-06  0.2602226E+04  0.7818609E-02  0.8367445E-01
       -1   -1    0    0    0  501  0.00000000000E+00  0.00000000000E+00  0.10017496531E+04  0.10017496531E+04  0.50400001928E-02 0. -1.
        1   -1    0    0  501    0  0.00000000000E+00  0.00000000000E+00 -0.16899386252E+04  0.16899386252E+04  0.50400001928E-02 0.  1.
    10030    2    1    2    0    0  0.00000000000E+00  0.00000000000E+00 -0.68818897214E+03  0.26916882783E+04  0.26022263019E+04 0.  0.
        1    1    3    3  502    0 -0.20497181923E+03  0.17842015477E+03  0.97206826204E+03  0.10093383498E+04  0.50400001928E-02 0. -1.
       -1    1    3    3    0  502  0.20497181923E+03 -0.17842015477E+03 -0.16602572342E+04  0.16823499285E+04  0.50400001928E-02 0.  1.
</event>
<event>
 5   0  0.1122628E-06  0.2652865E+04  0.7818609E-02  0.8350463E-01
        1   -1    0    0  501    0  0.00000000000E+00  0.00000000000E+00  0.13026056701E+04  0.13026056701E+04  0.50400001928E-02 0. -1.
       -1   -1    0    0    0  501  0.00000000000E+00  0.00000000000E+00 -0.13506949019E+04  0.13506949019E+04  0.50400001928E-02 0.  1.
    10030    2    1    2    0    0  0.00000000000E+00  0.00000000000E+00 -0.48089231784E+02  0.26533005719E+04  0.26528647442E+04 0.  0.
        2    1    3    3  502    0  0.49480336996E+03 -0.73203469630E+03 -0.10135087493E+04  0.13445836368E+04  0.25500000920E-02 0.  1.
       -2    1    3    3    0  502 -0.49480336996E+03  0.73203469630E+03  0.96541951751E+03  0.13087169351E+04  0.25500000920E-02 0. -1.
</event>
<event>
 5   0  0.1088757E-06  0.2594833E+04  0.7818609E-02  0.8369958E-01
       -1   -1    0    0    0  501  0.00000000000E+00  0.00000000000E+00  0.13511915627E+04  0.13511915627E+04  0.50400001928E-02 0. -1.
        1   -1    0    0  501    0  0.00000000000E+00  0.00000000000E+00 -0.12457819855E+04  0.12457819856E+04  0.50400001928E-02 0.  1.
    10030    2    1    2    0    0  0.00000000000E+00  0.00000000000E+00  0.10540957712E+03  0.25969735482E+04  0.25948334111E+04 0.  0.
        5    1    3    3  502    0  0.57274343462E+03 -0.11624211423E+04 -0.10672505445E+02  0.12959143283E+04  0.46999998093E+01 0.  1.
       -5    1    3    3    0  502 -0.57274343462E+03  0.11624211423E+04  0.11608208256E+03  0.13010592199E+04  0.46999998093E+01 0. -1.
</event>
<event>
 5   0  0.2746631E-06  0.2620631E+04  0.7818609E-02  0.8361227E-01
        2   -1    0    0  501    0  0.00000000000E+00  0.00000000000E+00  0.18231576964E+04  0.18231576964E+04  0.25500000920E-02 0. -1.
       -2   -1    0    0    0  501  0.00000000000E+00  0.00000000000E+00 -0.94173207373E+03  0.94173207373E+03  0.25500000920E-02 0.  1.
    10030    2    1    2    0    0  0.00000000000E+00  0.00000000000E+00  0.88142562265E+03  0.27648897701E+04  0.26206305181E+04 0.  0.
        2    1    3    3  502    0  0.94172616183E+02 -0.18001348515E+03  0.18064402604E+04  0.18178283062E+04  0.25500000920E-02 0. -1.
       -2    1    3    3    0  502 -0.94172616183E+02  0.18001348515E+03 -0.92501463772E+03  0.94706146393E+03  0.25500000920E-02 0.  1.
</event>
<event>
 5   0  0.2705807E-06  0.2605307E+04  0.7818609E-02  0.8366401E-01
       -2   -1    0    0    0  501  0.00000000000E+00  0.00000000000E+00  0.14987734719E+04  0.14987734719E+04  0.25500000920E-02 0.  1.
        2   -1    0    0  501    0  0.00000000000E+00  0.00000000000E+00 -0.11321964890E+04  0.11321964890E+04  0.25500000920E-02 0. -1.
    10030    2    1    2    0    0  0.00000000000E+00  0.00000000000E+00  0.36657698284E+03  0.26309699609E+04  0.26053069398E+04 0.  0.
        4    1    3    3  502    0 -0.25690146132E+03 -0.96415246435E+03 -0.66240677986E+03  0.11976529924E+04  0.12699999809E+01 0. -1.
       -4    1    3    3    0  502  0.25690146132E+03  0.96415246435E+03  0.10289837627E+04  0.14333169685E+04  0.12699999809E+01 0.  1.
</event>
<event>
 5   0  0.1055179E-06  0.2604725E+04  0.7818609E-02  0.8366598E-01
        1   -1    0    0  501    0  0.00000000000E+00  0.00000000000E+00  0.13871016205E+04  0.13871016205E+04  0.50400001928E-02 0. -1.
       -1   -1    0    0    0  501  0.00000000000E+00  0.00000000000E+00 -0.12227997820E+04  0.12227997820E+04  0.50400001928E-02 0.  1.
    10030    2    1    2    0    0  0.00000000000E+00  0.00000000000E+00  0.16430183847E+03  0.26099014025E+04  0.26047245990E+04 0.  0.
        3    1    3    3  502    0 -0.58075805346E+03  0.67816637401E+03 -0.86786742305E+03  0.12451439361E+04  0.10100000352E+00 0.  1.
       -3    1    3    3    0  502  0.58075805346E+03 -0.67816637401E+03  0.10321692615E+04  0.13647574664E+04  0.10100000352E+00 0. -1.
</event>
<event>
 5   0  0.2746631E-06  0.2594968E+04  0.7818609E-02  0.8369912E-01
        2   -1    0    0  501    0  0.00000000000E+00  0.00000000000E+00  0.15932987674E+04  0.15932987674E+04  0.25500000920E-02 0.  1.
       -2   -1    0    0    0  501  0.00000000000E+00  0.00000000000E+00 -0.10565907814E+04  0.10565907814E+04  0.25500000920E-02 0. -1.
    10030    2    1    2    0    0  0.00000000000E+00  0.00000000000E+00  0.53670798603E+03  0.26498895488E+04  0.25949680458E+04 0.  0.
        2    1    3    3  502    0  0.10363914162E+04  0.77672081805E+03  0.34786326877E+03  0.13410485638E+04  0.25500000920E-02 0.  1.
       -2    1    3    3    0  502 -0.10363914162E+04 -0.77672081805E+03  0.18884471726E+03  0.13088409850E+04  0.25500000920E-02 0. -1.
</event>
<event>
 5   0  0.1088757E-06  0.2588571E+04  0.7818609E-02  0.8372094E-01
        1   -1    0    0  501    0  0.00000000000E+00  0.00000000000E+00  0.18729467932E+04  0.18729467932E+04  0.50400001928E-02 0. -1.
       -1   -1    0    0    0  501  0.00000000000E+00  0.00000000000E+00 -0.89440579614E+03  0.89440579616E+03  0.50400001928E-02 0.  1.
    10030    2    1    2    0    0  0.00000000000E+00  0.00000000000E+00  0.97854099703E+03  0.27673525893E+04  0.25885706231E+04 0.  0.
        5    1    3    3  502    0  0.33718763236E+03  0.29373740225E+03 -0.80918264419E+03  0.92454086041E+03  0.46999998093E+01 0.  1.
       -5    1    3    3    0  502 -0.33718763236E+03 -0.29373740225E+03  0.17877236412E+04  0.18428117289E+04  0.46999998093E+01 0. -1.
</event>
<event>
 5   0  0.9197000E-07  0.2593160E+04  0.7818609E-02  0.8370528E-01
        3   -1    0    0  501    0  0.00000000000E+00  0.00000000000E+00  0.17605334993E+04  0.17605335022E+04  0.10100000352E+00 0. -1.
       -3   -1    0    0    0  501  0.00000000000E+00  0.00000000000E+00 -0.95489231527E+03  0.95489232062E+03  0.10100000352E+00 0.  1.
    10030    2    1    2    0    0  0.00000000000E+00  0.00000000000E+00  0.80564118406E+03  0.27154258228E+04  0.25931601728E+04 0.  0.
        5    1    3    3  502    0 -0.11920894379E+04 -0.16082600503E+03 -0.10389103992E+03  0.12073763581E+04  0.46999998093E+01 0.  1.
       -5    1    3    3    0  502  0.11920894379E+04  0.16082600503E+03  0.90953222398E+03  0.15080494648E+04  0.46999998093E+01 0. -1.
</event>
<event>
 5   0  0.1100104E-06  0.2598956E+04  0.7818609E-02  0.8368556E-01
       -1   -1    0    0    0  501  0.00000000000E+00  0.00000000000E+00  0.16277743443E+04  0.16277743444E+04  0.50400001928E-02 0.  1.
        1   -1    0    0  501    0  0.00000000000E+00  0.00000000000E+00 -0.10373937434E+04  0.10373937434E+04  0.50400001928E-02 0. -1.
    10030    2    1    2    0    0  0.00000000000E+00  0.00000000000E+00  0.59038060093E+03  0.26651680878E+04  0.25989558831E+04 0.  0.
        4    1    3    3  502    0 -0.18918645553E+03  0.40371628048E+03  0.15468862827E+04  0.16098562466E+04  0.12699999809E+01 0.  1.
       -4    1    3    3    0  502  0.18918645553E+03 -0.40371628048E+03 -0.95650568177E+03  0.10553118412E+04  0.12699999809E+01 0. -1.
</event>
<event>
 5   0  0.1122628E-06  0.2599028E+04  0.7818609E-02  0.8368531E-01
        1   -1    0    0  501    0  0.00000000000E+00  0.00000000000E+00  0.15195253814E+04  0.15195253814E+04  0.50400001928E-02 0. -1.
       -1   -1    0    0    0  501  0.00000000000E+00  0.00000000000E+00 -0.11113583804E+04  0.11113583804E+04  0.50400001928E-02 0.  1.
    10030    2    1    2    0    0  0.00000000000E+00  0.00000000000E+00  0.40816700095E+03  0.26308837618E+04  0.25990284854E+04 0.  0.
        2    1    3    3  502    0  0.51797602206E+03  0.10415347349E+04 -0.38236481600E+03  0.12244576824E+04  0.25500000920E-02 0.  1.
       -2    1    3    3    0  502 -0.51797602206E+03 -0.10415347349E+04  0.79053181695E+03  0.14064260795E+04  0.25500000920E-02 0. -1.
</event>
<event>
 5   0  0.1088757E-06  0.2602440E+04  0.7818609E-02  0.8367373E-01
        1   -1    0    0  501    0  0.00000000000E+00  0.00000000000E+00  0.33199553165E+04  0.33199553165E+04  0.50400001928E-02 0. -1.
       -1   -1    0    0    0  501  0.00000000000E+00  0.00000000000E+00 -0.50999876798E+03  0.50999876801E+03  0.50400001928E-02 0.  1.
    10030    2    1    2    0    0  0.00000000000E+00  0.00000000000E+00  0.28099565485E+04  0.38299540845E+04  0.26024397178E+04 0.  0.
        5    1    3    3  502    0  0.38171857338E+03 -0.10296369538E+04  0.37765646668E+03  0.11612526955E+04  0.46999998093E+01 0.  1.
       -5    1    3    3    0  502 -0.38171857338E+03  0.10296369538E+04  0.24323000818E+04  0.26687013890E+04  0.46999998093E+01 0. -1.
</event>
<event>
 5   0  0.1032076E-06  0.2595943E+04  0.7818609E-02  0.8369581E-01
       -1   -1    0    0    0  501  0.00000000000E+00  0.00000000000E+00  0.14208271845E+04  0.14208271845E+04  0.50400001928E-02 0.  1.
        1   -1    0    0  501    0  0.00000000000E+00  0.00000000000E+00 -0.11857387418E+04  0.11857387418E+04  0.50400001928E-02 0. -1.
    10030    2    1    2    0    0  0.00000000000E+00  0.00000000000E+00  0.23508844270E+03  0.26065659262E+04  0.25959428638E+04 0.  0.
        1    1    3    3  502    0  0.23711875666E+03 -0.50025606643E+03 -0.10612481943E+04  0.11969666523E+04  0.50400001928E-02 0. -1.
       -1    1    3    3    0  502 -0.23711875666E+03  0.50025606643E+03  0.12963366370E+04  0.14095992740E+04  0.50400001928E-02 0.  1.
</event>
<event>
 5   0  0.2820028E-06  0.2612606E+04  0.7818609E-02  0.8363932E-01
       -2   -1    0    0    0  501  0.00000000000E+00  0.00000000000E+00  0.18695453762E+04  0.18695453762E+04  0.25500000920E-02 0.  1.
        2   -1    0    0  501    0  0.00000000000E+00  0.00000000000E+00 -0.91275011788E+03  0.91275011788E+03  0.25500000920E-02 0. -1.
    10030    2    1    2    0    0  0.00000000000E+00  0.00000000000E+00  0.95679525828E+03  0.27822954940E+04  0.26126061796E+04 0.  0.
        3    1    3    3  502    0 -0.26498715433E+03 -0.86025347021E+02 -0.88074304490E+03  0.92375693428E+03  0.10100000352E+00 0. -1.
       -3    1    3    3    0  502  0.26498715433E+03  0.86025347021E+02  0.18375383032E+04  0.18585385598E+04  0.10100000352E+00 0.  1.
</event>
<event>
 5   0  0.2820028E-06  0.2595740E+04  0.7818609E-02  0.8369650E-01
        2   -1    0    0  501    0  0.00000000000E+00  0.00000000000E+00  0.17411743548E+04  0.17411743548E+04  0.25500000920E-02 0.  1.
       -2   -1    0    0    0  501  0.00000000000E+00  0.00000000000E+00 -0.96743124282E+03  0.96743124282E+03  0.25500000920E-02 0. -1.
    10030    2    1    2    0    0  0.00000000000E+00  0.00000000000E+00  0.77374311194E+03  0.27086055976E+04  0.25957399484E+04 0.  0.
        3    1    3    3  502    0  0.44428350130E+03  0.10978278488E+04 -0.16711043627E+03  0.11960517227E+04  0.10100000352E+00 0. -1.
       -3    1    3    3    0  502 -0.44428350130E+03 -0.10978278488E+04  0.94085354821E+03  0.15125538749E+04  0.10100000352E+00 0.  1.
</event>
<event>
 5   0  0.1088757E-06  0.2593894E+04  0.7818609E-02  0.8370278E-01
        1   -1    0    0  501    0  0.00000000000E+00  0.00000000000E+00  0.13424704260E+04  0.13424704260E+04  0.50400001928E-02 0. -1.
       -1   -1    0    0    0  501  0.00000000000E+00  0.00000000000E+00 -0.12529677196E+04  0.12529677196E+04  0.50400001928E-02 0.  1.
    10030    2    1    2    0    0  0.00000000000E+00  0.00000000000E+00  0.89502706337E+02  0.25954381456E+04  0.25938944530E+04 0.  0.
        5    1    3    3  502    0 -0.11823103520E+04  0.60619791677E+02 -0.48520286775E+03  0.12794438012E+04  0.46999998093E+01 0.  1.
       -5    1    3    3    0  502  0.11823103520E+04 -0.60619791677E+02  0.57470557409E+03  0.13159943444E+04  0.46999998093E+01 0. -1.
</event>
<event>
 5   0  0.1055179E-06  0.2601750E+04  0.7818609E-02  0.8367607E-01
       -1   -1    0    0    0  501  0.00000000000E+00  0.00000000000E+00  0.84788997913E+03  0.84788997914E+03  0.50400001928E-02 0.  1.
        1   -1    0    0  501    0  0.00000000000E+00  0.00000000000E+00 -0.19958671309E+04  0.19958671310E+04  0.50400001928E-02 0. -1.
    10030    2    1    2    0    0  0.00000000000E+00  0.00000000000E+00 -0.11479771518E+04  0.28437571101E+04  0.26017499803E+04 0.  0.
        3    1    3    3  502    0 -0.11085857326E+04 -0.64648334965E+03 -0.80681065634E+03  0.15158649324E+04  0.10100000352E+00 0.  1.
       -3    1    3    3    0  502  0.11085857326E+04  0.64648334965E+03 -0.34116649548E+03  0.13278921777E+04  0.10100000352E+00 0. -1.
</event>
<event>
 5   0  0.1055179E-06  0.2600360E+04  0.7818609E-02  0.8368079E-01
        1   -1    0    0  501    0  0.00000000000E+00  0.00000000000E+00  0.20297981616E+04  0.20297981616E+04  0.50400001928E-02 0. -1.
       -1   -1    0    0    0  501  0.00000000000E+00  0.00000000000E+00 -0.83282541424E+03  0.83282541426E+03  0.50400001928E-02 0.  1.
    10030    2    1    2    0    0  0.00000000000E+00  0.00000000000E+00  0.11969727474E+04  0.28626235759E+04  0.26003595865E+04 0.  0.
        3    1    3    3  502    0 -0.11522680541E+04 -0.16553654348E+03 -0.39007128032E+02  0.11647512962E+04  0.10100000352E+00 0. -1.
       -3    1    3    3    0  502  0.11522680541E+04  0.16553654348E+03  0.12359798754E+04  0.16978722797E+04  0.10100000352E+00 0.  1.
</event>
<event>
 5   0  0.2746631E-06  0.2600572E+04  0.7818609E-02  0.8368007E-01
       -2   -1    0    0    0  501  0.00000000000E+00  0.00000000000E+00  0.99538867574E+03  0.99538867574E+03  0.25500000920E-02 0. -1.
        2   -1    0    0  501    0  0.00000000000E+00  0.00000000000E+00 -0.16985762140E+04  0.16985762140E+04  0.25500000920E-02 0.  1.
    10030    2    1    2    0    0  0.00000000000E+00  0.00000000000E+00 -0.70318753831E+03  0.26939648898E+04  0.26005718820E+04 0.  0.
        2    1    3    3  502    0  0.35434512073E+02 -0.12730207298E+03 -0.16916025744E+04  0.16967559318E+04  0.25500000920E-02 0.  1.
       -2    1    3    3    0  502 -0.35434512073E+02  0.12730207298E+03  0.98841503605E+03  0.99720895801E+03  0.25500000920E-02 0. -1.
</event>
<event>
 5   0  0.2746631E-06  0.2615518E+04  0.7818609E-02  0.8362949E-01
        2   -1    0    0  501    0  0.00000000000E+00  0.00000000000E+00  0.10737511897E+04  0.10737511897E+04  0.25500000920E-02 0. -1.
       -2   -1    0    0    0  501  0.00000000000E+00  0.00000000000E+00 -0.15927653945E+04  0.15927653945E+04  0.25500000920E-02 0.  1.
    10030    2    1    2    0    0  0.00000000000E+00  0.00000000000E+00 -0.51901420489E+03  0.26665165842E+04  0.26155181033E+04 0.  0.
        2    1    3    3  502    0 -0.44011849439E+03 -0.80657246241E+03  0.68921290657E+03  0.11485982138E+04  0.25500000920E-02 0. -1.
       -2    1    3    3    0  502  0.44011849439E+03  0.80657246241E+03 -0.12082271115E+04  0.15179183704E+04  0.25500000920E-02 0.  1.
</event>
<event>
 5   0  0.1100104E-06  0.2594352E+04  0.7818609E-02  0.8370122E-01
       -1   -1    0    0    0  501  0.00000000000E+00  0.00000000000E+00  0.13476092697E+04  0.13476092697E+04  0.50400001928E-02 0. -1.
        1   -1    0    0  501    0  0.00000000000E+00  0.00000000000E+00 -0.12486299407E+04  0.12486299407E+04  0.50400001928E-02 0.  1.
    10030    2    1    2    0    0  0.00000000000E+00  0.00000000000E+00  0.98979328970E+02  0.25962392104E+04  0.25943517745E+04 0.  0.
        4    1    3    3  502    0 -0.85183511261E+03  0.21900971134E+03  0.10036377526E+04  0.13344956591E+04  0.12699999809E+01 0. -1.
       -4    1    3    3    0  502  0.85183511261E+03 -0.21900971134E+03 -0.90465842367E+03  0.12617435513E+04  0.12699999809E+01 0.  1.
</event>
<event>
 5   0  0.2586775E-06  0.2600854E+04  0.7818609E-02  0.8367911E-01
       -2   -1    0    0    0  501  0.00000000000E+00  0.00000000000E+00  0.10803356213E+04  0.10803356213E+04  0.25500000920E-02 0.  1.
        2   -1    0    0  501    0  0.00000000000E+00  0.00000000000E+00 -0.15653569119E+04  0.15653569119E+04  0.25500000920E-02 0. -1.
    10030    2    1    2    0    0  0.00000000000E+00  0.00000000000E+00 -0.48502129054E+03  0.26456925332E+04  0.26008543457E+04 0.  0.
        1    1    3    3  502    0 -0.85475993395E+03  0.21835663030E+03 -0.12143961872E+04  0.15010170759E+04  0.50400001928E-02 0. -1.
       -1    1    3    3    0  502  0.85475993395E+03 -0.21835663030E+03  0.72937489662E+03  0.11446754573E+04  0.50400001928E-02 0.  1.
</event>
<event>
 5   0  0.9197000E-07  0.2602300E+04  0.7818609E-02  0.8367420E-01
        3   -1    0    0  501    0  0.00000000000E+00  0.00000000000E+00  0.20311491608E+04  0.20311491633E+04  0.10100000352E+00 0.  1.
       -3   -1    0    0    0  501  0.00000000000E+00  0.00000000000E+00 -0.83351422482E+03  0.83351423094E+03  0.10100000352E+00 0. -1.
    10030    2    1    2    0    0  0.00000000000E+00  0.00000000000E+00  0.11976349360E+04  0.28646633943E+04  0.26023003137E+04 0.  0.
        3    1    3    3  502    0 -0.22999480252E+03 -0.12796932869E+04  0.54400590397E+03  0.14094165288E+04  0.10100000352E+00 0.  1.
       -3    1    3    3    0  502  0.22999480252E+03  0.12796932869E+04  0.65362903203E+03  0.14552468655E+04  0.10100000352E+00 0. -1.
</event>
<event>
 5   0  0.2623368E-06  0.2599335E+04  0.7818609E-02  0.8368427E-01
        2   -1    0    0  501    0  0.00000000000E+00  0.00000000000E+00  0.12195551244E+04  0.12195551244E+04  0.25500000920E-02 0. -1.
       -2   -1    0    0    0  501  0.00000000000E+00  0.00000000000E+00 -0.13850426538E+04  0.13850426538E+04  0.25500000920E-02 0.  1.
    10030    2    1    2    0    0  0.00000000000E+00  0.00000000000E+00 -0.16548752948E+03  0.26045977782E+04  0.25993351965E+04 0.  0.
        5    1    3    3  502    0 -0.10324723695E+04 -0.63031378478E+02  0.70570482469E+03  0.12522034731E+04  0.46999998093E+01 0. -1.
       -5    1    3    3    0  502  0.10324723695E+04  0.63031378478E+02 -0.87119235417E+03  0.13523943051E+04  0.46999998093E+01 0.  1.
</event>
<event>
 5   0  0.2623368E-06  0.2603900E+04  0.7818609E-02  0.8366878E-01
       -2   -1    0    0    0  501  0.00000000000E+00  0.00000000000E+00  0.83928769420E+03  0.83928769421E+03  0.25500000920E-02 0.  1.
        2   -1    0    0  501    0  0.00000000000E+00  0.00000000000E+00 -0.20196571497E+04  0.20196571497E+04  0.25500000920E-02 0. -1.
    10030    2    1    2    0    0  0.00000000000E+00  0.00000000000E+00 -0.11803694555E+04  0.28589448439E+04  0.26038996849E+04 0.  0.
        5    1    3    3  502    0  0.48421291578E+02 -0.77381565966E+03 -0.17385327219E+04  0.19035896122E+04  0.46999998093E+01 0. -1.
       -5    1    3    3    0  502 -0.48421291578E+02  0.77381565966E+03  0.55816326646E+03  0.95535523164E+03  0.46999998093E+01 0.  1.
</event>
<event>
 5   0  0.2746631E-06  0.2596158E+04  0.7818609E-02  0.8369507E-01
        2   -1    0    0  501    0  0.00000000000E+00  0.00000000000E+00  0.20847641909E+04  0.20847641909E+04  0.25500000920E-02 0. -1.
       -2   -1    0    0    0  501  0.00000000000E+00  0.00000000000E+00 -0.80824914307E+03  0.80824914308E+03  0.25500000920E-02 0.  1.
    10030    2    1    2    0    0  0.00000000000E+00  0.00000000000E+00  0.12765150478E+04  0.28930133340E+04  0.25961578310E+04 0.  0.
        2    1    3    3  502    0  0.97493946400E+03  0.15226175006E+03  0.15780919004E+04  0.18611997864E+04  0.25500000920E-02 0. -1.
       -2    1    3    3    0  502 -0.97493946400E+03 -0.15226175006E+03 -0.30157685251E+03  0.10318135476E+04  0.25500000920E-02 0.  1.
</event>
<event>
 5   0  0.1088757E-06  0.2599150E+04  0.7818609E-02  0.8368490E-01
        1   -1    0    0  501    0  0.00000000000E+00  0.00000000000E+00  0.22327394787E+04  0.22327394787E+04  0.50400001928E-02 0.  1.
       -1   -1    0    0    0  501  0.00000000000E+00  0.00000000000E+00 -0.75642271997E+03  0.75642271999E+03  0.50400001928E-02 0. -1.
    10030    2    1    2    0    0  0.00000000000E+00  0.00000000000E+00  0.14763167588E+04  0.29891621987E+04  0.25991497606E+04 0.  0.
        5    1    3    3  502    0  0.21298277529E+02 -0.19785418595E+03 -0.73878700853E+03  0.76513281821E+03  0.46999998093E+01 0. -1.
       -5    1    3    3    0  502 -0.21298277529E+02  0.19785418595E+03  0.22151037673E+04  0.22240293805E+04  0.46999998093E+01 0.  1.
</event>
<event>
 5   0  0.2820028E-06  0.2599056E+04  0.7818609E-02  0.8368522E-01
       -2   -1    0    0    0  501  0.00000000000E+00  0.00000000000E+00  0.82115936589E+03  0.82115936590E+03  0.25500000920E-02 0.  1.
        2   -1    0    0  501    0  0.00000000000E+00  0.00000000000E+00 -0.20565719502E+04  0.20565719502E+04  0.25500000920E-02 0. -1.
    10030    2    1    2    0    0  0.00000000000E+00  0.00000000000E+00 -0.12354125844E+04  0.28777313161E+04  0.25990562276E+04 0.  0.
        3    1    3    3  502    0  0.38300030774E+03 -0.11022882529E+04 -0.12509022189E+04  0.17106972262E+04  0.10100000352E+00 0. -1.
       -3    1    3    3    0  502 -0.38300030774E+03  0.11022882529E+04  0.15489634595E+02  0.11670340900E+04  0.10100000352E+00 0.  1.
</event>
<event>
 5   0  0.1055179E-06  0.2618426E+04  0.7818609E-02  0.8361969E-01
       -1   -1    0    0    0  501  0.00000000000E+00  0.00000000000E+00  0.80706363563E+03  0.80706363564E+03  0.50400001928E-02 0.  1.
        1   -1    0    0  501    0  0.00000000000E+00  0.00000000000E+00 -0.21237961963E+04  0.21237961963E+04  0.50400001928E-02 0. -1.
    10030    2    1    2    0    0  0.00000000000E+00  0.00000000000E+00 -0.13167325607E+04  0.29308598320E+04  0.26184260002E+04 0.  0.
        3    1    3    3  502    0 -0.76359166618E+03  0.44982636841E+02 -0.18476644527E+04  0.19997398857E+04  0.10100000352E+00 0. -1.
       -3    1    3    3    0  502  0.76359166618E+03 -0.44982636841E+02  0.53093189201E+03  0.93111994632E+03  0.10100000352E+00 0.  1.
</event>
<event>
 5   0  0.2705807E-06  0.2595670E+04  0.7818609E-02  0.8369673E-01
       -2   -1    0    0    0  501  0.00000000000E+00  0.00000000000E+00  0.11850918806E+04  0.11850918806E+04  0.25500000920E-02 0.  1.
        2   -1    0    0  501    0  0.00000000000E+00  0.00000000000E+00 -0.14213039903E+04  0.14213039903E+04  0.25500000920E-02 0. -1.
    10030    2    1    2    0    0  0.00000000000E+00  0.00000000000E+00 -0.23621210968E+03  0.26063958709E+04  0.25956701013E+04 0.  0.
        4    1    3    3  502    0 -0.49618801030E+03  0.60099154415E+03  0.92395909154E+03  0.12087577894E+04  0.12699999809E+01 0.  1.
       -4    1    3    3    0  502  0.49618801030E+03 -0.60099154415E+03 -0.11601712012E+04  0.13976380815E+04  0.12699999809E+01 0. -1.
</event>
<event>
 5   0  0.1122628E-06  0.2595843E+04  0.7818609E-02  0.8369614E-01
       -1   -1    0    0    0  501  0.00000000000E+00  0.00000000000E+00  0.89177890759E+03  0.89177890761E+03  0.50400001928E-02 0.  1.
        1   -1    0    0  501    0  0.00000000000E+00  0.00000000000E+00 -0.18890339659E+04  0.18890339659E+04  0.50400001928E-02 0. -1.
    10030    2    1    2    0    0  0.00000000000E+00  0.00000000000E+00 -0.99725505835E+03  0.27808128736E+04  0.25958433285E+04 0.  0.
        2    1    3    3  502    0 -0.12955500591E+04  0.92111000683E+01 -0.41519431040E+03  0.13604856175E+04  0.25500000920E-02 0.  1.
       -2    1    3    3    0  502  0.12955500591E+04 -0.92111000683E+01 -0.58206074794E+03  0.14203272561E+04  0.25500000920E-02 0. -1.
</event>
<event>
 5   0  0.1032076E-06  0.2597846E+04  0.7818609E-02  0.8368933E-01
        1   -1    0    0  501    0  0.00000000000E+00  0.00000000000E+00  0.15257432067E+04  0.15257432067E+04  0.50400001928E-02 0.  1.
       -1   -1    0    0    0  501  0.00000000000E+00  0.00000000000E+00 -0.11058219837E+04  0.11058219838E+04  0.50400001928E-02 0. -1.
    10030    2    1    2    0    0  0.00000000000E+00  0.00000000000E+00  0.41992122297E+03  0.26315651905E+04  0.25978455532E+04 0.  0.
        1    1    3    3  502    0  0.12392228964E+04  0.12083797282E+03  0.58479761762E+03  0.13755956733E+04  0.50400001928E-02 0. -1.
       -1    1    3    3    0  502 -0.12392228964E+04 -0.12083797282E+03 -0.16487639465E+03  0.12559695172E+04  0.50400001928E-02 0.  1.
</event>
<event>
 5   0  0.2623368E-06  0.2594934E+04  0.7818609E-02  0.8369924E-01
        2   -1    0    0  501    0  0.00000000000E+00  0.00000000000E+00  0.26745141857E+04  0.26745141857E+04  0.25500000920E-02 0. -1.
       -2   -1    0    0    0  501  0.00000000000E+00  0.00000000000E+00 -0.62943059702E+03  0.62943059703E+03  0.25500000920E-02 0.  1.
    10030    2    1    2    0    0  0.00000000000E+00  0.00000000000E+00  0.20450835886E+04  0.33039447827E+04  0.25949343426E+04 0.  0.
        5    1    3    3  502    0  0.54610468525E+03 -0.20580439009E+03  0.24979568372E+04  0.25652282988E+04  0.46999998093E+01 0. -1.
       -5    1    3    3    0  502 -0.54610468525E+03  0.20580439009E+03 -0.45287324862E+03  0.73871648387E+03  0.46999998093E+01 0.  1.
</event>
<event>
 5   0  0.1088757E-06  0.2600816E+04  0.7818609E-02  0.8367924E-01
        1   -1    0    0  501    0  0.00000000000E+00  0.00000000000E+00  0.15909337550E+04  0.15909337550E+04  0.50400001928E-02 0.  1.
       -1   -1    0    0    0  501  0.00000000000E+00  0.00000000000E+00 -0.10629357572E+04  0.10629357572E+04  0.50400001928E-02 0. -1.
    10030    2    1    2    0    0  0.00000000000E+00  0.00000000000E+00  0.52799799780E+03  0.26538695122E+04  0.26008155456E+04 0.  0.
        5    1    3    3  502    0 -0.81157745940E+03  0.23865218951E+02 -0.77250275204E+03  0.11207185700E+04  0.46999998093E+01 0. -1.
       -5    1    3    3    0  502  0.81157745940E+03 -0.23865218951E+02  0.13005007498E+04  0.15331509422E+04  0.46999998093E+01 0.  1.
</event>
<event>
 5   0  0.2820028E-06  0.2599919E+04  0.7818609E-02  0.8368229E-01
       -2   -1    0    0    0  501  0.00000000000E+00  0.00000000000E+00  0.19963258678E+04  0.19963258678E+04  0.25500000920E-02 0. -1.
        2   -1    0    0  501    0  0.00000000000E+00  0.00000000000E+00 -0.84650269784E+03  0.84650269784E+03  0.25500000920E-02 0.  1.
    10030    2    1    2    0    0  0.00000000000E+00  0.00000000000E+00  0.11498231700E+04  0.28428285657E+04  0.25999194087E+04 0.  0.
        3    1    3    3  502    0  0.59223813824E+02 -0.96328833338E+03  0.15271771596E+04  0.18065718807E+04  0.10100000352E+00 0. -1.
       -3    1    3    3    0  502 -0.59223813824E+02  0.96328833338E+03 -0.37735398960E+03  0.10362566849E+04  0.10100000352E+00 0.  1.
</event>
<event>
 5   0  0.2586775E-06  0.2591206E+04  0.7818609E-02  0.8371194E-01
        2   -1    0    0  501    0  0.00000000000E+00  0.00000000000E+00  0.12570983990E+04  0.12570983990E+04  0.25500000920E-02 0.  1.
       -2   -1    0    0    0  501  0.00000000000E+00  0.00000000000E+00 -0.13352869464E+04  0.13352869464E+04  0.25500000920E-02 0. -1.
    10030    2    1    2    0    0  0.00000000000E+00  0.00000000000E+00 -0.78188547422E+02  0.25923853454E+04  0.25912059606E+04 0.  0.
        1    1    3    3  502    0  0.36332173549E+03  0.37266610053E+03 -0.12261014762E+04  0.13319938197E+04  0.50400001928E-02 0. -1.
       -1    1    3    3    0  502 -0.36332173549E+03 -0.37266610053E+03  0.11479129287E+04  0.12603915257E+04  0.50400001928E-02 0.  1.
</event>
<event>
 5   0  0.1122628E-06  0.2576224E+04  0.7818609E-02  0.8376323E-01
       -1   -1    0    0    0  501  0.00000000000E+00  0.00000000000E+00  0.25843478792E+04  0.25843478792E+04  0.50400001928E-02 0. -1.
        1   -1    0    0  501    0  0.00000000000E+00  0.00000000000E+00 -0.64203127332E+03  0.64203127334E+03  0.50400001928E-02 0.  1.
    10030    2    1    2    0    0  0.00000000000E+00  0.00000000000E+00  0.19423166059E+04  0.32263791525E+04  0.25762237167E+04 0.  0.
        2    1    3    3  502    0  0.49358309268E+03  0.67042236750E+03  0.22021418583E+04  0.23542555478E+04  0.25500000920E-02 0. -1.
       -2    1    3    3    0  502 -0.49358309268E+03 -0.67042236750E+03 -0.25982525240E+03  0.87212360477E+03  0.25500000920E-02 0.  1.
</event>
<event>
 5   0  0.1122628E-06  0.2600694E+04  0.7818609E-02  0.8367965E-01
        1   -1    0    0  501    0  0.00000000000E+00  0.00000000000E+00  0.13346832692E+04  0.13346832692E+04  0.50400001928E-02 0.  1.
       -1   -1    0    0    0  501  0.00000000000E+00  0.00000000000E+00 -0.12668942003E+04  0.12668942003E+04  0.50400001928E-02 0. -1.
    10030    2    1    2    0    0  0.00000000000E+00  0.00000000000E+00  0.67789068913E+02  0.26015774695E+04  0.26006941327E+04 0.  0.
        2    1    3    3  502    0  0.12898874287E+04  0.11456022170E+03 -0.84335582724E+02  0.12977080233E+04  0.25500000920E-02 0. -1.
       -2    1    3    3    0  502 -0.12898874287E+04 -0.11456022170E+03  0.15212465164E+03  0.13038694462E+04  0.25500000920E-02 0.  1.
</event>
<event>
 5   0  0.2820028E-06  0.2601442E+04  0.7818609E-02  0.8367711E-01
        2   -1    0    0  501    0  0.00000000000E+00  0.00000000000E+00  0.12781007006E+04  0.12781007006E+04  0.25500000920E-02 0.  1.
       -2   -1    0    0    0  501  0.00000000000E+00  0.00000000000E+00 -0.13237418139E+04  0.13237418139E+04  0.25500000920E-02 0. -1.
    10030    2    1    2    0    0  0.00000000000E+00  0.00000000000E+00 -0.45641113314E+02  0.26018425145E+04  0.26014421690E+04 0.  0.
        3    1    3    3  502    0  0.37657932832E+03 -0.17037842587E+02 -0.12679109502E+04  0.13227624376E+04  0.10100000352E+00 0. -1.
       -3    1    3    3    0  502 -0.37657932832E+03  0.17037842587E+02  0.12222698369E+04  0.12790800768E+04  0.10100000352E+00 0.  1.
</event>
<event>
 5   0  0.2820028E-06  0.2600128E+04  0.7818609E-02  0.8368158E-01
        2   -1    0    0  501    0  0.00000000000E+00  0.00000000000E+00  0.10122584306E+04  0.10122584306E+04  0.25500000920E-02 0. -1.
       -2   -1    0    0    0  501  0.00000000000E+00  0.00000000000E+00 -0.16696985590E+04  0.16696985590E+04  0.25500000920E-02 0.  1.
    10030    2    1    2    0    0  0.00000000000E+00  0.00000000000E+00 -0.65744012837E+03  0.26819569897E+04  0.26001280299E+04 0.  0.
        3    1    3    3  502    0 -0.36310603905E+02 -0.12259405555E+04 -0.77347162059E+03  0.14500024357E+04  0.10100000352E+00 0.  1.
       -3    1    3    3    0  502  0.36310603905E+02  0.12259405555E+04  0.11603149222E+03  0.12319545539E+04  0.10100000352E+00 0. -1.
</event>
<event>
 5   0  0.1100104E-06  0.2601287E+04  0.7818609E-02  0.8367764E-01
       -1   -1    0    0    0  501  0.00000000000E+00  0.00000000000E+00  0.12888681879E+04  0.12888681879E+04  0.50400001928E-02 0.  1.
        1   -1    0    0  501    0  0.00000000000E+00  0.00000000000E+00 -0.13125261992E+04  0.13125261992E+04  0.50400001928E-02 0. -1.
    10030    2    1    2    0    0  0.00000000000E+00  0.00000000000E+00 -0.23658011281E+02  0.26013943871E+04  0.26012868077E+04 0.  0.
        4    1    3    3  502    0  0.13784697668E+03 -0.12637598849E+04  0.26310201672E+03  0.12981968725E+04  0.12699999809E+01 0.  1.
       -4    1    3    3    0  502 -0.13784697668E+03  0.12637598849E+04 -0.28676002800E+03  0.13031975147E+04  0.12699999809E+01 0. -1.
</event>
<event>
 5   0  0.1100104E-06  0.2598505E+04  0.7818609E-02  0.8368709E-01
       -1   -1    0    0    0  501  0.00000000000E+00  0.00000000000E+00  0.18268081243E+04  0.18268081243E+04  0.50400001928E-02 0.  1.
        1   -1    0    0  501    0  0.00000000000E+00  0.00000000000E+00 -0.92404731558E+03  0.92404731559E+03  0.50400001928E-02 0. -1.
    10030    2    1    2    0    0  0.00000000000E+00  0.00000000000E+00  0.90276080868E+03  0.27508554399E+04  0.25985050651E+04 0.  0.
        4    1    3    3  502    0 -0.28768518270E+03 -0.96282832765E+03  0.13232278579E+04  0.16615458855E+04  0.12699999809E+01 0.  1.
       -4    1    3    3    0  502  0.28768518270E+03  0.96282832765E+03 -0.42046704919E+03  0.10893095544E+04  0.12699999809E+01 0. -1.
</event>
<event>
 5   0  0.1032076E-06  0.2602114E+04  0.7818609E-02  0.8367483E-01
        1   -1    0    0  501    0  0.00000000000E+00  0.00000000000E+00  0.15382074655E+04  0.15382074655E+04  0.50400001928E-02 0.  1.
       -1   -1    0    0    0  501  0.00000000000E+00  0.00000000000E+00 -0.11004688411E+04  0.11004688411E+04  0.50400001928E-02 0. -1.
    10030    2    1    2    0    0  0.00000000000E+00  0.00000000000E+00  0.43773862441E+03  0.26386763066E+04  0.26021140536E+04 0.  0.
        1    1    3    3  502    0  0.96730532293E+03  0.65699554262E+03 -0.35960802714E+03  0.12233726595E+04  0.50400001928E-02 0. -1.
       -1    1    3    3    0  502 -0.96730532293E+03 -0.65699554262E+03  0.79734665155E+03  0.14153036471E+04  0.50400001928E-02 0.  1.
</event>
<event>
 5   0  0.1032076E-06  0.2603343E+04  0.7818609E-02  0.8367067E-01
        1   -1    0    0  501    0  0.00000000000E+00  0.00000000000E+00  0.15759546984E+04  0.15759546984E+04  0.50400001928E-02 0. -1.
       -1   -1    0    0    0  501  0.00000000000E+00  0.00000000000E+00 -0.10751252218E+04  0.10751252218E+04  0.50400001928E-02 0.  1.
    10030    2    1    2    0    0  0.00000000000E+00  0.00000000000E+00  0.50082947653E+03  0.26510799202E+04  0.26033429622E+04 0.  0.
        1    1    3    3  502    0  0.31393437955E+03  0.50085365675E+03 -0.93056597040E+03  0.11024346717E+04  0.50400001928E-02 0.  1.
       -1    1    3    3    0  502 -0.31393437955E+03 -0.50085365675E+03  0.14313954469E+04  0.15486452485E+04  0.50400001928E-02 0. -1.
</event>
<event>
 5   0  0.1122628E-06  0.2583395E+04  0.7818609E-02  0.8373863E-01
        1   -1    0    0  501    0  0.00000000000E+00  0.00000000000E+00  0.26028904733E+04  0.26028904733E+04  0.50400001928E-02 0. -1.
       -1   -1    0    0    0  501  0.00000000000E+00  0.00000000000E+00 -0.64101154978E+03  0.64101154980E+03  0.50400001928E-02 0.  1.
    10030    2    1    2    0    0  0.00000000000E+00  0.00000000000E+00  0.19618789236E+04  0.32439020232E+04  0.25833953288E+04 0.  0.
        2    1    3    3  502    0  0.11818858809E+03  0.12201157141E+03 -0.62692506654E+03  0.64953091148E+03  0.25500000920E-02 0.  1.
       -2    1    3    3    0  502 -0.11818858809E+03 -0.12201157141E+03  0.25888039901E+04  0.25943711117E+04  0.25500000920E-02 0. -1.
</event>
<event>
 5   0  0.1088757E-06  0.2596612E+04  0.7818609E-02  0.8369353E-01
        1   -1    0    0  501    0  0.00000000000E+00  0.00000000000E+00  0.17085763710E+04  0.17085763711E+04  0.50400001928E-02 0.  1.
       -1   -1    0    0    0  501  0.00000000000E+00  0.00000000000E+00 -0.98655145710E+03  0.98655145711E+03  0.50400001928E-02 0. -1.
    10030    2    1    2    0    0  0.00000000000E+00  0.00000000000E+00  0.72202491394E+03  0.26951278282E+04  0.25966120299E+04 0.  0.
        5    1    3    3  502    0  0.50596850611E+02 -0.21745050198E+03 -0.96646860116E+03  0.99193165548E+03  0.46999998093E+01 0. -1.
       -5    1    3    3    0  502 -0.50596850611E+02  0.21745050198E+03  0.16884935151E+04  0.17031961727E+04  0.46999998093E+01 0.  1.
</event>
<event>
 5   0  0.1122628E-06  0.2604319E+04  0.7818609E-02  0.8366736E-01
       -1   -1    0    0    0  501  0.00000000000E+00  0.00000000000E+00  0.13248912178E+04  0.13248912178E+04  0.50400001928E-02 0.  1.
        1   -1    0    0  501    0  0.00000000000E+00  0.00000000000E+00 -0.12798174752E+04  0.12798174752E+04  0.50400001928E-02 0. -1.
    10030    2    1    2    0    0  0.00000000000E+00  0.00000000000E+00  0.45073742671E+02  0.26047086930E+04  0.26043186697E+04 0.  0.
        2    1    3    3  502    0  0.14224352072E+03  0.12100481909E+04 -0.43706332893E+03  0.12944010958E+04  0.25500000920E-02 0. -1.
       -2    1    3    3    0  502 -0.14224352072E+03 -0.12100481909E+04  0.48213707160E+03  0.13103075972E+04  0.25500000920E-02 0.  1.
</event>
<event>
 5   0  0.2586775E-06  0.2589575E+04  0.7818609E-02  0.8371751E-01
       -2   -1    0    0    0  501  0.00000000000E+00  0.00000000000E+00  0.13475208804E+04  0.13475208804E+04  0.25500000920E-02 0. -1.
        2   -1    0    0  501    0  0.00000000000E+00  0.00000000000E+00 -0.12441182468E+04  0.12441182468E+04  0.25500000920E-02 0.  1.
    10030    2    1    2    0    0  0.00000000000E+00  0.00000000000E+00  0.10340263359E+03  0.25916391271E+04  0.25895754981E+04 0.  0.
        1    1    3    3  502    0 -0.11775242539E+04  0.50270707598E+03  0.24472165582E+03  0.13035207945E+04  0.50400001928E-02 0. -1.
       -1    1    3    3    0  502  0.11775242539E+04 -0.50270707598E+03 -0.14131902223E+03  0.12881183326E+04  0.50400001928E-02 0.  1.
</event>
<event>
 5   0  0.2586775E-06  0.2576795E+04  0.7818609E-02  0.8376126E-01
        2   -1    0    0  501    0  0.00000000000E+00  0.00000000000E+00  0.23451786153E+04  0.23451786153E+04  0.25500000920E-02 0.  1.
       -2   -1    0    0    0  501  0.00000000000E+00  0.00000000000E+00 -0.70782149410E+03  0.70782149411E+03  0.25500000920E-02 0. -1.
    10030    2    1    2    0    0  0.00000000000E+00  0.00000000000E+00  0.16373571212E+04  0.30530001095E+04  0.25767947776E+04 0.  0.
        1    1    3    3  502    0  0.59817364276E+03 -0.83622854693E+03  0.17386231836E+04  0.20198763487E+04  0.50400001928E-02 0.  1.
       -1    1    3    3    0  502 -0.59817364276E+03  0.83622854693E+03 -0.10126606233E+03  0.10331237607E+04  0.50400001928E-02 0. -1.
</event>
<event>
 5   0  0.2746631E-06  0.2602228E+04  0.7818609E-02  0.8367445E-01
       -2   -1    0    0    0  501  0.00000000000E+00  0.00000000000E+00  0.12176157187E+04  0.12176157187E+04  0.25500000920E-02 0. -1.
        2   -1    0    0  501    0  0.00000000000E+00  0.00000000000E+00 -0.13903386494E+04  0.13903386494E+04  0.25500000920E-02 0.  1.
    10030    2    1    2    0    0  0.00000000000E+00  0.00000000000E+00 -0.17272293069E+03  0.26079543682E+04  0.26022284250E+04 0.  0.
        2    1    3    3  502    0 -0.54890849500E+03 -0.42003285543E+03  0.10184116617E+04  0.12308088593E+04  0.25500000920E-02 0. -1.
       -2    1    3    3    0  502  0.54890849500E+03  0.42003285543E+03 -0.11911345924E+04  0.13771455089E+04  0.25500000920E-02 0.  1.
</event>
<event>
 5   0  0.1100104E-06  0.2602510E+04  0.7818609E-02  0.8367349E-01
       -1   -1    0    0    0  501  0.00000000000E+00  0.00000000000E+00  0.13888493602E+04  0.13888493602E+04  0.50400001928E-02 0. -1.
        1   -1    0    0  501    0  0.00000000000E+00  0.00000000000E+00 -0.12191851100E+04  0.12191851100E+04  0.50400001928E-02 0.  1.
    10030    2    1    2    0    0  0.00000000000E+00  0.00000000000E+00  0.16966425023E+03  0.26080344702E+04  0.26025099116E+04 0.  0.
        4    1    3    3  502    0  0.91803865350E+03 -0.77044889784E+03  0.59273774198E+03  0.13370587561E+04  0.12699999809E+01 0. -1.
       -4    1    3    3    0  502 -0.91803865350E+03  0.77044889784E+03 -0.42307349175E+03  0.12709757141E+04  0.12699999809E+01 0.  1.
</event>
<event>
 5   0  0.1100104E-06  0.2600918E+04  0.7818609E-02  0.8367889E-01
       -1   -1    0    0    0  501  0.00000000000E+00  0.00000000000E+00  0.92805061254E+03  0.92805061256E+03  0.50400001928E-02 0.  1.
        1   -1    0    0  501    0  0.00000000000E+00  0.00000000000E+00 -0.18223076808E+04  0.18223076808E+04  0.50400001928E-02 0. -1.
    10030    2    1    2    0    0  0.00000000000E+00  0.00000000000E+00 -0.89425706821E+03  0.27503582933E+04  0.26009181144E+04 0.  0.
        4    1    3    3  502    0 -0.21714879039E+03  0.27486931824E+03  0.87722164801E+03  0.94457724507E+03  0.12699999809E+01 0.  1.
       -4    1    3    3    0  502  0.21714879039E+03 -0.27486931824E+03 -0.17714787162E+04  0.18057810482E+04  0.12699999809E+01 0. -1.
</event>
<event>
 5   0  0.1032076E-06  0.2599248E+04  0.7818609E-02  0.8368457E-01
       -1   -1    0    0    0  501  0.00000000000E+00  0.00000000000E+00  0.10426380227E+04  0.10426380228E+04  0.50400001928E-02 0. -1.
        1   -1    0    0  501    0  0.00000000000E+00  0.00000000000E+00 -0.16199513775E+04  0.16199513776E+04  0.50400001928E-02 0.  1.
    10030    2    1    2    0    0  0.00000000000E+00  0.00000000000E+00 -0.57731335481E+03  0.26625894003E+04  0.25992482769E+04 0.  0.
        1    1    3    3  502    0 -0.51940030822E+03 -0.11903965993E+04 -0.33672739562E+03  0.13417175868E+04  0.50400001928E-02 0.  1.
       -1    1    3    3    0  502  0.51940030822E+03  0.11903965993E+04 -0.24058595919E+03  0.13208718135E+04  0.50400001928E-02 0. -1.
</event>
<event>
 5   0  0.1122628E-06  0.2601000E+04  0.7818609E-02  0.8367862E-01
       -1   -1    0    0    0  501  0.00000000000E+00  0.00000000000E+00  0.79808069291E+03  0.79808069292E+03  0.50400001928E-02 0.  1.
        1   -1    0    0  501    0  0.00000000000E+00  0.00000000000E+00 -0.21192093868E+04  0.21192093868E+04  0.50400001928E-02 0. -1.
    10030    2    1    2    0    0  0.00000000000E+00  0.00000000000E+00 -0.13211286939E+04  0.29172900797E+04  0.26009998815E+04 0.  0.
        2    1    3    3  502    0 -0.36119367964E+03 -0.60331341340E+03  0.56647795271E+03  0.90296468364E+03  0.25500000920E-02 0.  1.
       -2    1    3    3    0  502  0.36119367964E+03  0.60331341340E+03 -0.18876066466E+04  0.20143253961E+04  0.25500000920E-02 0. -1.
</event>
<event>
 5   0  0.1122628E-06  0.2598224E+04  0.7818609E-02  0.8368805E-01
       -1   -1    0    0    0  501  0.00000000000E+00  0.00000000000E+00  0.10295111955E+04  0.10295111955E+04  0.50400001928E-02 0.  1.
        1   -1    0    0  501    0  0.00000000000E+00  0.00000000000E+00 -0.16393138528E+04  0.16393138528E+04  0.50400001928E-02 0. -1.
    10030    2    1    2    0    0  0.00000000000E+00  0.00000000000E+00 -0.60980265734E+03  0.26688250484E+04  0.25982239815E+04 0.  0.
        2    1    3    3  502    0 -0.27296179967E+03  0.49160461261E+03 -0.15078381136E+04  0.16092728222E+04  0.25500000920E-02 0. -1.
       -2    1    3    3    0  502  0.27296179967E+03 -0.49160461261E+03  0.89803545631E+03  0.10595522262E+04  0.25500000920E-02 0.  1.
</event>
<event>
 5   0  0.2820028E-06  0.2589410E+04  0.7818609E-02  0.8371807E-01
       -2   -1    0    0    0  501  0.00000000000E+00  0.00000000000E+00  0.14687009056E+04  0.14687009056E+04  0.25500000920E-02 0. -1.
        2   -1    0    0  501    0  0.00000000000E+00  0.00000000000E+00 -0.11413219752E+04  0.11413219752E+04  0.25500000920E-02 0.  1.
    10030    2    1    2    0    0  0.00000000000E+00  0.00000000000E+00  0.32737893043E+03  0.26100228808E+04  0.25894096768E+04 0.  0.
        3    1    3    3  502    0 -0.77267526545E+03 -0.79231031871E+03  0.84095939978E+03  0.13899623841E+04  0.10100000352E+00 0. -1.
       -3    1    3    3    0  502  0.77267526545E+03  0.79231031871E+03 -0.51358046934E+03  0.12200604967E+04  0.10100000352E+00 0.  1.
</event>
<event>
 5   0  0.2586775E-06  0.2600616E+04  0.7818609E-02  0.8367992E-01
       -2   -1    0    0    0  501  0.00000000000E+00  0.00000000000E+00  0.10477767342E+04  0.10477767342E+04  0.25500000920E-02 0.  1.
        2   -1    0    0  501    0  0.00000000000E+00  0.00000000000E+00 -0.16137038349E+04  0.16137038349E+04  0.25500000920E-02 0. -1.
    10030    2    1    2    0    0  0.00000000000E+00  0.00000000000E+00 -0.56592710071E+03  0.26614805692E+04  0.26006163379E+04 0.  0.
        1    1    3    3  502    0  0.10871031793E+04  0.21536548538E+03  0.41312084829E+03  0.11827275468E+04  0.50400001928E-02 0.  1.
       -1    1    3    3    0  502 -0.10871031793E+04 -0.21536548538E+03 -0.97904794900E+03  0.14787530224E+04  0.50400001928E-02 0. -1.
</event>
<event>
 5   0  0.2820028E-06  0.2599218E+04  0.7818609E-02  0.8368467E-01
       -2   -1    0    0    0  501  0.00000000000E+00  0.00000000000E+00  0.15620390161E+04  0.15620390162E+04  0.25500000920E-02 0. -1.
        2   -1    0    0  501    0  0.00000000000E+00  0.00000000000E+00 -0.10812688402E+04  0.10812688402E+04  0.25500000920E-02 0.  1.
    10030    2    1    2    0    0  0.00000000000E+00  0.00000000000E+00  0.48077017598E+03  0.26433078563E+04  0.25992184328E+04 0.  0.
        3    1    3    3  502    0 -0.15885568572E+03 -0.12229125458E+04 -0.17673557215E+03  0.12457871793E+04  0.10100000352E+00 0.  1.
       -3    1    3    3    0  502  0.15885568572E+03  0.12229125458E+04  0.65750574813E+03  0.13975206770E+04  0.10100000352E+00 0. -1.
</event>
<event>
 5   0  0.1032076E-06  0.2631792E+04  0.7818609E-02  0.8357482E-01
        1   -1    0    0  501    0  0.00000000000E+00  0.00000000000E+00  0.22436185948E+04  0.22436185948E+04  0.50400001928E-02 0.  1.
       -1   -1    0    0    0  501  0.00000000000E+00  0.00000000000E+00 -0.77178095534E+03  0.77178095536E+03  0.50400001928E-02 0. -1.
    10030    2    1    2    0    0  0.00000000000E+00  0.00000000000E+00  0.14718376395E+04  0.30153995502E+04  0.26317918630E+04 0.  0.
        1    1    3    3  502    0 -0.10969316247E+04 -0.69133642611E+03  0.47875508063E+03  0.13821763529E+04  0.50400001928E-02 0.  1.
       -1    1    3    3    0  502  0.10969316247E+04  0.69133642611E+03  0.99308255883E+03  0.16332231972E+04  0.50400001928E-02 0. -1.
</event>
<event>
 5   0  0.2746631E-06  0.2601999E+04  0.7818609E-02  0.8367522E-01
       -2   -1    0    0    0  501  0.00000000000E+00  0.00000000000E+00  0.14015052258E+04  0.14015052258E+04  0.25500000920E-02 0.  1.
        2   -1    0    0  501    0  0.00000000000E+00  0.00000000000E+00 -0.12077017589E+04  0.12077017589E+04  0.25500000920E-02 0. -1.
    10030    2    1    2    0    0  0.00000000000E+00  0.00000000000E+00  0.19380346694E+03  0.26092069848E+04  0.26019994822E+04 0.  0.
        2    1    3    3  502    0  0.24548344569E+03 -0.11963535720E+04  0.54655919778E+03  0.13380025964E+04  0.25500000920E-02 0. -1.
       -2    1    3    3    0  502 -0.24548344569E+03  0.11963535720E+04 -0.35275573084E+03  0.12712043884E+04  0.25500000920E-02 0.  1.
</event>
<event>
 5   0  0.2746631E-06  0.2600800E+04  0.7818609E-02  0.8367930E-01
        2   -1    0    0  501    0  0.00000000000E+00  0.00000000000E+00  0.89133061757E+03  0.89133061757E+03  0.25500000920E-02 0.  1.
       -2   -1    0    0    0  501  0.00000000000E+00  0.00000000000E+00 -0.18972084091E+04  0.18972084091E+04  0.25500000920E-02 0. -1.
    10030    2    1    2    0    0  0.00000000000E+00  0.00000000000E+00 -0.10058777916E+04  0.27885390267E+04  0.26007998331E+04 0.  0.
        2    1    3    3  502    0 -0.17477529583E+03  0.19589629927E+03 -0.18684997043E+04  0.18868526464E+04  0.25500000920E-02 0. -1.
       -2    1    3    3    0  502  0.17477529583E+03 -0.19589629927E+03  0.86262191275E+03  0.90168638033E+03  0.25500000920E-02 0.  1.
</event>
<event>
 5   0  0.1032076E-06  0.2596895E+04  0.7818609E-02  0.8369257E-01
       -1   -1    0    0    0  501  0.00000000000E+00  0.00000000000E+00  0.98457311929E+03  0.98457311930E+03  0.50400001928E-02 0. -1.
        1   -1    0    0  501    0  0.00000000000E+00  0.00000000000E+00 -0.17123823674E+04  0.17123823675E+04  0.50400001928E-02 0.  1.
    10030    2    1    2    0    0  0.00000000000E+00  0.00000000000E+00 -0.72780924816E+03  0.26969554868E+04  0.25968947988E+04 0.  0.
        1    1    3    3  502    0  0.12865310997E+04 -0.79376233327E+02 -0.20133956407E+03  0.13046074034E+04  0.50400001928E-02 0. -1.
       -1    1    3    3    0  502 -0.12865310997E+04  0.79376233327E+02 -0.52646968408E+03  0.13923480834E+04  0.50400001928E-02 0.  1.
</event>
<event>
 5   0  0.1100104E-06  0.2595397E+04  0.7818609E-02  0.8369766E-01
       -1   -1    0    0    0  501  0.00000000000E+00  0.00000000000E+00  0.66076415574E+03  0.66076415576E+03  0.50400001928E-02 0.  1.
        1   -1    0    0  501    0  0.00000000000E+00  0.00000000000E+00 -0.25485967961E+04  0.25485967961E+04  0.50400001928E-02 0. -1.
    10030    2    1    2    0    0  0.00000000000E+00  0.00000000000E+00 -0.18878326403E+04  0.32093609519E+04  0.25953970103E+04 0.  0.
        4    1    3    3  502    0 -0.45450182086E+03  0.82640772250E+03  0.15828572978E+03  0.95633551337E+03  0.12699999809E+01 0.  1.
       -4    1    3    3    0  502  0.45450182086E+03 -0.82640772250E+03 -0.20461183701E+04  0.22530254385E+04  0.12699999809E+01 0. -1.
</event>
<event>
 5   0  0.1088757E-06  0.2599302E+04  0.7818609E-02  0.8368438E-01
       -1   -1    0    0    0  501  0.00000000000E+00  0.00000000000E+00  0.15813165121E+04  0.15813165121E+04  0.50400001928E-02 0.  1.
        1   -1    0    0  501    0  0.00000000000E+00  0.00000000000E+00 -0.10681563239E+04  0.10681563239E+04  0.50400001928E-02 0. -1.
    10030    2    1    2    0    0  0.00000000000E+00  0.00000000000E+00  0.51316018814E+03  0.26494728360E+04  0.25993023930E+04 0.  0.
        5    1    3    3  502    0 -0.92456787776E+03 -0.41956776549E+02 -0.67343688180E+03  0.11446071184E+04  0.46999998093E+01 0. -1.
       -5    1    3    3    0  502  0.92456787776E+03  0.41956776549E+02  0.11865970699E+04  0.15048657176E+04  0.46999998093E+01 0.  1.
</event>
<event>
 5   0  0.2705807E-06  0.2604907E+04  0.7818609E-02  0.8366536E-01
        2   -1    0    0  501    0  0.00000000000E+00  0.00000000000E+00  0.12565868389E+04  0.12565868389E+04  0.25500000920E-02 0.  1.
       -2   -1    0    0    0  501  0.00000000000E+00  0.00000000000E+00 -0.13499941709E+04  0.13499941709E+04  0.25500000920E-02 0. -1.
    10030    2    1    2    0    0  0.00000000000E+00  0.00000000000E+00 -0.93407332073E+02  0.26065810098E+04  0.26049068373E+04 0.  0.
        4    1    3    3  502    0  0.97635017440E+03 -0.24162739701E+03  0.78131824165E+03  0.12736181805E+04  0.12699999809E+01 0.  1.
       -4    1    3    3    0  502 -0.97635017440E+03  0.24162739701E+03 -0.87472557372E+03  0.13329628293E+04  0.12699999809E+01 0. -1.
</event>
<event>
 5   0  0.1088757E-06  0.2524180E+04  0.7818609E-02  0.8394422E-01
        1   -1    0    0  501    0  0.00000000000E+00  0.00000000000E+00  0.14633678530E+04  0.14633678530E+04  0.50400001928E-02 0.  1.
       -1   -1    0    0    0  501  0.00000000000E+00  0.00000000000E+00 -0.10884963303E+04  0.10884963303E+04  0.50400001928E-02 0. -1.
    10030    2    1    2    0    0  0.00000000000E+00  0.00000000000E+00  0.37487152271E+03  0.25518641833E+04  0.25241795006E+04 0.  0.
        5    1    3    3  502    0  0.23503230724E+03 -0.63258610253E+03 -0.89077126689E+03  0.11175423493E+04  0.46999998093E+01 0. -1.
       -5    1    3    3    0  502 -0.23503230724E+03  0.63258610253E+03  0.12656427896E+04  0.14343218340E+04  0.46999998093E+01 0.  1.
</event>
<event>
 5   0  0.2586775E-06  0.2602221E+04  0.7818609E-02  0.8367447E-01
       -2   -1    0    0    0  501  0.00000000000E+00  0.00000000000E+00  0.10737543200E+04  0.10737543200E+04  0.25500000920E-02 0.  1.
        2   -1    0    0  501    0  0.00000000000E+00  0.00000000000E+00 -0.15766074161E+04  0.15766074161E+04  0.25500000920E-02 0. -1.
    10030    2    1    2    0    0  0.00000000000E+00  0.00000000000E+00 -0.50285309611E+03  0.26503617360E+04  0.26022213771E+04 0.  0.
        1    1    3    3  502    0  0.78054608721E+03 -0.20915417883E+03  0.78718918581E+03  0.11281243190E+04  0.50400001928E-02 0.  1.
       -1    1    3    3    0  502 -0.78054608721E+03  0.20915417883E+03 -0.12900422819E+04  0.15222374171E+04  0.50400001928E-02 0. -1.
</event>
<event>
 5   0  0.1088757E-06  0.2620037E+04  0.7818609E-02  0.8361427E-01
       -1   -1    0    0    0  501  0.00000000000E+00  0.00000000000E+00  0.10207183666E+04  0.10207183666E+04  0.50400001928E-02 0. -1.
        1   -1    0    0  501    0  0.00000000000E+00  0.00000000000E+00 -0.16813146626E+04  0.16813146626E+04  0.50400001928E-02 0.  1.
    10030    2    1    2    0    0  0.00000000000E+00  0.00000000000E+00 -0.66059629596E+03  0.27020330292E+04  0.26200372182E+04 0.  0.
        5    1    3    3  502    0  0.11797339466E+04  0.56218644354E+03 -0.23633763756E+03  0.13280449356E+04  0.46999998093E+01 0. -1.
       -5    1    3    3    0  502 -0.11797339466E+04 -0.56218644354E+03 -0.42425865840E+03  0.13739880936E+04  0.46999998093E+01 0.  1.
</event>
<event>
 5   0  0.1055179E-06  0.2599776E+04  0.7818609E-02  0.8368277E-01
       -1   -1    0    0    0  501  0.00000000000E+00  0.00000000000E+00  0.71138784420E+03  0.71138784422E+03  0.50400001928E-02 0.  1.
        1   -1    0    0  501    0  0.00000000000E+00  0.00000000000E+00 -0.23752282098E+04  0.23752282098E+04  0.50400001928E-02 0. -1.
    10030    2    1    2    0    0  0.00000000000E+00  0.00000000000E+00 -0.16638403656E+04  0.30866160540E+04  0.25997757408E+04 0.  0.
        3    1    3    3  502    0 -0.42975389258E+03  0.53075034556E+03  0.48123936143E+03  0.83544938248E+03  0.10100000352E+00 0.  1.
       -3    1    3    3    0  502  0.42975389258E+03 -0.53075034556E+03 -0.21450797270E+04  0.22511666715E+04  0.10100000352E+00 0. -1.
</event>
<event>
 5   0  0.1055179E-06  0.2596483E+04  0.7818609E-02  0.8369397E-01
        1   -1    0    0  501    0  0.00000000000E+00  0.00000000000E+00  0.90825547752E+03  0.90825547754E+03  0.50400001928E-02 0.  1.
       -1   -1    0    0    0  501  0.00000000000E+00  0.00000000000E+00 -0.18556796157E+04  0.18556796157E+04  0.50400001928E-02 0. -1.
    10030    2    1    2    0    0  0.00000000000E+00  0.00000000000E+00 -0.94742413813E+03  0.27639350932E+04  0.25964831411E+04 0.  0.
        3    1    3    3  502    0  0.50850735642E+03 -0.59534857697E+03 -0.15760711026E+04  0.17598351600E+04  0.10100000352E+00 0. -1.
       -3    1    3    3    0  502 -0.50850735642E+03  0.59534857697E+03  0.62864696451E+03  0.10040999332E+04  0.10100000352E+00 0.  1.
</event>
<event>
 5   0  0.1088757E-06  0.2603380E+04  0.7818609E-02  0.8367054E-01
        1   -1    0    0  501    0  0.00000000000E+00  0.00000000000E+00  0.17239753073E+04  0.17239753073E+04  0.50400001928E-02 0.  1.
       -1   -1    0    0    0  501  0.00000000000E+00  0.00000000000E+00 -0.98284323071E+03  0.98284323072E+03  0.50400001928E-02 0. -1.
    10030    2    1    2    0    0  0.00000000000E+00  0.00000000000E+00  0.74113207662E+03  0.27068185381E+04  0.26033804645E+04 0.  0.
        5    1    3    3  502    0  0.66419690685E+03 -0.10032631914E+04  0.88696954433E+03  0.14948015336E+04  0.46999998093E+01 0.  1.
       -5    1    3    3    0  502 -0.66419690685E+03  0.10032631914E+04 -0.14583746771E+03  0.12120170045E+04  0.46999998093E+01 0. -1.
</event>
<event>
 5   0  0.2705807E-06  0.2599546E+04  0.7818609E-02  0.8368355E-01
       -2   -1    0    0    0  501  0.00000000000E+00  0.00000000000E+00  0.88027918940E+03  0.88027918940E+03  0.25500000920E-02 0. -1.
        2   -1    0    0  501    0  0.00000000000E+00  0.00000000000E+00 -0.19191750693E+04  0.19191750693E+04  0.25500000920E-02 0.  1.
    10030    2    1    2    0    0  0.00000000000E+00  0.00000000000E+00 -0.10388958799E+04  0.27994542587E+04  0.25995460176E+04 0.  0.
        4    1    3    3  502    0 -0.70279103211E+03  0.46415591860E+03  0.54665832211E+03  0.10040880866E+04  0.12699999809E+01 0. -1.
       -4    1    3    3    0  502  0.70279103211E+03 -0.46415591860E+03 -0.15855542020E+04  0.17953661721E+04  0.12699999809E+01 0.  1.
</event>
<event>
 5   0  0.2820028E-06  0.2598070E+04  0.7818609E-02  0.8368857E-01
       -2   -1    0    0    0  501  0.00000000000E+00  0.00000000000E+00  0.11228027543E+04  0.11228027543E+04  0.25500000920E-02 0. -1.
        2   -1    0    0  501    0  0.00000000000E+00  0.00000000000E+00 -0.15029280524E+04  0.15029280524E+04  0.25500000920E-02 0.  1.
    10030    2    1    2    0    0  0.00000000000E+00  0.00000000000E+00 -0.38012529803E+03  0.26257308067E+04  0.25980698657E+04 0.  0.
        3    1    3    3  502    0  0.11629295140E+04  0.28282884716E+03  0.32038352333E+03  0.12389684513E+04  0.10100000352E+00 0. -1.
       -3    1    3    3    0  502 -0.11629295140E+04 -0.28282884716E+03 -0.70050882137E+03  0.13867623553E+04  0.10100000352E+00 0.  1.
</event>
<event>
 5   0  0.2746631E-06  0.2601130E+04  0.7818609E-02  0.8367818E-01
       -2   -1    0    0    0  501  0.00000000000E+00  0.00000000000E+00  0.99096397103E+03  0.99096397103E+03  0.25500000920E-02 0.  1.
        2   -1    0    0  501    0  0.00000000000E+00  0.00000000000E+00 -0.17068923601E+04  0.17068923601E+04  0.25500000920E-02 0. -1.
    10030    2    1    2    0    0  0.00000000000E+00  0.00000000000E+00 -0.71592838904E+03  0.26978563311E+04  0.26011296248E+04 0.  0.
        2    1    3    3  502    0  0.11700004827E+03 -0.82755450771E+03 -0.13914794069E+04  0.16231914288E+04  0.25500000920E-02 0. -1.
       -2    1    3    3    0  502 -0.11700004827E+03  0.82755450771E+03  0.67555101789E+03  0.10746649023E+04  0.25500000920E-02 0.  1.
</event>
<event>
 5   0  0.2586775E-06  0.2590874E+04  0.7818609E-02  0.8371308E-01
       -2   -1    0    0    0  501  0.00000000000E+00  0.00000000000E+00  0.94328385942E+03  0.94328385942E+03  0.25500000920E-02 0. -1.
        2   -1    0    0  501    0  0.00000000000E+00  0.00000000000E+00 -0.17790584981E+04  0.17790584981E+04  0.25500000920E-02 0.  1.
    10030    2    1    2    0    0  0.00000000000E+00  0.00000000000E+00 -0.83577463871E+03  0.27223423575E+04  0.25908741121E+04 0.  0.
        1    1    3    3  502    0 -0.10664412786E+03 -0.86142277504E+03  0.59253999173E+03  0.10509642283E+04  0.50400001928E-02 0. -1.
       -1    1    3    3    0  502  0.10664412786E+03  0.86142277504E+03 -0.14283146304E+04  0.16713781292E+04  0.50400001928E-02 0.  1.
</event>
<event>
 5   0  0.2623368E-06  0.2573512E+04  0.7818609E-02  0.8377255E-01
       -2   -1    0    0    0  501  0.00000000000E+00  0.00000000000E+00  0.99476877475E+03  0.99476877476E+03  0.25500000920E-02 0.  1.
        2   -1    0    0  501    0  0.00000000000E+00  0.00000000000E+00 -0.16644479921E+04  0.16644479921E+04  0.25500000920E-02 0. -1.
    10030    2    1    2    0    0  0.00000000000E+00  0.00000000000E+00 -0.66967921734E+03  0.26592167669E+04  0.25735119116E+04 0.  0.
        5    1    3    3  502    0  0.77692706223E+03  0.45746130719E+03  0.61379320069E+03  0.10907110941E+04  0.46999998093E+01 0.  1.
       -5    1    3    3    0  502 -0.77692706223E+03 -0.45746130719E+03 -0.12834724180E+04  0.15685056727E+04  0.46999998093E+01 0. -1.
</event>
<event>
 5   0  0.2820028E-06  0.2601124E+04  0.7818609E-02  0.8367819E-01
       -2   -1    0    0    0  501  0.00000000000E+00  0.00000000000E+00  0.74563454784E+03  0.74563454785E+03  0.25500000920E-02 0.  1.
        2   -1    0    0  501    0  0.00000000000E+00  0.00000000000E+00 -0.22684866294E+04  0.22684866294E+04  0.25500000920E-02 0. -1.
    10030    2    1    2    0    0  0.00000000000E+00  0.00000000000E+00 -0.15228520816E+04  0.30141211772E+04  0.26011243740E+04 0.  0.
        3    1    3    3  502    0 -0.12473723132E+04 -0.19491383694E+02 -0.11874152531E+04  0.17222870247E+04  0.10100000352E+00 0. -1.
       -3    1    3    3    0  502  0.12473723132E+04  0.19491383694E+02 -0.33543682843E+03  0.12918341526E+04  0.10100000352E+00 0.  1.
</event>
<event>
 5   0  0.1032076E-06  0.2599592E+04  0.7818609E-02  0.8368340E-01
       -1   -1    0    0    0  501  0.00000000000E+00  0.00000000000E+00  0.13587240529E+04  0.13587240529E+04  0.50400001928E-02 0. -1.
        1   -1    0    0  501    0  0.00000000000E+00  0.00000000000E+00 -0.12434234168E+04  0.12434234168E+04  0.50400001928E-02 0.  1.
    10030    2    1    2    0    0  0.00000000000E+00  0.00000000000E+00  0.11530063614E+03  0.26021474697E+04  0.25995917405E+04 0.  0.
        1    1    3    3  502    0 -0.10619491815E+04 -0.74516016185E+03 -0.22862417097E+02  0.12975062316E+04  0.50400001928E-02 0. -1.
       -1    1    3    3    0  502  0.10619491815E+04  0.74516016185E+03  0.13816305323E+03  0.13046412381E+04  0.50400001928E-02 0.  1.
</event>
<event>
 5   0  0.1055179E-06  0.2596169E+04  0.7818609E-02  0.8369504E-01
       -1   -1    0    0    0  501  0.00000000000E+00  0.00000000000E+00  0.13730504279E+04  0.13730504279E+04  0.50400001928E-02 0. -1.
        1   -1    0    0  501    0  0.00000000000E+00  0.00000000000E+00 -0.12272112576E+04  0.12272112576E+04  0.50400001928E-02 0.  1.
    10030    2    1    2    0    0  0.00000000000E+00  0.00000000000E+00  0.14583917039E+03  0.26002616855E+04  0.25961686712E+04 0.  0.
        3    1    3    3  502    0 -0.38165166678E+03 -0.30654088539E+03 -0.11312227345E+04  0.12325949028E+04  0.10100000352E+00 0.  1.
       -3    1    3    3    0  502  0.38165166678E+03  0.30654088539E+03  0.12770619049E+04  0.13676667827E+04  0.10100000352E+00 0. -1.
</event>
<event>
 5   0  0.1088757E-06  0.2620652E+04  0.7818609E-02  0.8361220E-01
        1   -1    0    0  501    0  0.00000000000E+00  0.00000000000E+00  0.15081384618E+04  0.15081384618E+04  0.50400001928E-02 0. -1.
       -1   -1    0    0    0  501  0.00000000000E+00  0.00000000000E+00 -0.11384590412E+04  0.11384590412E+04  0.50400001928E-02 0.  1.
    10030    2    1    2    0    0  0.00000000000E+00  0.00000000000E+00  0.36967942064E+03  0.26465975031E+04  0.26206517260E+04 0.  0.
        5    1    3    3  502    0  0.50525626016E+03 -0.44476514522E+03 -0.95049322935E+03  0.11647142962E+04  0.46999998093E+01 0.  1.
       -5    1    3    3    0  502 -0.50525626016E+03  0.44476514522E+03  0.13201726500E+04  0.14818832068E+04  0.46999998093E+01 0. -1.
</event>
<event>
 5   0  0.1055179E-06  0.2600188E+04  0.7818609E-02  0.8368137E-01
       -1   -1    0    0    0  501  0.00000000000E+00  0.00000000000E+00  0.18272420826E+04  0.18272420826E+04  0.50400001928E-02 0.  1.
        1   -1    0    0  501    0  0.00000000000E+00  0.00000000000E+00 -0.92502519455E+03  0.92502519457E+03  0.50400001928E-02 0. -1.
    10030    2    1    2    0    0  0.00000000000E+00  0.00000000000E+00  0.90221688805E+03  0.27522672772E+04  0.26001884262E+04 0.  0.
        3    1    3    3  502    0 -0.54332204920E+03 -0.10875160751E+04 -0.36663614810E+02  0.12162377620E+04  0.10100000352E+00 0.  1.
       -3    1    3    3    0  502  0.54332204920E+03  0.10875160751E+04  0.93888050286E+03  0.15360295152E+04  0.10100000352E+00 0. -1.
</event>
<event>
 5   0  0.2746631E-06  0.2592661E+04  0.7818609E-02  0.8370698E-01
       -2   -1    0    0    0  501  0.00000000000E+00  0.00000000000E+00  0.10749322574E+04  0.10749322574E+04  0.25500000920E-02 0. -1.
        2   -1    0    0  501    0  0.00000000000E+00  0.00000000000E+00 -0.15633295592E+04  0.15633295593E+04  0.25500000920E-02 0.  1.
    10030    2    1    2    0    0  0.00000000000E+00  0.00000000000E+00 -0.48839730186E+03  0.26382618166E+04  0.25926614682E+04 0.  0.
        2    1    3    3  502    0 -0.73500561125E+03  0.35911248572E+03  0.77911185467E+03  0.11296947854E+04  0.25500000920E-02 0. -1.
       -2    1    3    3    0  502  0.73500561125E+03 -0.35911248572E+03 -0.12675091565E+04  0.15085670313E+04  0.25500000920E-02 0.  1.
</event>
<event>
 5   0  0.2820028E-06  0.2598782E+04  0.7818609E-02  0.8368615E-01
        2   -1    0    0  501    0  0.00000000000E+00  0.00000000000E+00  0.14305791322E+04  0.14305791322E+04  0.25500000920E-02 0.  1.
       -2   -1    0    0    0  501  0.00000000000E+00  0.00000000000E+00 -0.11802332078E+04  0.11802332078E+04  0.25500000920E-02 0. -1.
    10030    2    1    2    0    0  0.00000000000E+00  0.00000000000E+00  0.25034592440E+03  0.26108123400E+04  0.25987820211E+04 0.  0.
        3    1    3    3  502    0  0.85876606923E+03  0.60253851325E+03 -0.64511312586E+03  0.12315448741E+04  0.10100000352E+00 0. -1.
       -3    1    3    3    0  502 -0.85876606923E+03 -0.60253851325E+03  0.89545905026E+03  0.13792674659E+04  0.10100000352E+00 0.  1.
</event>
<event>
 5   0  0.1055179E-06  0.2593816E+04  0.7818609E-02  0.8370305E-01
        1   -1    0    0  501    0  0.00000000000E+00  0.00000000000E+00  0.30981194481E+04  0.30981194482E+04  0.50400001928E-02 0.  1.
       -1   -1    0    0    0  501  0.00000000000E+00  0.00000000000E+00 -0.54290029545E+03  0.54290029547E+03  0.50400001928E-02 0. -1.
    10030    2    1    2    0    0  0.00000000000E+00  0.00000000000E+00  0.25552191527E+04  0.36410197436E+04  0.25938156941E+04 0.  0.
        3    1    3    3  502    0 -0.12494134936E+04 -0.17651985422E+03  0.85701318981E+03  0.15253409307E+04  0.10100000352E+00 0. -1.
       -3    1    3    3    0  502  0.12494134936E+04  0.17651985422E+03  0.16982059629E+04  0.21156788130E+04  0.10100000352E+00 0.  1.
</event>
<event>
 5   0  0.1122628E-06  0.2602450E+04  0.7818609E-02  0.8367369E-01
        1   -1    0    0  501    0  0.00000000000E+00  0.00000000000E+00  0.16721028399E+04  0.16721028399E+04  0.50400001928E-02 0.  1.
       -1   -1    0    0    0  501  0.00000000000E+00  0.00000000000E+00 -0.10126093693E+04  0.10126093693E+04  0.50400001928E-02 0. -1.
    10030    2    1    2    0    0  0.00000000000E+00  0.00000000000E+00  0.65949347063E+03  0.26847122092E+04  0.26024503854E+04 0.  0.
        2    1    3    3  502    0 -0.45179770962E+03  0.71603278470E+03 -0.68959759045E+03  0.10919564808E+04  0.25500000920E-02 0. -1.
       -2    1    3    3    0  502  0.45179770962E+03 -0.71603278470E+03  0.13490910611E+04  0.15927557284E+04  0.25500000920E-02 0.  1.
</event>
<event>
 5   0  0.2746631E-06  0.2598101E+04  0.7818609E-02  0.8368847E-01
       -2   -1    0    0    0  501  0.00000000000E+00  0.00000000000E+00  0.98651116454E+03  0.98651116454E+03  0.25500000920E-02 0. -1.
        2   -1    0    0  501    0  0.00000000000E+00  0.00000000000E+00 -0.17106063493E+04  0.17106063493E+04  0.25500000920E-02 0.  1.
    10030    2    1    2    0    0  0.00000000000E+00  0.00000000000E+00 -0.72409518475E+03  0.26971175138E+04  0.25981010463E+04 0.  0.
        2    1    3    3  502    0  0.18856195909E+03  0.12846502487E+04 -0.31987436510E+03  0.13372365099E+04  0.25500000920E-02 0. -1.
       -2    1    3    3    0  502 -0.18856195909E+03 -0.12846502487E+04 -0.40422081965E+03  0.13598810040E+04  0.25500000920E-02 0.  1.
</event>
<event>
 5   0  0.1100104E-06  0.2527152E+04  0.7818609E-02  0.8393376E-01
        1   -1    0    0  501    0  0.00000000000E+00  0.00000000000E+00  0.89366673217E+03  0.89366673218E+03  0.50400001928E-02 0.  1.
       -1   -1    0    0    0  501  0.00000000000E+00  0.00000000000E+00 -0.17865985671E+04  0.17865985671E+04  0.50400001928E-02 0. -1.
    10030    2    1    2    0    0  0.00000000000E+00  0.00000000000E+00 -0.89293183494E+03  0.26802652993E+04  0.25271515215E+04 0.  0.
        4    1    3    3  502    0  0.80363410411E+03  0.97465011091E+03 -0.41551786705E+03  0.13298222899E+04  0.12699999809E+01 0. -1.
       -4    1    3    3    0  502 -0.80363410411E+03 -0.97465011091E+03 -0.47741396789E+03  0.13504430094E+04  0.12699999809E+01 0.  1.
</event>
<event>
 5   0  0.9197000E-07  0.2587589E+04  0.7818609E-02  0.8372429E-01
       -3   -1    0    0    0  501  0.00000000000E+00  0.00000000000E+00  0.12421761114E+04  0.12421761155E+04  0.10100000352E+00 0.  1.
        3   -1    0    0  501    0  0.00000000000E+00  0.00000000000E+00 -0.13475579845E+04  0.13475579882E+04  0.10100000352E+00 0. -1.
    10030    2    1    2    0    0  0.00000000000E+00  0.00000000000E+00 -0.10538187307E+03  0.25897341037E+04  0.25875891074E+04 0.  0.
        5    1    3    3  502    0  0.48832670256E+03 -0.48556328019E+03 -0.11488831291E+04  0.13394734793E+04  0.46999998093E+01 0. -1.
       -5    1    3    3    0  502 -0.48832670256E+03  0.48556328019E+03  0.10435012560E+04  0.12502606244E+04  0.46999998093E+01 0.  1.
</event>
<event>
 5   0  0.2586775E-06  0.2596235E+04  0.7818609E-02  0.8369481E-01
       -2   -1    0    0    0  501  0.00000000000E+00  0.00000000000E+00  0.13557811170E+04  0.13557811170E+04  0.25500000920E-02 0. -1.
        2   -1    0    0  501    0  0.00000000000E+00  0.00000000000E+00 -0.12429063081E+04  0.12429063081E+04  0.25500000920E-02 0.  1.
    10030    2    1    2    0    0  0.00000000000E+00  0.00000000000E+00  0.11287480896E+03  0.25986874251E+04  0.25962348913E+04 0.  0.
        1    1    3    3  502    0  0.11991611932E+04  0.49694259276E+03  0.69464878315E+02  0.12999095650E+04  0.50400001928E-02 0.  1.
       -1    1    3    3    0  502 -0.11991611932E+04 -0.49694259276E+03  0.43409930649E+02  0.12987778601E+04  0.50400001928E-02 0. -1.
</event>
<event>
 5   0  0.1100104E-06  0.2600033E+04  0.7818609E-02  0.8368190E-01
        1   -1    0    0  501    0  0.00000000000E+00  0.00000000000E+00  0.21002143851E+04  0.21002143851E+04  0.50400001928E-02 0.  1.
       -1   -1    0    0    0  501  0.00000000000E+00  0.00000000000E+00 -0.80470023518E+03  0.80470023519E+03  0.50400001928E-02 0. -1.
    10030    2    1    2    0    0  0.00000000000E+00  0.00000000000E+00  0.12955141499E+04  0.29049146203E+04  0.26000330841E+04 0.  0.
        4    1    3    3  502    0 -0.11451184340E+04  0.10583157757E+03 -0.29587515616E+02  0.11503797567E+04  0.12699999809E+01 0. -1.
       -4    1    3    3    0  502  0.11451184340E+04 -0.10583157757E+03  0.13251016655E+04  0.17545348636E+04  0.12699999809E+01 0.  1.
</event>
<event>
 5   0  0.1055179E-06  0.2603268E+04  0.7818609E-02  0.8367092E-01
       -1   -1    0    0    0  501  0.00000000000E+00  0.00000000000E+00  0.72792959205E+03  0.72792959206E+03  0.50400001928E-02 0.  1.
        1   -1    0    0  501    0  0.00000000000E+00  0.00000000000E+00 -0.23274930929E+04  0.23274930929E+04  0.50400001928E-02 0. -1.
    10030    2    1    2    0    0  0.00000000000E+00  0.00000000000E+00 -0.15995635009E+04  0.30554226850E+04  0.26032680213E+04 0.  0.
        3    1    3    3  502    0  0.87212509570E+03 -0.20288242587E+03 -0.19085825157E+04  0.21081865882E+04  0.10100000352E+00 0. -1.
       -3    1    3    3    0  502 -0.87212509570E+03  0.20288242587E+03  0.30901901484E+03  0.94723609677E+03  0.10100000352E+00 0.  1.
</event>
<event>
 5   0  0.1122628E-06  0.2595816E+04  0.7818609E-02  0.8369624E-01
        1   -1    0    0  501    0  0.00000000000E+00  0.00000000000E+00  0.18091189421E+04  0.18091189422E+04  0.50400001928E-02 0.  1.
       -1   -1    0    0    0  501  0.00000000000E+00  0.00000000000E+00 -0.93115253573E+03  0.93115253575E+03  0.50400001928E-02 0. -1.
    10030    2    1    2    0    0  0.00000000000E+00  0.00000000000E+00  0.87796640641E+03  0.27402714779E+04  0.25958163960E+04 0.  0.
        2    1    3    3  502    0 -0.15151154135E+03 -0.68959426843E+03 -0.71069083062E+03  0.10017871326E+04  0.25500000920E-02 0. -1.
       -2    1    3    3    0  502  0.15151154135E+03  0.68959426843E+03  0.15886572370E+04  0.17384843453E+04  0.25500000920E-02 0.  1.
</event>
<event>
 5   0  0.2586775E-06  0.2598373E+04  0.7818609E-02  0.8368754E-01
        2   -1    0    0  501    0  0.00000000000E+00  0.00000000000E+00  0.16517353322E+04  0.16517353322E+04  0.25500000920E-02 0. -1.
       -2   -1    0    0    0  501  0.00000000000E+00  0.00000000000E+00 -0.10218865503E+04  0.10218865503E+04  0.25500000920E-02 0.  1.
    10030    2    1    2    0    0  0.00000000000E+00  0.00000000000E+00  0.62984878190E+03  0.26736218826E+04  0.25983734302E+04 0.  0.
        1    1    3    3  502    0 -0.73516951555E+02  0.12481290785E+04  0.67821451253E+03  0.14223944122E+04  0.50400001928E-02 0. -1.
       -1    1    3    3    0  502  0.73516951555E+02 -0.12481290785E+04 -0.48365730634E+02  0.12512274704E+04  0.50400001928E-02 0.  1.
</event>
<event>
 5   0  0.2623368E-06  0.2602851E+04  0.7818609E-02  0.8367233E-01
       -2   -1    0    0    0  501  0.00000000000E+00  0.00000000000E+00  0.13575236492E+04  0.13575236492E+04  0.25500000920E-02 0. -1.
        2   -1    0    0  501    0  0.00000000000E+00  0.00000000000E+00 -0.12476456392E+04  0.12476456392E+04  0.25500000920E-02 0.  1.
    10030    2    1    2    0    0  0.00000000000E+00  0.00000000000E+00  0.10987800999E+03  0.26051692883E+04  0.26028510990E+04 0.  0.
        5    1    3    3  502    0 -0.56000651394E+03 -0.46884270249E+03  0.11330546117E+04  0.13480562371E+04  0.46999998093E+01 0. -1.
       -5    1    3    3    0  502  0.56000651394E+03  0.46884270249E+03 -0.10231766017E+04  0.12571130512E+04  0.46999998093E+01 0.  1.
</event>
<event>
 5   0  0.1088757E-06  0.2593294E+04  0.7818609E-02  0.8370483E-01
        1   -1    0    0  501    0  0.00000000000E+00  0.00000000000E+00  0.14229103753E+04  0.14229103754E+04  0.50400001928E-02 0.  1.
       -1   -1    0    0    0  501  0.00000000000E+00  0.00000000000E+00 -0.11815879598E+04  0.11815879598E+04  0.50400001928E-02 0. -1.
    10030    2    1    2    0    0  0.00000000000E+00  0.00000000000E+00  0.24132241558E+03  0.26044983351E+04  0.25932942505E+04 0.  0.
        5    1    3    3  502    0 -0.94821533229E+03  0.14431008979E+03  0.99697548585E+03  0.13834449493E+04  0.46999998093E+01 0.  1.
       -5    1    3    3    0  502  0.94821533229E+03 -0.14431008979E+03 -0.75565307028E+03  0.12210533858E+04  0.46999998093E+01 0. -1.
</event>
<event>
 5   0  0.2705807E-06  0.2598909E+04  0.7818609E-02  0.8368572E-01
        2   -1    0    0  501    0  0.00000000000E+00  0.00000000000E+00  0.22729172054E+04  0.22729172054E+04  0.25500000920E-02 0. -1.
       -2   -1    0    0    0  501  0.00000000000E+00  0.00000000000E+00 -0.74291426593E+03  0.74291426593E+03  0.25500000920E-02 0.  1.
    10030    2    1    2    0    0  0.00000000000E+00  0.00000000000E+00  0.15300029395E+04  0.30158314713E+04  0.25989094768E+04 0.  0.
        4    1    3    3  502    0  0.10436550135E+04 -0.61146690015E+03  0.13160167195E+04  0.17874588599E+04  0.12699999809E+01 0. -1.
       -4    1    3    3    0  502 -0.10436550135E+04  0.61146690015E+03  0.21398622000E+03  0.12283726114E+04  0.12699999809E+01 0.  1.
</event>
<event>
 5   0  0.1032076E-06  0.2624926E+04  0.7818609E-02  0.8359783E-01
       -1   -1    0    0    0  501  0.00000000000E+00  0.00000000000E+00  0.15478957223E+04  0.15478957223E+04  0.50400001928E-02 0.  1.
        1   -1    0    0  501    0  0.00000000000E+00  0.00000000000E+00 -0.11128396657E+04  0.11128396657E+04  0.50400001928E-02 0. -1.
    10030    2    1    2    0    0  0.00000000000E+00  0.00000000000E+00  0.43505605664E+03  0.26607353880E+04  0.26249264814E+04 0.  0.
        1    1    3    3  502    0  0.20417411696E+03 -0.76200367856E+03  0.12807523863E+04  0.15042151944E+04  0.50400001928E-02 0.  1.
       -1    1    3    3    0  502 -0.20417411696E+03  0.76200367856E+03 -0.84569632964E+03  0.11565201936E+04  0.50400001928E-02 0. -1.
</event>
<event>
 5   0  0.1088757E-06  0.2596486E+04  0.7818609E-02  0.8369396E-01
        1   -1    0    0  501    0  0.00000000000E+00  0.00000000000E+00  0.10692884046E+04  0.10692884046E+04  0.50400001928E-02 0. -1.
       -1   -1    0    0    0  501  0.00000000000E+00  0.00000000000E+00 -0.15762216415E+04  0.15762216415E+04  0.50400001928E-02 0.  1.
    10030    2    1    2    0    0  0.00000000000E+00  0.00000000000E+00 -0.50693323685E+03  0.26455100461E+04  0.25964864909E+04 0.  0.
        5    1    3    3  502    0  0.34323477855E+03 -0.95133972742E+02 -0.15254578405E+04  0.15664942704E+04  0.46999998093E+01 0.  1.
       -5    1    3    3    0  502 -0.34323477855E+03  0.95133972742E+02  0.10185246037E+04  0.10790157757E+04  0.46999998093E+01 0. -1.
</event>
<event>
 5   0  0.1122628E-06  0.2603131E+04  0.7818609E-02  0.8367139E-01
        1   -1    0    0  501    0  0.00000000000E+00  0.00000000000E+00  0.86250423732E+03  0.86250423733E+03  0.50400001928E-02 0. -1.
       -1   -1    0    0    0  501  0.00000000000E+00  0.00000000000E+00 -0.19641321641E+04  0.19641321641E+04  0.50400001928E-02 0.  1.
    10030    2    1    2    0    0  0.00000000000E+00  0.00000000000E+00 -0.11016279267E+04  0.28266364014E+04  0.26031306646E+04 0.  0.
        2    1    3    3  502    0 -0.12623772818E+04  0.87215593059E+02 -0.21990373691E+03  0.12843522161E+04  0.25500000920E-02 0. -1.
       -2    1    3    3    0  502  0.12623772818E+04 -0.87215593059E+02 -0.88172418983E+03  0.15422841853E+04  0.25500000920E-02 0.  1.
</event>
<event>
 5   0  0.1122628E-06  0.2634829E+04  0.7818609E-02  0.8356466E-01
       -1   -1    0    0    0  501  0.00000000000E+00  0.00000000000E+00  0.95632406705E+03  0.95632406706E+03  0.50400001928E-02 0. -1.
        1   -1    0    0  501    0  0.00000000000E+00  0.00000000000E+00 -0.18148465517E+04  0.18148465517E+04  0.50400001928E-02 0.  1.
    10030    2    1    2    0    0  0.00000000000E+00  0.00000000000E+00 -0.85852248465E+03  0.27711706188E+04  0.26348293572E+04 0.  0.
        2    1    3    3  502    0  0.55702417138E+03 -0.11192110715E+04  0.77794133169E+01  0.12501879336E+04  0.25500000920E-02 0. -1.
       -2    1    3    3    0  502 -0.55702417138E+03  0.11192110715E+04 -0.86630189796E+03  0.15209826851E+04  0.25500000920E-02 0.  1.
</event>
<event>
 5   0  0.1088757E-06  0.2597725E+04  0.7818609E-02  0.8368974E-01
       -1   -1    0    0    0  501  0.00000000000E+00  0.00000000000E+00  0.11670594874E+04  0.11670594875E+04  0.50400001928E-02 0. -1.
        1   -1    0    0  501    0  0.00000000000E+00  0.00000000000E+00 -0.14455513275E+04  0.14455513275E+04  0.50400001928E-02 0.  1.
    10030    2    1    2    0    0  0.00000000000E+00  0.00000000000E+00 -0.27849184009E+03  0.26126108150E+04  0.25977254600E+04 0.  0.
        5    1    3    3  502    0  0.72360157541E+03 -0.29412594430E+03  0.90444469265E+03  0.11950529708E+04  0.46999998093E+01 0. -1.
       -5    1    3    3    0  502 -0.72360157541E+03  0.29412594430E+03 -0.11829365327E+04  0.14175578442E+04  0.46999998093E+01 0.  1.
</event>
<event>
 5   0  0.1088757E-06  0.2609680E+04  0.7818609E-02  0.8364921E-01
       -1   -1    0    0    0  501  0.00000000000E+00  0.00000000000E+00  0.16856323954E+04  0.16856323954E+04  0.50400001928E-02 0.  1.
        1   -1    0    0  501    0  0.00000000000E+00  0.00000000000E+00 -0.10100702841E+04  0.10100702841E+04  0.50400001928E-02 0. -1.
    10030    2    1    2    0    0  0.00000000000E+00  0.00000000000E+00  0.67556211126E+03  0.26957026795E+04  0.26096798214E+04 0.  0.
        5    1    3    3  502    0 -0.82522024675E+02  0.12847811351E+04  0.11838240792E+03  0.12928684907E+04  0.46999998093E+01 0. -1.
       -5    1    3    3    0  502  0.82522024675E+02 -0.12847811351E+04  0.55717970334E+03  0.14028341889E+04  0.46999998093E+01 0.  1.
</event>
<event>
 5   0  0.1122628E-06  0.2608947E+04  0.7818609E-02  0.8365168E-01
        1   -1    0    0  501    0  0.00000000000E+00  0.00000000000E+00  0.12843555482E+04  0.12843555482E+04  0.50400001928E-02 0. -1.
       -1   -1    0    0    0  501  0.00000000000E+00  0.00000000000E+00 -0.13249067090E+04  0.13249067090E+04  0.50400001928E-02 0.  1.
    10030    2    1    2    0    0  0.00000000000E+00  0.00000000000E+00 -0.40551160803E+02  0.26092622573E+04  0.26089471306E+04 0.  0.
        2    1    3    3  502    0 -0.80789527370E+03 -0.77968614255E+03 -0.68446876017E+03  0.13149535117E+04  0.25500000920E-02 0.  1.
       -2    1    3    3    0  502  0.80789527370E+03  0.77968614255E+03  0.64391759937E+03  0.12943087456E+04  0.25500000920E-02 0. -1.
</event>
<event>
 5   0  0.1122628E-06  0.2615414E+04  0.7818609E-02  0.8362984E-01
       -1   -1    0    0    0  501  0.00000000000E+00  0.00000000000E+00  0.10738431055E+04  0.10738431055E+04  0.50400001928E-02 0. -1.
        1   -1    0    0  501    0  0.00000000000E+00  0.00000000000E+00 -0.15925027244E+04  0.15925027244E+04  0.50400001928E-02 0.  1.
    10030    2    1    2    0    0  0.00000000000E+00  0.00000000000E+00 -0.51865961892E+03  0.26663458298E+04  0.26154143618E+04 0.  0.
        2    1    3    3  502    0  0.60187474398E+03 -0.66683539007E+03  0.70953242915E+03  0.11447090953E+04  0.25500000920E-02 0. -1.
       -2    1    3    3    0  502 -0.60187474398E+03  0.66683539007E+03 -0.12281920481E+04  0.15216367345E+04  0.25500000920E-02 0.  1.
</event>
<event>
 5   0  0.9197000E-07  0.2605948E+04  0.7818609E-02  0.8366184E-01
        4   -1    0    0  501    0  0.00000000000E+00  0.00000000000E+00  0.15436452750E+04  0.15436457974E+04  0.12699999809E+01 0. -1.
       -4   -1    0    0    0  501  0.00000000000E+00  0.00000000000E+00 -0.10998245938E+04  0.10998253270E+04  0.12699999809E+01 0.  1.
    10030    2    1    2    0    0  0.00000000000E+00  0.00000000000E+00  0.44382068122E+03  0.26434711245E+04  0.26059475798E+04 0.  0.
        3    1    3    3  502    0 -0.66612662216E+03  0.76192436859E+03  0.10543899218E+04  0.14615031774E+04  0.10100000352E+00 0. -1.
       -3    1    3    3    0  502  0.66612662216E+03 -0.76192436859E+03 -0.61056924055E+03  0.11819679471E+04  0.10100000352E+00 0.  1.
</event>
<event>
 5   0  0.2586775E-06  0.2592249E+04  0.7818609E-02  0.8370839E-01
        2   -1    0    0  501    0  0.00000000000E+00  0.00000000000E+00  0.13240621914E+04  0.13240621914E+04  0.25500000920E-02 0.  1.
       -2   -1    0    0    0  501  0.00000000000E+00  0.00000000000E+00 -0.12687760777E+04  0.12687760777E+04  0.25500000920E-02 0. -1.
    10030    2    1    2    0    0  0.00000000000E+00  0.00000000000E+00  0.55286113660E+02  0.25928382691E+04  0.25922487796E+04 0.  0.
        1    1    3    3  502    0 -0.25448882743E+03 -0.49368968684E+03  0.11989961975E+04  0.13213954563E+04  0.50400001928E-02 0.  1.
       -1    1    3    3    0  502  0.25448882743E+03  0.49368968684E+03 -0.11437100839E+04  0.12714428128E+04  0.50400001928E-02 0. -1.
</event>
<event>
 5   0  0.1088757E-06  0.2669033E+04  0.7818609E-02  0.8345123E-01
       -1   -1    0    0    0  501  0.00000000000E+00  0.00000000000E+00  0.18803245313E+04  0.18803245313E+04  0.50400001928E-02 0.  1.
        1   -1    0    0  501    0  0.00000000000E+00  0.00000000000E+00 -0.94714219208E+03  0.94714219210E+03  0.50400001928E-02 0. -1.
    10030    2    1    2    0    0  0.00000000000E+00  0.00000000000E+00  0.93318233922E+03  0.28274667234E+04  0.26690333070E+04 0.  0.
        5    1    3    3  502    0  0.12135353674E+04  0.15088213171E+03 -0.99427388492E+02  0.12269235515E+04  0.46999998093E+01 0.  1.
       -5    1    3    3    0  502 -0.12135353674E+04 -0.15088213171E+03  0.10326097277E+04  0.16005431720E+04  0.46999998093E+01 0. -1.
</event>
<event>
 5   0  0.1122628E-06  0.2591875E+04  0.7818609E-02  0.8370966E-01
        1   -1    0    0  501    0  0.00000000000E+00  0.00000000000E+00  0.11677182600E+04  0.11677182601E+04  0.50400001928E-02 0.  1.
       -1   -1    0    0    0  501  0.00000000000E+00  0.00000000000E+00 -0.14382353765E+04  0.14382353765E+04  0.50400001928E-02 0. -1.
    10030    2    1    2    0    0  0.00000000000E+00  0.00000000000E+00 -0.27051711649E+03  0.26059536366E+04  0.25918747743E+04 0.  0.
        2    1    3    3  502    0 -0.22495962650E+03 -0.99835286179E+03 -0.93464866747E+03  0.13859593796E+04  0.25500000920E-02 0. -1.
       -2    1    3    3    0  502  0.22495962650E+03  0.99835286179E+03  0.66413155098E+03  0.12199942570E+04  0.25500000920E-02 0.  1.
</event>
<event>
 5   0  0.1032076E-06  0.2601205E+04  0.7818609E-02  0.8367792E-01
        1   -1    0    0  501    0  0.00000000000E+00  0.00000000000E+00  0.18684919298E+04  0.18684919298E+04  0.50400001928E-02 0. -1.
       -1   -1    0    0    0  501  0.00000000000E+00  0.00000000000E+00 -0.90531142298E+03  0.90531142299E+03  0.50400001928E-02 0.  1.
    10030    2    1    2    0    0  0.00000000000E+00  0.00000000000E+00  0.96318050684E+03  0.27738033528E+04  0.26012051729E+04 0.  0.
        1    1    3    3  502    0 -0.48763720101E+03 -0.26465950199E+03 -0.77278395039E+03  0.95133050293E+03  0.50400001928E-02 0.  1.
       -1    1    3    3    0  502  0.48763720101E+03  0.26465950199E+03  0.17359644572E+04  0.18224728499E+04  0.50400001928E-02 0. -1.
</event>
<event>
 5   0  0.2623368E-06  0.2600246E+04  0.7818609E-02  0.8368117E-01
       -2   -1    0    0    0  501  0.00000000000E+00  0.00000000000E+00  0.14414945212E+04  0.14414945212E+04  0.25500000920E-02 0.  1.
        2   -1    0    0  501    0  0.00000000000E+00  0.00000000000E+00 -0.11726165895E+04  0.11726165895E+04  0.25500000920E-02 0. -1.
    10030    2    1    2    0    0  0.00000000000E+00  0.00000000000E+00  0.26887793167E+03  0.26141111108E+04  0.26002464416E+04 0.  0.
        5    1    3    3  502    0 -0.74628948833E+03 -0.37821514284E+03  0.11348851041E+04  0.14099577952E+04  0.46999998093E+01 0.  1.
       -5    1    3    3    0  502  0.74628948833E+03  0.37821514284E+03 -0.86600717246E+03  0.12041533156E+04  0.46999998093E+01 0. -1.
</event>
<event>
 5   0  0.2623368E-06  0.2604026E+04  0.7818609E-02  0.8366835E-01
        2   -1    0    0  501    0  0.00000000000E+00  0.00000000000E+00  0.14775065475E+04  0.14775065475E+04  0.25500000920E-02 0.  1.
       -2   -1    0    0    0  501  0.00000000000E+00  0.00000000000E+00 -0.11473640903E+04  0.11473640903E+04  0.25500000920E-02 0. -1.
    10030    2    1    2    0    0  0.00000000000E+00  0.00000000000E+00  0.33014245721E+03  0.26248706378E+04  0.26040260796E+04 0.  0.
        5    1    3    3  502    0  0.10261260986E+04  0.12477632042E+03 -0.63291715378E+03  0.12120685269E+04  0.46999998093E+01 0. -1.
       -5    1    3    3    0  502 -0.10261260986E+04 -0.12477632042E+03  0.96305961099E+03  0.14128021109E+04  0.46999998093E+01 0.  1.
</event>
<event>
 5   0  0.2705807E-06  0.2585680E+04  0.7818609E-02  0.8373082E-01
        2   -1    0    0  501    0  0.00000000000E+00  0.00000000000E+00  0.17555638216E+04  0.17555638216E+04  0.25500000920E-02 0. -1.
       -2   -1    0    0    0  501  0.00000000000E+00  0.00000000000E+00 -0.95207884820E+03  0.95207884820E+03  0.25500000920E-02 0.  1.
    10030    2    1    2    0    0  0.00000000000E+00  0.00000000000E+00  0.80348497342E+03  0.27076426698E+04  0.25856799347E+04 0.  0.
        4    1    3    3  502    0  0.52532618873E+03 -0.23302013812E+03 -0.81097072087E+03  0.99395226865E+03  0.12699999809E+01 0.  1.
       -4    1    3    3    0  502 -0.52532618873E+03  0.23302013812E+03  0.16144556943E+04  0.17136904012E+04  0.12699999809E+01 0. -1.
</event>
<event>
 5   0  0.1088757E-06  0.2611882E+04  0.7818609E-02  0.8364176E-01
        1   -1    0    0  501    0  0.00000000000E+00  0.00000000000E+00  0.10460390309E+04  0.10460390309E+04  0.50400001928E-02 0. -1.
       -1   -1    0    0    0  501  0.00000000000E+00  0.00000000000E+00 -0.16304193265E+04  0.16304193265E+04  0.50400001928E-02 0.  1.
    10030    2    1    2    0    0  0.00000000000E+00  0.00000000000E+00 -0.58438029566E+03  0.26764583574E+04  0.26118822732E+04 0.  0.
        5    1    3    3  502    0 -0.40835949721E+03 -0.10101084302E+04 -0.10299797619E+04  0.14993188185E+04  0.46999998093E+01 0. -1.
       -5    1    3    3    0  502  0.40835949721E+03  0.10101084302E+04  0.44559946623E+03  0.11771395389E+04  0.46999998093E+01 0.  1.
</event>
<event>
 5   0  0.2746631E-06  0.2612817E+04  0.7818609E-02  0.8363861E-01
        2   -1    0    0  501    0  0.00000000000E+00  0.00000000000E+00  0.16412236236E+04  0.16412236236E+04  0.25500000920E-02 0. -1.
       -2   -1    0    0    0  501  0.00000000000E+00  0.00000000000E+00 -0.10398966314E+04  0.10398966314E+04  0.25500000920E-02 0.  1.
    10030    2    1    2    0    0  0.00000000000E+00  0.00000000000E+00  0.60132699215E+03  0.26811202550E+04  0.26128168077E+04 0.  0.
        2    1    3    3  502    0  0.95826771799E+03 -0.24447838429E+03 -0.57526503005E+03  0.11441051326E+04  0.25500000920E-02 0.  1.
       -2    1    3    3    0  502 -0.95826771799E+03  0.24447838429E+03  0.11765920222E+04  0.15370151224E+04  0.25500000920E-02 0. -1.
</event>
<event>
 5   0  0.1122628E-06  0.2598931E+04  0.7818609E-02  0.8368564E-01
        1   -1    0    0  501    0  0.00000000000E+00  0.00000000000E+00  0.33860768031E+04  0.33860768031E+04  0.50400001928E-02 0. -1.
       -1   -1    0    0    0  501  0.00000000000E+00  0.00000000000E+00 -0.49869228592E+03  0.49869228595E+03  0.50400001928E-02 0.  1.
    10030    2    1    2    0    0  0.00000000000E+00  0.00000000000E+00  0.28873845172E+04  0.38847690891E+04  0.25989308427E+04 0.  0.
        2    1    3    3  502    0  0.10532584332E+04  0.13078542291E+03  0.25644131149E+04  0.27753689445E+04  0.25500000920E-02 0. -1.
       -2    1    3    3    0  502 -0.10532584332E+04 -0.13078542291E+03  0.32297140225E+03  0.11094001446E+04  0.25500000920E-02 0.  1.
</event>
<event>
 5   0  0.2746631E-06  0.2599341E+04  0.7818609E-02  0.8368425E-01
        2   -1    0    0  501    0  0.00000000000E+00  0.00000000000E+00  0.14888340892E+04  0.14888340892E+04  0.25500000920E-02 0. -1.
       -2   -1    0    0    0  501  0.00000000000E+00  0.00000000000E+00 -0.11345406996E+04  0.11345406996E+04  0.25500000920E-02 0.  1.
    10030    2    1    2    0    0  0.00000000000E+00  0.00000000000E+00  0.35429338963E+03  0.26233747888E+04  0.25993405849E+04 0.  0.
        2    1    3    3  502    0 -0.12104868520E+04  0.47278416479E+03  0.19574488200E+03  0.13141991265E+04  0.25500000920E-02 0. -1.
       -2    1    3    3    0  502  0.12104868520E+04 -0.47278416479E+03  0.15854850763E+03  0.13091756622E+04  0.25500000920E-02 0.  1.
</event>
<event>
 5   0  0.1088757E-06  0.2574724E+04  0.7818609E-02  0.8376838E-01
        1   -1    0    0  501    0  0.00000000000E+00  0.00000000000E+00  0.64009637568E+03  0.64009637570E+03  0.50400001928E-02 0.  1.
       -1   -1    0    0    0  501  0.00000000000E+00  0.00000000000E+00 -0.25891435993E+04  0.25891435993E+04  0.50400001928E-02 0. -1.
    10030    2    1    2    0    0  0.00000000000E+00  0.00000000000E+00 -0.19490472236E+04  0.32292399750E+04  0.25747244001E+04 0.  0.
        5    1    3    3  502    0 -0.68706417370E+03  0.24491477082E+03  0.35590612679E+03  0.81162287106E+03  0.46999998093E+01 0.  1.
       -5    1    3    3    0  502  0.68706417370E+03 -0.24491477082E+03 -0.23049533504E+04  0.24176171040E+04  0.46999998093E+01 0. -1.
</event>
<event>
 5   0  0.2705807E-06  0.2601627E+04  0.7818609E-02  0.8367649E-01
       -2   -1    0    0    0  501  0.00000000000E+00  0.00000000000E+00  0.96791840085E+03  0.96791840086E+03  0.25500000920E-02 0. -1.
        2   -1    0    0  501    0  0.00000000000E+00  0.00000000000E+00 -0.17482007777E+04  0.17482007778E+04  0.25500000920E-02 0.  1.
    10030    2    1    2    0    0  0.00000000000E+00  0.00000000000E+00 -0.78028237690E+03  0.27161191786E+04  0.26016269534E+04 0.  0.
        4    1    3    3  502    0  0.15071327574E+03  0.59792319825E+03 -0.15859233952E+04  0.17015819906E+04  0.12699999809E+01 0.  1.
       -4    1    3    3    0  502 -0.15071327574E+03 -0.59792319825E+03  0.80564101831E+03  0.10145371880E+04  0.12699999809E+01 0. -1.
</event>
<event>
 5   0  0.1032076E-06  0.2600787E+04  0.7818609E-02  0.8367934E-01
       -1   -1    0    0    0  501  0.00000000000E+00  0.00000000000E+00  0.68622632046E+03  0.68622632048E+03  0.50400001928E-02 0.  1.
        1   -1    0    0  501    0  0.00000000000E+00  0.00000000000E+00 -0.24642351729E+04  0.24642351729E+04  0.50400001928E-02 0. -1.
    10030    2    1    2    0    0  0.00000000000E+00  0.00000000000E+00 -0.17780088524E+04  0.31504614934E+04  0.26007868313E+04 0.  0.
        1    1    3    3  502    0 -0.29741868768E+03  0.11909334147E+04 -0.14089580813E+04  0.18686741687E+04  0.50400001928E-02 0. -1.
       -1    1    3    3    0  502  0.29741868768E+03 -0.11909334147E+04 -0.36905077109E+03  0.12817873246E+04  0.50400001928E-02 0.  1.
</event>
<event>
 5   0  0.1088757E-06  0.2605780E+04  0.7818609E-02  0.8366241E-01
        1   -1    0    0  501    0  0.00000000000E+00  0.00000000000E+00  0.13172889401E+04  0.13172889401E+04  0.50400001928E-02 0.  1.
       -1   -1    0    0    0  501  0.00000000000E+00  0.00000000000E+00 -0.12886480307E+04  0.12886480307E+04  0.50400001928E-02 0. -1.
    10030    2    1    2    0    0  0.00000000000E+00  0.00000000000E+00  0.28640909402E+02  0.26059369708E+04  0.26057795752E+04 0.  0.
        5    1    3    3  502    0  0.97233348289E+03  0.83755496260E+03 -0.21056863003E+03  0.13004968109E+04  0.46999998093E+01 0. -1.
       -5    1    3    3    0  502 -0.97233348289E+03 -0.83755496260E+03  0.23920953943E+03  0.13054401599E+04  0.46999998093E+01 0.  1.
</event>
<event>
 5   0  0.1032076E-06  0.2598791E+04  0.7818609E-02  0.8368612E-01
       -1   -1    0    0    0  501  0.00000000000E+00  0.00000000000E+00  0.94340835663E+03  0.94340835664E+03  0.50400001928E-02 0. -1.
        1   -1    0    0  501    0  0.00000000000E+00  0.00000000000E+00 -0.17897107228E+04  0.17897107228E+04  0.50400001928E-02 0.  1.
    10030    2    1    2    0    0  0.00000000000E+00  0.00000000000E+00 -0.84630236617E+03  0.27331190794E+04  0.25987905278E+04 0.  0.
        1    1    3    3  502    0  0.11237498839E+04 -0.17716063550E+03 -0.10834814592E+04  0.15710288873E+04  0.50400001928E-02 0.  1.
       -1    1    3    3    0  502 -0.11237498839E+04  0.17716063550E+03  0.23717909306E+03  0.11620901921E+04  0.50400001928E-02 0. -1.
</event>
<event>
 5   0  0.2746631E-06  0.2586870E+04  0.7818609E-02  0.8372675E-01
       -2   -1    0    0    0  501  0.00000000000E+00  0.00000000000E+00  0.15331238637E+04  0.15331238637E+04  0.25500000920E-02 0.  1.
        2   -1    0    0  501    0  0.00000000000E+00  0.00000000000E+00 -0.10912193588E+04  0.10912193588E+04  0.25500000920E-02 0. -1.
    10030    2    1    2    0    0  0.00000000000E+00  0.00000000000E+00  0.44190450494E+03  0.26243432225E+04  0.25868702631E+04 0.  0.
        2    1    3    3  502    0 -0.87734015969E+03  0.62541145357E+02 -0.74111910499E+03  0.11501715865E+04  0.25500000920E-02 0. -1.
       -2    1    3    3    0  502  0.87734015969E+03 -0.62541145357E+02  0.11830236099E+04  0.14741716360E+04  0.25500000920E-02 0.  1.
</event>
<event>
 5   0  0.2820028E-06  0.2600327E+04  0.7818609E-02  0.8368090E-01
        2   -1    0    0  501    0  0.00000000000E+00  0.00000000000E+00  0.12044682386E+04  0.12044682386E+04  0.25500000920E-02 0.  1.
       -2   -1    0    0    0  501  0.00000000000E+00  0.00000000000E+00 -0.14034615130E+04  0.14034615130E+04  0.25500000920E-02 0. -1.
    10030    2    1    2    0    0  0.00000000000E+00  0.00000000000E+00 -0.19899327441E+03  0.26079297516E+04  0.26003267614E+04 0.  0.
        3    1    3    3  502    0  0.10154820529E+04  0.24480642447E+03 -0.87589887104E+03  0.13632068177E+04  0.10100000352E+00 0. -1.
       -3    1    3    3    0  502 -0.10154820529E+04 -0.24480642447E+03  0.67690559662E+03  0.12447229339E+04  0.10100000352E+00 0.  1.
</event>
<event>
 5   0  0.1088757E-06  0.2597872E+04  0.7818609E-02  0.8368925E-01
       -1   -1    0    0    0  501  0.00000000000E+00  0.00000000000E+00  0.89206139113E+03  0.89206139115E+03  0.50400001928E-02 0.  1.
        1   -1    0    0  501    0  0.00000000000E+00  0.00000000000E+00 -0.18913879433E+04  0.18913879433E+04  0.50400001928E-02 0. -1.
    10030    2    1    2    0    0  0.00000000000E+00  0.00000000000E+00 -0.99932655219E+03  0.27834493345E+04  0.25978715595E+04 0.  0.
        5    1    3    3  502    0 -0.80207394515E+03 -0.63347870497E+03  0.35921979208E+03  0.10833645887E+04  0.46999998093E+01 0.  1.
       -5    1    3    3    0  502  0.80207394515E+03  0.63347870497E+03 -0.13585463443E+04  0.17000847457E+04  0.46999998093E+01 0. -1.
</event>
<event>
 5   0  0.2623368E-06  0.2598302E+04  0.7818609E-02  0.8368778E-01
        2   -1    0    0  501    0  0.00000000000E+00  0.00000000000E+00  0.16534401782E+04  0.16534401782E+04  0.25500000920E-02 0. -1.
       -2   -1    0    0    0  501  0.00000000000E+00  0.00000000000E+00 -0.10207770418E+04  0.10207770418E+04  0.25500000920E-02 0.  1.
    10030    2    1    2    0    0  0.00000000000E+00  0.00000000000E+00  0.63266313631E+03  0.26742172200E+04  0.25983023488E+04 0.  0.
        5    1    3    3  502    0  0.53751200357E+03 -0.83636959372E+03 -0.54436623215E+03  0.11334857458E+04  0.46999998093E+01 0.  1.
       -5    1    3    3    0  502 -0.53751200357E+03  0.83636959372E+03  0.11770293685E+04  0.15407314742E+04  0.46999998093E+01 0. -1.
</event>
<event>
 5   0  0.2623368E-06  0.2610381E+04  0.7818609E-02  0.8364683E-01
        2   -1    0    0  501    0  0.00000000000E+00  0.00000000000E+00  0.25583695195E+04  0.25583695195E+04  0.25500000920E-02 0. -1.
       -2   -1    0    0    0  501  0.00000000000E+00  0.00000000000E+00 -0.66586257417E+03  0.66586257417E+03  0.25500000920E-02 0.  1.
    10030    2    1    2    0    0  0.00000000000E+00  0.00000000000E+00  0.18925069454E+04  0.32242320937E+04  0.26103812089E+04 0.  0.
        5    1    3    3  502    0 -0.41561739562E+03  0.12012075940E+04  0.58013201775E+03  0.13972160719E+04  0.46999998093E+01 0.  1.
       -5    1    3    3    0  502  0.41561739562E+03 -0.12012075940E+04  0.13123749276E+04  0.18270160218E+04  0.46999998093E+01 0. -1.
</event>
<event>
 5   0  0.2623368E-06  0.2600766E+04  0.7818609E-02  0.8367941E-01
        2   -1    0    0  501    0  0.00000000000E+00  0.00000000000E+00  0.18220091956E+04  0.18220091956E+04  0.25500000920E-02 0.  1.
       -2   -1    0    0    0  501  0.00000000000E+00  0.00000000000E+00 -0.92809417356E+03  0.92809417356E+03  0.25500000920E-02 0. -1.
    10030    2    1    2    0    0  0.00000000000E+00  0.00000000000E+00  0.89391502208E+03  0.27501033692E+04  0.26007661322E+04 0.  0.
        5    1    3    3  502    0  0.12821666600E+04 -0.14762854059E+03  0.61491269740E+03  0.14296451467E+04  0.46999998093E+01 0.  1.
       -5    1    3    3    0  502 -0.12821666600E+04  0.14762854059E+03  0.27900232468E+03  0.13204582225E+04  0.46999998093E+01 0. -1.
</event>
<event>
 5   0  0.1032076E-06  0.2631644E+04  0.7818609E-02  0.8357531E-01
       -1   -1    0    0    0  501  0.00000000000E+00  0.00000000000E+00  0.96162923844E+03  0.96162923845E+03  0.50400001928E-02 0.  1.
        1   -1    0    0  501    0  0.00000000000E+00  0.00000000000E+00 -0.18004729148E+04  0.18004729148E+04  0.50400001928E-02 0. -1.
    10030    2    1    2    0    0  0.00000000000E+00  0.00000000000E+00 -0.83884367631E+03  0.27621021532E+04  0.26316438953E+04 0.  0.
        1    1    3    3  502    0 -0.93898784800E+03 -0.22908252060E+03  0.51770655728E+03  0.10964474723E+04  0.50400001928E-02 0.  1.
       -1    1    3    3    0  502  0.93898784800E+03  0.22908252060E+03 -0.13565502336E+04  0.16656546810E+04  0.50400001928E-02 0. -1.
</event>
<event>
 5   0  0.2705807E-06  0.2598344E+04  0.7818609E-02  0.8368764E-01
       -2   -1    0    0    0  501  0.00000000000E+00  0.00000000000E+00  0.12448368209E+04  0.12448368209E+04  0.25500000920E-02 0.  1.
        2   -1    0    0  501    0  0.00000000000E+00  0.00000000000E+00 -0.13558792194E+04  0.13558792194E+04  0.25500000920E-02 0. -1.
    10030    2    1    2    0    0  0.00000000000E+00  0.00000000000E+00 -0.11104239846E+03  0.26007160403E+04  0.25983443783E+04 0.  0.
        4    1    3    3  502    0 -0.72951518386E+03  0.94658153255E+03 -0.56553291728E+03  0.13221339171E+04  0.12699999809E+01 0. -1.
       -4    1    3    3    0  502  0.72951518386E+03 -0.94658153255E+03  0.45449051882E+03  0.12785821232E+04  0.12699999809E+01 0.  1.
</event>
<event>
 5   0  0.1032076E-06  0.2600849E+04  0.7818609E-02  0.8367913E-01
        1   -1    0    0  501    0  0.00000000000E+00  0.00000000000E+00  0.16115862378E+04  0.16115862378E+04  0.50400001928E-02 0.  1.
       -1   -1    0    0    0  501  0.00000000000E+00  0.00000000000E+00 -0.10493410001E+04  0.10493410001E+04  0.50400001928E-02 0. -1.
    10030    2    1    2    0    0  0.00000000000E+00  0.00000000000E+00  0.56224523764E+03  0.26609272379E+04  0.26008487189E+04 0.  0.
        1    1    3    3  502    0 -0.71111192015E+03 -0.76678092659E+03 -0.50969455250E+03  0.11633665326E+04  0.50400001928E-02 0. -1.
       -1    1    3    3    0  502  0.71111192015E+03  0.76678092659E+03  0.10719397901E+04  0.14975607053E+04  0.50400001928E-02 0.  1.
</event>
<event>
 5   0  0.1032076E-06  0.2602140E+04  0.7818609E-02  0.8367475E-01
        1   -1    0    0  501    0  0.00000000000E+00  0.00000000000E+00  0.16678837966E+04  0.16678837966E+04  0.50400001928E-02 0.  1.
       -1   -1    0    0    0  501  0.00000000000E+00  0.00000000000E+00 -0.10149283224E+04  0.10149283224E+04  0.50400001928E-02 0. -1.
    10030    2    1    2    0    0  0.00000000000E+00  0.00000000000E+00  0.65295547419E+03  0.26828121190E+04  0.26021395072E+04 0.  0.
        1    1    3    3  502    0  0.32185885176E+02 -0.59891444347E+03 -0.86389394531E+03  0.10516877819E+04  0.50400001928E-02 0. -1.
       -1    1    3    3    0  502 -0.32185885176E+02  0.59891444347E+03  0.15168494195E+04  0.16311243372E+04  0.50400001928E-02 0.  1.
</event>
<event>
 5   0  0.1122628E-06  0.2597749E+04  0.7818609E-02  0.8368966E-01
        1   -1    0    0  501    0  0.00000000000E+00  0.00000000000E+00  0.24386558216E+04  0.24386558216E+04  0.50400001928E-02 0. -1.
       -1   -1    0    0    0  501  0.00000000000E+00  0.00000000000E+00 -0.69180551621E+03  0.69180551623E+03  0.50400001928E-02 0.  1.
    10030    2    1    2    0    0  0.00000000000E+00  0.00000000000E+00  0.17468503054E+04  0.31304613379E+04  0.25977494487E+04 0.  0.
        2    1    3    3  502    0 -0.68896625085E+03  0.50562346058E+03 -0.30529145910E+03  0.90748688899E+03  0.25500000920E-02 0.  1.
       -2    1    3    3    0  502  0.68896625085E+03 -0.50562346058E+03  0.20521417645E+04  0.22229744489E+04  0.25500000920E-02 0. -1.
</event>
<event>
 5   0  0.2705807E-06  0.2596889E+04  0.7818609E-02  0.8369259E-01
       -2   -1    0    0    0  501  0.00000000000E+00  0.00000000000E+00  0.71037094137E+03  0.71037094137E+03  0.25500000920E-02 0.  1.
        2   -1    0    0  501    0  0.00000000000E+00  0.00000000000E+00 -0.23733496499E+04  0.23733496499E+04  0.25500000920E-02 0. -1.
    10030    2    1    2    0    0  0.00000000000E+00  0.00000000000E+00 -0.16629787085E+04  0.30837205913E+04  0.25968893893E+04 0.  0.
        4    1    3    3  502    0 -0.12837223624E+04 -0.11181649142E+03 -0.64182524980E+03  0.14395788605E+04  0.12699999809E+01 0. -1.
       -4    1    3    3    0  502  0.12837223624E+04  0.11181649142E+03 -0.10211534587E+04  0.16441417307E+04  0.12699999809E+01 0.  1.
</event>
<event>
 5   0  0.1100104E-06  0.2606206E+04  0.7818609E-02  0.8366096E-01
        1   -1    0    0  501    0  0.00000000000E+00  0.00000000000E+00  0.11615276599E+04  0.11615276599E+04  0.50400001928E-02 0.  1.
       -1   -1    0    0    0  501  0.00000000000E+00  0.00000000000E+00 -0.14619346923E+04  0.14619346923E+04  0.50400001928E-02 0. -1.
    10030    2    1    2    0    0  0.00000000000E+00  0.00000000000E+00 -0.30040703241E+03  0.26234623522E+04  0.26062061178E+04 0.  0.
        4    1    3    3  502    0  0.10077757083E+04  0.28125171992E+03 -0.93211014631E+03  0.14012656229E+04  0.12699999809E+01 0. -1.
       -4    1    3    3    0  502 -0.10077757083E+04 -0.28125171992E+03  0.63170311390E+03  0.12221967293E+04  0.12699999809E+01 0.  1.
</event>
<event>
 5   0  0.1055179E-06  0.2605906E+04  0.7818609E-02  0.8366198E-01
       -1   -1    0    0    0  501  0.00000000000E+00  0.00000000000E+00  0.10254896304E+04  0.10254896304E+04  0.50400001928E-02 0.  1.
        1   -1    0    0  501    0  0.00000000000E+00  0.00000000000E+00 -0.16554882216E+04  0.16554882216E+04  0.50400001928E-02 0. -1.
    10030    2    1    2    0    0  0.00000000000E+00  0.00000000000E+00 -0.62999859117E+03  0.26809778520E+04  0.26059056042E+04 0.  0.
        3    1    3    3  502    0 -0.37627017105E+03 -0.12372130803E+03  0.96204997023E+03  0.10403972122E+04  0.10100000352E+00 0.  1.
       -3    1    3    3    0  502  0.37627017105E+03  0.12372130803E+03 -0.15920485614E+04  0.16405806398E+04  0.10100000352E+00 0. -1.
</event>
<event>
 5   0  0.2586775E-06  0.2602268E+04  0.7818609E-02  0.8367431E-01
       -2   -1    0    0    0  501  0.00000000000E+00  0.00000000000E+00  0.91393075675E+03  0.91393075676E+03  0.25500000920E-02 0. -1.
        2   -1    0    0  501    0  0.00000000000E+00  0.00000000000E+00 -0.18523825037E+04  0.18523825037E+04  0.25500000920E-02 0.  1.
    10030    2    1    2    0    0  0.00000000000E+00  0.00000000000E+00 -0.93845174698E+03  0.27663132605E+04  0.26022677368E+04 0.  0.
        1    1    3    3  502    0 -0.54947357042E+03 -0.39643681454E+03 -0.16500449976E+04  0.17837409696E+04  0.50400001928E-02 0.  1.
       -1    1    3    3    0  502  0.54947357042E+03  0.39643681454E+03  0.71159325061E+03  0.98257229090E+03  0.50400001928E-02 0. -1.
</event>
<event>
 5   0  0.2623368E-06  0.2584817E+04  0.7818609E-02  0.8373377E-01
       -2   -1    0    0    0  501  0.00000000000E+00  0.00000000000E+00  0.85852947791E+03  0.85852947791E+03  0.25500000920E-02 0.  1.
        2   -1    0    0  501    0  0.00000000000E+00  0.00000000000E+00 -0.19455596689E+04  0.19455596689E+04  0.25500000920E-02 0. -1.
    10030    2    1    2    0    0  0.00000000000E+00  0.00000000000E+00 -0.10870301909E+04  0.28040891468E+04  0.25848174611E+04 0.  0.
        5    1    3    3  502    0 -0.53986901094E+03  0.45931385502E+03 -0.17158704637E+04  0.18565185979E+04  0.46999998093E+01 0. -1.
       -5    1    3    3    0  502  0.53986901094E+03 -0.45931385502E+03  0.62884027274E+03  0.94757054882E+03  0.46999998093E+01 0.  1.
</event>
<event>
 5   0  0.1100104E-06  0.2599720E+04  0.7818609E-02  0.8368296E-01
        1   -1    0    0  501    0  0.00000000000E+00  0.00000000000E+00  0.13733510764E+04  0.13733510764E+04  0.50400001928E-02 0. -1.
       -1   -1    0    0    0  501  0.00000000000E+00  0.00000000000E+00 -0.12303012795E+04  0.12303012795E+04  0.50400001928E-02 0.  1.
    10030    2    1    2    0    0  0.00000000000E+00  0.00000000000E+00  0.14304979688E+03  0.26036523559E+04  0.25997196668E+04 0.  0.
        4    1    3    3  502    0 -0.72533137843E+03 -0.73976635045E+03  0.85774372418E+03  0.13450225913E+04  0.12699999809E+01 0. -1.
       -4    1    3    3    0  502  0.72533137843E+03  0.73976635045E+03 -0.71469392731E+03  0.12586297646E+04  0.12699999809E+01 0.  1.
</event>
<event>
 5   0  0.2705807E-06  0.2597398E+04  0.7818609E-02  0.8369086E-01
       -2   -1    0    0    0  501  0.00000000000E+00  0.00000000000E+00  0.11181393857E+04  0.11181393857E+04  0.25500000920E-02 0. -1.
        2   -1    0    0  501    0  0.00000000000E+00  0.00000000000E+00 -0.15084159063E+04  0.15084159063E+04  0.25500000920E-02 0.  1.
    10030    2    1    2    0    0  0.00000000000E+00  0.00000000000E+00 -0.39027652065E+03  0.26265552920E+04  0.25973981095E+04 0.  0.
        4    1    3    3  502    0  0.10181410313E+04  0.60431533848E+03  0.34452793281E+03  0.12330893306E+04  0.12699999809E+01 0. -1.
       -4    1    3    3    0  502 -0.10181410313E+04 -0.60431533848E+03 -0.73480445346E+03  0.13934659614E+04  0.12699999809E+01 0.  1.
</event>
<event>
 5   0  0.2746631E-06  0.2597844E+04  0.7818609E-02  0.8368934E-01
       -2   -1    0    0    0  501  0.00000000000E+00  0.00000000000E+00  0.16514889902E+04  0.16514889902E+04  0.25500000920E-02 0.  1.
        2   -1    0    0  501    0  0.00000000000E+00  0.00000000000E+00 -0.10216226708E+04  0.10216226708E+04  0.25500000920E-02 0. -1.
    10030    2    1    2    0    0  0.00000000000E+00  0.00000000000E+00  0.62986631938E+03  0.26731116611E+04  0.25978441778E+04 0.  0.
        2    1    3    3  502    0 -0.96381211337E+03 -0.63939134468E+02 -0.57866142118E+03  0.11259977989E+04  0.25500000920E-02 0.  1.
       -2    1    3    3    0  502  0.96381211337E+03  0.63939134468E+02  0.12085277406E+04  0.15471138622E+04  0.25500000920E-02 0. -1.
</event>
<event>
 5   0  0.1032076E-06  0.2602225E+04  0.7818609E-02  0.8367446E-01
        1   -1    0    0  501    0  0.00000000000E+00  0.00000000000E+00  0.20349524074E+04  0.20349524074E+04  0.50400001928E-02 0.  1.
       -1   -1    0    0    0  501  0.00000000000E+00  0.00000000000E+00 -0.83190810524E+03  0.83190810525E+03  0.50400001928E-02 0. -1.
    10030    2    1    2    0    0  0.00000000000E+00  0.00000000000E+00  0.12030443022E+04  0.28668605127E+04  0.26022247417E+04 0.  0.
        1    1    3    3  502    0  0.12273049293E+04 -0.60706216549E+02  0.10727219963E+04  0.16311637304E+04  0.50400001928E-02 0. -1.
       -1    1    3    3    0  502 -0.12273049293E+04  0.60706216549E+02  0.13032230589E+03  0.12356967822E+04  0.50400001928E-02 0.  1.
</event>
<event>
 5   0  0.2746631E-06  0.2602260E+04  0.7818609E-02  0.8367434E-01
        2   -1    0    0  501    0  0.00000000000E+00  0.00000000000E+00  0.21047017807E+04  0.21047017807E+04  0.25500000920E-02 0.  1.
       -2   -1    0    0    0  501  0.00000000000E+00  0.00000000000E+00 -0.80436055831E+03  0.80436055831E+03  0.25500000920E-02 0. -1.
    10030    2    1    2    0    0  0.00000000000E+00  0.00000000000E+00  0.13003412223E+04  0.29090623390E+04  0.26022598636E+04 0.  0.
        2    1    3    3  502    0 -0.41814125662E+03  0.10064485279E+02 -0.72715820739E+03  0.83886975326E+03  0.25500000920E-02 0. -1.
       -2    1    3    3    0  502  0.41814125662E+03 -0.10064485279E+02  0.20274994297E+04  0.20701925857E+04  0.25500000920E-02 0.  1.
</event>
<event>
 5   0  0.1122628E-06  0.2599716E+04  0.7818609E-02  0.8368298E-01
       -1   -1    0    0    0  501  0.00000000000E+00  0.00000000000E+00  0.13783595577E+04  0.13783595577E+04  0.50400001928E-02 0. -1.
        1   -1    0    0  501    0  0.00000000000E+00  0.00000000000E+00 -0.12258273013E+04  0.12258273013E+04  0.50400001928E-02 0.  1.
    10030    2    1    2    0    0  0.00000000000E+00  0.00000000000E+00  0.15253225634E+03  0.26041868590E+04  0.25997159667E+04 0.  0.
        2    1    3    3  502    0  0.44707857482E+03 -0.11915323934E+04 -0.18876794711E+03  0.12865698716E+04  0.25500000920E-02 0.  1.
       -2    1    3    3    0  502 -0.44707857482E+03  0.11915323934E+04  0.34130020344E+03  0.13176169874E+04  0.25500000920E-02 0. -1.
</event>
<event>
 5   0  0.1100104E-06  0.2605783E+04  0.7818609E-02  0.8366240E-01
        1   -1    0    0  501    0  0.00000000000E+00  0.00000000000E+00  0.14032132043E+04  0.14032132043E+04  0.50400001928E-02 0.  1.
       -1   -1    0    0    0  501  0.00000000000E+00  0.00000000000E+00 -0.12097418208E+04  0.12097418208E+04  0.50400001928E-02 0. -1.
    10030    2    1    2    0    0  0.00000000000E+00  0.00000000000E+00  0.19347138358E+03  0.26129550251E+04  0.26057825671E+04 0.  0.
        4    1    3    3  502    0 -0.74501733045E+03 -0.91175224053E+03  0.65610724328E+03  0.13478951363E+04  0.12699999809E+01 0.  1.
       -4    1    3    3    0  502  0.74501733045E+03  0.91175224053E+03 -0.46263585970E+03  0.12650598888E+04  0.12699999809E+01 0. -1.
</event>
<event>
 5   0  0.2586775E-06  0.2607466E+04  0.7818609E-02  0.8365670E-01
        2   -1    0    0  501    0  0.00000000000E+00  0.00000000000E+00  0.16460933774E+04  0.16460933774E+04  0.25500000920E-02 0. -1.
       -2   -1    0    0    0  501  0.00000000000E+00  0.00000000000E+00 -0.10325779855E+04  0.10325779855E+04  0.25500000920E-02 0.  1.
    10030    2    1    2    0    0  0.00000000000E+00  0.00000000000E+00  0.61351539198E+03  0.26786713629E+04  0.26074660370E+04 0.  0.
        1    1    3    3  502    0 -0.36692355043E+03  0.30004018833E+03 -0.94093038498E+03  0.10535686954E+04  0.50400001928E-02 0.  1.
       -1    1    3    3    0  502  0.36692355043E+03 -0.30004018833E+03  0.15544457770E+04  0.16251026675E+04  0.50400001928E-02 0. -1.
</event>
<event>
 5   0  0.2746631E-06  0.2595803E+04  0.7818609E-02  0.8369628E-01
        2   -1    0    0  501    0  0.00000000000E+00  0.00000000000E+00  0.16401744442E+04  0.16401744442E+04  0.25500000920E-02 0. -1.
       -2   -1    0    0    0  501  0.00000000000E+00  0.00000000000E+00 -0.10270545108E+04  0.10270545108E+04  0.25500000920E-02 0.  1.
    10030    2    1    2    0    0  0.00000000000E+00  0.00000000000E+00  0.61311993349E+03  0.26672289550E+04  0.25958031985E+04 0.  0.
        2    1    3    3  502    0 -0.73906104126E+03 -0.95871023955E+03  0.78764374292E+03  0.14442019291E+04  0.25500000920E-02 0. -1.
       -2    1    3    3    0  502  0.73906104126E+03  0.95871023955E+03 -0.17452380943E+03  0.12230270259E+04  0.25500000920E-02 0.  1.
</event>
<event>
 5   0  0.1032076E-06  0.2601720E+04  0.7818609E-02  0.8367617E-01
        1   -1    0    0  501    0  0.00000000000E+00  0.00000000000E+00  0.93929353086E+03  0.93929353087E+03  0.50400001928E-02 0.  1.
       -1   -1    0    0    0  501  0.00000000000E+00  0.00000000000E+00 -0.18016054243E+04  0.18016054243E+04  0.50400001928E-02 0. -1.
    10030    2    1    2    0    0  0.00000000000E+00  0.00000000000E+00 -0.86231189339E+03  0.27408989551E+04  0.26017196776E+04 0.  0.
        1    1    3    3  502    0 -0.39113358527E+03 -0.88774450466E+03 -0.13442150786E+04  0.16577062359E+04  0.50400001928E-02 0. -1.
       -1    1    3    3    0  502  0.39113358527E+03  0.88774450466E+03  0.48190318518E+03  0.10831927192E+04  0.50400001928E-02 0.  1.
</event>
<event>
 5   0  0.1122628E-06  0.2600662E+04  0.7818609E-02  0.8367976E-01
        1   -1    0    0  501    0  0.00000000000E+00  0.00000000000E+00  0.18849842190E+04  0.18849842190E+04  0.50400001928E-02 0.  1.
       -1   -1    0    0    0  501  0.00000000000E+00  0.00000000000E+00 -0.89701577700E+03  0.89701577701E+03  0.50400001928E-02 0. -1.
    10030    2    1    2    0    0  0.00000000000E+00  0.00000000000E+00  0.98796844203E+03  0.27819999961E+04  0.26006619034E+04 0.  0.
        2    1    3    3  502    0 -0.44724114950E+03 -0.84132018458E+03  0.14405670596E+04  0.17271588671E+04  0.25500000920E-02 0.  1.
       -2    1    3    3    0  502  0.44724114950E+03  0.84132018458E+03 -0.45259861758E+03  0.10548411290E+04  0.25500000920E-02 0. -1.
</event>
<event>
 5   0  0.2586775E-06  0.2601596E+04  0.7818609E-02  0.8367659E-01
       -2   -1    0    0    0  501  0.00000000000E+00  0.00000000000E+00  0.11758351071E+04  0.11758351071E+04  0.25500000920E-02 0.  1.
        2   -1    0    0  501    0  0.00000000000E+00  0.00000000000E+00 -0.14390413714E+04  0.14390413714E+04  0.25500000920E-02 0. -1.
    10030    2    1    2    0    0  0.00000000000E+00  0.00000000000E+00 -0.26320626424E+03  0.26148764785E+04  0.26015959448E+04 0.  0.
        1    1    3    3  502    0  0.64701893777E+02 -0.23362513914E+03  0.11529303215E+04  0.11781406398E+04  0.50400001928E-02 0.  1.
       -1    1    3    3    0  502 -0.64701893777E+02  0.23362513914E+03 -0.14161365858E+04  0.14367358387E+04  0.50400001928E-02 0. -1.
</event>
<event>
 5   0  0.1122628E-06  0.2600605E+04  0.7818609E-02  0.8367996E-01
        1   -1    0    0  501    0  0.00000000000E+00  0.00000000000E+00  0.15705002113E+04  0.15705002113E+04  0.50400001928E-02 0. -1.
       -1   -1    0    0    0  501  0.00000000000E+00  0.00000000000E+00 -0.10765907320E+04  0.10765907320E+04  0.50400001928E-02 0.  1.
    10030    2    1    2    0    0  0.00000000000E+00  0.00000000000E+00  0.49390947930E+03  0.26470909433E+04  0.26006045236E+04 0.  0.
        2    1    3    3  502    0 -0.92765096867E+03  0.73285063957E+03  0.79809408615E+03  0.14263802263E+04  0.25500000920E-02 0. -1.
       -2    1    3    3    0  502  0.92765096867E+03 -0.73285063957E+03 -0.30418460685E+03  0.12207107170E+04  0.25500000920E-02 0.  1.
</event>
<event>
 5   0  0.1055179E-06  0.2602485E+04  0.7818609E-02  0.8367358E-01
       -1   -1    0    0    0  501  0.00000000000E+00  0.00000000000E+00  0.11059160491E+04  0.11059160492E+04  0.50400001928E-02 0. -1.
        1   -1    0    0  501    0  0.00000000000E+00  0.00000000000E+00 -0.15310672762E+04  0.15310672762E+04  0.50400001928E-02 0.  1.
    10030    2    1    2    0    0  0.00000000000E+00  0.00000000000E+00 -0.42515122710E+03  0.26369833254E+04  0.26024848688E+04 0.  0.
        3    1    3    3  502    0 -0.41689328546E+03 -0.64255053847E+03  0.85330063080E+03  0.11466443139E+04  0.10100000352E+00 0. -1.
       -3    1    3    3    0  502  0.41689328546E+03  0.64255053847E+03 -0.12784518579E+04  0.14903390115E+04  0.10100000352E+00 0.  1.
</event>
<event>
 5   0  0.2705807E-06  0.2600923E+04  0.7818609E-02  0.8367888E-01
       -2   -1    0    0    0  501  0.00000000000E+00  0.00000000000E+00  0.10452951714E+04  0.10452951714E+04  0.25500000920E-02 0. -1.
        2   -1    0    0  501    0  0.00000000000E+00  0.00000000000E+00 -0.16179163696E+04  0.16179163696E+04  0.25500000920E-02 0.  1.
    10030    2    1    2    0    0  0.00000000000E+00  0.00000000000E+00 -0.57262119825E+03  0.26632115410E+04  0.26009230430E+04 0.  0.
        4    1    3    3  502    0 -0.38550761508E+03  0.42163237458E+03  0.90991759219E+03  0.10744029123E+04  0.12699999809E+01 0. -1.
       -4    1    3    3    0  502  0.38550761508E+03 -0.42163237458E+03 -0.14825387904E+04  0.15888086287E+04  0.12699999809E+01 0.  1.
</event>
<event>
 5   0  0.2705807E-06  0.2598856E+04  0.7818609E-02  0.8368590E-01
       -2   -1    0    0    0  501  0.00000000000E+00  0.00000000000E+00  0.19911170018E+04  0.19911170018E+04  0.25500000920E-02 0.  1.
        2   -1    0    0  501    0  0.00000000000E+00  0.00000000000E+00 -0.84802282852E+03  0.84802282853E+03  0.25500000920E-02 0. -1.
    10030    2    1    2    0    0  0.00000000000E+00  0.00000000000E+00  0.11430941732E+04  0.28391398303E+04  0.25988556495E+04 0.  0.
        4    1    3    3  502    0  0.12632242979E+04  0.24736666154E+02  0.23989390080E+03  0.12860397451E+04  0.12699999809E+01 0.  1.
       -4    1    3    3    0  502 -0.12632242979E+04 -0.24736666154E+02  0.90320027245E+03  0.15531000852E+04  0.12699999809E+01 0. -1.
</event>
<event>
 5   0  0.2705807E-06  0.2602289E+04  0.7818609E-02  0.8367424E-01
       -2   -1    0    0    0  501  0.00000000000E+00  0.00000000000E+00  0.14396178466E+04  0.14396178466E+04  0.25500000920E-02 0.  1.
        2   -1    0    0  501    0  0.00000000000E+00  0.00000000000E+00 -0.11759903030E+04  0.11759903030E+04  0.25500000920E-02 0. -1.
    10030    2    1    2    0    0  0.00000000000E+00  0.00000000000E+00  0.26362754352E+03  0.26156081496E+04  0.26022887062E+04 0.  0.
        4    1    3    3  502    0  0.97399191338E+03 -0.44810433182E+03 -0.60919590783E+03  0.12331175964E+04  0.12699999809E+01 0. -1.
       -4    1    3    3    0  502 -0.97399191338E+03  0.44810433182E+03  0.87282345135E+03  0.13824905532E+04  0.12699999809E+01 0.  1.
</event>
<event>
 5   0  0.2820028E-06  0.2603257E+04  0.7818609E-02  0.8367096E-01
        2   -1    0    0  501    0  0.00000000000E+00  0.00000000000E+00  0.12456060350E+04  0.12456060351E+04  0.25500000920E-02 0.  1.
       -2   -1    0    0    0  501  0.00000000000E+00  0.00000000000E+00 -0.13601708780E+04  0.13601708780E+04  0.25500000920E-02 0. -1.
    10030    2    1    2    0    0  0.00000000000E+00  0.00000000000E+00 -0.11456484293E+03  0.26057769130E+04  0.26032572322E+04 0.  0.
        3    1    3    3  502    0 -0.13965984040E+03  0.97332967533E+03  0.79639797388E+03  0.12653557883E+04  0.10100000352E+00 0.  1.
       -3    1    3    3    0  502  0.13965984040E+03 -0.97332967533E+03 -0.91096281681E+03  0.13404211248E+04  0.10100000352E+00 0. -1.
</event>
<event>
 5   0  0.1032076E-06  0.2601976E+04  0.7818609E-02  0.8367530E-01
        1   -1    0    0  501    0  0.00000000000E+00  0.00000000000E+00  0.18415919054E+04  0.18415919054E+04  0.50400001928E-02 0.  1.
       -1   -1    0    0    0  501  0.00000000000E+00  0.00000000000E+00 -0.91907948481E+03  0.91907948482E+03  0.50400001928E-02 0. -1.
    10030    2    1    2    0    0  0.00000000000E+00  0.00000000000E+00  0.92251242055E+03  0.27606713902E+04  0.26019756645E+04 0.  0.
        1    1    3    3  502    0  0.41859162144E+03 -0.58537123943E+03 -0.68867877613E+03  0.99607072551E+03  0.50400001928E-02 0. -1.
       -1    1    3    3    0  502 -0.41859162144E+03  0.58537123943E+03  0.16111911967E+04  0.17646006647E+04  0.50400001928E-02 0.  1.
</event>
<event>
 5   0  0.2746631E-06  0.2591655E+04  0.7818609E-02  0.8371041E-01
       -2   -1    0    0    0  501  0.00000000000E+00  0.00000000000E+00  0.19719563319E+04  0.19719563319E+04  0.25500000920E-02 0. -1.
        2   -1    0    0  501    0  0.00000000000E+00  0.00000000000E+00 -0.85152414054E+03  0.85152414054E+03  0.25500000920E-02 0.  1.
    10030    2    1    2    0    0  0.00000000000E+00  0.00000000000E+00  0.11204321913E+04  0.28234804724E+04  0.25916546226E+04 0.  0.
        2    1    3    3  502    0  0.41070035518E+03  0.95436439383E+03 -0.28344545774E+03  0.10769528799E+04  0.25500000920E-02 0.  1.
       -2    1    3    3    0  502 -0.41070035518E+03 -0.95436439383E+03  0.14038776491E+04  0.17465275925E+04  0.25500000920E-02 0. -1.
</event>
<event>
 5   0  0.2586775E-06  0.2594642E+04  0.7818609E-02  0.8370024E-01
       -2   -1    0    0    0  501  0.00000000000E+00  0.00000000000E+00  0.12927109453E+04  0.12927109453E+04  0.25500000920E-02 0.  1.
        2   -1    0    0  501    0  0.00000000000E+00  0.00000000000E+00 -0.13019471495E+04  0.13019471495E+04  0.25500000920E-02 0. -1.
    10030    2    1    2    0    0  0.00000000000E+00  0.00000000000E+00 -0.92362041983E+01  0.25946580949E+04  0.25946416558E+04 0.  0.
        1    1    3    3  502    0  0.47865941459E+03  0.11989464937E+04 -0.13289128309E+03  0.12977856615E+04  0.50400001928E-02 0. -1.
       -1    1    3    3    0  502 -0.47865941459E+03 -0.11989464937E+04  0.12365507889E+03  0.12968724334E+04  0.50400001928E-02 0.  1.
</event>
<event>
 5   0  0.1122628E-06  0.2598752E+04  0.7818609E-02  0.8368625E-01
       -1   -1    0    0    0  501  0.00000000000E+00  0.00000000000E+00  0.79651505718E+03  0.79651505720E+03  0.50400001928E-02 0.  1.
        1   -1    0    0  501    0  0.00000000000E+00  0.00000000000E+00 -0.21197060419E+04  0.21197060419E+04  0.50400001928E-02 0. -1.
    10030    2    1    2    0    0  0.00000000000E+00  0.00000000000E+00 -0.13231909847E+04  0.29162210991E+04  0.25987518383E+04 0.  0.
        2    1    3    3  502    0 -0.10369900226E+03  0.54727863526E+03 -0.19789347734E+04  0.20558332191E+04  0.25500000920E-02 0. -1.
       -2    1    3    3    0  502  0.10369900226E+03 -0.54727863526E+03  0.65574378863E+03  0.86038787998E+03  0.25500000920E-02 0.  1.
</event>
<event>
 5   0  0.1122628E-06  0.2597750E+04  0.7818609E-02  0.8368966E-01
        1   -1    0    0  501    0  0.00000000000E+00  0.00000000000E+00  0.11678904762E+04  0.11678904762E+04  0.50400001928E-02 0. -1.
       -1   -1    0    0    0  501  0.00000000000E+00  0.00000000000E+00 -0.14445496212E+04  0.14445496212E+04  0.50400001928E-02 0.  1.
    10030    2    1    2    0    0  0.00000000000E+00  0.00000000000E+00 -0.27665914500E+03  0.26124400974E+04  0.25977495992E+04 0.  0.
        2    1    3    3  502    0 -0.12041267370E+04  0.48230326512E+03 -0.20607600186E+03  0.13133944407E+04  0.25500000920E-02 0.  1.
       -2    1    3    3    0  502  0.12041267370E+04 -0.48230326512E+03 -0.70583143140E+02  0.12990456567E+04  0.25500000920E-02 0. -1.
</event>
<event>
 5   0  0.2586775E-06  0.2599983E+04  0.7818609E-02  0.8368207E-01
        2   -1    0    0  501    0  0.00000000000E+00  0.00000000000E+00  0.15743920360E+04  0.15743920360E+04  0.25500000920E-02 0.  1.
       -2   -1    0    0    0  501  0.00000000000E+00  0.00000000000E+00 -0.10734158925E+04  0.10734158925E+04  0.25500000920E-02 0. -1.
    10030    2    1    2    0    0  0.00000000000E+00  0.00000000000E+00  0.50097614354E+03  0.26478079286E+04  0.25999826403E+04 0.  0.
        1    1    3    3  502    0 -0.45576472110E+03  0.23889929258E+03 -0.96528174943E+03  0.10938753168E+04  0.50400001928E-02 0. -1.
       -1    1    3    3    0  502  0.45576472110E+03 -0.23889929258E+03  0.14662578930E+04  0.15539326117E+04  0.50400001928E-02 0.  1.
</event>
<event>
 5   0  0.2705807E-06  0.2597430E+04  0.7818609E-02  0.8369075E-01
       -2   -1    0    0    0  501  0.00000000000E+00  0.00000000000E+00  0.12914847667E+04  0.12914847667E+04  0.25500000920E-02 0.  1.
        2   -1    0    0  501    0  0.00000000000E+00  0.00000000000E+00 -0.13059857909E+04  0.13059857909E+04  0.25500000920E-02 0. -1.
    10030    2    1    2    0    0  0.00000000000E+00  0.00000000000E+00 -0.14501024181E+02  0.25974705575E+04  0.25974300794E+04 0.  0.
        4    1    3    3  502    0  0.57501904788E+03  0.78543421019E+03  0.85247524302E+03  0.12939356463E+04  0.12699999809E+01 0.  1.
       -4    1    3    3    0  502 -0.57501904788E+03 -0.78543421019E+03 -0.86697626721E+03  0.13035349112E+04  0.12699999809E+01 0. -1.
</event>
<event>
 5   0  0.2705807E-06  0.2593959E+04  0.7818609E-02  0.8370256E-01
       -2   -1    0    0    0  501  0.00000000000E+00  0.00000000000E+00  0.12479831825E+04  0.12479831825E+04  0.25500000920E-02 0.  1.
        2   -1    0    0  501    0  0.00000000000E+00  0.00000000000E+00 -0.13478989471E+04  0.13478989471E+04  0.25500000920E-02 0. -1.
    10030    2    1    2    0    0  0.00000000000E+00  0.00000000000E+00 -0.99915764573E+02  0.25958821296E+04  0.25939585329E+04 0.  0.
        4    1    3    3  502    0  0.31006490303E+03  0.60115324376E+03 -0.11574077013E+04  0.13405669198E+04  0.12699999809E+01 0. -1.
       -4    1    3    3    0  502 -0.31006490303E+03 -0.60115324376E+03  0.10574919367E+04  0.12553152097E+04  0.12699999809E+01 0.  1.
</event>
<event>
 5   0  0.1055179E-06  0.2596885E+04  0.7818609E-02  0.8369260E-01
       -1   -1    0    0    0  501  0.00000000000E+00  0.00000000000E+00  0.15575265605E+04  0.15575265605E+04  0.50400001928E-02 0. -1.
        1   -1    0    0  501    0  0.00000000000E+00  0.00000000000E+00 -0.10824549279E+04  0.10824549279E+04  0.50400001928E-02 0.  1.
    10030    2    1    2    0    0  0.00000000000E+00  0.00000000000E+00  0.47507163259E+03  0.26399814884E+04  0.25968845186E+04 0.  0.
        3    1    3    3  502    0 -0.92334844206E+03  0.54137605796E+02  0.11639490375E+04  0.14867012471E+04  0.10100000352E+00 0. -1.
       -3    1    3    3    0  502  0.92334844206E+03 -0.54137605796E+02 -0.68887740496E+03  0.11532802413E+04  0.10100000352E+00 0.  1.
</event>
<event>
 5   0  0.1088757E-06  0.2566454E+04  0.7818609E-02  0.8379686E-01
        1   -1    0    0  501    0  0.00000000000E+00  0.00000000000E+00  0.61288046482E+03  0.61288046484E+03  0.50400001928E-02 0.  1.
       -1   -1    0    0    0  501  0.00000000000E+00  0.00000000000E+00 -0.26867747045E+04  0.26867747045E+04  0.50400001928E-02 0. -1.
    10030    2    1    2    0    0  0.00000000000E+00  0.00000000000E+00 -0.20738942397E+04  0.32996551693E+04  0.25664541530E+04 0.  0.
        5    1    3    3  502    0 -0.91546902716E+03 -0.85815149709E+03 -0.69162097485E+03  0.14327837222E+04  0.46999998093E+01 0. -1.
       -5    1    3    3    0  502  0.91546902716E+03  0.85815149709E+03 -0.13822732648E+04  0.18668714472E+04  0.46999998093E+01 0.  1.
</event>
<event>
 5   0  0.2746631E-06  0.2588859E+04  0.7818609E-02  0.8371996E-01
        2   -1    0    0  501    0  0.00000000000E+00  0.00000000000E+00  0.16830534084E+04  0.16830534084E+04  0.25500000920E-02 0. -1.
       -2   -1    0    0    0  501  0.00000000000E+00  0.00000000000E+00 -0.99554018565E+03  0.99554018565E+03  0.25500000920E-02 0.  1.
    10030    2    1    2    0    0  0.00000000000E+00  0.00000000000E+00  0.68751322273E+03  0.26785935940E+04  0.25888586695E+04 0.  0.
        2    1    3    3  502    0  0.11517196931E+03 -0.69047475928E+03  0.14703164591E+04  0.16284503264E+04  0.25500000920E-02 0. -1.
       -2    1    3    3    0  502 -0.11517196931E+03  0.69047475928E+03 -0.78280323635E+03  0.10501432676E+04  0.25500000920E-02 0.  1.
</event>
<event>
 5   0  0.1122628E-06  0.2598787E+04  0.7818609E-02  0.8368613E-01
        1   -1    0    0  501    0  0.00000000000E+00  0.00000000000E+00  0.12655219116E+04  0.12655219116E+04  0.50400001928E-02 0.  1.
       -1   -1    0    0    0  501  0.00000000000E+00  0.00000000000E+00 -0.13341713590E+04  0.13341713590E+04  0.50400001928E-02 0. -1.
    10030    2    1    2    0    0  0.00000000000E+00  0.00000000000E+00 -0.68649447370E+02  0.25996932706E+04  0.25987867082E+04 0.  0.
        2    1    3    3  502    0 -0.27299394491E+03 -0.10028062883E+04  0.74586845777E+03  0.12792442699E+04  0.25500000920E-02 0.  1.
       -2    1    3    3    0  502  0.27299394491E+03  0.10028062883E+04 -0.81451790514E+03  0.13204490007E+04  0.25500000920E-02 0. -1.
</event>
<event>
 5   0  0.1122628E-06  0.2602339E+04  0.7818609E-02  0.8367407E-01
        1   -1    0    0  501    0  0.00000000000E+00  0.00000000000E+00  0.13503158679E+04  0.13503158680E+04  0.50400001928E-02 0. -1.
       -1   -1    0    0    0  501  0.00000000000E+00  0.00000000000E+00 -0.12538122014E+04  0.12538122014E+04  0.50400001928E-02 0.  1.
    10030    2    1    2    0    0  0.00000000000E+00  0.00000000000E+00  0.96503666579E+02  0.26041280693E+04  0.26023393406E+04 0.  0.
        2    1    3    3  502    0 -0.10709320506E+04 -0.83461933956E+02  0.78304611136E+03  0.13292940096E+04  0.25500000920E-02 0. -1.
       -2    1    3    3    0  502  0.10709320506E+04  0.83461933956E+02 -0.68654244478E+03  0.12748340597E+04  0.25500000920E-02 0.  1.
</event>
<event>
 5   0  0.1032076E-06  0.2602096E+04  0.7818609E-02  0.8367490E-01
       -1   -1    0    0    0  501  0.00000000000E+00  0.00000000000E+00  0.11164308369E+04  0.11164308369E+04  0.50400001928E-02 0.  1.
        1   -1    0    0  501    0  0.00000000000E+00  0.00000000000E+00 -0.15161940143E+04  0.15161940143E+04  0.50400001928E-02 0. -1.
    10030    2    1    2    0    0  0.00000000000E+00  0.00000000000E+00 -0.39976317738E+03  0.26326248513E+04  0.26020958878E+04 0.  0.
        1    1    3    3  502    0  0.86449502202E+03 -0.83684126580E+03 -0.70073596055E+03  0.13923669896E+04  0.50400001928E-02 0. -1.
       -1    1    3    3    0  502 -0.86449502202E+03  0.83684126580E+03  0.30097278318E+03  0.12402578617E+04  0.50400001928E-02 0.  1.
</event>
<event>
 5   0  0.2746631E-06  0.2597050E+04  0.7818609E-02  0.8369204E-01
        2   -1    0    0  501    0  0.00000000000E+00  0.00000000000E+00  0.18869537064E+04  0.18869537064E+04  0.25500000920E-02 0.  1.
       -2   -1    0    0    0  501  0.00000000000E+00  0.00000000000E+00 -0.89359250900E+03  0.89359250900E+03  0.25500000920E-02 0. -1.
    10030    2    1    2    0    0  0.00000000000E+00  0.00000000000E+00  0.99336119736E+03  0.27805462154E+04  0.25970504014E+04 0.  0.
        2    1    3    3  502    0 -0.48547094371E+03  0.31249356980E+03  0.17419746193E+04  0.18351593507E+04  0.25500000920E-02 0.  1.
       -2    1    3    3    0  502  0.48547094371E+03 -0.31249356980E+03 -0.74861342192E+03  0.94538686464E+03  0.25500000920E-02 0. -1.
</event>
<event>
 5   0  0.2705807E-06  0.2644450E+04  0.7818609E-02  0.8353257E-01
       -2   -1    0    0    0  501  0.00000000000E+00  0.00000000000E+00  0.10580377339E+04  0.10580377339E+04  0.25500000920E-02 0. -1.
        2   -1    0    0  501    0  0.00000000000E+00  0.00000000000E+00 -0.16523787506E+04  0.16523787506E+04  0.25500000920E-02 0.  1.
    10030    2    1    2    0    0  0.00000000000E+00  0.00000000000E+00 -0.59434101677E+03  0.27104164845E+04  0.26444500894E+04 0.  0.
        4    1    3    3  502    0  0.71968612882E+02 -0.83294190692E+02 -0.16476734514E+04  0.16513469711E+04  0.12699999809E+01 0.  1.
       -4    1    3    3    0  502 -0.71968612882E+02  0.83294190692E+02  0.10533324347E+04  0.10590695134E+04  0.12699999809E+01 0. -1.
</event>
<event>
 5   0  0.1032076E-06  0.2600421E+04  0.7818609E-02  0.8368058E-01
       -1   -1    0    0    0  501  0.00000000000E+00  0.00000000000E+00  0.80095833583E+03  0.80095833584E+03  0.50400001928E-02 0.  1.
        1   -1    0    0  501    0  0.00000000000E+00  0.00000000000E+00 -0.21106555844E+04  0.21106555844E+04  0.50400001928E-02 0. -1.
    10030    2    1    2    0    0  0.00000000000E+00  0.00000000000E+00 -0.13096972485E+04  0.29116139202E+04  0.26004208770E+04 0.  0.
        1    1    3    3  502    0  0.99475204067E+03  0.18922924604E+03  0.25835752501E+03  0.10450301147E+04  0.50400001928E-02 0.  1.
       -1    1    3    3    0  502 -0.99475204067E+03 -0.18922924604E+03 -0.15680547736E+04  0.18665838055E+04  0.50400001928E-02 0. -1.
</event>
<event>
 5   0  0.2586775E-06  0.2570934E+04  0.7818609E-02  0.8378142E-01
        2   -1    0    0  501    0  0.00000000000E+00  0.00000000000E+00  0.11258337228E+04  0.11258337228E+04  0.25500000920E-02 0.  1.
       -2   -1    0    0    0  501  0.00000000000E+00  0.00000000000E+00 -0.14677349302E+04  0.14677349302E+04  0.25500000920E-02 0. -1.
    10030    2    1    2    0    0  0.00000000000E+00  0.00000000000E+00 -0.34190120741E+03  0.25935686529E+04  0.25709340563E+04 0.  0.
        1    1    3    3  502    0 -0.46696180794E+03 -0.61954118690E+03  0.86303213135E+03  0.11604779499E+04  0.50400001928E-02 0.  1.
       -1    1    3    3    0  502  0.46696180794E+03  0.61954118690E+03 -0.12049333388E+04  0.14330907031E+04  0.50400001928E-02 0. -1.
</event>
<event>
 5   0  0.1122628E-06  0.2617253E+04  0.7818609E-02  0.8362364E-01
       -1   -1    0    0    0  501  0.00000000000E+00  0.00000000000E+00  0.83247318858E+03  0.83247318859E+03  0.50400001928E-02 0.  1.
        1   -1    0    0  501    0  0.00000000000E+00  0.00000000000E+00 -0.20571272036E+04  0.20571272036E+04  0.50400001928E-02 0. -1.
    10030    2    1    2    0    0  0.00000000000E+00  0.00000000000E+00 -0.12246540150E+04  0.28896003922E+04  0.26172529435E+04 0.  0.
        2    1    3    3  502    0 -0.77840507027E+03 -0.76272195589E+03  0.18752052981E+03  0.11058133588E+04  0.25500000920E-02 0.  1.
       -2    1    3    3    0  502  0.77840507027E+03  0.76272195589E+03 -0.14121745448E+04  0.17837870334E+04  0.25500000920E-02 0. -1.
</event>
<event>
 5   0  0.1032076E-06  0.2599840E+04  0.7818609E-02  0.8368255E-01
       -1   -1    0    0    0  501  0.00000000000E+00  0.00000000000E+00  0.11785040814E+04  0.11785040815E+04  0.50400001928E-02 0. -1.
        1   -1    0    0  501    0  0.00000000000E+00  0.00000000000E+00 -0.14338452831E+04  0.14338452831E+04  0.50400001928E-02 0.  1.
    10030    2    1    2    0    0  0.00000000000E+00  0.00000000000E+00 -0.25534120170E+03  0.26123493646E+04  0.25998403938E+04 0.  0.
        1    1    3    3  502    0  0.82222449511E+03  0.71575513539E+03 -0.83919771158E+03  0.13757221134E+04  0.50400001928E-02 0.  1.
       -1    1    3    3    0  502 -0.82222449511E+03 -0.71575513539E+03  0.58385650988E+03  0.12366272512E+04  0.50400001928E-02 0. -1.
</event>
<event>
 5   0  0.1032076E-06  0.2595703E+04  0.7818609E-02  0.8369662E-01
       -1   -1    0    0    0  501  0.00000000000E+00  0.00000000000E+00  0.85690882579E+03  0.85690882581E+03  0.50400001928E-02 0. -1.
        1   -1    0    0  501    0  0.00000000000E+00  0.00000000000E+00 -0.19656923873E+04  0.19656923873E+04  0.50400001928E-02 0.  1.
    10030    2    1    2    0    0  0.00000000000E+00  0.00000000000E+00 -0.11087835615E+04  0.28226012131E+04  0.25957034927E+04 0.  0.
        1    1    3    3  502    0 -0.98225020973E+03 -0.19492501242E+03  0.34337133078E+03  0.10586383263E+04  0.50400001928E-02 0. -1.
       -1    1    3    3    0  502  0.98225020973E+03  0.19492501242E+03 -0.14521548923E+04  0.17639628869E+04  0.50400001928E-02 0.  1.
</event>
<event>
 5   0  0.1032076E-06  0.2601782E+04  0.7818609E-02  0.8367596E-01
       -1   -1    0    0    0  501  0.00000000000E+00  0.00000000000E+00  0.89472144871E+03  0.89472144873E+03  0.50400001928E-02 0.  1.
        1   -1    0    0  501    0  0.00000000000E+00  0.00000000000E+00 -0.18914455978E+04  0.18914455978E+04  0.50400001928E-02 0. -1.
    10030    2    1    2    0    0  0.00000000000E+00  0.00000000000E+00 -0.99672414911E+03  0.27861670466E+04  0.26017816553E+04 0.  0.
        1    1    3    3  502    0  0.73360750510E+03  0.90053660707E+02 -0.16447557673E+04  0.18031947115E+04  0.50400001928E-02 0. -1.
       -1    1    3    3    0  502 -0.73360750510E+03 -0.90053660707E+02  0.64803161820E+03  0.98297233509E+03  0.50400001928E-02 0.  1.
</event>
<event>
 5   0  0.1032076E-06  0.2601959E+04  0.7818609E-02  0.8367536E-01
       -1   -1    0    0    0  501  0.00000000000E+00  0.00000000000E+00  0.99081390949E+03  0.99081390950E+03  0.50400001928E-02 0.  1.
        1   -1    0    0  501    0  0.00000000000E+00  0.00000000000E+00 -0.17082394086E+04  0.17082394086E+04  0.50400001928E-02 0. -1.
    10030    2    1    2    0    0  0.00000000000E+00  0.00000000000E+00 -0.71742549909E+03  0.26990533181E+04  0.26019587751E+04 0.  0.
        1    1    3    3  502    0 -0.96993562572E+03 -0.23351801656E+03  0.50745636357E+03  0.11192934124E+04  0.50400001928E-02 0.  1.
       -1    1    3    3    0  502  0.96993562572E+03  0.23351801656E+03 -0.12248818627E+04  0.15797599057E+04  0.50400001928E-02 0. -1.
</event>
<event>
 5   0  0.1122628E-06  0.2602753E+04  0.7818609E-02  0.8367267E-01
        1   -1    0    0  501    0  0.00000000000E+00  0.00000000000E+00  0.19679752709E+04  0.19679752709E+04  0.50400001928E-02 0. -1.
       -1   -1    0    0    0  501  0.00000000000E+00  0.00000000000E+00 -0.86057038905E+03  0.86057038907E+03  0.50400001928E-02 0.  1.
    10030    2    1    2    0    0  0.00000000000E+00  0.00000000000E+00  0.11074048818E+04  0.28285456600E+04  0.26027533456E+04 0.  0.
        2    1    3    3  502    0 -0.10092880811E+04  0.74556496583E+03  0.92867369304E+03  0.15610779536E+04  0.25500000920E-02 0.  1.
       -2    1    3    3    0  502  0.10092880811E+04 -0.74556496583E+03  0.17873118881E+03  0.12674677064E+04  0.25500000920E-02 0. -1.
</event>
<event>
 5   0  0.1032076E-06  0.2630830E+04  0.7818609E-02  0.8357804E-01
        1   -1    0    0  501    0  0.00000000000E+00  0.00000000000E+00  0.74382206450E+03  0.74382206452E+03  0.50400001928E-02 0.  1.
       -1   -1    0    0    0  501  0.00000000000E+00  0.00000000000E+00 -0.23262506550E+04  0.23262506550E+04  0.50400001928E-02 0. -1.
    10030    2    1    2    0    0  0.00000000000E+00  0.00000000000E+00 -0.15824285905E+04  0.30700727195E+04  0.26308299563E+04 0.  0.
        1    1    3    3  502    0 -0.13077738298E+04 -0.24381959379E+02 -0.95396102918E+03  0.16189220225E+04  0.50400001928E-02 0. -1.
       -1    1    3    3    0  502  0.13077738298E+04  0.24381959379E+02 -0.62846756130E+03  0.14511506970E+04  0.50400001928E-02 0.  1.
</event>
<event>
 5   0  0.2746631E-06  0.2605411E+04  0.7818609E-02  0.8366366E-01
        2   -1    0    0  501    0  0.00000000000E+00  0.00000000000E+00  0.23681586941E+04  0.23681586941E+04  0.25500000920E-02 0.  1.
       -2   -1    0    0    0  501  0.00000000000E+00  0.00000000000E+00 -0.71660794154E+03  0.71660794155E+03  0.25500000920E-02 0. -1.
    10030    2    1    2    0    0  0.00000000000E+00  0.00000000000E+00  0.16515507526E+04  0.30847666357E+04  0.26054107753E+04 0.  0.
        2    1    3    3  502    0 -0.37435172262E+03 -0.51142180258E+03 -0.52175837115E+03  0.82092829787E+03  0.25500000920E-02 0. -1.
       -2    1    3    3    0  502  0.37435172262E+03  0.51142180258E+03  0.21733091238E+04  0.22638383378E+04  0.25500000920E-02 0.  1.
</event>
<event>
 5   0  0.1122628E-06  0.2596526E+04  0.7818609E-02  0.8369382E-01
       -1   -1    0    0    0  501  0.00000000000E+00  0.00000000000E+00  0.66584427696E+03  0.66584427697E+03  0.50400001928E-02 0. -1.
        1   -1    0    0  501    0  0.00000000000E+00  0.00000000000E+00 -0.25313532868E+04  0.25313532868E+04  0.50400001928E-02 0.  1.
    10030    2    1    2    0    0  0.00000000000E+00  0.00000000000E+00 -0.18655090099E+04  0.31971975638E+04  0.25965262171E+04 0.  0.
        2    1    3    3  502    0  0.24952469326E+03  0.12076680644E+04 -0.14325654707E+04  0.18902297622E+04  0.25500000920E-02 0.  1.
       -2    1    3    3    0  502 -0.24952469326E+03 -0.12076680644E+04 -0.43294353917E+03  0.13069678016E+04  0.25500000920E-02 0. -1.
</event>
<event>
 5   0  0.1088757E-06  0.2604314E+04  0.7818609E-02  0.8366737E-01
        1   -1    0    0  501    0  0.00000000000E+00  0.00000000000E+00  0.13086613025E+04  0.13086613025E+04  0.50400001928E-02 0.  1.
       -1   -1    0    0    0  501  0.00000000000E+00  0.00000000000E+00 -0.12956849797E+04  0.12956849797E+04  0.50400001928E-02 0. -1.
    10030    2    1    2    0    0  0.00000000000E+00  0.00000000000E+00  0.12976322776E+02  0.26043462822E+04  0.26043139543E+04 0.  0.
        5    1    3    3  502    0 -0.20484437774E+03 -0.83313283546E+03 -0.97307448800E+03  0.12972924072E+04  0.46999998093E+01 0. -1.
       -5    1    3    3    0  502  0.20484437774E+03  0.83313283546E+03  0.98605081078E+03  0.13070538750E+04  0.46999998093E+01 0.  1.
</event>
<event>
 5   0  0.2586775E-06  0.2589377E+04  0.7818609E-02  0.8371819E-01
        2   -1    0    0  501    0  0.00000000000E+00  0.00000000000E+00  0.16422853854E+04  0.16422853854E+04  0.25500000920E-02 0.  1.
       -2   -1    0    0    0  501  0.00000000000E+00  0.00000000000E+00 -0.10206618622E+04  0.10206618622E+04  0.25500000920E-02 0. -1.
    10030    2    1    2    0    0  0.00000000000E+00  0.00000000000E+00  0.62162352315E+03  0.26629472476E+04  0.25893768051E+04 0.  0.
        1    1    3    3  502    0  0.42723865099E+03  0.12206232998E+04  0.24771755224E+03  0.13167452642E+04  0.50400001928E-02 0. -1.
       -1    1    3    3    0  502 -0.42723865099E+03 -0.12206232998E+04  0.37390597091E+03  0.13462019834E+04  0.50400001928E-02 0.  1.
</event>
<event>
 5   0  0.2586775E-06  0.2600350E+04  0.7818609E-02  0.8368082E-01
        2   -1    0    0  501    0  0.00000000000E+00  0.00000000000E+00  0.14586730092E+04  0.14586730092E+04  0.25500000920E-02 0. -1.
       -2   -1    0    0    0  501  0.00000000000E+00  0.00000000000E+00 -0.11588988375E+04  0.11588988375E+04  0.25500000920E-02 0.  1.
    10030    2    1    2    0    0  0.00000000000E+00  0.00000000000E+00  0.29977417162E+03  0.26175718467E+04  0.26003495570E+04 0.  0.
        1    1    3    3  502    0  0.83200567393E+02  0.10765171123E+04  0.87900678286E+03  0.13922874530E+04  0.50400001928E-02 0. -1.
       -1    1    3    3    0  502 -0.83200567393E+02 -0.10765171123E+04 -0.57923261124E+03  0.12252843937E+04  0.50400001928E-02 0.  1.
</event>
<event>
 5   0  0.2746631E-06  0.2602411E+04  0.7818609E-02  0.8367383E-01
       -2   -1    0    0    0  501  0.00000000000E+00  0.00000000000E+00  0.11227378019E+04  0.11227378019E+04  0.25500000920E-02 0. -1.
        2   -1    0    0  501    0  0.00000000000E+00  0.00000000000E+00 -0.15080422823E+04  0.15080422823E+04  0.25500000920E-02 0.  1.
    10030    2    1    2    0    0  0.00000000000E+00  0.00000000000E+00 -0.38530448042E+03  0.26307800842E+04  0.26024112490E+04 0.  0.
        2    1    3    3  502    0 -0.18883436963E+03 -0.91032896349E+03  0.72764462801E+03  0.11806032126E+04  0.25500000920E-02 0. -1.
       -2    1    3    3    0  502  0.18883436963E+03  0.91032896349E+03 -0.11129491084E+04  0.14501768716E+04  0.25500000920E-02 0.  1.
</event>
<event>
 5   0  0.2623368E-06  0.2601976E+04  0.7818609E-02  0.8367530E-01
       -2   -1    0    0    0  501  0.00000000000E+00  0.00000000000E+00  0.79431451258E+03  0.79431451259E+03  0.25500000920E-02 0.  1.
        2   -1    0    0  501    0  0.00000000000E+00  0.00000000000E+00 -0.21308556568E+04  0.21308556568E+04  0.25500000920E-02 0. -1.
    10030    2    1    2    0    0  0.00000000000E+00  0.00000000000E+00 -0.13365411443E+04  0.29251701694E+04  0.26019758434E+04 0.  0.
        5    1    3    3  502    0  0.12787433791E+04  0.20697547405E+02 -0.40002318828E+03  0.13400200220E+04  0.46999998093E+01 0.  1.
       -5    1    3    3    0  502 -0.12787433791E+04 -0.20697547405E+02 -0.93651795598E+03  0.15851501475E+04  0.46999998093E+01 0. -1.
</event>
<event>
 5   0  0.1100104E-06  0.2600053E+04  0.7818609E-02  0.8368183E-01
        1   -1    0    0  501    0  0.00000000000E+00  0.00000000000E+00  0.13645403746E+04  0.13645403746E+04  0.50400001928E-02 0.  1.
       -1   -1    0    0    0  501  0.00000000000E+00  0.00000000000E+00 -0.12385627989E+04  0.12385627989E+04  0.50400001928E-02 0. -1.
    10030    2    1    2    0    0  0.00000000000E+00  0.00000000000E+00  0.12597757570E+03  0.26031031734E+04  0.26000530345E+04 0.  0.
        4    1    3    3  502    0 -0.45915767870E+03 -0.11508459681E+04  0.45689044023E+03  0.13206145174E+04  0.12699999809E+01 0.  1.
       -4    1    3    3    0  502  0.45915767870E+03  0.11508459681E+04 -0.33091286453E+03  0.12824886561E+04  0.12699999809E+01 0. -1.
</event>
<event>
 5   0  0.2586775E-06  0.2598670E+04  0.7818609E-02  0.8368653E-01
       -2   -1    0    0    0  501  0.00000000000E+00  0.00000000000E+00  0.96578056000E+03  0.96578056000E+03  0.25500000920E-02 0.  1.
        2   -1    0    0  501    0  0.00000000000E+00  0.00000000000E+00 -0.17480894577E+04  0.17480894577E+04  0.25500000920E-02 0. -1.
    10030    2    1    2    0    0  0.00000000000E+00  0.00000000000E+00 -0.78230889771E+03  0.27138700177E+04  0.25986695176E+04 0.  0.
        1    1    3    3  502    0 -0.41645399474E+03  0.45392030853E+03  0.80358584871E+03  0.10125353290E+04  0.50400001928E-02 0.  1.
       -1    1    3    3    0  502  0.41645399474E+03 -0.45392030853E+03 -0.15858947464E+04  0.17013346887E+04  0.50400001928E-02 0. -1.
</event>
<event>
 5   0  0.1032076E-06  0.2599149E+04  0.7818609E-02  0.8368490E-01
        1   -1    0    0  501    0  0.00000000000E+00  0.00000000000E+00  0.68624339532E+03  0.68624339534E+03  0.50400001928E-02 0.  1.
       -1   -1    0    0    0  501  0.00000000000E+00  0.00000000000E+00 -0.24610712523E+04  0.24610712523E+04  0.50400001928E-02 0. -1.
    10030    2    1    2    0    0  0.00000000000E+00  0.00000000000E+00 -0.17748278570E+04  0.31473146477E+04  0.25991490087E+04 0.  0.
        1    1    3    3  502    0 -0.90894850914E+03  0.91811557274E+03 -0.10576750781E+04  0.16696706765E+04  0.50400001928E-02 0. -1.
       -1    1    3    3    0  502  0.90894850914E+03 -0.91811557274E+03 -0.71715277892E+03  0.14776439712E+04  0.50400001928E-02 0.  1.
</event>
<event>
 5   0  0.1122628E-06  0.2608334E+04  0.7818609E-02  0.8365376E-01
        1   -1    0    0  501    0  0.00000000000E+00  0.00000000000E+00  0.11982113841E+04  0.11982113841E+04  0.50400001928E-02 0. -1.
       -1   -1    0    0    0  501  0.00000000000E+00  0.00000000000E+00 -0.14194918154E+04  0.14194918154E+04  0.50400001928E-02 0.  1.
    10030    2    1    2    0    0  0.00000000000E+00  0.00000000000E+00 -0.22128043129E+03  0.26177031996E+04  0.26083337616E+04 0.  0.
        2    1    3    3  502    0  0.44176551896E+03 -0.10347760935E+04  0.55122320429E+03  0.12529027729E+04  0.25500000920E-02 0.  1.
       -2    1    3    3    0  502 -0.44176551896E+03  0.10347760935E+04 -0.77250363559E+03  0.13648004266E+04  0.25500000920E-02 0. -1.
</event>
<event>
 5   0  0.1032076E-06  0.2612460E+04  0.7818609E-02  0.8363981E-01
        1   -1    0    0  501    0  0.00000000000E+00  0.00000000000E+00  0.12334280890E+04  0.12334280890E+04  0.50400001928E-02 0.  1.
       -1   -1    0    0    0  501  0.00000000000E+00  0.00000000000E+00 -0.13833286043E+04  0.13833286043E+04  0.50400001928E-02 0. -1.
    10030    2    1    2    0    0  0.00000000000E+00  0.00000000000E+00 -0.14990051535E+03  0.26167566933E+04  0.26124596509E+04 0.  0.
        1    1    3    3  502    0  0.19022093079E+03 -0.47391873225E+03 -0.12791978816E+04  0.13773634915E+04  0.50400001928E-02 0. -1.
       -1    1    3    3    0  502 -0.19022093079E+03  0.47391873225E+03  0.11292973663E+04  0.12393932019E+04  0.50400001928E-02 0.  1.
</event>
<event>
 5   0  0.1088757E-06  0.2593972E+04  0.7818609E-02  0.8370252E-01
        1   -1    0    0  501    0  0.00000000000E+00  0.00000000000E+00  0.17516900026E+04  0.17516900027E+04  0.50400001928E-02 0.  1.
       -1   -1    0    0    0  501  0.00000000000E+00  0.00000000000E+00 -0.96031437804E+03  0.96031437805E+03  0.50400001928E-02 0. -1.
    10030    2    1    2    0    0  0.00000000000E+00  0.00000000000E+00  0.79137562461E+03  0.27120043807E+04  0.25939723171E+04 0.  0.
        5    1    3    3  502    0 -0.44260909428E+02  0.89583906892E+02 -0.95627527785E+03  0.96149300647E+03  0.46999998093E+01 0. -1.
       -5    1    3    3    0  502  0.44260909428E+02 -0.89583906892E+02  0.17476509025E+04  0.17505113742E+04  0.46999998093E+01 0.  1.
</event>
<event>
 5   0  0.1122628E-06  0.2600208E+04  0.7818609E-02  0.8368131E-01
       -1   -1    0    0    0  501  0.00000000000E+00  0.00000000000E+00  0.14469024317E+04  0.14469024317E+04  0.50400001928E-02 0. -1.
        1   -1    0    0  501    0  0.00000000000E+00  0.00000000000E+00 -0.11681990179E+04  0.11681990180E+04  0.50400001928E-02 0.  1.
    10030    2    1    2    0    0  0.00000000000E+00  0.00000000000E+00  0.27870341371E+03  0.26151014496E+04  0.26002076838E+04 0.  0.
        2    1    3    3  502    0  0.54871266342E+03 -0.91412559863E+02 -0.10424655336E+04  0.11815990149E+04  0.25500000920E-02 0.  1.
       -2    1    3    3    0  502 -0.54871266342E+03  0.91412559863E+02  0.13211689473E+04  0.14335024348E+04  0.25500000920E-02 0. -1.
</event>
<event>
 5   0  0.2586775E-06  0.2551681E+04  0.7818609E-02  0.8384802E-01
       -2   -1    0    0    0  501  0.00000000000E+00  0.00000000000E+00  0.10882199587E+04  0.10882199587E+04  0.25500000920E-02 0.  1.
        2   -1    0    0  501    0  0.00000000000E+00  0.00000000000E+00 -0.14958089916E+04  0.14958089916E+04  0.25500000920E-02 0. -1.
    10030    2    1    2    0    0  0.00000000000E+00  0.00000000000E+00 -0.40758903288E+03  0.25840289503E+04  0.25516811706E+04 0.  0.
        1    1    3    3  502    0  0.43696566558E+03 -0.13488720884E+02 -0.14175918855E+04  0.14834715003E+04  0.50400001928E-02 0. -1.
       -1    1    3    3    0  502 -0.43696566558E+03  0.13488720884E+02  0.10100028526E+04  0.11005574500E+04  0.50400001928E-02 0.  1.
</event>
<event>
 5   0  0.2820028E-06  0.2597928E+04  0.7818609E-02  0.8368905E-01
       -2   -1    0    0    0  501  0.00000000000E+00  0.00000000000E+00  0.80834074534E+03  0.80834074534E+03  0.25500000920E-02 0.  1.
        2   -1    0    0  501    0  0.00000000000E+00  0.00000000000E+00 -0.20873722731E+04  0.20873722731E+04  0.25500000920E-02 0. -1.
    10030    2    1    2    0    0  0.00000000000E+00  0.00000000000E+00 -0.12790315278E+04  0.28957130184E+04  0.25979284509E+04 0.  0.
        3    1    3    3  502    0 -0.24772411413E+03 -0.81973340804E+02 -0.20578592581E+04  0.20743364244E+04  0.10100000352E+00 0. -1.
       -3    1    3    3    0  502  0.24772411413E+03  0.81973340804E+02  0.77882773038E+03  0.82137659398E+03  0.10100000352E+00 0.  1.
</event>
<event>
 5   0  0.1032076E-06  0.2562999E+04  0.7818609E-02  0.8380879E-01
       -1   -1    0    0    0  501  0.00000000000E+00  0.00000000000E+00  0.95282323546E+03  0.95282323547E+03  0.50400001928E-02 0. -1.
        1   -1    0    0  501    0  0.00000000000E+00  0.00000000000E+00 -0.17235529990E+04  0.17235529990E+04  0.50400001928E-02 0.  1.
    10030    2    1    2    0    0  0.00000000000E+00  0.00000000000E+00 -0.77072976357E+03  0.26763762345E+04  0.25629992938E+04 0.  0.
        1    1    3    3  502    0 -0.39235940742E+03 -0.12043919095E+04 -0.58821446894E+03  0.13966037512E+04  0.50400001928E-02 0.  1.
       -1    1    3    3    0  502  0.39235940742E+03  0.12043919095E+04 -0.18251529463E+03  0.12797724833E+04  0.50400001928E-02 0. -1.
</event>
<event>
 5   0  0.1122628E-06  0.2601510E+04  0.7818609E-02  0.8367688E-01
       -1   -1    0    0    0  501  0.00000000000E+00  0.00000000000E+00  0.88518840307E+03  0.88518840308E+03  0.50400001928E-02 0.  1.
        1   -1    0    0  501    0  0.00000000000E+00  0.00000000000E+00 -0.19114169698E+04  0.19114169698E+04  0.50400001928E-02 0. -1.
    10030    2    1    2    0    0  0.00000000000E+00  0.00000000000E+00 -0.10262285667E+04  0.27966053729E+04  0.26015104344E+04 0.  0.
        2    1    3    3  502    0  0.12587771652E+04 -0.54771355590E+02 -0.16569977589E+03  0.12708171658E+04  0.25500000920E-02 0.  1.
       -2    1    3    3    0  502 -0.12587771652E+04  0.54771355590E+02 -0.86052879081E+03  0.15257882071E+04  0.25500000920E-02 0. -1.
</event>
<event>
 5   0  0.1032076E-06  0.2617230E+04  0.7818609E-02  0.8362372E-01
        1   -1    0    0  501    0  0.00000000000E+00  0.00000000000E+00  0.13769171512E+04  0.13769171512E+04  0.50400001928E-02 0.  1.
       -1   -1    0    0    0  501  0.00000000000E+00  0.00000000000E+00 -0.12437010177E+04  0.12437010177E+04  0.50400001928E-02 0. -1.
    10030    2    1    2    0    0  0.00000000000E+00  0.00000000000E+00  0.13321613353E+03  0.26206181689E+04  0.26172300337E+04 0.  0.
        1    1    3    3  502    0  0.22313051136E+03  0.57989793924E+03  0.12197953169E+04  0.13689300421E+04  0.50400001928E-02 0.  1.
       -1    1    3    3    0  502 -0.22313051136E+03 -0.57989793924E+03 -0.10865791834E+04  0.12516881268E+04  0.50400001928E-02 0. -1.
</event>
<event>
 5   0  0.1122628E-06  0.2579453E+04  0.7818609E-02  0.8375214E-01
        1   -1    0    0  501    0  0.00000000000E+00  0.00000000000E+00  0.12482144895E+04  0.12482144895E+04  0.50400001928E-02 0.  1.
       -1   -1    0    0    0  501  0.00000000000E+00  0.00000000000E+00 -0.13326189961E+04  0.13326189961E+04  0.50400001928E-02 0. -1.
    10030    2    1    2    0    0  0.00000000000E+00  0.00000000000E+00 -0.84404506590E+02  0.25808334855E+04  0.25794529186E+04 0.  0.
        2    1    3    3  502    0  0.17468413104E+03 -0.12578949947E+04  0.18281804254E+03  0.12830575981E+04  0.25500000920E-02 0. -1.
       -2    1    3    3    0  502 -0.17468413104E+03  0.12578949947E+04 -0.26722254913E+03  0.12977758875E+04  0.25500000920E-02 0.  1.
</event>
<event>
 5   0  0.1055179E-06  0.2640227E+04  0.7818609E-02  0.8354664E-01
       -1   -1    0    0    0  501  0.00000000000E+00  0.00000000000E+00  0.16390271808E+04  0.16390271808E+04  0.50400001928E-02 0. -1.
        1   -1    0    0  501    0  0.00000000000E+00  0.00000000000E+00 -0.10632527550E+04  0.10632527550E+04  0.50400001928E-02 0.  1.
    10030    2    1    2    0    0  0.00000000000E+00  0.00000000000E+00  0.57577442583E+03  0.27022799359E+04  0.26402273884E+04 0.  0.
        3    1    3    3  502    0 -0.63905060492E+03  0.11550721233E+04  0.27654203543E+03  0.13487226525E+04  0.10100000352E+00 0. -1.
       -3    1    3    3    0  502  0.63905060492E+03 -0.11550721233E+04  0.29923239040E+03  0.13535572834E+04  0.10100000352E+00 0.  1.
</event>
<event>
 5   0  0.2586775E-06  0.2660561E+04  0.7818609E-02  0.8347916E-01
        2   -1    0    0  501    0  0.00000000000E+00  0.00000000000E+00  0.16616774654E+04  0.16616774654E+04  0.25500000920E-02 0. -1.
       -2   -1    0    0    0  501  0.00000000000E+00  0.00000000000E+00 -0.10649754426E+04  0.10649754426E+04  0.25500000920E-02 0.  1.
    10030    2    1    2    0    0  0.00000000000E+00  0.00000000000E+00  0.59670202283E+03  0.27266529080E+04  0.26605606133E+04 0.  0.
        1    1    3    3  502    0 -0.28337642678E+03 -0.11937891939E+04 -0.22843232492E+03  0.12480449375E+04  0.50400001928E-02 0.  1.
       -1    1    3    3    0  502  0.28337642678E+03  0.11937891939E+04  0.82513434775E+03  0.14786079706E+04  0.50400001928E-02 0. -1.
</event>
<event>
 5   0  0.1088757E-06  0.2600186E+04  0.7818609E-02  0.8368138E-01
        1   -1    0    0  501    0  0.00000000000E+00  0.00000000000E+00  0.23845525859E+04  0.23845525859E+04  0.50400001928E-02 0. -1.
       -1   -1    0    0    0  501  0.00000000000E+00  0.00000000000E+00 -0.70882952084E+03  0.70882952086E+03  0.50400001928E-02 0.  1.
    10030    2    1    2    0    0  0.00000000000E+00  0.00000000000E+00  0.16757230651E+04  0.30933821068E+04  0.26001855833E+04 0.  0.
        5    1    3    3  502    0  0.53474285726E+03 -0.72235841622E+03  0.19554414801E+04  0.21520978317E+04  0.46999998093E+01 0. -1.
       -5    1    3    3    0  502 -0.53474285726E+03  0.72235841622E+03 -0.27971841505E+03  0.94128427512E+03  0.46999998093E+01 0.  1.
</event>
<event>
 5   0  0.2746631E-06  0.2590208E+04  0.7818609E-02  0.8371535E-01
       -2   -1    0    0    0  501  0.00000000000E+00  0.00000000000E+00  0.12585924935E+04  0.12585924935E+04  0.25500000920E-02 0. -1.
        2   -1    0    0  501    0  0.00000000000E+00  0.00000000000E+00 -0.13326743665E+04  0.13326743665E+04  0.25500000920E-02 0.  1.
    10030    2    1    2    0    0  0.00000000000E+00  0.00000000000E+00 -0.74081872975E+02  0.25912668600E+04  0.25902076781E+04 0.  0.
        2    1    3    3  502    0 -0.76032141314E+03 -0.63745686107E+03  0.79567798933E+03  0.12718267821E+04  0.25500000920E-02 0.  1.
       -2    1    3    3    0  502  0.76032141314E+03  0.63745686107E+03 -0.86975986231E+03  0.13194400779E+04  0.25500000920E-02 0. -1.
</event>
<event>
 5   0  0.1122628E-06  0.2610664E+04  0.7818609E-02  0.8364588E-01
        1   -1    0    0  501    0  0.00000000000E+00  0.00000000000E+00  0.15169713737E+04  0.15169713737E+04  0.50400001928E-02 0.  1.
       -1   -1    0    0    0  501  0.00000000000E+00  0.00000000000E+00 -0.11232190384E+04  0.11232190384E+04  0.50400001928E-02 0. -1.
    10030    2    1    2    0    0  0.00000000000E+00  0.00000000000E+00  0.39375233530E+03  0.26401904121E+04  0.26106636150E+04 0.  0.
        2    1    3    3  502    0  0.99373593560E+03  0.29089788224E+03  0.10006981142E+04  0.14399754871E+04  0.25500000920E-02 0.  1.
       -2    1    3    3    0  502 -0.99373593560E+03 -0.29089788224E+03 -0.60694577893E+03  0.12002149250E+04  0.25500000920E-02 0. -1.
</event>
<event>
 5   0  0.2820028E-06  0.2598001E+04  0.7818609E-02  0.8368881E-01
       -2   -1    0    0    0  501  0.00000000000E+00  0.00000000000E+00  0.90858674248E+03  0.90858674248E+03  0.25500000920E-02 0.  1.
        2   -1    0    0  501    0  0.00000000000E+00  0.00000000000E+00 -0.18571721832E+04  0.18571721832E+04  0.25500000920E-02 0. -1.
    10030    2    1    2    0    0  0.00000000000E+00  0.00000000000E+00 -0.94858544070E+03  0.27657589257E+04  0.25980007884E+04 0.  0.
        3    1    3    3  502    0 -0.33226511419E+03  0.16562048771E+03 -0.17994910838E+04  0.18373890233E+04  0.10100000352E+00 0. -1.
       -3    1    3    3    0  502  0.33226511419E+03 -0.16562048771E+03  0.85090564307E+03  0.92836990239E+03  0.10100000352E+00 0.  1.
</event>
<event>
 5   0  0.1032076E-06  0.2600770E+04  0.7818609E-02  0.8367940E-01
       -1   -1    0    0    0  501  0.00000000000E+00  0.00000000000E+00  0.72102410612E+03  0.72102410614E+03  0.50400001928E-02 0.  1.
        1   -1    0    0  501    0  0.00000000000E+00  0.00000000000E+00 -0.23452764391E+04  0.23452764391E+04  0.50400001928E-02 0. -1.
    10030    2    1    2    0    0  0.00000000000E+00  0.00000000000E+00 -0.16242523330E+04  0.30663005452E+04  0.26007697692E+04 0.  0.
        1    1    3    3  502    0 -0.52830503328E+03  0.10826703379E+04 -0.23487533733E+03  0.12273743083E+04  0.50400001928E-02 0.  1.
       -1    1    3    3    0  502  0.52830503328E+03 -0.10826703379E+04 -0.13893769956E+04  0.18389262369E+04  0.50400001928E-02 0. -1.
</event>
<event>
 5   0  0.2820028E-06  0.2605525E+04  0.7818609E-02  0.8366327E-01
       -2   -1    0    0    0  501  0.00000000000E+00  0.00000000000E+00  0.16656551837E+04  0.16656551837E+04  0.25500000920E-02 0. -1.
        2   -1    0    0  501    0  0.00000000000E+00  0.00000000000E+00 -0.10189322935E+04  0.10189322935E+04  0.25500000920E-02 0.  1.
    10030    2    1    2    0    0  0.00000000000E+00  0.00000000000E+00  0.64672289015E+03  0.26845874772E+04  0.26055247890E+04 0.  0.
        3    1    3    3  502    0 -0.59920835171E+03  0.11490978783E+04  0.46049118235E+03  0.13753285869E+04  0.10100000352E+00 0. -1.
       -3    1    3    3    0  502  0.59920835171E+03 -0.11490978783E+04  0.18623170779E+03  0.13092588903E+04  0.10100000352E+00 0.  1.
</event>
<event>
 5   0  0.1055179E-06  0.2599081E+04  0.7818609E-02  0.8368513E-01
        1   -1    0    0  501    0  0.00000000000E+00  0.00000000000E+00  0.19045806267E+04  0.19045806267E+04  0.50400001928E-02 0. -1.
       -1   -1    0    0    0  501  0.00000000000E+00  0.00000000000E+00 -0.88670749781E+03  0.88670749783E+03  0.50400001928E-02 0.  1.
    10030    2    1    2    0    0  0.00000000000E+00  0.00000000000E+00  0.10178731289E+04  0.27912881246E+04  0.25990813161E+04 0.  0.
        3    1    3    3  502    0  0.74802497640E+03  0.20862701747E+03 -0.61010851636E+03  0.98757228073E+03  0.10100000352E+00 0.  1.
       -3    1    3    3    0  502 -0.74802497640E+03 -0.20862701747E+03  0.16279816453E+04  0.18037158438E+04  0.10100000352E+00 0. -1.
</event>
<event>
 5   0  0.1088757E-06  0.2594887E+04  0.7818609E-02  0.8369940E-01
        1   -1    0    0  501    0  0.00000000000E+00  0.00000000000E+00  0.83511624501E+03  0.83511624503E+03  0.50400001928E-02 0. -1.
       -1   -1    0    0    0  501  0.00000000000E+00  0.00000000000E+00 -0.20157194099E+04  0.20157194099E+04  0.50400001928E-02 0.  1.
    10030    2    1    2    0    0  0.00000000000E+00  0.00000000000E+00 -0.11806031649E+04  0.28508356550E+04  0.25948872998E+04 0.  0.
        5    1    3    3  502    0 -0.12437414775E+04  0.32466040152E+03 -0.78386327179E+03  0.15055766197E+04  0.46999998093E+01 0.  1.
       -5    1    3    3    0  502  0.12437414775E+04 -0.32466040152E+03 -0.39673989312E+03  0.13452590352E+04  0.46999998093E+01 0. -1.
</event>
<event>
 5   0  0.1055179E-06  0.2599476E+04  0.7818609E-02  0.8368379E-01
        1   -1    0    0  501    0  0.00000000000E+00  0.00000000000E+00  0.18148900918E+04  0.18148900918E+04  0.50400001928E-02 0.  1.
       -1   -1    0    0    0  501  0.00000000000E+00  0.00000000000E+00 -0.93081026163E+03  0.93081026164E+03  0.50400001928E-02 0. -1.
    10030    2    1    2    0    0  0.00000000000E+00  0.00000000000E+00  0.88407983022E+03  0.27457003535E+04  0.25994755788E+04 0.  0.
        3    1    3    3  502    0 -0.50788989523E+03  0.61026895035E+03  0.15289726265E+04  0.17228283838E+04  0.10100000352E+00 0.  1.
       -3    1    3    3    0  502  0.50788989523E+03 -0.61026895035E+03 -0.64489279626E+03  0.10228719697E+04  0.10100000352E+00 0. -1.
</event>
<event>
 5   0  0.2623368E-06  0.2598273E+04  0.7818609E-02  0.8368788E-01
       -2   -1    0    0    0  501  0.00000000000E+00  0.00000000000E+00  0.15248761037E+04  0.15248761037E+04  0.25500000920E-02 0. -1.
        2   -1    0    0  501    0  0.00000000000E+00  0.00000000000E+00 -0.11068150426E+04  0.11068150426E+04  0.25500000920E-02 0.  1.
    10030    2    1    2    0    0  0.00000000000E+00  0.00000000000E+00  0.41806106118E+03  0.26316911463E+04  0.25982731263E+04 0.  0.
        5    1    3    3  502    0 -0.10438039895E+04  0.68291701251E+03  0.57678621457E+03  0.13742659283E+04  0.46999998093E+01 0.  1.
       -5    1    3    3    0  502  0.10438039895E+04 -0.68291701251E+03 -0.15872515340E+03  0.12574252180E+04  0.46999998093E+01 0. -1.
</event>
<event>
 5   0  0.2586775E-06  0.2603995E+04  0.7818609E-02  0.8366845E-01
       -2   -1    0    0    0  501  0.00000000000E+00  0.00000000000E+00  0.15797915863E+04  0.15797915863E+04  0.25500000920E-02 0.  1.
        2   -1    0    0  501    0  0.00000000000E+00  0.00000000000E+00 -0.10730513485E+04  0.10730513485E+04  0.25500000920E-02 0. -1.
    10030    2    1    2    0    0  0.00000000000E+00  0.00000000000E+00  0.50674023782E+03  0.26528429348E+04  0.26039950016E+04 0.  0.
        1    1    3    3  502    0 -0.12766201711E+04  0.15047272011E+03  0.46412370163E+03  0.13666791545E+04  0.50400001928E-02 0.  1.
       -1    1    3    3    0  502  0.12766201711E+04 -0.15047272011E+03  0.42616536191E+02  0.12861637804E+04  0.50400001928E-02 0. -1.
</event>
<event>
 5   0  0.2586775E-06  0.2600954E+04  0.7818609E-02  0.8367877E-01
       -2   -1    0    0    0  501  0.00000000000E+00  0.00000000000E+00  0.15755374489E+04  0.15755374489E+04  0.25500000920E-02 0. -1.
        2   -1    0    0  501    0  0.00000000000E+00  0.00000000000E+00 -0.10734375405E+04  0.10734375405E+04  0.25500000920E-02 0.  1.
    10030    2    1    2    0    0  0.00000000000E+00  0.00000000000E+00  0.50209990839E+03  0.26489749894E+04  0.26009544741E+04 0.  0.
        1    1    3    3  502    0 -0.12356003680E+04  0.24410267742E+02 -0.16131664810E+03  0.12463254758E+04  0.50400001928E-02 0. -1.
       -1    1    3    3    0  502  0.12356003680E+04 -0.24410267742E+02  0.66341655649E+03  0.14026495136E+04  0.50400001928E-02 0.  1.
</event>
<event>
 5   0  0.1122628E-06  0.2603721E+04  0.7818609E-02  0.8366938E-01
       -1   -1    0    0    0  501  0.00000000000E+00  0.00000000000E+00  0.11634135033E+04  0.11634135034E+04  0.50400001928E-02 0. -1.
        1   -1    0    0  501    0  0.00000000000E+00  0.00000000000E+00 -0.14567830360E+04  0.14567830360E+04  0.50400001928E-02 0.  1.
    10030    2    1    2    0    0  0.00000000000E+00  0.00000000000E+00 -0.29336953265E+03  0.26201965394E+04  0.26037212259E+04 0.  0.
        2    1    3    3  502    0 -0.57023446213E+03 -0.15864247335E+03  0.10201807420E+04  0.11794505172E+04  0.25500000920E-02 0. -1.
       -2    1    3    3    0  502  0.57023446213E+03  0.15864247335E+03 -0.13135502747E+04  0.14407460221E+04  0.25500000920E-02 0.  1.
</event>
<event>
 5   0  0.9197000E-07  0.2600968E+04  0.7818609E-02  0.8367873E-01
       -4   -1    0    0    0  501  0.00000000000E+00  0.00000000000E+00  0.11794527939E+04  0.11794534777E+04  0.12699999809E+01 0. -1.
        4   -1    0    0  501    0  0.00000000000E+00  0.00000000000E+00 -0.14339331714E+04  0.14339337338E+04  0.12699999809E+01 0.  1.
    10030    2    1    2    0    0  0.00000000000E+00  0.00000000000E+00 -0.25448037749E+03  0.26133872115E+04  0.26009675997E+04 0.  0.
        2    1    3    3  502    0 -0.93925193628E+03 -0.85635287897E+03  0.14925311590E+03  0.12797698800E+04  0.25500000920E-02 0. -1.
       -2    1    3    3    0  502  0.93925193628E+03  0.85635287897E+03 -0.40373349340E+03  0.13336173315E+04  0.25500000920E-02 0.  1.
</event>
<event>
 5   0  0.2746631E-06  0.2535320E+04  0.7818609E-02  0.8390509E-01
       -2   -1    0    0    0  501  0.00000000000E+00  0.00000000000E+00  0.11180126194E+04  0.11180126194E+04  0.25500000920E-02 0.  1.
        2   -1    0    0  501    0  0.00000000000E+00  0.00000000000E+00 -0.14373381002E+04  0.14373381002E+04  0.25500000920E-02 0. -1.
    10030    2    1    2    0    0  0.00000000000E+00  0.00000000000E+00 -0.31932548077E+03  0.25553507196E+04  0.25353202041E+04 0.  0.
        2    1    3    3  502    0  0.26169556294E+03  0.27139089756E+03 -0.13795241774E+04  0.14301134721E+04  0.25500000920E-02 0. -1.
       -2    1    3    3    0  502 -0.26169556294E+03 -0.27139089756E+03  0.10601986966E+04  0.11252372475E+04  0.25500000920E-02 0.  1.
</event>
<event>
 5   0  0.1088757E-06  0.2601930E+04  0.7818609E-02  0.8367546E-01
        1   -1    0    0  501    0  0.00000000000E+00  0.00000000000E+00  0.10402211297E+04  0.10402211297E+04  0.50400001928E-02 0.  1.
       -1   -1    0    0    0  501  0.00000000000E+00  0.00000000000E+00 -0.16270677454E+04  0.16270677454E+04  0.50400001928E-02 0. -1.
    10030    2    1    2    0    0  0.00000000000E+00  0.00000000000E+00 -0.58684661565E+03  0.26672888751E+04  0.26019302437E+04 0.  0.
        5    1    3    3  502    0  0.77621285843E+03 -0.23915348908E+03  0.74836592017E+03  0.11044339878E+04  0.46999998093E+01 0.  1.
       -5    1    3    3    0  502 -0.77621285843E+03  0.23915348908E+03 -0.13352125358E+04  0.15628548873E+04  0.46999998093E+01 0. -1.
</event>
<event>
 5   0  0.1100104E-06  0.2572909E+04  0.7818609E-02  0.8377462E-01
        1   -1    0    0  501    0  0.00000000000E+00  0.00000000000E+00  0.10227703095E+04  0.10227703095E+04  0.50400001928E-02 0. -1.
       -1   -1    0    0    0  501  0.00000000000E+00  0.00000000000E+00 -0.16181199336E+04  0.16181199336E+04  0.50400001928E-02 0.  1.
    10030    2    1    2    0    0  0.00000000000E+00  0.00000000000E+00 -0.59534962419E+03  0.26408902431E+04  0.25729088793E+04 0.  0.
        4    1    3    3  502    0 -0.21705902015E+03  0.54146319519E+03  0.87920937726E+03  0.10551339971E+04  0.12699999809E+01 0. -1.
       -4    1    3    3    0  502  0.21705902015E+03 -0.54146319519E+03 -0.14745590014E+04  0.15857562460E+04  0.12699999809E+01 0.  1.
</event>
<event>
 5   0  0.1055179E-06  0.2583276E+04  0.7818609E-02  0.8373904E-01
       -1   -1    0    0    0  501  0.00000000000E+00  0.00000000000E+00  0.12490328968E+04  0.12490328968E+04  0.50400001928E-02 0. -1.
        1   -1    0    0  501    0  0.00000000000E+00  0.00000000000E+00 -0.13356960597E+04  0.13356960597E+04  0.50400001928E-02 0.  1.
    10030    2    1    2    0    0  0.00000000000E+00  0.00000000000E+00 -0.86663162841E+02  0.25847289565E+04  0.25832756870E+04 0.  0.
        3    1    3    3  502    0 -0.91646536895E+03  0.44763665070E+03  0.74960460511E+03  0.12657781866E+04  0.10100000352E+00 0.  1.
       -3    1    3    3    0  502  0.91646536895E+03 -0.44763665070E+03 -0.83626776795E+03  0.13189507699E+04  0.10100000352E+00 0. -1.
</event>
<event>
 5   0  0.1088757E-06  0.2597166E+04  0.7818609E-02  0.8369164E-01
       -1   -1    0    0    0  501  0.00000000000E+00  0.00000000000E+00  0.97605632270E+03  0.97605632272E+03  0.50400001928E-02 0.  1.
        1   -1    0    0  501    0  0.00000000000E+00  0.00000000000E+00 -0.17276852059E+04  0.17276852059E+04  0.50400001928E-02 0. -1.
    10030    2    1    2    0    0  0.00000000000E+00  0.00000000000E+00 -0.75162888322E+03  0.27037415286E+04  0.25971662010E+04 0.  0.
        5    1    3    3  502    0  0.11011767703E+03  0.11802824981E+04  0.17613386074E+03  0.11984314353E+04  0.46999998093E+01 0.  1.
       -5    1    3    3    0  502 -0.11011767703E+03 -0.11802824981E+04 -0.92776274396E+03  0.15053100934E+04  0.46999998093E+01 0. -1.
</event>
<event>
 5   0  0.2746631E-06  0.2600197E+04  0.7818609E-02  0.8368134E-01
        2   -1    0    0  501    0  0.00000000000E+00  0.00000000000E+00  0.17731355096E+04  0.17731355096E+04  0.25500000920E-02 0. -1.
       -2   -1    0    0    0  501  0.00000000000E+00  0.00000000000E+00 -0.95325833366E+03  0.95325833366E+03  0.25500000920E-02 0.  1.
    10030    2    1    2    0    0  0.00000000000E+00  0.00000000000E+00  0.81987717598E+03  0.27263938433E+04  0.26001970704E+04 0.  0.
        2    1    3    3  502    0 -0.42769061225E+02 -0.87029013725E+03  0.14216632101E+04  0.16674412729E+04  0.25500000920E-02 0. -1.
       -2    1    3    3    0  502  0.42769061225E+02  0.87029013725E+03 -0.60178603409E+03  0.10589525704E+04  0.25500000920E-02 0.  1.
</event>
<event>
 5   0  0.2746631E-06  0.2598014E+04  0.7818609E-02  0.8368876E-01
        2   -1    0    0  501    0  0.00000000000E+00  0.00000000000E+00  0.25736959530E+04  0.25736959530E+04  0.25500000920E-02 0. -1.
       -2   -1    0    0    0  501  0.00000000000E+00  0.00000000000E+00 -0.65564063800E+03  0.65564063801E+03  0.25500000920E-02 0.  1.
    10030    2    1    2    0    0  0.00000000000E+00  0.00000000000E+00  0.19180553150E+04  0.32293365910E+04  0.25980143623E+04 0.  0.
        2    1    3    3  502    0  0.61975989879E+03 -0.11168008593E+04  0.12533676683E+04  0.17894907106E+04  0.25500000920E-02 0.  1.
       -2    1    3    3    0  502 -0.61975989879E+03  0.11168008593E+04  0.66468764669E+03  0.14398458804E+04  0.25500000920E-02 0. -1.
</event>
<event>
 5   0  0.1100104E-06  0.2638701E+04  0.7818609E-02  0.8355173E-01
       -1   -1    0    0    0  501  0.00000000000E+00  0.00000000000E+00  0.10688969896E+04  0.10688969896E+04  0.50400001928E-02 0. -1.
        1   -1    0    0  501    0  0.00000000000E+00  0.00000000000E+00 -0.16284880089E+04  0.16284880089E+04  0.50400001928E-02 0.  1.
    10030    2    1    2    0    0  0.00000000000E+00  0.00000000000E+00 -0.55959101930E+03  0.26973849985E+04  0.26387011429E+04 0.  0.
        4    1    3    3  502    0  0.12133097188E+04 -0.23482701674E+03  0.19245279588E+03  0.12507213491E+04  0.12699999809E+01 0. -1.
       -4    1    3    3    0  502 -0.12133097188E+04  0.23482701674E+03 -0.75204381518E+03  0.14466636494E+04  0.12699999809E+01 0.  1.
</event>
<event>
 5   0  0.1032076E-06  0.2591025E+04  0.7818609E-02  0.8371256E-01
        1   -1    0    0  501    0  0.00000000000E+00  0.00000000000E+00  0.11899464389E+04  0.11899464389E+04  0.50400001928E-02 0. -1.
       -1   -1    0    0    0  501  0.00000000000E+00  0.00000000000E+00 -0.14104438302E+04  0.14104438302E+04  0.50400001928E-02 0.  1.
    10030    2    1    2    0    0  0.00000000000E+00  0.00000000000E+00 -0.22049739132E+03  0.26003902692E+04  0.25910249810E+04 0.  0.
        1    1    3    3  502    0 -0.12827824875E+02 -0.93661440412E+03 -0.10084368752E+04  0.13763560681E+04  0.50400001928E-02 0.  1.
       -1    1    3    3    0  502  0.12827824875E+02  0.93661440412E+03  0.78793948383E+03  0.12240342010E+04  0.50400001928E-02 0. -1.
</event>
<event>
 5   0  0.1032076E-06  0.2599067E+04  0.7818609E-02  0.8368518E-01
       -1   -1    0    0    0  501  0.00000000000E+00  0.00000000000E+00  0.81089143667E+03  0.81089143669E+03  0.50400001928E-02 0.  1.
        1   -1    0    0  501    0  0.00000000000E+00  0.00000000000E+00 -0.20826310594E+04  0.20826310594E+04  0.50400001928E-02 0. -1.
    10030    2    1    2    0    0  0.00000000000E+00  0.00000000000E+00 -0.12717396227E+04  0.28935224961E+04  0.25990672880E+04 0.  0.
        1    1    3    3  502    0 -0.44805133576E+03 -0.11891617750E+04 -0.93857890357E+03  0.15798057111E+04  0.50400001928E-02 0.  1.
       -1    1    3    3    0  502  0.44805133576E+03  0.11891617750E+04 -0.33316071918E+03  0.13137167850E+04  0.50400001928E-02 0. -1.
</event>
<event>
 5   0  0.1088757E-06  0.2605773E+04  0.7818609E-02  0.8366243E-01
        1   -1    0    0  501    0  0.00000000000E+00  0.00000000000E+00  0.18098891586E+04  0.18098891586E+04  0.50400001928E-02 0.  1.
       -1   -1    0    0    0  501  0.00000000000E+00  0.00000000000E+00 -0.93791011058E+03  0.93791011059E+03  0.50400001928E-02 0. -1.
    10030    2    1    2    0    0  0.00000000000E+00  0.00000000000E+00  0.87197904805E+03  0.27477992692E+04  0.26057730837E+04 0.  0.
        5    1    3    3  502    0 -0.26696486678E+03  0.37936874792E+03 -0.84786707463E+03  0.96648411949E+03  0.46999998093E+01 0. -1.
       -5    1    3    3    0  502  0.26696486678E+03 -0.37936874792E+03  0.17198461227E+04  0.17813151497E+04  0.46999998093E+01 0.  1.
</event>
<event>
 5   0  0.2705807E-06  0.2599205E+04  0.7818609E-02  0.8368471E-01
       -2   -1    0    0    0  501  0.00000000000E+00  0.00000000000E+00  0.12089466715E+04  0.12089466715E+04  0.25500000920E-02 0. -1.
        2   -1    0    0  501    0  0.00000000000E+00  0.00000000000E+00 -0.13970561292E+04  0.13970561292E+04  0.25500000920E-02 0.  1.
    10030    2    1    2    0    0  0.00000000000E+00  0.00000000000E+00 -0.18810945772E+03  0.26060028007E+04  0.25992047686E+04 0.  0.
        4    1    3    3  502    0 -0.78578019606E+03 -0.91450162182E+03  0.39218895786E+03  0.12679028056E+04  0.12699999809E+01 0. -1.
       -4    1    3    3    0  502  0.78578019606E+03  0.91450162182E+03 -0.58029841559E+03  0.13380999951E+04  0.12699999809E+01 0.  1.
</event>
<event>
 5   0  0.2820028E-06  0.2596722E+04  0.7818609E-02  0.8369316E-01
        2   -1    0    0  501    0  0.00000000000E+00  0.00000000000E+00  0.18286571648E+04  0.18286571648E+04  0.25500000920E-02 0.  1.
       -2   -1    0    0    0  501  0.00000000000E+00  0.00000000000E+00 -0.92184626043E+03  0.92184626043E+03  0.25500000920E-02 0. -1.
    10030    2    1    2    0    0  0.00000000000E+00  0.00000000000E+00  0.90681090435E+03  0.27505034252E+04  0.25967216015E+04 0.  0.
        3    1    3    3  502    0 -0.35063785613E+03  0.90019276443E+03  0.13722133308E+04  0.16781726236E+04  0.10100000352E+00 0.  1.
       -3    1    3    3    0  502  0.35063785613E+03 -0.90019276443E+03 -0.46540242644E+03  0.10723308016E+04  0.10100000352E+00 0. -1.
</event>
<event>
 5   0  0.2586775E-06  0.2596152E+04  0.7818609E-02  0.8369509E-01
       -2   -1    0    0    0  501  0.00000000000E+00  0.00000000000E+00  0.89133349889E+03  0.89133349890E+03  0.25500000920E-02 0.  1.
        2   -1    0    0  501    0  0.00000000000E+00  0.00000000000E+00 -0.18904273514E+04  0.18904273514E+04  0.25500000920E-02 0. -1.
    10030    2    1    2    0    0  0.00000000000E+00  0.00000000000E+00 -0.99909385246E+03  0.27817608503E+04  0.25961519412E+04 0.  0.
        1    1    3    3  502    0  0.62384776288E+03  0.10388828540E+04 -0.99815161008E+03  0.15699586785E+04  0.50400001928E-02 0. -1.
       -1    1    3    3    0  502 -0.62384776288E+03 -0.10388828540E+04 -0.94224237554E+00  0.12118021717E+04  0.50400001928E-02 0.  1.
</event>
<event>
 5   0  0.2820028E-06  0.2615281E+04  0.7818609E-02  0.8363029E-01
        2   -1    0    0  501    0  0.00000000000E+00  0.00000000000E+00  0.57616130604E+03  0.57616130605E+03  0.25500000920E-02 0.  1.
       -2   -1    0    0    0  501  0.00000000000E+00  0.00000000000E+00 -0.29677870412E+04  0.29677870412E+04  0.25500000920E-02 0. -1.
    10030    2    1    2    0    0  0.00000000000E+00  0.00000000000E+00 -0.23916257352E+04  0.35439483473E+04  0.26152812910E+04 0.  0.
        3    1    3    3  502    0  0.34382178735E+03  0.10914904682E+04 -0.33839234525E+03  0.11933458229E+04  0.10100000352E+00 0.  1.
       -3    1    3    3    0  502 -0.34382178735E+03 -0.10914904682E+04 -0.20532333900E+04  0.23506025243E+04  0.10100000352E+00 0. -1.
</event>
<event>
 5   0  0.2623368E-06  0.2599955E+04  0.7818609E-02  0.8368216E-01
       -2   -1    0    0    0  501  0.00000000000E+00  0.00000000000E+00  0.13408917687E+04  0.13408917687E+04  0.25500000920E-02 0.  1.
        2   -1    0    0  501    0  0.00000000000E+00  0.00000000000E+00 -0.12603120667E+04  0.12603120667E+04  0.25500000920E-02 0. -1.
    10030    2    1    2    0    0  0.00000000000E+00  0.00000000000E+00  0.80579701953E+02  0.26012038354E+04  0.25999554428E+04 0.  0.
        5    1    3    3  502    0 -0.54736159016E+03 -0.80653291561E+03 -0.82025100517E+03  0.12739442122E+04  0.46999998093E+01 0. -1.
       -5    1    3    3    0  502  0.54736159016E+03  0.80653291561E+03  0.90083070712E+03  0.13272596231E+04  0.46999998093E+01 0.  1.
</event>
<event>
 5   0  0.2623368E-06  0.2596662E+04  0.7818609E-02  0.8369336E-01
        2   -1    0    0  501    0  0.00000000000E+00  0.00000000000E+00  0.10389748119E+04  0.10389748119E+04  0.25500000920E-02 0.  1.
       -2   -1    0    0    0  501  0.00000000000E+00  0.00000000000E+00 -0.16224295327E+04  0.16224295327E+04  0.25500000920E-02 0. -1.
    10030    2    1    2    0    0  0.00000000000E+00  0.00000000000E+00 -0.58345472073E+03  0.26614043446E+04  0.25966620254E+04 0.  0.
        5    1    3    3  502    0  0.59193423355E+03 -0.10691609575E+03  0.88753539636E+03  0.10721745931E+04  0.46999998093E+01 0.  1.
       -5    1    3    3    0  502 -0.59193423355E+03  0.10691609575E+03 -0.14709901171E+04  0.15892297515E+04  0.46999998093E+01 0. -1.
</event>
<event>
 5   0  0.1032076E-06  0.2597540E+04  0.7818609E-02  0.8369037E-01
        1   -1    0    0  501    0  0.00000000000E+00  0.00000000000E+00  0.10325786874E+04  0.10325786874E+04  0.50400001928E-02 0.  1.
       -1   -1    0    0    0  501  0.00000000000E+00  0.00000000000E+00 -0.16335839823E+04  0.16335839824E+04  0.50400001928E-02 0. -1.
    10030    2    1    2    0    0  0.00000000000E+00  0.00000000000E+00 -0.60100529499E+03  0.26661626697E+04  0.25975403783E+04 0.  0.
        1    1    3    3  502    0  0.81097924017E+02 -0.42985383275E+03  0.95469088576E+03  0.10501361236E+04  0.50400001928E-02 0.  1.
       -1    1    3    3    0  502 -0.81097924017E+02  0.42985383275E+03 -0.15556961807E+04  0.16160265461E+04  0.50400001928E-02 0. -1.
</event>
<event>
 5   0  0.2586775E-06  0.2598789E+04  0.7818609E-02  0.8368613E-01
       -2   -1    0    0    0  501  0.00000000000E+00  0.00000000000E+00  0.86440189803E+03  0.86440189804E+03  0.25500000920E-02 0.  1.
        2   -1    0    0  501    0  0.00000000000E+00  0.00000000000E+00 -0.19532876558E+04  0.19532876558E+04  0.25500000920E-02 0. -1.
    10030    2    1    2    0    0  0.00000000000E+00  0.00000000000E+00 -0.10888857578E+04  0.28176895539E+04  0.25987886079E+04 0.  0.
        1    1    3    3  502    0 -0.11237185574E+04 -0.20573121159E+03 -0.12157539196E+04  0.16682704579E+04  0.50400001928E-02 0.  1.
       -1    1    3    3    0  502  0.11237185574E+04  0.20573121159E+03  0.12686816178E+03  0.11494190960E+04  0.50400001928E-02 0. -1.
</event>
<event>
 5   0  0.1055179E-06  0.2601515E+04  0.7818609E-02  0.8367687E-01
        1   -1    0    0  501    0  0.00000000000E+00  0.00000000000E+00  0.16557189326E+04  0.16557189326E+04  0.50400001928E-02 0.  1.
       -1   -1    0    0    0  501  0.00000000000E+00  0.00000000000E+00 -0.10218941187E+04  0.10218941187E+04  0.50400001928E-02 0. -1.
    10030    2    1    2    0    0  0.00000000000E+00  0.00000000000E+00  0.63382481389E+03  0.26776130513E+04  0.26015145123E+04 0.  0.
        3    1    3    3  502    0 -0.78714296236E+03  0.95879646049E+03 -0.85793040511E+02  0.12434810621E+04  0.10100000352E+00 0.  1.
       -3    1    3    3    0  502  0.78714296236E+03 -0.95879646049E+03  0.71961785440E+03  0.14341319892E+04  0.10100000352E+00 0. -1.
</event>
<event>
 5   0  0.1122628E-06  0.2598637E+04  0.7818609E-02  0.8368664E-01
        1   -1    0    0  501    0  0.00000000000E+00  0.00000000000E+00  0.14941741150E+04  0.14941741150E+04  0.50400001928E-02 0. -1.
       -1   -1    0    0    0  501  0.00000000000E+00  0.00000000000E+00 -0.11298744781E+04  0.11298744781E+04  0.50400001928E-02 0.  1.
    10030    2    1    2    0    0  0.00000000000E+00  0.00000000000E+00  0.36429963688E+03  0.26240485931E+04  0.25986374879E+04 0.  0.
        2    1    3    3  502    0 -0.12579050330E+04  0.27386521409E+03  0.35965836348E+03  0.13366680088E+04  0.25500000920E-02 0.  1.
       -2    1    3    3    0  502  0.12579050330E+04 -0.27386521409E+03  0.46412734010E+01  0.12873805843E+04  0.25500000920E-02 0. -1.
</event>
<event>
 5   0  0.1100104E-06  0.2594366E+04  0.7818609E-02  0.8370117E-01
       -1   -1    0    0    0  501  0.00000000000E+00  0.00000000000E+00  0.64193959997E+03  0.64193959999E+03  0.50400001928E-02 0.  1.
        1   -1    0    0  501    0  0.00000000000E+00  0.00000000000E+00 -0.26212492412E+04  0.26212492412E+04  0.50400001928E-02 0. -1.
    10030    2    1    2    0    0  0.00000000000E+00  0.00000000000E+00 -0.19793096412E+04  0.32631888412E+04  0.25943659644E+04 0.  0.
        4    1    3    3  502    0  0.87318897490E+03  0.42806237136E+03 -0.20694477980E+04  0.22865502796E+04  0.12699999809E+01 0. -1.
       -4    1    3    3    0  502 -0.87318897490E+03 -0.42806237136E+03  0.90138156818E+02  0.97663856154E+03  0.12699999809E+01 0.  1.
</event>
<event>
 5   0  0.2705807E-06  0.2607676E+04  0.7818609E-02  0.8365599E-01
        2   -1    0    0  501    0  0.00000000000E+00  0.00000000000E+00  0.14754510482E+04  0.14754510482E+04  0.25500000920E-02 0. -1.
       -2   -1    0    0    0  501  0.00000000000E+00  0.00000000000E+00 -0.11521852591E+04  0.11521852591E+04  0.25500000920E-02 0.  1.
    10030    2    1    2    0    0  0.00000000000E+00  0.00000000000E+00  0.32326578913E+03  0.26276363074E+04  0.26076755537E+04 0.  0.
        4    1    3    3  502    0  0.10820877470E+04  0.40439055235E+03 -0.44759888966E+03  0.12388672204E+04  0.12699999809E+01 0.  1.
       -4    1    3    3    0  502 -0.10820877470E+04 -0.40439055235E+03  0.77086467879E+03  0.13887690869E+04  0.12699999809E+01 0. -1.
</event>
<event>
 5   0  0.1088757E-06  0.2603706E+04  0.7818609E-02  0.8366944E-01
       -1   -1    0    0    0  501  0.00000000000E+00  0.00000000000E+00  0.13338252012E+04  0.13338252013E+04  0.50400001928E-02 0. -1.
        1   -1    0    0  501    0  0.00000000000E+00  0.00000000000E+00 -0.12706467558E+04  0.12706467558E+04  0.50400001928E-02 0.  1.
    10030    2    1    2    0    0  0.00000000000E+00  0.00000000000E+00  0.63178445425E+02  0.26044719571E+04  0.26037055631E+04 0.  0.
        5    1    3    3  502    0 -0.88623785994E+03 -0.51895799076E+03 -0.76868603734E+03  0.12828231579E+04  0.46999998093E+01 0.  1.
       -5    1    3    3    0  502  0.88623785994E+03  0.51895799076E+03  0.83186448276E+03  0.13216487991E+04  0.46999998093E+01 0. -1.
</event>
<event>
 5   0  0.1088757E-06  0.2583716E+04  0.7818609E-02  0.8373754E-01
        1   -1    0    0  501    0  0.00000000000E+00  0.00000000000E+00  0.12195498527E+04  0.12195498527E+04  0.50400001928E-02 0. -1.
       -1   -1    0    0    0  501  0.00000000000E+00  0.00000000000E+00 -0.13684532562E+04  0.13684532562E+04  0.50400001928E-02 0.  1.
    10030    2    1    2    0    0  0.00000000000E+00  0.00000000000E+00 -0.14890340347E+03  0.25880031089E+04  0.25837159031E+04 0.  0.
        5    1    3    3  502    0 -0.63777351728E+03  0.71342425730E+03  0.79482796350E+03  0.12439866606E+04  0.46999998093E+01 0. -1.
       -5    1    3    3    0  502  0.63777351728E+03 -0.71342425730E+03 -0.94373136698E+03  0.13440164483E+04  0.46999998093E+01 0.  1.
</event>
<event>
 5   0  0.1088757E-06  0.2598565E+04  0.7818609E-02  0.8368689E-01
       -1   -1    0    0    0  501  0.00000000000E+00  0.00000000000E+00  0.13487928478E+04  0.13487928478E+04  0.50400001928E-02 0. -1.
        1   -1    0    0  501    0  0.00000000000E+00  0.00000000000E+00 -0.12515894963E+04  0.12515894964E+04  0.50400001928E-02 0.  1.
    10030    2    1    2    0    0  0.00000000000E+00  0.00000000000E+00  0.97203351406E+02  0.26003823441E+04  0.25985649586E+04 0.  0.
        5    1    3    3  502    0 -0.57325286548E+03 -0.32393444536E+03  0.11694566807E+04  0.13420891888E+04  0.46999998093E+01 0. -1.
       -5    1    3    3    0  502  0.57325286548E+03  0.32393444536E+03 -0.10722533293E+04  0.12582931553E+04  0.46999998093E+01 0.  1.
</event>
<event>
 5   0  0.2623368E-06  0.2596661E+04  0.7818609E-02  0.8369336E-01
       -2   -1    0    0    0  501  0.00000000000E+00  0.00000000000E+00  0.13026880869E+04  0.13026880869E+04  0.25500000920E-02 0.  1.
        2   -1    0    0  501    0  0.00000000000E+00  0.00000000000E+00 -0.12939872056E+04  0.12939872056E+04  0.25500000920E-02 0. -1.
    10030    2    1    2    0    0  0.00000000000E+00  0.00000000000E+00  0.87008813010E+01  0.25966752924E+04  0.25966607150E+04 0.  0.
        5    1    3    3  502    0 -0.57588616594E+01  0.11631563131E+04 -0.57243165800E+03  0.12964049777E+04  0.46999998093E+01 0. -1.
       -5    1    3    3    0  502  0.57588616594E+01 -0.11631563131E+04  0.58113253930E+03  0.13002703147E+04  0.46999998093E+01 0.  1.
</event>
<event>
 5   0  0.2586775E-06  0.2605773E+04  0.7818609E-02  0.8366243E-01
       -2   -1    0    0    0  501  0.00000000000E+00  0.00000000000E+00  0.11502765515E+04  0.11502765515E+04  0.25500000920E-02 0. -1.
        2   -1    0    0  501    0  0.00000000000E+00  0.00000000000E+00 -0.14757440706E+04  0.14757440706E+04  0.25500000920E-02 0.  1.
    10030    2    1    2    0    0  0.00000000000E+00  0.00000000000E+00 -0.32546751907E+03  0.26260206221E+04  0.26057734364E+04 0.  0.
        1    1    3    3  502    0  0.32627850858E+03  0.57675516794E+03 -0.12932387742E+04  0.14531244668E+04  0.50400001928E-02 0.  1.
       -1    1    3    3    0  502 -0.32627850858E+03 -0.57675516794E+03  0.96777125512E+03  0.11728961553E+04  0.50400001928E-02 0. -1.
</event>
<event>
 5   0  0.1122628E-06  0.2602611E+04  0.7818609E-02  0.8367315E-01
        1   -1    0    0  501    0  0.00000000000E+00  0.00000000000E+00  0.12094695704E+04  0.12094695704E+04  0.50400001928E-02 0.  1.
       -1   -1    0    0    0  501  0.00000000000E+00  0.00000000000E+00 -0.14001147887E+04  0.14001147887E+04  0.50400001928E-02 0. -1.
    10030    2    1    2    0    0  0.00000000000E+00  0.00000000000E+00 -0.19064521826E+03  0.26095843591E+04  0.26026111749E+04 0.  0.
        2    1    3    3  502    0 -0.56155573072E+03 -0.34396446088E+02  0.10812215918E+04  0.12188388264E+04  0.25500000920E-02 0.  1.
       -2    1    3    3    0  502  0.56155573072E+03  0.34396446088E+02 -0.12718668100E+04  0.13907455327E+04  0.25500000920E-02 0. -1.
</event>
<event>
 5   0  0.2623368E-06  0.2598836E+04  0.7818609E-02  0.8368597E-01
       -2   -1    0    0    0  501  0.00000000000E+00  0.00000000000E+00  0.65826286779E+03  0.65826286779E+03  0.25500000920E-02 0.  1.
        2   -1    0    0  501    0  0.00000000000E+00  0.00000000000E+00 -0.25650649501E+04  0.25650649501E+04  0.25500000920E-02 0. -1.
    10030    2    1    2    0    0  0.00000000000E+00  0.00000000000E+00 -0.19068020823E+04  0.32233278179E+04  0.25988359010E+04 0.  0.
        5    1    3    3  502    0  0.70463127026E+02  0.57307850953E+03 -0.23972050022E+04  0.24657651840E+04  0.46999998093E+01 0. -1.
       -5    1    3    3    0  502 -0.70463127026E+02 -0.57307850953E+03  0.49040291989E+03  0.75756263384E+03  0.46999998093E+01 0.  1.
</event>
<event>
 5   0  0.2586775E-06  0.2556852E+04  0.7818609E-02  0.8383007E-01
        2   -1    0    0  501    0  0.00000000000E+00  0.00000000000E+00  0.22212157922E+04  0.22212157922E+04  0.25500000920E-02 0.  1.
       -2   -1    0    0    0  501  0.00000000000E+00  0.00000000000E+00 -0.73580119362E+03  0.73580119363E+03  0.25500000920E-02 0. -1.
    10030    2    1    2    0    0  0.00000000000E+00  0.00000000000E+00  0.14854145985E+04  0.29570169858E+04  0.25568521515E+04 0.  0.
        1    1    3    3  502    0 -0.45616506618E+03  0.64786934413E+03 -0.41758205151E+03  0.89565396468E+03  0.50400001928E-02 0. -1.
       -1    1    3    3    0  502  0.45616506618E+03 -0.64786934413E+03  0.19029966500E+04  0.20613630211E+04  0.50400001928E-02 0.  1.
</event>
<event>
 5   0  0.9197000E-07  0.2602615E+04  0.7818609E-02  0.8367314E-01
       -3   -1    0    0    0  501  0.00000000000E+00  0.00000000000E+00  0.24049987741E+04  0.24049987762E+04  0.10100000352E+00 0. -1.
        3   -1    0    0  501    0  0.00000000000E+00  0.00000000000E+00 -0.70411704211E+03  0.70411704936E+03  0.10100000352E+00 0.  1.
    10030    2    1    2    0    0  0.00000000000E+00  0.00000000000E+00  0.17008817320E+04  0.31091158256E+04  0.26026145605E+04 0.  0.
        3    1    3    3  502    0 -0.44525484469E+03 -0.55047641582E+03 -0.45389022577E+03  0.84100684203E+03  0.10100000352E+00 0.  1.
       -3    1    3    3    0  502  0.44525484469E+03  0.55047641582E+03  0.21547719578E+04  0.22681089836E+04  0.10100000352E+00 0. -1.
</event>
<event>
 5   0  0.2586775E-06  0.2599591E+04  0.7818609E-02  0.8368340E-01
       -2   -1    0    0    0  501  0.00000000000E+00  0.00000000000E+00  0.10885507520E+04  0.10885507520E+04  0.25500000920E-02 0.  1.
        2   -1    0    0  501    0  0.00000000000E+00  0.00000000000E+00 -0.15520350431E+04  0.15520350431E+04  0.25500000920E-02 0. -1.
    10030    2    1    2    0    0  0.00000000000E+00  0.00000000000E+00 -0.46348429110E+03  0.26405857952E+04  0.25995914397E+04 0.  0.
        1    1    3    3  502    0  0.54674708737E+02  0.12790582565E+04 -0.45998437661E+03  0.13603547236E+04  0.50400001928E-02 0. -1.
       -1    1    3    3    0  502 -0.54674708737E+02 -0.12790582565E+04 -0.34999144903E+01  0.12802310716E+04  0.50400001928E-02 0.  1.
</event>
<event>
 5   0  0.2820028E-06  0.2605252E+04  0.7818609E-02  0.8366419E-01
        2   -1    0    0  501    0  0.00000000000E+00  0.00000000000E+00  0.13794039894E+04  0.13794039894E+04  0.25500000920E-02 0. -1.
       -2   -1    0    0    0  501  0.00000000000E+00  0.00000000000E+00 -0.12301213634E+04  0.12301213634E+04  0.25500000920E-02 0.  1.
    10030    2    1    2    0    0  0.00000000000E+00  0.00000000000E+00  0.14928262602E+03  0.26095253528E+04  0.26052518620E+04 0.  0.
        3    1    3    3  502    0 -0.98893543331E+03 -0.42684942780E+03 -0.65911788949E+03  0.12627866517E+04  0.10100000352E+00 0.  1.
       -3    1    3    3    0  502  0.98893543331E+03  0.42684942780E+03  0.80840051551E+03  0.13467387011E+04  0.10100000352E+00 0. -1.
</event>
<event>
 5   0  0.1100104E-06  0.2594164E+04  0.7818609E-02  0.8370186E-01
       -1   -1    0    0    0  501  0.00000000000E+00  0.00000000000E+00  0.10324401078E+04  0.10324401078E+04  0.50400001928E-02 0.  1.
        1   -1    0    0  501    0  0.00000000000E+00  0.00000000000E+00 -0.16295587587E+04  0.16295587587E+04  0.50400001928E-02 0. -1.
    10030    2    1    2    0    0  0.00000000000E+00  0.00000000000E+00 -0.59711865082E+03  0.26619988665E+04  0.25941640816E+04 0.  0.
        4    1    3    3  502    0  0.11300641146E+04 -0.25765043132E+02  0.35424523445E+03  0.11845674483E+04  0.12699999809E+01 0.  1.
       -4    1    3    3    0  502 -0.11300641146E+04  0.25765043132E+02 -0.95136388528E+03  0.14774314182E+04  0.12699999809E+01 0. -1.
</event>
<event>
 5   0  0.1100104E-06  0.2599011E+04  0.7818609E-02  0.8368537E-01
       -1   -1    0    0    0  501  0.00000000000E+00  0.00000000000E+00  0.14525479771E+04  0.14525479771E+04  0.50400001928E-02 0. -1.
        1   -1    0    0  501    0  0.00000000000E+00  0.00000000000E+00 -0.11625881921E+04  0.11625881922E+04  0.50400001928E-02 0.  1.
    10030    2    1    2    0    0  0.00000000000E+00  0.00000000000E+00  0.28995978496E+03  0.26151361693E+04  0.25990114480E+04 0.  0.
        4    1    3    3  502    0 -0.27058581431E+03  0.60705055421E+03  0.12685934818E+04  0.14321515608E+04  0.12699999809E+01 0. -1.
       -4    1    3    3    0  502  0.27058581431E+03 -0.60705055421E+03 -0.97863369684E+03  0.11829846084E+04  0.12699999809E+01 0.  1.
</event>
<event>
 5   0  0.1032076E-06  0.2599432E+04  0.7818609E-02  0.8368394E-01
       -1   -1    0    0    0  501  0.00000000000E+00  0.00000000000E+00  0.16675245001E+04  0.16675245001E+04  0.50400001928E-02 0. -1.
        1   -1    0    0  501    0  0.00000000000E+00  0.00000000000E+00 -0.10130356074E+04  0.10130356074E+04  0.50400001928E-02 0.  1.
    10030    2    1    2    0    0  0.00000000000E+00  0.00000000000E+00  0.65448889271E+03  0.26805601076E+04  0.25994320110E+04 0.  0.
        1    1    3    3  502    0  0.13986134516E+03  0.12662017573E+04  0.61452994382E+02  0.12753840820E+04  0.50400001928E-02 0. -1.
       -1    1    3    3    0  502 -0.13986134516E+03 -0.12662017573E+04  0.59303589833E+03  0.14051760256E+04  0.50400001928E-02 0.  1.
</event>
<event>
 5   0  0.2623368E-06  0.2599336E+04  0.7818609E-02  0.8368427E-01
        2   -1    0    0  501    0  0.00000000000E+00  0.00000000000E+00  0.67774510940E+03  0.67774510941E+03  0.25500000920E-02 0.  1.
       -2   -1    0    0    0  501  0.00000000000E+00  0.00000000000E+00 -0.24922895309E+04  0.24922895309E+04  0.25500000920E-02 0. -1.
    10030    2    1    2    0    0  0.00000000000E+00  0.00000000000E+00 -0.18145444214E+04  0.31700346403E+04  0.25993361004E+04 0.  0.
        5    1    3    3  502    0  0.99598436318E+03  0.79803065746E+03 -0.12066902708E+04  0.17564057850E+04  0.46999998093E+01 0.  1.
       -5    1    3    3    0  502 -0.99598436318E+03 -0.79803065746E+03 -0.60785415064E+03  0.14136288553E+04  0.46999998093E+01 0. -1.
</event>
<event>
 5   0  0.1032076E-06  0.2585575E+04  0.7818609E-02  0.8373118E-01
       -1   -1    0    0    0  501  0.00000000000E+00  0.00000000000E+00  0.67805555984E+03  0.67805555986E+03  0.50400001928E-02 0. -1.
        1   -1    0    0  501    0  0.00000000000E+00  0.00000000000E+00 -0.24648413110E+04  0.24648413110E+04  0.50400001928E-02 0.  1.
    10030    2    1    2    0    0  0.00000000000E+00  0.00000000000E+00 -0.17867857512E+04  0.31428968709E+04  0.25855748723E+04 0.  0.
        1    1    3    3  502    0  0.60437908893E+03 -0.76861904875E+03  0.13462804882E+03  0.98700255156E+03  0.50400001928E-02 0. -1.
       -1    1    3    3    0  502 -0.60437908893E+03  0.76861904875E+03 -0.19214138000E+04  0.21558943193E+04  0.50400001928E-02 0.  1.
</event>
<event>
 5   0  0.2623368E-06  0.2599345E+04  0.7818609E-02  0.8368424E-01
       -2   -1    0    0    0  501  0.00000000000E+00  0.00000000000E+00  0.96208042397E+03  0.96208042397E+03  0.25500000920E-02 0. -1.
        2   -1    0    0  501    0  0.00000000000E+00  0.00000000000E+00 -0.17557251284E+04  0.17557251285E+04  0.25500000920E-02 0.  1.
    10030    2    1    2    0    0  0.00000000000E+00  0.00000000000E+00 -0.79364470448E+03  0.27178055524E+04  0.25993451298E+04 0.  0.
        5    1    3    3  502    0  0.61668226380E+03  0.36051987740E+03  0.73840970357E+03  0.10273960175E+04  0.46999998093E+01 0. -1.
       -5    1    3    3    0  502 -0.61668226380E+03 -0.36051987740E+03 -0.15320544080E+04  0.16904095349E+04  0.46999998093E+01 0.  1.
</event>
<event>
 5   0  0.2586775E-06  0.2600816E+04  0.7818609E-02  0.8367924E-01
       -2   -1    0    0    0  501  0.00000000000E+00  0.00000000000E+00  0.95660591057E+03  0.95660591057E+03  0.25500000920E-02 0. -1.
        2   -1    0    0  501    0  0.00000000000E+00  0.00000000000E+00 -0.17677716483E+04  0.17677716483E+04  0.25500000920E-02 0.  1.
    10030    2    1    2    0    0  0.00000000000E+00  0.00000000000E+00 -0.81116573772E+03  0.27243775589E+04  0.26008158776E+04 0.  0.
        1    1    3    3  502    0 -0.12715719227E+04 -0.19824971171E+03 -0.20999666236E+03  0.13039542557E+04  0.50400001928E-02 0. -1.
       -1    1    3    3    0  502  0.12715719227E+04  0.19824971171E+03 -0.60116907536E+03  0.14204233031E+04  0.50400001928E-02 0.  1.
</event>
<event>
 5   0  0.2705807E-06  0.2599902E+04  0.7818609E-02  0.8368234E-01
       -2   -1    0    0    0  501  0.00000000000E+00  0.00000000000E+00  0.62997277602E+03  0.62997277603E+03  0.25500000920E-02 0. -1.
        2   -1    0    0  501    0  0.00000000000E+00  0.00000000000E+00 -0.26824534106E+04  0.26824534106E+04  0.25500000920E-02 0.  1.
    10030    2    1    2    0    0  0.00000000000E+00  0.00000000000E+00 -0.20524806346E+04  0.33124261866E+04  0.25999020148E+04 0.  0.
        4    1    3    3  502    0 -0.84066915603E+03 -0.96897371884E+03 -0.75827494249E+03  0.14901735466E+04  0.12699999809E+01 0.  1.
       -4    1    3    3    0  502  0.84066915603E+03  0.96897371884E+03 -0.12942056921E+04  0.18222526400E+04  0.12699999809E+01 0. -1.
</event>
<event>
 5   0  0.2623368E-06  0.2605780E+04  0.7818609E-02  0.8366240E-01
        2   -1    0    0  501    0  0.00000000000E+00  0.00000000000E+00  0.14086495993E+04  0.14086495993E+04  0.25500000920E-02 0.  1.
       -2   -1    0    0    0  501  0.00000000000E+00  0.00000000000E+00 -0.12050708698E+04  0.12050708698E+04  0.25500000920E-02 0. -1.
    10030    2    1    2    0    0  0.00000000000E+00  0.00000000000E+00  0.20357872953E+03  0.26137204691E+04  0.26057801887E+04 0.  0.
        5    1    3    3  502    0 -0.40345659799E+03  0.57714022333E+03 -0.99774089018E+03  0.12212194880E+04  0.46999998093E+01 0. -1.
       -5    1    3    3    0  502  0.40345659799E+03 -0.57714022333E+03  0.12013196197E+04  0.13925009812E+04  0.46999998093E+01 0.  1.
</event>
<event>
 5   0  0.1100104E-06  0.2589174E+04  0.7818609E-02  0.8371888E-01
        1   -1    0    0  501    0  0.00000000000E+00  0.00000000000E+00  0.10707482846E+04  0.10707482846E+04  0.50400001928E-02 0. -1.
       -1   -1    0    0    0  501  0.00000000000E+00  0.00000000000E+00 -0.15652191812E+04  0.15652191812E+04  0.50400001928E-02 0.  1.
    10030    2    1    2    0    0  0.00000000000E+00  0.00000000000E+00 -0.49447089663E+03  0.26359674658E+04  0.25891741953E+04 0.  0.
        4    1    3    3  502    0 -0.34690112226E+03  0.58733586366E+03 -0.13674162856E+04  0.15281141045E+04  0.12699999809E+01 0.  1.
       -4    1    3    3    0  502  0.34690112226E+03 -0.58733586366E+03  0.87294538893E+03  0.11078533614E+04  0.12699999809E+01 0. -1.
</event>
<event>
 5   0  0.2586775E-06  0.2600734E+04  0.7818609E-02  0.8367952E-01
       -2   -1    0    0    0  501  0.00000000000E+00  0.00000000000E+00  0.13147817329E+04  0.13147817329E+04  0.25500000920E-02 0.  1.
        2   -1    0    0  501    0  0.00000000000E+00  0.00000000000E+00 -0.12861102788E+04  0.12861102788E+04  0.25500000920E-02 0. -1.
    10030    2    1    2    0    0  0.00000000000E+00  0.00000000000E+00  0.28671454106E+02  0.26008920116E+04  0.26007339741E+04 0.  0.
        1    1    3    3  502    0  0.58142694535E+03 -0.20901340215E+03  0.11586125830E+04  0.13130601710E+04  0.50400001928E-02 0.  1.
       -1    1    3    3    0  502 -0.58142694535E+03  0.20901340215E+03 -0.11299411289E+04  0.12878318407E+04  0.50400001928E-02 0. -1.
</event>
<event>
 5   0  0.1100104E-06  0.2605451E+04  0.7818609E-02  0.8366352E-01
        1   -1    0    0  501    0  0.00000000000E+00  0.00000000000E+00  0.67080915455E+03  0.67080915457E+03  0.50400001928E-02 0. -1.
       -1   -1    0    0    0  501  0.00000000000E+00  0.00000000000E+00 -0.25299205698E+04  0.25299205698E+04  0.50400001928E-02 0.  1.
    10030    2    1    2    0    0  0.00000000000E+00  0.00000000000E+00 -0.18591114152E+04  0.32007297244E+04  0.26054511153E+04 0.  0.
        4    1    3    3  502    0 -0.90811128808E+03 -0.53248213029E+03  0.13164401314E+02  0.10527954431E+04  0.12699999809E+01 0. -1.
       -4    1    3    3    0  502  0.90811128808E+03  0.53248213029E+03 -0.18722758166E+04  0.21479342813E+04  0.12699999809E+01 0.  1.
</event>
<event>
 5   0  0.1122628E-06  0.2600940E+04  0.7818609E-02  0.8367882E-01
       -1   -1    0    0    0  501  0.00000000000E+00  0.00000000000E+00  0.80947848522E+03  0.80947848524E+03  0.50400001928E-02 0. -1.
        1   -1    0    0  501    0  0.00000000000E+00  0.00000000000E+00 -0.20892737071E+04  0.20892737071E+04  0.50400001928E-02 0.  1.
    10030    2    1    2    0    0  0.00000000000E+00  0.00000000000E+00 -0.12797952219E+04  0.28987521924E+04  0.26009399191E+04 0.  0.
        2    1    3    3  502    0  0.43145959155E+03  0.85452756434E+03  0.34114721997E+03  0.10162461134E+04  0.25500000920E-02 0. -1.
       -2    1    3    3    0  502 -0.43145959155E+03 -0.85452756434E+03 -0.16209424419E+04  0.18825060789E+04  0.25500000920E-02 0.  1.
</event>
<event>
 5   0  0.1122628E-06  0.2596422E+04  0.7818609E-02  0.8369418E-01
        1   -1    0    0  501    0  0.00000000000E+00  0.00000000000E+00  0.13724978790E+04  0.13724978790E+04  0.50400001928E-02 0. -1.
       -1   -1    0    0    0  501  0.00000000000E+00  0.00000000000E+00 -0.12279444594E+04  0.12279444594E+04  0.50400001928E-02 0.  1.
    10030    2    1    2    0    0  0.00000000000E+00  0.00000000000E+00  0.14455341955E+03  0.26004423384E+04  0.25964215113E+04 0.  0.
        2    1    3    3  502    0  0.21314914346E+03  0.27890432080E+03 -0.11795112026E+04  0.12306367679E+04  0.25500000920E-02 0.  1.
       -2    1    3    3    0  502 -0.21314914346E+03 -0.27890432080E+03  0.13240646221E+04  0.13698055705E+04  0.25500000920E-02 0. -1.
</event>
<event>
 5   0  0.1032076E-06  0.2601424E+04  0.7818609E-02  0.8367718E-01
       -1   -1    0    0    0  501  0.00000000000E+00  0.00000000000E+00  0.15923322550E+04  0.15923322551E+04  0.50400001928E-02 0.  1.
        1   -1    0    0  501    0  0.00000000000E+00  0.00000000000E+00 -0.10624987739E+04  0.10624987739E+04  0.50400001928E-02 0. -1.
    10030    2    1    2    0    0  0.00000000000E+00  0.00000000000E+00  0.52983348112E+03  0.26548310290E+04  0.26014235093E+04 0.  0.
        1    1    3    3  502    0 -0.32969827129E+03 -0.22910194890E+02  0.15487684636E+04  0.15836380839E+04  0.50400001928E-02 0.  1.
       -1    1    3    3    0  502  0.32969827129E+03  0.22910194890E+02 -0.10189349824E+04  0.10711929451E+04  0.50400001928E-02 0. -1.
</event>
<event>
 5   0  0.1100104E-06  0.2648593E+04  0.7818609E-02  0.8351880E-01
       -1   -1    0    0    0  501  0.00000000000E+00  0.00000000000E+00  0.17495976247E+04  0.17495976247E+04  0.50400001928E-02 0. -1.
        1   -1    0    0  501    0  0.00000000000E+00  0.00000000000E+00 -0.10023801157E+04  0.10023801157E+04  0.50400001928E-02 0.  1.
    10030    2    1    2    0    0  0.00000000000E+00  0.00000000000E+00  0.74721750900E+03  0.27519777404E+04  0.26485934905E+04 0.  0.
        4    1    3    3  502    0  0.23098771348E+03 -0.10465645445E+04 -0.43464160892E+03  0.11565325809E+04  0.12699999809E+01 0.  1.
       -4    1    3    3    0  502 -0.23098771348E+03  0.10465645445E+04  0.11818591179E+04  0.15954451595E+04  0.12699999809E+01 0. -1.
</event>
<event>
 5   0  0.2705807E-06  0.2612746E+04  0.7818609E-02  0.8363884E-01
        2   -1    0    0  501    0  0.00000000000E+00  0.00000000000E+00  0.13766318162E+04  0.13766318162E+04  0.25500000920E-02 0.  1.
       -2   -1    0    0    0  501  0.00000000000E+00  0.00000000000E+00 -0.12397001155E+04  0.12397001155E+04  0.25500000920E-02 0. -1.
    10030    2    1    2    0    0  0.00000000000E+00  0.00000000000E+00  0.13693170070E+03  0.26163319317E+04  0.26127461580E+04 0.  0.
        4    1    3    3  502    0  0.78975025093E+03  0.69334362349E+03 -0.70860054400E+03  0.12674964232E+04  0.12699999809E+01 0. -1.
       -4    1    3    3    0  502 -0.78975025093E+03 -0.69334362349E+03  0.84553224470E+03  0.13488355084E+04  0.12699999809E+01 0.  1.
</event>
<event>
 5   0  0.2705807E-06  0.2601747E+04  0.7818609E-02  0.8367608E-01
        2   -1    0    0  501    0  0.00000000000E+00  0.00000000000E+00  0.16356397858E+04  0.16356397858E+04  0.25500000920E-02 0.  1.
       -2   -1    0    0    0  501  0.00000000000E+00  0.00000000000E+00 -0.10346236809E+04  0.10346236809E+04  0.25500000920E-02 0. -1.
    10030    2    1    2    0    0  0.00000000000E+00  0.00000000000E+00  0.60101610486E+03  0.26702634667E+04  0.26017468407E+04 0.  0.
        4    1    3    3  502    0 -0.10324850545E+04  0.73417412567E+02  0.11092016564E+04  0.15171504315E+04  0.12699999809E+01 0.  1.
       -4    1    3    3    0  502  0.10324850545E+04 -0.73417412567E+02 -0.50818555157E+03  0.11531130352E+04  0.12699999809E+01 0. -1.
</event>
<event>
 5   0  0.1088757E-06  0.2597226E+04  0.7818609E-02  0.8369144E-01
       -1   -1    0    0    0  501  0.00000000000E+00  0.00000000000E+00  0.96224053302E+03  0.96224053303E+03  0.50400001928E-02 0. -1.
        1   -1    0    0  501    0  0.00000000000E+00  0.00000000000E+00 -0.17525720369E+04  0.17525720369E+04  0.50400001928E-02 0.  1.
    10030    2    1    2    0    0  0.00000000000E+00  0.00000000000E+00 -0.79033150392E+03  0.27148125700E+04  0.25972260980E+04 0.  0.
        5    1    3    3  502    0 -0.19741164572E+03  0.62458494068E+03  0.77689161676E+03  0.10161989865E+04  0.46999998093E+01 0. -1.
       -5    1    3    3    0  502  0.19741164572E+03 -0.62458494068E+03 -0.15672231207E+04  0.16986135835E+04  0.46999998093E+01 0.  1.
</event>
<event>
 5   0  0.2746631E-06  0.2602650E+04  0.7818609E-02  0.8367302E-01
       -2   -1    0    0    0  501  0.00000000000E+00  0.00000000000E+00  0.92856176247E+03  0.92856176247E+03  0.25500000920E-02 0.  1.
        2   -1    0    0  501    0  0.00000000000E+00  0.00000000000E+00 -0.18237311654E+04  0.18237311654E+04  0.25500000920E-02 0. -1.
    10030    2    1    2    0    0  0.00000000000E+00  0.00000000000E+00 -0.89516940288E+03  0.27522929278E+04  0.26026502071E+04 0.  0.
        2    1    3    3  502    0 -0.76290444098E+03  0.77710001290E+03  0.30579468937E+03  0.11311136142E+04  0.25500000920E-02 0.  1.
       -2    1    3    3    0  502  0.76290444098E+03 -0.77710001290E+03 -0.12009640923E+04  0.16211793137E+04  0.25500000920E-02 0. -1.
</event>
<event>
 5   0  0.1088757E-06  0.2594370E+04  0.7818609E-02  0.8370116E-01
       -1   -1    0    0    0  501  0.00000000000E+00  0.00000000000E+00  0.96808288764E+03  0.96808288765E+03  0.50400001928E-02 0. -1.
        1   -1    0    0  501    0  0.00000000000E+00  0.00000000000E+00 -0.17381667318E+04  0.17381667319E+04  0.50400001928E-02 0.  1.
    10030    2    1    2    0    0  0.00000000000E+00  0.00000000000E+00 -0.77008384421E+03  0.27062496195E+04  0.25943704200E+04 0.  0.
        5    1    3    3  502    0 -0.32013486917E+03 -0.67998214040E+03  0.71781445126E+03  0.10392986684E+04  0.46999998093E+01 0. -1.
       -5    1    3    3    0  502  0.32013486917E+03  0.67998214040E+03 -0.14878982955E+04  0.16669509511E+04  0.46999998093E+01 0.  1.
</event>
<event>
 5   0  0.2586775E-06  0.2599541E+04  0.7818609E-02  0.8368357E-01
       -2   -1    0    0    0  501  0.00000000000E+00  0.00000000000E+00  0.96827869361E+03  0.96827869361E+03  0.25500000920E-02 0. -1.
        2   -1    0    0  501    0  0.00000000000E+00  0.00000000000E+00 -0.17447488052E+04  0.17447488052E+04  0.25500000920E-02 0.  1.
    10030    2    1    2    0    0  0.00000000000E+00  0.00000000000E+00 -0.77647011158E+03  0.27130274988E+04  0.25995408008E+04 0.  0.
        1    1    3    3  502    0  0.67075988520E+03 -0.39703795992E+03  0.69729063042E+03  0.10458356412E+04  0.50400001928E-02 0. -1.
       -1    1    3    3    0  502 -0.67075988520E+03  0.39703795992E+03 -0.14737607420E+04  0.16671918576E+04  0.50400001928E-02 0.  1.
</event>
<event>
 5   0  0.2705807E-06  0.2597357E+04  0.7818609E-02  0.8369100E-01
        2   -1    0    0  501    0  0.00000000000E+00  0.00000000000E+00  0.11215979506E+04  0.11215979506E+04  0.25500000920E-02 0. -1.
       -2   -1    0    0    0  501  0.00000000000E+00  0.00000000000E+00 -0.15037167401E+04  0.15037167402E+04  0.25500000920E-02 0.  1.
    10030    2    1    2    0    0  0.00000000000E+00  0.00000000000E+00 -0.38211878957E+03  0.26253146907E+04  0.25973568211E+04 0.  0.
        4    1    3    3  502    0  0.64940875554E+03 -0.47161216690E+03 -0.12230361584E+04  0.14628632286E+04  0.12699999809E+01 0.  1.
       -4    1    3    3    0  502 -0.64940875554E+03  0.47161216690E+03  0.84091736887E+03  0.11624514622E+04  0.12699999809E+01 0. -1.
</event>
<event>
 5   0  0.1055179E-06  0.2600887E+04  0.7818609E-02  0.8367900E-01
        1   -1    0    0  501    0  0.00000000000E+00  0.00000000000E+00  0.18100429692E+04  0.18100429692E+04  0.50400001928E-02 0.  1.
       -1   -1    0    0    0  501  0.00000000000E+00  0.00000000000E+00 -0.93431663979E+03  0.93431663980E+03  0.50400001928E-02 0. -1.
    10030    2    1    2    0    0  0.00000000000E+00  0.00000000000E+00  0.87572632942E+03  0.27443596090E+04  0.26008869755E+04 0.  0.
        3    1    3    3  502    0  0.97048775526E+03  0.36855394932E+03 -0.38858931671E+03  0.11084584629E+04  0.10100000352E+00 0. -1.
       -3    1    3    3    0  502 -0.97048775526E+03 -0.36855394932E+03  0.12643156461E+04  0.16359011461E+04  0.10100000352E+00 0.  1.
</event>
<event>
 5   0  0.2705807E-06  0.2604036E+04  0.7818609E-02  0.8366831E-01
        2   -1    0    0  501    0  0.00000000000E+00  0.00000000000E+00  0.10119674445E+04  0.10119674445E+04  0.25500000920E-02 0.  1.
       -2   -1    0    0    0  501  0.00000000000E+00  0.00000000000E+00 -0.16752033262E+04  0.16752033262E+04  0.25500000920E-02 0. -1.
    10030    2    1    2    0    0  0.00000000000E+00  0.00000000000E+00 -0.66323588167E+03  0.26871707708E+04  0.26040362740E+04 0.  0.
        4    1    3    3  502    0  0.60313110704E+03 -0.10537750534E+04 -0.81677715408E+03  0.14633302866E+04  0.12699999809E+01 0. -1.
       -4    1    3    3    0  502 -0.60313110704E+03  0.10537750534E+04  0.15354127241E+03  0.12238404841E+04  0.12699999809E+01 0.  1.
</event>
<event>
 5   0  0.2623368E-06  0.2605030E+04  0.7818609E-02  0.8366495E-01
       -2   -1    0    0    0  501  0.00000000000E+00  0.00000000000E+00  0.60377271774E+03  0.60377271775E+03  0.25500000920E-02 0. -1.
        2   -1    0    0  501    0  0.00000000000E+00  0.00000000000E+00 -0.28099079596E+04  0.28099079596E+04  0.25500000920E-02 0.  1.
    10030    2    1    2    0    0  0.00000000000E+00  0.00000000000E+00 -0.22061352418E+04  0.34136806773E+04  0.26050303379E+04 0.  0.
        5    1    3    3  502    0  0.13770048670E+03 -0.12115168283E+04 -0.50285973260E+03  0.13189482363E+04  0.46999998093E+01 0. -1.
       -5    1    3    3    0  502 -0.13770048670E+03  0.12115168283E+04 -0.17032755092E+04  0.20947324410E+04  0.46999998093E+01 0.  1.
</event>
<event>
 5   0  0.2586775E-06  0.2604673E+04  0.7818609E-02  0.8366616E-01
        2   -1    0    0  501    0  0.00000000000E+00  0.00000000000E+00  0.87366167819E+03  0.87366167820E+03  0.25500000920E-02 0.  1.
       -2   -1    0    0    0  501  0.00000000000E+00  0.00000000000E+00 -0.19413465311E+04  0.19413465311E+04  0.25500000920E-02 0. -1.
    10030    2    1    2    0    0  0.00000000000E+00  0.00000000000E+00 -0.10676848529E+04  0.28150082093E+04  0.26046727766E+04 0.  0.
        1    1    3    3  502    0  0.35983134935E+02  0.11213653332E+04  0.18086563852E+03  0.11364274617E+04  0.50400001928E-02 0.  1.
       -1    1    3    3    0  502 -0.35983134935E+02 -0.11213653332E+04 -0.12485504914E+04  0.16785807476E+04  0.50400001928E-02 0. -1.
</event>
<event>
 5   0  0.1100104E-06  0.2599301E+04  0.7818609E-02  0.8368439E-01
       -1   -1    0    0    0  501  0.00000000000E+00  0.00000000000E+00  0.98635625088E+03  0.98635625089E+03  0.50400001928E-02 0. -1.
        1   -1    0    0  501    0  0.00000000000E+00  0.00000000000E+00 -0.17124560590E+04  0.17124560590E+04  0.50400001928E-02 0.  1.
    10030    2    1    2    0    0  0.00000000000E+00  0.00000000000E+00 -0.72609980814E+03  0.26988123099E+04  0.25993012432E+04 0.  0.
        4    1    3    3  502    0 -0.40403525955E+03 -0.11705501507E+04  0.46589533889E+02  0.12391950387E+04  0.12699999809E+01 0. -1.
       -4    1    3    3    0  502  0.40403525955E+03  0.11705501507E+04 -0.77268934203E+03  0.14596172712E+04  0.12699999809E+01 0.  1.
</event>
<event>
 5   0  0.2586775E-06  0.2601805E+04  0.7818609E-02  0.8367588E-01
        2   -1    0    0  501    0  0.00000000000E+00  0.00000000000E+00  0.15408336616E+04  0.15408336616E+04  0.25500000920E-02 0.  1.
       -2   -1    0    0    0  501  0.00000000000E+00  0.00000000000E+00 -0.10983320487E+04  0.10983320487E+04  0.25500000920E-02 0. -1.
    10030    2    1    2    0    0  0.00000000000E+00  0.00000000000E+00  0.44250161298E+03  0.26391657103E+04  0.26018047523E+04 0.  0.
        1    1    3    3  502    0  0.20121142734E+03 -0.91939581367E+03 -0.68973918691E+03  0.11668396834E+04  0.50400001928E-02 0. -1.
       -1    1    3    3    0  502 -0.20121142734E+03  0.91939581367E+03  0.11322407999E+04  0.14723260270E+04  0.50400001928E-02 0.  1.
</event>
<event>
 5   0  0.1122628E-06  0.2610853E+04  0.7818609E-02  0.8364524E-01
       -1   -1    0    0    0  501  0.00000000000E+00  0.00000000000E+00  0.11038788858E+04  0.11038788858E+04  0.50400001928E-02 0. -1.
        1   -1    0    0  501    0  0.00000000000E+00  0.00000000000E+00 -0.15437730577E+04  0.15437730578E+04  0.50400001928E-02 0.  1.
    10030    2    1    2    0    0  0.00000000000E+00  0.00000000000E+00 -0.43989417194E+03  0.26476519436E+04  0.26108531042E+04 0.  0.
        2    1    3    3  502    0 -0.95717744359E+03 -0.64269354686E+03  0.40096938496E+03  0.12206637954E+04  0.25500000920E-02 0. -1.
       -2    1    3    3    0  502  0.95717744359E+03  0.64269354686E+03 -0.84086355690E+03  0.14269881482E+04  0.25500000920E-02 0.  1.
</event>
<event>
 5   0  0.2820028E-06  0.2634744E+04  0.7818609E-02  0.8356494E-01
        2   -1    0    0  501    0  0.00000000000E+00  0.00000000000E+00  0.11898648847E+04  0.11898648847E+04  0.25500000920E-02 0.  1.
       -2   -1    0    0    0  501  0.00000000000E+00  0.00000000000E+00 -0.14585427522E+04  0.14585427522E+04  0.25500000920E-02 0. -1.
    10030    2    1    2    0    0  0.00000000000E+00  0.00000000000E+00 -0.26867786744E+03  0.26484076369E+04  0.26347438613E+04 0.  0.
        3    1    3    3  502    0 -0.97506564259E+03 -0.76413352851E+03  0.31610972870E+03  0.12785063267E+04  0.10100000352E+00 0.  1.
       -3    1    3    3    0  502  0.97506564259E+03  0.76413352851E+03 -0.58478759615E+03  0.13699013102E+04  0.10100000352E+00 0. -1.
</event>
<event>
 5   0  0.1100104E-06  0.2590503E+04  0.7818609E-02  0.8371434E-01
       -1   -1    0    0    0  501  0.00000000000E+00  0.00000000000E+00  0.11085397689E+04  0.11085397689E+04  0.50400001928E-02 0. -1.
        1   -1    0    0  501    0  0.00000000000E+00  0.00000000000E+00 -0.15134106930E+04  0.15134106930E+04  0.50400001928E-02 0.  1.
    10030    2    1    2    0    0  0.00000000000E+00  0.00000000000E+00 -0.40487092414E+03  0.26219504620E+04  0.25905026076E+04 0.  0.
        4    1    3    3  502    0 -0.15409268376E+03 -0.12399352222E+04 -0.54788574066E+03  0.13643182577E+04  0.12699999809E+01 0.  1.
       -4    1    3    3    0  502  0.15409268376E+03  0.12399352222E+04  0.14301481652E+03  0.12576322043E+04  0.12699999809E+01 0. -1.
</event>
<event>
 5   0  0.1032076E-06  0.2603910E+04  0.7818609E-02  0.8366874E-01
       -1   -1    0    0    0  501  0.00000000000E+00  0.00000000000E+00  0.11671853103E+04  0.11671853103E+04  0.50400001928E-02 0. -1.
        1   -1    0    0  501    0  0.00000000000E+00  0.00000000000E+00 -0.14522862308E+04  0.14522862308E+04  0.50400001928E-02 0.  1.
    10030    2    1    2    0    0  0.00000000000E+00  0.00000000000E+00 -0.28510092056E+03  0.26194715411E+04  0.26039102557E+04 0.  0.
        1    1    3    3  502    0  0.14601171384E+03 -0.24745446202E+02  0.11586847659E+04  0.11681105019E+04  0.50400001928E-02 0. -1.
       -1    1    3    3    0  502 -0.14601171384E+03  0.24745446202E+02 -0.14437856865E+04  0.14513610393E+04  0.50400001928E-02 0.  1.
</event>
<event>
 5   0  0.2586775E-06  0.2601793E+04  0.7818609E-02  0.8367593E-01
        2   -1    0    0  501    0  0.00000000000E+00  0.00000000000E+00  0.57668503030E+03  0.57668503030E+03  0.25500000920E-02 0.  1.
       -2   -1    0    0    0  501  0.00000000000E+00  0.00000000000E+00 -0.29345850404E+04  0.29345850404E+04  0.25500000920E-02 0. -1.
    10030    2    1    2    0    0  0.00000000000E+00  0.00000000000E+00 -0.23579000101E+04  0.35112700707E+04  0.26017926612E+04 0.  0.
        1    1    3    3  502    0 -0.65820984890E+03  0.77578840984E+03 -0.84855926779E+02  0.10209252619E+04  0.50400001928E-02 0.  1.
       -1    1    3    3    0  502  0.65820984890E+03 -0.77578840984E+03 -0.22730440834E+04  0.24903448089E+04  0.50400001928E-02 0. -1.
</event>
<event>
 5   0  0.2705807E-06  0.2599843E+04  0.7818609E-02  0.8368255E-01
        2   -1    0    0  501    0  0.00000000000E+00  0.00000000000E+00  0.12117613141E+04  0.12117613141E+04  0.25500000920E-02 0.  1.
       -2   -1    0    0    0  501  0.00000000000E+00  0.00000000000E+00 -0.13944954205E+04  0.13944954205E+04  0.25500000920E-02 0. -1.
    10030    2    1    2    0    0  0.00000000000E+00  0.00000000000E+00 -0.18273410639E+03  0.26062567346E+04  0.25998427670E+04 0.  0.
        4    1    3    3  502    0 -0.72939003715E+03  0.11211096380E+02 -0.11699668616E+04  0.13787529094E+04  0.12699999809E+01 0. -1.
       -4    1    3    3    0  502  0.72939003715E+03 -0.11211096380E+02  0.98723275525E+03  0.12275038252E+04  0.12699999809E+01 0.  1.
</event>
<event>
 5   0  0.1088757E-06  0.2604227E+04  0.7818609E-02  0.8366767E-01
        1   -1    0    0  501    0  0.00000000000E+00  0.00000000000E+00  0.15028443262E+04  0.15028443262E+04  0.50400001928E-02 0. -1.
       -1   -1    0    0    0  501  0.00000000000E+00  0.00000000000E+00 -0.11281934557E+04  0.11281934557E+04  0.50400001928E-02 0.  1.
    10030    2    1    2    0    0  0.00000000000E+00  0.00000000000E+00  0.37465087058E+03  0.26310377819E+04  0.26042266674E+04 0.  0.
        5    1    3    3  502    0  0.35048049633E+03 -0.12490428400E+04  0.30042639203E+03  0.13316240842E+04  0.46999998093E+01 0.  1.
       -5    1    3    3    0  502 -0.35048049633E+03  0.12490428400E+04  0.74224478548E+02  0.12994136977E+04  0.46999998093E+01 0. -1.
</event>
<event>
 5   0  0.2586775E-06  0.2601568E+04  0.7818609E-02  0.8367669E-01
       -2   -1    0    0    0  501  0.00000000000E+00  0.00000000000E+00  0.10557618975E+04  0.10557618975E+04  0.25500000920E-02 0. -1.
        2   -1    0    0  501    0  0.00000000000E+00  0.00000000000E+00 -0.16026707493E+04  0.16026707493E+04  0.25500000920E-02 0.  1.
    10030    2    1    2    0    0  0.00000000000E+00  0.00000000000E+00 -0.54690885174E+03  0.26584326468E+04  0.26015677668E+04 0.  0.
        1    1    3    3  502    0  0.26897770677E+03  0.70771228667E+03 -0.13543236641E+04  0.15515792840E+04  0.50400001928E-02 0.  1.
       -1    1    3    3    0  502 -0.26897770677E+03 -0.70771228667E+03  0.80741481234E+03  0.11068533628E+04  0.50400001928E-02 0. -1.
</event>
<event>
 5   0  0.2820028E-06  0.2595724E+04  0.7818609E-02  0.8369655E-01
       -2   -1    0    0    0  501  0.00000000000E+00  0.00000000000E+00  0.11550884444E+04  0.11550884444E+04  0.25500000920E-02 0. -1.
        2   -1    0    0  501    0  0.00000000000E+00  0.00000000000E+00 -0.14582832847E+04  0.14582832847E+04  0.25500000920E-02 0.  1.
    10030    2    1    2    0    0  0.00000000000E+00  0.00000000000E+00 -0.30319484022E+03  0.26133717291E+04  0.25957243080E+04 0.  0.
        3    1    3    3  502    0 -0.71704381294E+03  0.10386095216E+04  0.15308951576E+03  0.12713370828E+04  0.10100000352E+00 0. -1.
       -3    1    3    3    0  502  0.71704381294E+03 -0.10386095216E+04 -0.45628435598E+03  0.13420346463E+04  0.10100000352E+00 0.  1.
</event>
<event>
 5   0  0.1032076E-06  0.2604370E+04  0.7818609E-02  0.8366718E-01
       -1   -1    0    0    0  501  0.00000000000E+00  0.00000000000E+00  0.86968829326E+03  0.86968829327E+03  0.50400001928E-02 0. -1.
        1   -1    0    0  501    0  0.00000000000E+00  0.00000000000E+00 -0.19497626470E+04  0.19497626470E+04  0.50400001928E-02 0.  1.
    10030    2    1    2    0    0  0.00000000000E+00  0.00000000000E+00 -0.10800743537E+04  0.28194509403E+04  0.26043699804E+04 0.  0.
        1    1    3    3  502    0  0.99414456503E+03 -0.83595581445E+03 -0.43999201151E+03  0.13714002006E+04  0.50400001928E-02 0. -1.
       -1    1    3    3    0  502 -0.99414456503E+03  0.83595581445E+03 -0.64008234220E+03  0.14480507397E+04  0.50400001928E-02 0.  1.
</event>
<event>
 5   0  0.1032076E-06  0.2618118E+04  0.7818609E-02  0.8362073E-01
       -1   -1    0    0    0  501  0.00000000000E+00  0.00000000000E+00  0.12926646859E+04  0.12926646859E+04  0.50400001928E-02 0. -1.
        1   -1    0    0  501    0  0.00000000000E+00  0.00000000000E+00 -0.13256612956E+04  0.13256612956E+04  0.50400001928E-02 0.  1.
    10030    2    1    2    0    0  0.00000000000E+00  0.00000000000E+00 -0.32996609736E+02  0.26183259815E+04  0.26181180587E+04 0.  0.
        1    1    3    3  502    0 -0.11789371453E+03  0.32330283834E+03 -0.12796155887E+04  0.13250810194E+04  0.50400001928E-02 0.  1.
       -1    1    3    3    0  502  0.11789371453E+03 -0.32330283834E+03  0.12466189790E+04  0.12932449621E+04  0.50400001928E-02 0. -1.
</event>
<event>
 5   0  0.1055179E-06  0.2592806E+04  0.7818609E-02  0.8370649E-01
        1   -1    0    0  501    0  0.00000000000E+00  0.00000000000E+00  0.12013501281E+04  0.12013501281E+04  0.50400001928E-02 0.  1.
       -1   -1    0    0    0  501  0.00000000000E+00  0.00000000000E+00 -0.13989771208E+04  0.13989771208E+04  0.50400001928E-02 0. -1.
    10030    2    1    2    0    0  0.00000000000E+00  0.00000000000E+00 -0.19762699272E+03  0.26003272489E+04  0.25928064666E+04 0.  0.
        3    1    3    3  502    0  0.40710668716E+03 -0.73664472869E+02  0.11333669824E+04  0.12065169026E+04  0.10100000352E+00 0.  1.
       -3    1    3    3    0  502 -0.40710668716E+03  0.73664472869E+02 -0.13309939752E+04  0.13938103463E+04  0.10100000352E+00 0. -1.
</event>
<event>
 5   0  0.1088757E-06  0.2601566E+04  0.7818609E-02  0.8367669E-01
        1   -1    0    0  501    0  0.00000000000E+00  0.00000000000E+00  0.18769650036E+04  0.18769650036E+04  0.50400001928E-02 0.  1.
       -1   -1    0    0    0  501  0.00000000000E+00  0.00000000000E+00 -0.90147497672E+03  0.90147497674E+03  0.50400001928E-02 0. -1.
    10030    2    1    2    0    0  0.00000000000E+00  0.00000000000E+00  0.97549002687E+03  0.27784399803E+04  0.26015664381E+04 0.  0.
        5    1    3    3  502    0 -0.74107121345E+03 -0.23937141343E+03  0.16004677153E+04  0.17798888209E+04  0.46999998093E+01 0.  1.
       -5    1    3    3    0  502  0.74107121345E+03  0.23937141343E+03 -0.62497768845E+03  0.99855115944E+03  0.46999998093E+01 0. -1.
</event>
<event>
 5   0  0.1055179E-06  0.2604119E+04  0.7818609E-02  0.8366803E-01
       -1   -1    0    0    0  501  0.00000000000E+00  0.00000000000E+00  0.17699425895E+04  0.17699425895E+04  0.50400001928E-02 0.  1.
        1   -1    0    0  501    0  0.00000000000E+00  0.00000000000E+00 -0.95786093554E+03  0.95786093555E+03  0.50400001928E-02 0. -1.
    10030    2    1    2    0    0  0.00000000000E+00  0.00000000000E+00  0.81208165394E+03  0.27278035250E+04  0.26041189409E+04 0.  0.
        3    1    3    3  502    0  0.72800386312E+03 -0.10790272306E+04  0.44029674600E+03  0.13740999323E+04  0.10100000352E+00 0.  1.
       -3    1    3    3    0  502 -0.72800386312E+03  0.10790272306E+04  0.37178490794E+03  0.13537035928E+04  0.10100000352E+00 0. -1.
</event>
<event>
 5   0  0.2705807E-06  0.2599533E+04  0.7818609E-02  0.8368360E-01
        2   -1    0    0  501    0  0.00000000000E+00  0.00000000000E+00  0.25169274919E+04  0.25169274919E+04  0.25500000920E-02 0. -1.
       -2   -1    0    0    0  501  0.00000000000E+00  0.00000000000E+00 -0.67121225060E+03  0.67121225061E+03  0.25500000920E-02 0.  1.
    10030    2    1    2    0    0  0.00000000000E+00  0.00000000000E+00  0.18457152413E+04  0.31881397425E+04  0.25995327014E+04 0.  0.
        4    1    3    3  502    0  0.10071933148E+04 -0.80626233211E+03  0.72935529168E+03  0.14820452341E+04  0.12699999809E+01 0.  1.
       -4    1    3    3    0  502 -0.10071933148E+04  0.80626233211E+03  0.11163599496E+04  0.17060945084E+04  0.12699999809E+01 0. -1.
</event>
<event>
 5   0  0.2586775E-06  0.2584397E+04  0.7818609E-02  0.8373520E-01
        2   -1    0    0  501    0  0.00000000000E+00  0.00000000000E+00  0.21509122634E+04  0.21509122634E+04  0.25500000920E-02 0. -1.
       -2   -1    0    0    0  501  0.00000000000E+00  0.00000000000E+00 -0.77631115612E+03  0.77631115612E+03  0.25500000920E-02 0.  1.
    10030    2    1    2    0    0  0.00000000000E+00  0.00000000000E+00  0.13746011073E+04  0.29272234196E+04  0.25843971722E+04 0.  0.
        1    1    3    3  502    0  0.62727654053E+03  0.63193435023E+01  0.19668775680E+04  0.20644910171E+04  0.50400001928E-02 0. -1.
       -1    1    3    3    0  502 -0.62727654053E+03 -0.63193435023E+01 -0.59227646063E+03  0.86273240245E+03  0.50400001928E-02 0.  1.
</event>
<event>
 5   0  0.1122628E-06  0.2620718E+04  0.7818609E-02  0.8361198E-01
       -1   -1    0    0    0  501  0.00000000000E+00  0.00000000000E+00  0.16015427588E+04  0.16015427588E+04  0.50400001928E-02 0. -1.
        1   -1    0    0  501    0  0.00000000000E+00  0.00000000000E+00 -0.10721164873E+04  0.10721164873E+04  0.50400001928E-02 0.  1.
    10030    2    1    2    0    0  0.00000000000E+00  0.00000000000E+00  0.52942627150E+03  0.26736592462E+04  0.26207177619E+04 0.  0.
        2    1    3    3  502    0 -0.12699141285E+04 -0.18615819375E+03  0.53406097907E+03  0.13901647011E+04  0.25500000920E-02 0.  1.
       -2    1    3    3    0  502  0.12699141285E+04  0.18615819375E+03 -0.46347075721E+01  0.12834945451E+04  0.25500000920E-02 0. -1.
</event>
<event>
 5   0  0.2623368E-06  0.2599463E+04  0.7818609E-02  0.8368384E-01
        2   -1    0    0  501    0  0.00000000000E+00  0.00000000000E+00  0.12787032160E+04  0.12787032160E+04  0.25500000920E-02 0. -1.
       -2   -1    0    0    0  501  0.00000000000E+00  0.00000000000E+00 -0.13211053896E+04  0.13211053896E+04  0.25500000920E-02 0.  1.
    10030    2    1    2    0    0  0.00000000000E+00  0.00000000000E+00 -0.42402173590E+02  0.25998086055E+04  0.25994627985E+04 0.  0.
        5    1    3    3  502    0 -0.42805364550E+03 -0.72651501287E+03 -0.10103855576E+04  0.13160376333E+04  0.46999998093E+01 0.  1.
       -5    1    3    3    0  502  0.42805364550E+03  0.72651501287E+03  0.96798338400E+03  0.12837709722E+04  0.46999998093E+01 0. -1.
</event>
<event>
 5   0  0.1122628E-06  0.2600137E+04  0.7818609E-02  0.8368155E-01
        1   -1    0    0  501    0  0.00000000000E+00  0.00000000000E+00  0.18552088460E+04  0.18552088460E+04  0.50400001928E-02 0. -1.
       -1   -1    0    0    0  501  0.00000000000E+00  0.00000000000E+00 -0.91104430756E+03  0.91104430757E+03  0.50400001928E-02 0.  1.
    10030    2    1    2    0    0  0.00000000000E+00  0.00000000000E+00  0.94416453840E+03  0.27662531535E+04  0.26001365029E+04 0.  0.
        2    1    3    3  502    0 -0.49855552146E+03 -0.48699226551E+03  0.16396757815E+04  0.17816441124E+04  0.25500000920E-02 0. -1.
       -2    1    3    3    0  502  0.49855552146E+03  0.48699226551E+03 -0.69551124311E+03  0.98460904117E+03  0.25500000920E-02 0.  1.
</event>
<event>
 5   0  0.2746631E-06  0.2598925E+04  0.7818609E-02  0.8368566E-01
        2   -1    0    0  501    0  0.00000000000E+00  0.00000000000E+00  0.15477994423E+04  0.15477994423E+04  0.25500000920E-02 0. -1.
       -2   -1    0    0    0  501  0.00000000000E+00  0.00000000000E+00 -0.10909702265E+04  0.10909702265E+04  0.25500000920E-02 0.  1.
    10030    2    1    2    0    0  0.00000000000E+00  0.00000000000E+00  0.45682921587E+03  0.26387696688E+04  0.25989252457E+04 0.  0.
        2    1    3    3  502    0 -0.41568481739E+03  0.79697365814E+03 -0.72439789898E+03  0.11544319795E+04  0.25500000920E-02 0.  1.
       -2    1    3    3    0  502  0.41568481739E+03 -0.79697365814E+03  0.11812271148E+04  0.14843376894E+04  0.25500000920E-02 0. -1.
</event>
<event>
 5   0  0.2820028E-06  0.2600766E+04  0.7818609E-02  0.8367941E-01
       -2   -1    0    0    0  501  0.00000000000E+00  0.00000000000E+00  0.12503531355E+04  0.12503531355E+04  0.25500000920E-02 0. -1.
        2   -1    0    0  501    0  0.00000000000E+00  0.00000000000E+00 -0.13524149028E+04  0.13524149028E+04  0.25500000920E-02 0.  1.
    10030    2    1    2    0    0  0.00000000000E+00  0.00000000000E+00 -0.10206176730E+03  0.26027680383E+04  0.26007662058E+04 0.  0.
        3    1    3    3  502    0 -0.94266617518E+03  0.41540357365E+03 -0.84525155892E+03  0.13325276188E+04  0.10100000352E+00 0.  1.
       -3    1    3    3    0  502  0.94266617518E+03 -0.41540357365E+03  0.74318979163E+03  0.12702404195E+04  0.10100000352E+00 0. -1.
</event>
<event>
 5   0  0.9197000E-07  0.2600407E+04  0.7818609E-02  0.8368063E-01
        3   -1    0    0  501    0  0.00000000000E+00  0.00000000000E+00  0.19764279981E+04  0.19764280006E+04  0.10100000352E+00 0. -1.
       -3   -1    0    0    0  501  0.00000000000E+00  0.00000000000E+00 -0.85534555624E+03  0.85534556220E+03  0.10100000352E+00 0.  1.
    10030    2    1    2    0    0  0.00000000000E+00  0.00000000000E+00  0.11210824418E+04  0.28317735628E+04  0.26004068278E+04 0.  0.
        3    1    3    3  502    0 -0.42777963141E+03 -0.31818293437E+03 -0.73084203316E+03  0.90463577224E+03  0.10100000352E+00 0.  1.
       -3    1    3    3    0  502  0.42777963141E+03  0.31818293437E+03  0.18519244750E+04  0.19271377906E+04  0.10100000352E+00 0. -1.
</event>
<event>
 5   0  0.2586775E-06  0.2601954E+04  0.7818609E-02  0.8367538E-01
       -2   -1    0    0    0  501  0.00000000000E+00  0.00000000000E+00  0.87205217481E+03  0.87205217482E+03  0.25500000920E-02 0.  1.
        2   -1    0    0  501    0  0.00000000000E+00  0.00000000000E+00 -0.19408720859E+04  0.19408720859E+04  0.25500000920E-02 0. -1.
    10030    2    1    2    0    0  0.00000000000E+00  0.00000000000E+00 -0.10688199111E+04  0.28129242607E+04  0.26019544374E+04 0.  0.
        1    1    3    3  502    0 -0.93341222759E+03 -0.57572960933E+03  0.22220697635E+03  0.11189722561E+04  0.50400001928E-02 0.  1.
       -1    1    3    3    0  502  0.93341222759E+03  0.57572960933E+03 -0.12910268874E+04  0.16939520045E+04  0.50400001928E-02 0. -1.
</event>
<event>
 5   0  0.2705807E-06  0.2597573E+04  0.7818609E-02  0.8369026E-01
       -2   -1    0    0    0  501  0.00000000000E+00  0.00000000000E+00  0.88797111702E+03  0.88797111703E+03  0.25500000920E-02 0. -1.
        2   -1    0    0  501    0  0.00000000000E+00  0.00000000000E+00 -0.18996639273E+04  0.18996639273E+04  0.25500000920E-02 0.  1.
    10030    2    1    2    0    0  0.00000000000E+00  0.00000000000E+00 -0.10116928102E+04  0.27876350443E+04  0.25975732517E+04 0.  0.
        4    1    3    3  502    0 -0.56858451800E+03  0.97084049095E+03 -0.12021879370E+04  0.16465348650E+04  0.12699999809E+01 0.  1.
       -4    1    3    3    0  502  0.56858451800E+03 -0.97084049095E+03  0.19049512672E+03  0.11411001793E+04  0.12699999809E+01 0. -1.
</event>
<event>
 5   0  0.1088757E-06  0.2600418E+04  0.7818609E-02  0.8368059E-01
       -1   -1    0    0    0  501  0.00000000000E+00  0.00000000000E+00  0.91828148327E+03  0.91828148329E+03  0.50400001928E-02 0. -1.
        1   -1    0    0  501    0  0.00000000000E+00  0.00000000000E+00 -0.18409865390E+04  0.18409865390E+04  0.50400001928E-02 0.  1.
    10030    2    1    2    0    0  0.00000000000E+00  0.00000000000E+00 -0.92270505572E+03  0.27592680223E+04  0.26004183123E+04 0.  0.
        5    1    3    3  502    0  0.12885156416E+03  0.11978303111E+04  0.57519260220E+02  0.12061221891E+04  0.46999998093E+01 0. -1.
       -5    1    3    3    0  502 -0.12885156416E+03 -0.11978303111E+04 -0.98022431594E+03  0.15531458332E+04  0.46999998093E+01 0.  1.
</event>
<event>
 5   0  0.1100104E-06  0.2601337E+04  0.7818609E-02  0.8367747E-01
        1   -1    0    0  501    0  0.00000000000E+00  0.00000000000E+00  0.98089838729E+03  0.98089838730E+03  0.50400001928E-02 0.  1.
       -1   -1    0    0    0  501  0.00000000000E+00  0.00000000000E+00 -0.17246823474E+04  0.17246823474E+04  0.50400001928E-02 0. -1.
    10030    2    1    2    0    0  0.00000000000E+00  0.00000000000E+00 -0.74378396013E+03  0.27055807347E+04  0.26013366819E+04 0.  0.
        4    1    3    3  502    0  0.86954794953E+03 -0.82977832216E+03  0.14511003759E+03  0.12106627261E+04  0.12699999809E+01 0. -1.
       -4    1    3    3    0  502 -0.86954794953E+03  0.82977832216E+03 -0.88889399772E+03  0.14949180086E+04  0.12699999809E+01 0.  1.
</event>
<event>
 5   0  0.1088757E-06  0.2599277E+04  0.7818609E-02  0.8368447E-01
       -1   -1    0    0    0  501  0.00000000000E+00  0.00000000000E+00  0.13352008785E+04  0.13352008785E+04  0.50400001928E-02 0. -1.
        1   -1    0    0  501    0  0.00000000000E+00  0.00000000000E+00 -0.12650232416E+04  0.12650232416E+04  0.50400001928E-02 0.  1.
    10030    2    1    2    0    0  0.00000000000E+00  0.00000000000E+00  0.70177636924E+02  0.26002241201E+04  0.25992769329E+04 0.  0.
        5    1    3    3  502    0 -0.30584527858E+03 -0.89367103184E+03 -0.85790035374E+03  0.12760111107E+04  0.46999998093E+01 0.  1.
       -5    1    3    3    0  502  0.30584527858E+03  0.89367103184E+03  0.92807799066E+03  0.13242130094E+04  0.46999998093E+01 0. -1.
</event>
<event>
 5   0  0.2820028E-06  0.2599658E+04  0.7818609E-02  0.8368317E-01
       -2   -1    0    0    0  501  0.00000000000E+00  0.00000000000E+00  0.77803213147E+03  0.77803213147E+03  0.25500000920E-02 0. -1.
        2   -1    0    0  501    0  0.00000000000E+00  0.00000000000E+00 -0.21715756213E+04  0.21715756213E+04  0.25500000920E-02 0.  1.
    10030    2    1    2    0    0  0.00000000000E+00  0.00000000000E+00 -0.13935434898E+04  0.29496077527E+04  0.25996581385E+04 0.  0.
        3    1    3    3  502    0 -0.32029983815E+03 -0.12579874976E+04 -0.77229874923E+03  0.15104866430E+04  0.10100000352E+00 0.  1.
       -3    1    3    3    0  502  0.32029983815E+03  0.12579874976E+04 -0.62124474055E+03  0.14391211097E+04  0.10100000352E+00 0. -1.
</event>
<event>
 5   0  0.2746631E-06  0.2584124E+04  0.7818609E-02  0.8373614E-01
        2   -1    0    0  501    0  0.00000000000E+00  0.00000000000E+00  0.82376317917E+03  0.82376317917E+03  0.25500000920E-02 0. -1.
       -2   -1    0    0    0  501  0.00000000000E+00  0.00000000000E+00 -0.20265823489E+04  0.20265823489E+04  0.25500000920E-02 0.  1.
    10030    2    1    2    0    0  0.00000000000E+00  0.00000000000E+00 -0.12028191698E+04  0.28503455281E+04  0.25841237731E+04 0.  0.
        2    1    3    3  502    0 -0.59539012340E+02  0.12482147195E+04 -0.96362939807E+03  0.15780261394E+04  0.25500000920E-02 0. -1.
       -2    1    3    3    0  502  0.59539012340E+02 -0.12482147195E+04 -0.23918977169E+03  0.12723193887E+04  0.25500000920E-02 0.  1.
</event>
<event>
 5   0  0.2623368E-06  0.2598266E+04  0.7818609E-02  0.8368790E-01
        2   -1    0    0  501    0  0.00000000000E+00  0.00000000000E+00  0.16295879924E+04  0.16295879924E+04  0.25500000920E-02 0.  1.
       -2   -1    0    0    0  501  0.00000000000E+00  0.00000000000E+00 -0.10356893254E+04  0.10356893254E+04  0.25500000920E-02 0. -1.
    10030    2    1    2    0    0  0.00000000000E+00  0.00000000000E+00  0.59389866695E+03  0.26652773178E+04  0.25982662593E+04 0.  0.
        5    1    3    3  502    0 -0.90906828348E+03 -0.34746932432E+03  0.11797164035E+04  0.15293439633E+04  0.46999998093E+01 0.  1.
       -5    1    3    3    0  502  0.90906828348E+03  0.34746932432E+03 -0.58581773659E+03  0.11359333545E+04  0.46999998093E+01 0. -1.
</event>
<event>
 5   0  0.1100104E-06  0.2593522E+04  0.7818609E-02  0.8370405E-01
       -1   -1    0    0    0  501  0.00000000000E+00  0.00000000000E+00  0.96442956954E+03  0.96442956956E+03  0.50400001928E-02 0. -1.
        1   -1    0    0  501    0  0.00000000000E+00  0.00000000000E+00 -0.17436106315E+04  0.17436106315E+04  0.50400001928E-02 0.  1.
    10030    2    1    2    0    0  0.00000000000E+00  0.00000000000E+00 -0.77918106196E+03  0.27080402011E+04  0.25935224316E+04 0.  0.
        4    1    3    3  502    0  0.11114367743E+03  0.59354656916E+03  0.80866018137E+03  0.10092489032E+04  0.12699999809E+01 0. -1.
       -4    1    3    3    0  502 -0.11114367743E+03 -0.59354656916E+03 -0.15878412433E+04  0.16987912979E+04  0.12699999809E+01 0.  1.
</event>
<event>
 5   0  0.1032076E-06  0.2596743E+04  0.7818609E-02  0.8369308E-01
       -1   -1    0    0    0  501  0.00000000000E+00  0.00000000000E+00  0.85246079396E+03  0.85246079398E+03  0.50400001928E-02 0.  1.
        1   -1    0    0  501    0  0.00000000000E+00  0.00000000000E+00 -0.19775321151E+04  0.19775321151E+04  0.50400001928E-02 0. -1.
    10030    2    1    2    0    0  0.00000000000E+00  0.00000000000E+00 -0.11250713212E+04  0.28299929091E+04  0.25967430346E+04 0.  0.
        1    1    3    3  502    0 -0.19119026967E+03 -0.13533528234E+03 -0.19543135637E+04  0.19683015173E+04  0.50400001928E-02 0. -1.
       -1    1    3    3    0  502  0.19119026967E+03  0.13533528234E+03  0.82924224253E+03  0.86169139178E+03  0.50400001928E-02 0.  1.
</event>
<event>
 5   0  0.2746631E-06  0.2599968E+04  0.7818609E-02  0.8368212E-01
       -2   -1    0    0    0  501  0.00000000000E+00  0.00000000000E+00  0.13191171702E+04  0.13191171702E+04  0.25500000920E-02 0.  1.
        2   -1    0    0  501    0  0.00000000000E+00  0.00000000000E+00 -0.12811283701E+04  0.12811283701E+04  0.25500000920E-02 0. -1.
    10030    2    1    2    0    0  0.00000000000E+00  0.00000000000E+00  0.37988800065E+02  0.26002455403E+04  0.25999680230E+04 0.  0.
        2    1    3    3  502    0 -0.15441433800E+03  0.61637360594E+03  0.11532222472E+04  0.13166934956E+04  0.25500000920E-02 0.  1.
       -2    1    3    3    0  502  0.15441433800E+03 -0.61637360594E+03 -0.11152334471E+04  0.12835520447E+04  0.25500000920E-02 0. -1.
</event>
<event>
 5   0  0.9197000E-07  0.2600029E+04  0.7818609E-02  0.8368192E-01
       -3   -1    0    0    0  501  0.00000000000E+00  0.00000000000E+00  0.12318355922E+04  0.12318355964E+04  0.10100000352E+00 0.  1.
        3   -1    0    0  501    0  0.00000000000E+00  0.00000000000E+00 -0.13719664373E+04  0.13719664411E+04  0.10100000352E+00 0. -1.
    10030    2    1    2    0    0  0.00000000000E+00  0.00000000000E+00 -0.14013084510E+03  0.26038020374E+04  0.26000285376E+04 0.  0.
        1    1    3    3  502    0 -0.61222831624E+03 -0.93836543708E+03  0.59019706286E+03  0.12663671576E+04  0.50400001928E-02 0.  1.
       -1    1    3    3    0  502  0.61222831624E+03  0.93836543708E+03 -0.73032790796E+03  0.13374348799E+04  0.50400001928E-02 0. -1.
</event>
<event>
 5   0  0.1100104E-06  0.2599209E+04  0.7818609E-02  0.8368470E-01
        1   -1    0    0  501    0  0.00000000000E+00  0.00000000000E+00  0.20426086292E+04  0.20426086292E+04  0.50400001928E-02 0. -1.
       -1   -1    0    0    0  501  0.00000000000E+00  0.00000000000E+00 -0.82687009795E+03  0.82687009796E+03  0.50400001928E-02 0.  1.
    10030    2    1    2    0    0  0.00000000000E+00  0.00000000000E+00  0.12157385312E+04  0.28694787271E+04  0.25992091084E+04 0.  0.
        4    1    3    3  502    0 -0.92192461943E+03  0.45562760412E+03  0.14851205353E+04  0.18064125041E+04  0.12699999809E+01 0. -1.
       -4    1    3    3    0  502  0.92192461943E+03 -0.45562760412E+03 -0.26938200411E+03  0.10630662231E+04  0.12699999809E+01 0.  1.
</event>
<event>
 5   0  0.2705807E-06  0.2601537E+04  0.7818609E-02  0.8367679E-01
        2   -1    0    0  501    0  0.00000000000E+00  0.00000000000E+00  0.10451409001E+04  0.10451409001E+04  0.25500000920E-02 0. -1.
       -2   -1    0    0    0  501  0.00000000000E+00  0.00000000000E+00 -0.16189187876E+04  0.16189187876E+04  0.25500000920E-02 0.  1.
    10030    2    1    2    0    0  0.00000000000E+00  0.00000000000E+00 -0.57377788753E+03  0.26640596877E+04  0.26015366527E+04 0.  0.
        4    1    3    3  502    0  0.49167781764E+03  0.10615337744E+04  0.29545699646E+03  0.12066057684E+04  0.12699999809E+01 0.  1.
       -4    1    3    3    0  502 -0.49167781764E+03 -0.10615337744E+04 -0.86923488398E+03  0.14574539194E+04  0.12699999809E+01 0. -1.
</event>
<event>
 5   0  0.1088757E-06  0.2593843E+04  0.7818609E-02  0.8370296E-01
       -1   -1    0    0    0  501  0.00000000000E+00  0.00000000000E+00  0.18257373876E+04  0.18257373876E+04  0.50400001928E-02 0.  1.
        1   -1    0    0  501    0  0.00000000000E+00  0.00000000000E+00 -0.92127462698E+03  0.92127462699E+03  0.50400001928E-02 0. -1.
    10030    2    1    2    0    0  0.00000000000E+00  0.00000000000E+00  0.90446276061E+03  0.27470120146E+04  0.25938431184E+04 0.  0.
        5    1    3    3  502    0  0.34198157437E+03 -0.11865814207E+04  0.87193712688E+03  0.15116955078E+04  0.46999998093E+01 0.  1.
       -5    1    3    3    0  502 -0.34198157437E+03  0.11865814207E+04  0.32525633737E+02  0.12353165068E+04  0.46999998093E+01 0. -1.
</event>
<event>
 5   0  0.2820028E-06  0.2596504E+04  0.7818609E-02  0.8369390E-01
       -2   -1    0    0    0  501  0.00000000000E+00  0.00000000000E+00  0.94350055002E+03  0.94350055002E+03  0.25500000920E-02 0.  1.
        2   -1    0    0  501    0  0.00000000000E+00  0.00000000000E+00 -0.17863877085E+04  0.17863877085E+04  0.25500000920E-02 0. -1.
    10030    2    1    2    0    0  0.00000000000E+00  0.00000000000E+00 -0.84288715843E+03  0.27298882585E+04  0.25965036380E+04 0.  0.
        3    1    3    3  502    0 -0.12526829552E+04  0.14465771919E+03 -0.96848541120E+02  0.12647213496E+04  0.10100000352E+00 0.  1.
       -3    1    3    3    0  502  0.12526829552E+04 -0.14465771919E+03 -0.74603861731E+03  0.14651669089E+04  0.10100000352E+00 0. -1.
</event>
<event>
 5   0  0.2586775E-06  0.2597022E+04  0.7818609E-02  0.8369213E-01
        2   -1    0    0  501    0  0.00000000000E+00  0.00000000000E+00  0.18384506401E+04  0.18384506401E+04  0.25500000920E-02 0.  1.
       -2   -1    0    0    0  501  0.00000000000E+00  0.00000000000E+00 -0.91714803090E+03  0.91714803091E+03  0.25500000920E-02 0. -1.
    10030    2    1    2    0    0  0.00000000000E+00  0.00000000000E+00  0.92130260922E+03  0.27555986710E+04  0.25970224369E+04 0.  0.
        1    1    3    3  502    0 -0.12491543873E+04 -0.31988725675E+03  0.29828180687E+03  0.13235129681E+04  0.50400001928E-02 0. -1.
       -1    1    3    3    0  502  0.12491543873E+04  0.31988725675E+03  0.62302080234E+03  0.14320857029E+04  0.50400001928E-02 0.  1.
</event>
<event>
 5   0  0.1055179E-06  0.2602839E+04  0.7818609E-02  0.8367237E-01
        1   -1    0    0  501    0  0.00000000000E+00  0.00000000000E+00  0.13134251246E+04  0.13134251246E+04  0.50400001928E-02 0.  1.
       -1   -1    0    0    0  501  0.00000000000E+00  0.00000000000E+00 -0.12895237099E+04  0.12895237099E+04  0.50400001928E-02 0. -1.
    10030    2    1    2    0    0  0.00000000000E+00  0.00000000000E+00  0.23901414694E+02  0.26029488345E+04  0.26028390956E+04 0.  0.
        3    1    3    3  502    0  0.13992785332E+03 -0.19088745284E+03  0.12917214294E+04  0.13132258318E+04  0.10100000352E+00 0.  1.
       -3    1    3    3    0  502 -0.13992785332E+03  0.19088745284E+03 -0.12678200147E+04  0.12897230027E+04  0.10100000352E+00 0. -1.
</event>
<event>
 5   0  0.1100104E-06  0.2603727E+04  0.7818609E-02  0.8366936E-01
       -1   -1    0    0    0  501  0.00000000000E+00  0.00000000000E+00  0.11534873496E+04  0.11534873496E+04  0.50400001928E-02 0.  1.
        1   -1    0    0  501    0  0.00000000000E+00  0.00000000000E+00 -0.14693251980E+04  0.14693251980E+04  0.50400001928E-02 0. -1.
    10030    2    1    2    0    0  0.00000000000E+00  0.00000000000E+00 -0.31583784833E+03  0.26228125476E+04  0.26037265819E+04 0.  0.
        4    1    3    3  502    0  0.86069487810E+03 -0.21008923941E+03  0.80296708793E+03  0.11956968340E+04  0.12699999809E+01 0.  1.
       -4    1    3    3    0  502 -0.86069487810E+03  0.21008923941E+03 -0.11188049363E+04  0.14271157136E+04  0.12699999809E+01 0. -1.
</event>
<event>
 5   0  0.1100104E-06  0.2588952E+04  0.7818609E-02  0.8371964E-01
       -1   -1    0    0    0  501  0.00000000000E+00  0.00000000000E+00  0.12972072670E+04  0.12972072670E+04  0.50400001928E-02 0. -1.
        1   -1    0    0  501    0  0.00000000000E+00  0.00000000000E+00 -0.12917503591E+04  0.12917503592E+04  0.50400001928E-02 0.  1.
    10030    2    1    2    0    0  0.00000000000E+00  0.00000000000E+00  0.54569078083E+01  0.25889576261E+04  0.25889518752E+04 0.  0.
        4    1    3    3  502    0 -0.83150728711E+03 -0.67157157336E+03  0.73297222315E+03  0.12960179935E+04  0.12699999809E+01 0. -1.
       -4    1    3    3    0  502  0.83150728711E+03  0.67157157336E+03 -0.72751531534E+03  0.12929396326E+04  0.12699999809E+01 0.  1.
</event>
<event>
 5   0  0.1100104E-06  0.2603007E+04  0.7818609E-02  0.8367180E-01
       -1   -1    0    0    0  501  0.00000000000E+00  0.00000000000E+00  0.10240132816E+04  0.10240132816E+04  0.50400001928E-02 0.  1.
        1   -1    0    0  501    0  0.00000000000E+00  0.00000000000E+00 -0.16541890957E+04  0.16541890957E+04  0.50400001928E-02 0. -1.
    10030    2    1    2    0    0  0.00000000000E+00  0.00000000000E+00 -0.63017581411E+03  0.26782023774E+04  0.26030071874E+04 0.  0.
        4    1    3    3  502    0 -0.68605496222E+03  0.73821626357E+03 -0.11624539068E+04  0.15384847615E+04  0.12699999809E+01 0. -1.
       -4    1    3    3    0  502  0.68605496222E+03 -0.73821626357E+03  0.53227809274E+03  0.11397176159E+04  0.12699999809E+01 0.  1.
</event>
<event>
 5   0  0.1032076E-06  0.2599523E+04  0.7818609E-02  0.8368363E-01
        1   -1    0    0  501    0  0.00000000000E+00  0.00000000000E+00  0.14498926405E+04  0.14498926405E+04  0.50400001928E-02 0. -1.
       -1   -1    0    0    0  501  0.00000000000E+00  0.00000000000E+00 -0.11651757626E+04  0.11651757627E+04  0.50400001928E-02 0.  1.
    10030    2    1    2    0    0  0.00000000000E+00  0.00000000000E+00  0.28471687783E+03  0.26150684031E+04  0.25995228509E+04 0.  0.
        1    1    3    3  502    0  0.10265733773E+04 -0.45528745042E+03 -0.51595562212E+03  0.12358599295E+04  0.50400001928E-02 0.  1.
       -1    1    3    3    0  502 -0.10265733773E+04  0.45528745042E+03  0.80067249995E+03  0.13792084736E+04  0.50400001928E-02 0. -1.
</event>
<event>
 5   0  0.2623368E-06  0.2602899E+04  0.7818609E-02  0.8367217E-01
       -2   -1    0    0    0  501  0.00000000000E+00  0.00000000000E+00  0.86607739103E+03  0.86607739103E+03  0.25500000920E-02 0. -1.
        2   -1    0    0  501    0  0.00000000000E+00  0.00000000000E+00 -0.19556812722E+04  0.19556812722E+04  0.25500000920E-02 0.  1.
    10030    2    1    2    0    0  0.00000000000E+00  0.00000000000E+00 -0.10896038812E+04  0.28217586632E+04  0.26028994094E+04 0.  0.
        5    1    3    3  502    0  0.11457182482E+04 -0.33874514339E+03 -0.11042671320E+04  0.16269132015E+04  0.46999998093E+01 0.  1.
       -5    1    3    3    0  502 -0.11457182482E+04  0.33874514339E+03  0.14663250880E+02  0.11948454617E+04  0.46999998093E+01 0. -1.
</event>
<event>
 5   0  0.2746631E-06  0.2603858E+04  0.7818609E-02  0.8366892E-01
        2   -1    0    0  501    0  0.00000000000E+00  0.00000000000E+00  0.15912174939E+04  0.15912174939E+04  0.25500000920E-02 0. -1.
       -2   -1    0    0    0  501  0.00000000000E+00  0.00000000000E+00 -0.10652343887E+04  0.10652343887E+04  0.25500000920E-02 0.  1.
    10030    2    1    2    0    0  0.00000000000E+00  0.00000000000E+00  0.52598310518E+03  0.26564518826E+04  0.26038583636E+04 0.  0.
        2    1    3    3  502    0  0.70053503149E+03 -0.10494721433E+04  0.59021685362E+03  0.13930172447E+04  0.25500000920E-02 0. -1.
       -2    1    3    3    0  502 -0.70053503149E+03  0.10494721433E+04 -0.64233748435E+02  0.12634346379E+04  0.25500000920E-02 0.  1.
</event>
<event>
 5   0  0.1122628E-06  0.2597696E+04  0.7818609E-02  0.8368984E-01
       -1   -1    0    0    0  501  0.00000000000E+00  0.00000000000E+00  0.11445608262E+04  0.11445608262E+04  0.50400001928E-02 0.  1.
        1   -1    0    0  501    0  0.00000000000E+00  0.00000000000E+00 -0.14739327563E+04  0.14739327563E+04  0.50400001928E-02 0. -1.
    10030    2    1    2    0    0  0.00000000000E+00  0.00000000000E+00 -0.32937193012E+03  0.26184935825E+04  0.25976956660E+04 0.  0.
        2    1    3    3  502    0  0.21754352726E+03 -0.22623103353E+03 -0.14351338580E+04  0.14690523670E+04  0.25500000920E-02 0. -1.
       -2    1    3    3    0  502 -0.21754352726E+03  0.22623103353E+03  0.11057619279E+04  0.11494412155E+04  0.25500000920E-02 0.  1.
</event>
<event>
 5   0  0.1032076E-06  0.2589391E+04  0.7818609E-02  0.8371814E-01
       -1   -1    0    0    0  501  0.00000000000E+00  0.00000000000E+00  0.12453963426E+04  0.12453963427E+04  0.50400001928E-02 0. -1.
        1   -1    0    0  501    0  0.00000000000E+00  0.00000000000E+00 -0.13459461457E+04  0.13459461457E+04  0.50400001928E-02 0.  1.
    10030    2    1    2    0    0  0.00000000000E+00  0.00000000000E+00 -0.10054980306E+03  0.25913424884E+04  0.25893909765E+04 0.  0.
        1    1    3    3  502    0  0.85383016145E+03 -0.62206871956E+03 -0.79933147332E+03  0.13247362910E+04  0.50400001928E-02 0.  1.
       -1    1    3    3    0  502 -0.85383016145E+03  0.62206871956E+03  0.69878167026E+03  0.12666061974E+04  0.50400001928E-02 0. -1.
</event>
<event>
 5   0  0.1055179E-06  0.2569150E+04  0.7818609E-02  0.8378756E-01
       -1   -1    0    0    0  501  0.00000000000E+00  0.00000000000E+00  0.70302399335E+03  0.70302399337E+03  0.50400001928E-02 0.  1.
        1   -1    0    0  501    0  0.00000000000E+00  0.00000000000E+00 -0.23471934225E+04  0.23471934225E+04  0.50400001928E-02 0. -1.
    10030    2    1    2    0    0  0.00000000000E+00  0.00000000000E+00 -0.16441694292E+04  0.30502174159E+04  0.25691502822E+04 0.  0.
        3    1    3    3  502    0 -0.93597012324E+03  0.80712032386E+03 -0.12378756846E+04  0.17492339779E+04  0.10100000352E+00 0. -1.
       -3    1    3    3    0  502  0.93597012324E+03 -0.80712032386E+03 -0.40629374459E+03  0.13009834380E+04  0.10100000352E+00 0.  1.
</event>
<event>
 5   0  0.1032076E-06  0.2602490E+04  0.7818609E-02  0.8367356E-01
       -1   -1    0    0    0  501  0.00000000000E+00  0.00000000000E+00  0.22615879468E+04  0.22615879468E+04  0.50400001928E-02 0.  1.
        1   -1    0    0  501    0  0.00000000000E+00  0.00000000000E+00 -0.74869469087E+03  0.74869469089E+03  0.50400001928E-02 0. -1.
    10030    2    1    2    0    0  0.00000000000E+00  0.00000000000E+00  0.15128932559E+04  0.30102826377E+04  0.26024902603E+04 0.  0.
        1    1    3    3  502    0  0.10761233128E+04  0.72963717961E+03  0.81794845509E+03  0.15360506090E+04  0.50400001928E-02 0.  1.
       -1    1    3    3    0  502 -0.10761233128E+04 -0.72963717961E+03  0.69494480080E+03  0.14742320287E+04  0.50400001928E-02 0. -1.
</event>
<event>
 5   0  0.1100104E-06  0.2600573E+04  0.7818609E-02  0.8368007E-01
       -1   -1    0    0    0  501  0.00000000000E+00  0.00000000000E+00  0.11731645026E+04  0.11731645026E+04  0.50400001928E-02 0. -1.
        1   -1    0    0  501    0  0.00000000000E+00  0.00000000000E+00 -0.14411826631E+04  0.14411826631E+04  0.50400001928E-02 0.  1.
    10030    2    1    2    0    0  0.00000000000E+00  0.00000000000E+00 -0.26801816047E+03  0.26143471657E+04  0.26005725078E+04 0.  0.
        4    1    3    3  502    0  0.11649790819E+03  0.11974764708E+04 -0.62979579733E+03  0.13580007437E+04  0.12699999809E+01 0. -1.
       -4    1    3    3    0  502 -0.11649790819E+03 -0.11974764708E+04  0.36177763687E+03  0.12563464220E+04  0.12699999809E+01 0.  1.
</event>
<event>
 5   0  0.1100104E-06  0.2612067E+04  0.7818609E-02  0.8364114E-01
        1   -1    0    0  501    0  0.00000000000E+00  0.00000000000E+00  0.13324139574E+04  0.13324139574E+04  0.50400001928E-02 0. -1.
       -1   -1    0    0    0  501  0.00000000000E+00  0.00000000000E+00 -0.12801756521E+04  0.12801756521E+04  0.50400001928E-02 0.  1.
    10030    2    1    2    0    0  0.00000000000E+00  0.00000000000E+00  0.52238305274E+02  0.26125896095E+04  0.26120673090E+04 0.  0.
        4    1    3    3  502    0 -0.10063772837E+04  0.32934108472E+03  0.79077284159E+03  0.13215839312E+04  0.12699999809E+01 0. -1.
       -4    1    3    3    0  502  0.10063772837E+04 -0.32934108472E+03 -0.73853453632E+03  0.12910056783E+04  0.12699999809E+01 0.  1.
</event>
<event>
 5   0  0.1055179E-06  0.2600399E+04  0.7818609E-02  0.8368066E-01
        1   -1    0    0  501    0  0.00000000000E+00  0.00000000000E+00  0.12846169686E+04  0.12846169686E+04  0.50400001928E-02 0. -1.
       -1   -1    0    0    0  501  0.00000000000E+00  0.00000000000E+00 -0.13159713214E+04  0.13159713214E+04  0.50400001928E-02 0.  1.
    10030    2    1    2    0    0  0.00000000000E+00  0.00000000000E+00 -0.31354352783E+02  0.26005882901E+04  0.26003992691E+04 0.  0.
        3    1    3    3  502    0 -0.75342429112E+03 -0.10269631495E+04 -0.27688116639E+03  0.13034433871E+04  0.10100000352E+00 0.  1.
       -3    1    3    3    0  502  0.75342429112E+03  0.10269631495E+04  0.24552681360E+03  0.12971449030E+04  0.10100000352E+00 0. -1.
</event>
<event>
 5   0  0.2746631E-06  0.2599452E+04  0.7818609E-02  0.8368387E-01
       -2   -1    0    0    0  501  0.00000000000E+00  0.00000000000E+00  0.89619002964E+03  0.89619002964E+03  0.25500000920E-02 0.  1.
        2   -1    0    0  501    0  0.00000000000E+00  0.00000000000E+00 -0.18849655036E+04  0.18849655036E+04  0.25500000920E-02 0. -1.
    10030    2    1    2    0    0  0.00000000000E+00  0.00000000000E+00 -0.98877547394E+03  0.27811555332E+04  0.25994517041E+04 0.  0.
        2    1    3    3  502    0  0.50594811100E+03 -0.11654276386E+04 -0.20122276878E+03  0.12863497481E+04  0.25500000920E-02 0.  1.
       -2    1    3    3    0  502 -0.50594811100E+03  0.11654276386E+04 -0.78755270516E+03  0.14948057851E+04  0.25500000920E-02 0. -1.
</event>
<event>
 5   0  0.1088757E-06  0.2600910E+04  0.7818609E-02  0.8367892E-01
        1   -1    0    0  501    0  0.00000000000E+00  0.00000000000E+00  0.12486904523E+04  0.12486904523E+04  0.50400001928E-02 0. -1.
       -1   -1    0    0    0  501  0.00000000000E+00  0.00000000000E+00 -0.13543659077E+04  0.13543659077E+04  0.50400001928E-02 0.  1.
    10030    2    1    2    0    0  0.00000000000E+00  0.00000000000E+00 -0.10567545542E+03  0.26030563600E+04  0.26009104389E+04 0.  0.
        5    1    3    3  502    0  0.72588074719E+03  0.78260338196E+03  0.69060136039E+03  0.12713470185E+04  0.46999998093E+01 0. -1.
       -5    1    3    3    0  502 -0.72588074719E+03 -0.78260338196E+03 -0.79627681581E+03  0.13317093414E+04  0.46999998093E+01 0.  1.
</event>
<event>
 5   0  0.2586775E-06  0.2604839E+04  0.7818609E-02  0.8366559E-01
       -2   -1    0    0    0  501  0.00000000000E+00  0.00000000000E+00  0.74613029690E+03  0.74613029691E+03  0.25500000920E-02 0. -1.
        2   -1    0    0  501    0  0.00000000000E+00  0.00000000000E+00 -0.22734583694E+04  0.22734583694E+04  0.25500000920E-02 0.  1.
    10030    2    1    2    0    0  0.00000000000E+00  0.00000000000E+00 -0.15273280725E+04  0.30195886663E+04  0.26048387038E+04 0.  0.
        1    1    3    3  502    0 -0.38709318860E+03 -0.27215534533E+02 -0.22048883140E+04  0.22387751784E+04  0.50400001928E-02 0.  1.
       -1    1    3    3    0  502  0.38709318860E+03  0.27215534533E+02  0.67756024154E+03  0.78081348792E+03  0.50400001928E-02 0. -1.
</event>
<event>
 5   0  0.1055179E-06  0.2597994E+04  0.7818609E-02  0.8368883E-01
       -1   -1    0    0    0  501  0.00000000000E+00  0.00000000000E+00  0.13452613071E+04  0.13452613071E+04  0.50400001928E-02 0.  1.
        1   -1    0    0  501    0  0.00000000000E+00  0.00000000000E+00 -0.12543236329E+04  0.12543236329E+04  0.50400001928E-02 0. -1.
    10030    2    1    2    0    0  0.00000000000E+00  0.00000000000E+00  0.90937674194E+02  0.25995849400E+04  0.25979938798E+04 0.  0.
        3    1    3    3  502    0  0.92160286590E+03  0.56095589210E+03  0.76935482499E+03  0.13251151694E+04  0.10100000352E+00 0.  1.
       -3    1    3    3    0  502 -0.92160286590E+03 -0.56095589210E+03 -0.67841715080E+03  0.12744697705E+04  0.10100000352E+00 0. -1.
</event>
<event>
 5   0  0.2586775E-06  0.2600081E+04  0.7818609E-02  0.8368174E-01
        2   -1    0    0  501    0  0.00000000000E+00  0.00000000000E+00  0.14570733108E+04  0.14570733108E+04  0.25500000920E-02 0. -1.
       -2   -1    0    0    0  501  0.00000000000E+00  0.00000000000E+00 -0.11599313976E+04  0.11599313976E+04  0.25500000920E-02 0.  1.
    10030    2    1    2    0    0  0.00000000000E+00  0.00000000000E+00  0.29714191313E+03  0.26170047084E+04  0.26000808309E+04 0.  0.
        1    1    3    3  502    0 -0.30257300867E+02 -0.11284648471E+04  0.79755985116E+03  0.13821903384E+04  0.50400001928E-02 0. -1.
       -1    1    3    3    0  502  0.30257300867E+02  0.11284648471E+04 -0.50041793803E+03  0.12348143699E+04  0.50400001928E-02 0.  1.
</event>
<event>
 5   0  0.1032076E-06  0.2605467E+04  0.7818609E-02  0.8366346E-01
        1   -1    0    0  501    0  0.00000000000E+00  0.00000000000E+00  0.14107714958E+04  0.14107714958E+04  0.50400001928E-02 0. -1.
       -1   -1    0    0    0  501  0.00000000000E+00  0.00000000000E+00 -0.12029695896E+04  0.12029695896E+04  0.50400001928E-02 0.  1.
    10030    2    1    2    0    0  0.00000000000E+00  0.00000000000E+00  0.20780190620E+03  0.26137410853E+04  0.26054674876E+04 0.  0.
        1    1    3    3  502    0  0.82185356359E+03 -0.96741392704E+03 -0.18991511974E+03  0.12835110981E+04  0.50400001928E-02 0.  1.
       -1    1    3    3    0  502 -0.82185356359E+03  0.96741392704E+03  0.39771702594E+03  0.13302299872E+04  0.50400001928E-02 0. -1.
</event>
<event>
 5   0  0.2623368E-06  0.2575909E+04  0.7818609E-02  0.8376431E-01
       -2   -1    0    0    0  501  0.00000000000E+00  0.00000000000E+00  0.17422009495E+04  0.17422009495E+04  0.25500000920E-02 0. -1.
        2   -1    0    0  501    0  0.00000000000E+00  0.00000000000E+00 -0.95214430229E+03  0.95214430230E+03  0.25500000920E-02 0.  1.
    10030    2    1    2    0    0  0.00000000000E+00  0.00000000000E+00  0.79005664725E+03  0.26943452518E+04  0.25759089328E+04 0.  0.
        5    1    3    3  502    0 -0.24274217295E+03  0.62769516070E+03  0.15436439527E+04  0.16839785391E+04  0.46999998093E+01 0. -1.
       -5    1    3    3    0  502  0.24274217295E+03 -0.62769516070E+03 -0.75358730547E+03  0.10103667128E+04  0.46999998093E+01 0.  1.
</event>
<event>
 5   0  0.1122628E-06  0.2596499E+04  0.7818609E-02  0.8369391E-01
       -1   -1    0    0    0  501  0.00000000000E+00  0.00000000000E+00  0.58722482814E+03  0.58722482816E+03  0.50400001928E-02 0. -1.
        1   -1    0    0  501    0  0.00000000000E+00  0.00000000000E+00 -0.28701977905E+04  0.28701977905E+04  0.50400001928E-02 0.  1.
    10030    2    1    2    0    0  0.00000000000E+00  0.00000000000E+00 -0.22829729624E+04  0.34574226187E+04  0.25964987227E+04 0.  0.
        2    1    3    3  502    0  0.22727242808E+03  0.12118972425E+04 -0.16825431902E+04  0.20859768143E+04  0.25500000920E-02 0.  1.
       -2    1    3    3    0  502 -0.22727242808E+03 -0.12118972425E+04 -0.60042977225E+03  0.13714458044E+04  0.25500000920E-02 0. -1.
</event>
<event>
 5   0  0.2820028E-06  0.2602808E+04  0.7818609E-02  0.8367248E-01
        2   -1    0    0  501    0  0.00000000000E+00  0.00000000000E+00  0.15250202485E+04  0.15250202485E+04  0.25500000920E-02 0. -1.
       -2   -1    0    0    0  501  0.00000000000E+00  0.00000000000E+00 -0.11105766555E+04  0.11105766555E+04  0.25500000920E-02 0.  1.
    10030    2    1    2    0    0  0.00000000000E+00  0.00000000000E+00  0.41444359299E+03  0.26355969040E+04  0.26028076281E+04 0.  0.
        3    1    3    3  502    0  0.10569989985E+03 -0.12022760791E+04  0.70019322979E+03  0.13953174579E+04  0.10100000352E+00 0. -1.
       -3    1    3    3    0  502 -0.10569989985E+03  0.12022760791E+04 -0.28574963680E+03  0.12402794461E+04  0.10100000352E+00 0.  1.
</event>
<event>
 5   0  0.2746631E-06  0.2606173E+04  0.7818609E-02  0.8366108E-01
       -2   -1    0    0    0  501  0.00000000000E+00  0.00000000000E+00  0.11127612297E+04  0.11127612297E+04  0.25500000920E-02 0.  1.
        2   -1    0    0  501    0  0.00000000000E+00  0.00000000000E+00 -0.15259641829E+04  0.15259641829E+04  0.25500000920E-02 0. -1.
    10030    2    1    2    0    0  0.00000000000E+00  0.00000000000E+00 -0.41320295316E+03  0.26387254126E+04  0.26061725044E+04 0.  0.
        2    1    3    3  502    0  0.52739428896E+03  0.23460149472E+03  0.97625946459E+03  0.11341362967E+04  0.25500000920E-02 0.  1.
       -2    1    3    3    0  502 -0.52739428896E+03 -0.23460149472E+03 -0.13894624178E+04  0.15045891159E+04  0.25500000920E-02 0. -1.
</event>
<event>
 5   0  0.1122628E-06  0.2605643E+04  0.7818609E-02  0.8366287E-01
       -1   -1    0    0    0  501  0.00000000000E+00  0.00000000000E+00  0.66155018738E+03  0.66155018740E+03  0.50400001928E-02 0. -1.
        1   -1    0    0  501    0  0.00000000000E+00  0.00000000000E+00 -0.25657071856E+04  0.25657071856E+04  0.50400001928E-02 0.  1.
    10030    2    1    2    0    0  0.00000000000E+00  0.00000000000E+00 -0.19041569982E+04  0.32272573730E+04  0.26056431601E+04 0.  0.
        2    1    3    3  502    0  0.93903276358E+03 -0.82099861434E+03 -0.14180205312E+04  0.18885453351E+04  0.25500000920E-02 0. -1.
       -2    1    3    3    0  502 -0.93903276358E+03  0.82099861434E+03 -0.48613646701E+03  0.13387120379E+04  0.25500000920E-02 0.  1.
</event>
<event>
 5   0  0.2623368E-06  0.2602965E+04  0.7818609E-02  0.8367195E-01
       -2   -1    0    0    0  501  0.00000000000E+00  0.00000000000E+00  0.86850530887E+03  0.86850530887E+03  0.25500000920E-02 0. -1.
        2   -1    0    0  501    0  0.00000000000E+00  0.00000000000E+00 -0.19503122616E+04  0.19503122616E+04  0.25500000920E-02 0.  1.
    10030    2    1    2    0    0  0.00000000000E+00  0.00000000000E+00 -0.10818069527E+04  0.28188175704E+04  0.26029648888E+04 0.  0.
        5    1    3    3  502    0 -0.54214231592E+03  0.79244398109E+03 -0.14923686196E+04  0.17745624646E+04  0.46999998093E+01 0.  1.
       -5    1    3    3    0  502  0.54214231592E+03 -0.79244398109E+03  0.41056166688E+03  0.10442551059E+04  0.46999998093E+01 0. -1.
</event>
<event>
 5   0  0.2623368E-06  0.2602954E+04  0.7818609E-02  0.8367198E-01
        2   -1    0    0  501    0  0.00000000000E+00  0.00000000000E+00  0.19150967417E+04  0.19150967417E+04  0.25500000920E-02 0.  1.
       -2   -1    0    0    0  501  0.00000000000E+00  0.00000000000E+00 -0.88446855808E+03  0.88446855809E+03  0.25500000920E-02 0. -1.
    10030    2    1    2    0    0  0.00000000000E+00  0.00000000000E+00  0.10306281836E+04  0.27995652997E+04  0.26029543628E+04 0.  0.
        5    1    3    3  502    0 -0.16754715272E+02  0.65412183931E+03  0.17253085339E+04  0.18452283675E+04  0.46999998093E+01 0.  1.
       -5    1    3    3    0  502  0.16754715272E+02 -0.65412183931E+03 -0.69468035031E+03  0.95433693224E+03  0.46999998093E+01 0. -1.
</event>
<event>
 5   0  0.2820028E-06  0.2599944E+04  0.7818609E-02  0.8368220E-01
        2   -1    0    0  501    0  0.00000000000E+00  0.00000000000E+00  0.32072081511E+04  0.32072081511E+04  0.25500000920E-02 0. -1.
       -2   -1    0    0    0  501  0.00000000000E+00  0.00000000000E+00 -0.52691544322E+03  0.52691544323E+03  0.25500000920E-02 0.  1.
    10030    2    1    2    0    0  0.00000000000E+00  0.00000000000E+00  0.26802927079E+04  0.37341235943E+04  0.25999442336E+04 0.  0.
        3    1    3    3  502    0 -0.74136371700E+03 -0.78940160116E+03  0.30730421865E+03  0.11257046423E+04  0.10100000352E+00 0.  1.
       -3    1    3    3    0  502  0.74136371700E+03  0.78940160116E+03  0.23729884892E+04  0.26084189520E+04  0.10100000352E+00 0. -1.
</event>
<event>
 5   0  0.2586775E-06  0.2599847E+04  0.7818609E-02  0.8368253E-01
       -2   -1    0    0    0  501  0.00000000000E+00  0.00000000000E+00  0.15961190246E+04  0.15961190246E+04  0.25500000920E-02 0. -1.
        2   -1    0    0  501    0  0.00000000000E+00  0.00000000000E+00 -0.10586935591E+04  0.10586935591E+04  0.25500000920E-02 0.  1.
    10030    2    1    2    0    0  0.00000000000E+00  0.00000000000E+00  0.53742546550E+03  0.26548125837E+04  0.25998468655E+04 0.  0.
        1    1    3    3  502    0 -0.44715301873E+03 -0.11798348644E+04  0.58812749041E+03  0.13920668355E+04  0.50400001928E-02 0. -1.
       -1    1    3    3    0  502  0.44715301873E+03  0.11798348644E+04 -0.50702024915E+02  0.12627457483E+04  0.50400001928E-02 0.  1.
</event>
<event>
 5   0  0.1088757E-06  0.2602759E+04  0.7818609E-02  0.8367265E-01
        1   -1    0    0  501    0  0.00000000000E+00  0.00000000000E+00  0.18978945871E+04  0.18978945871E+04  0.50400001928E-02 0. -1.
       -1   -1    0    0    0  501  0.00000000000E+00  0.00000000000E+00 -0.89235102833E+03  0.89235102834E+03  0.50400001928E-02 0.  1.
    10030    2    1    2    0    0  0.00000000000E+00  0.00000000000E+00  0.10055435588E+04  0.27902456155E+04  0.26027586799E+04 0.  0.
        5    1    3    3  502    0  0.38645197379E+03 -0.11185385712E+04 -0.77606076861E+02  0.11859673084E+04  0.46999998093E+01 0.  1.
       -5    1    3    3    0  502 -0.38645197379E+03  0.11185385712E+04  0.10831496356E+04  0.16042783071E+04  0.46999998093E+01 0. -1.
</event>
<event>
 5   0  0.1032076E-06  0.2598741E+04  0.7818609E-02  0.8368629E-01
       -1   -1    0    0    0  501  0.00000000000E+00  0.00000000000E+00  0.11821366721E+04  0.11821366721E+04  0.50400001928E-02 0.  1.
        1   -1    0    0  501    0  0.00000000000E+00  0.00000000000E+00 -0.14282304464E+04  0.14282304465E+04  0.50400001928E-02 0. -1.
    10030    2    1    2    0    0  0.00000000000E+00  0.00000000000E+00 -0.24609377435E+03  0.26103671186E+04  0.25987409159E+04 0.  0.
        1    1    3    3  502    0 -0.11105024864E+04 -0.63673548762E+03  0.10092088561E+03  0.12840688762E+04  0.50400001928E-02 0.  1.
       -1    1    3    3    0  502  0.11105024864E+04  0.63673548762E+03 -0.34701465997E+03  0.13262982424E+04  0.50400001928E-02 0. -1.
</event>
<event>
 5   0  0.2746631E-06  0.2599353E+04  0.7818609E-02  0.8368421E-01
        2   -1    0    0  501    0  0.00000000000E+00  0.00000000000E+00  0.12243554943E+04  0.12243554943E+04  0.25500000920E-02 0. -1.
       -2   -1    0    0    0  501  0.00000000000E+00  0.00000000000E+00 -0.13796315913E+04  0.13796315913E+04  0.25500000920E-02 0.  1.
    10030    2    1    2    0    0  0.00000000000E+00  0.00000000000E+00 -0.15527609701E+03  0.26039870855E+04  0.25993533956E+04 0.  0.
        2    1    3    3  502    0 -0.60962964155E+03  0.56784292198E+02  0.10708290683E+04  0.12335102955E+04  0.25500000920E-02 0. -1.
       -2    1    3    3    0  502  0.60962964155E+03 -0.56784292198E+02 -0.12261051653E+04  0.13704767900E+04  0.25500000920E-02 0.  1.
</event>
<event>
 5   0  0.1122628E-06  0.2596669E+04  0.7818609E-02  0.8369333E-01
       -1   -1    0    0    0  501  0.00000000000E+00  0.00000000000E+00  0.90489660922E+03  0.90489660924E+03  0.50400001928E-02 0.  1.
        1   -1    0    0  501    0  0.00000000000E+00  0.00000000000E+00 -0.18628346537E+04  0.18628346537E+04  0.50400001928E-02 0. -1.
    10030    2    1    2    0    0  0.00000000000E+00  0.00000000000E+00 -0.95793804448E+03  0.27677312629E+04  0.25966692217E+04 0.  0.
        2    1    3    3  502    0  0.10493904594E+04  0.52564289408E+03  0.11271489632E+03  0.11790782146E+04  0.25500000920E-02 0.  1.
       -2    1    3    3    0  502 -0.10493904594E+04 -0.52564289408E+03 -0.10706529408E+04  0.15886530483E+04  0.25500000920E-02 0. -1.
</event>
<event>
 5   0  0.2586775E-06  0.2593967E+04  0.7818609E-02  0.8370253E-01
        2   -1    0    0  501    0  0.00000000000E+00  0.00000000000E+00  0.13567152069E+04  0.13567152069E+04  0.25500000920E-02 0. -1.
       -2   -1    0    0    0  501  0.00000000000E+00  0.00000000000E+00 -0.12398816760E+04  0.12398816760E+04  0.25500000920E-02 0.  1.
    10030    2    1    2    0    0  0.00000000000E+00  0.00000000000E+00  0.11683353093E+03  0.25965968829E+04  0.25939670966E+04 0.  0.
        1    1    3    3  502    0  0.45682836633E+02 -0.10976583450E+04 -0.63164817694E+03  0.12672490613E+04  0.50400001928E-02 0.  1.
       -1    1    3    3    0  502 -0.45682836633E+02  0.10976583450E+04  0.74848170787E+03  0.13293478216E+04  0.50400001928E-02 0. -1.
</event>
<event>
 5   0  0.2623368E-06  0.2597924E+04  0.7818609E-02  0.8368907E-01
       -2   -1    0    0    0  501  0.00000000000E+00  0.00000000000E+00  0.17709344295E+04  0.17709344295E+04  0.25500000920E-02 0.  1.
        2   -1    0    0  501    0  0.00000000000E+00  0.00000000000E+00 -0.95277495237E+03  0.95277495238E+03  0.25500000920E-02 0. -1.
    10030    2    1    2    0    0  0.00000000000E+00  0.00000000000E+00  0.81815947716E+03  0.27237093819E+04  0.25979237608E+04 0.  0.
        5    1    3    3  502    0  0.72661437401E+03 -0.30186058987E+03 -0.67449518651E+03  0.10363658190E+04  0.46999998093E+01 0. -1.
       -5    1    3    3    0  502 -0.72661437401E+03  0.30186058987E+03  0.14926546637E+04  0.16873435629E+04  0.46999998093E+01 0.  1.
</event>
<event>
 5   0  0.1055179E-06  0.2604033E+04  0.7818609E-02  0.8366833E-01
       -1   -1    0    0    0  501  0.00000000000E+00  0.00000000000E+00  0.11213230364E+04  0.11213230364E+04  0.50400001928E-02 0. -1.
        1   -1    0    0  501    0  0.00000000000E+00  0.00000000000E+00 -0.15118270746E+04  0.15118270746E+04  0.50400001928E-02 0.  1.
    10030    2    1    2    0    0  0.00000000000E+00  0.00000000000E+00 -0.39050403814E+03  0.26331501110E+04  0.26040326617E+04 0.  0.
        3    1    3    3  502    0  0.42468419058E+03 -0.21013945284E+02  0.10491376943E+04  0.11320283386E+04  0.10100000352E+00 0. -1.
       -3    1    3    3    0  502 -0.42468419058E+03  0.21013945284E+02 -0.14396417324E+04  0.15011217724E+04  0.10100000352E+00 0.  1.
</event>
<event>
 5   0  0.1088757E-06  0.2599511E+04  0.7818609E-02  0.8368367E-01
        1   -1    0    0  501    0  0.00000000000E+00  0.00000000000E+00  0.16550406595E+04  0.16550406595E+04  0.50400001928E-02 0.  1.
       -1   -1    0    0    0  501  0.00000000000E+00  0.00000000000E+00 -0.10207390450E+04  0.10207390450E+04  0.50400001928E-02 0. -1.
    10030    2    1    2    0    0  0.00000000000E+00  0.00000000000E+00  0.63430161448E+03  0.26757797046E+04  0.25995112020E+04 0.  0.
        5    1    3    3  502    0 -0.20583117048E+03 -0.87904581014E+03  0.12795995434E+04  0.15660412155E+04  0.46999998093E+01 0.  1.
       -5    1    3    3    0  502  0.20583117048E+03  0.87904581014E+03 -0.64529792893E+03  0.11097384891E+04  0.46999998093E+01 0. -1.
</event>
<event>
 5   0  0.2586775E-06  0.2617464E+04  0.7818609E-02  0.8362293E-01
        2   -1    0    0  501    0  0.00000000000E+00  0.00000000000E+00  0.11712253190E+04  0.11712253190E+04  0.25500000920E-02 0.  1.
       -2   -1    0    0    0  501  0.00000000000E+00  0.00000000000E+00 -0.14623829298E+04  0.14623829298E+04  0.25500000920E-02 0. -1.
    10030    2    1    2    0    0  0.00000000000E+00  0.00000000000E+00 -0.29115761077E+03  0.26336082488E+04  0.26174643558E+04 0.  0.
        1    1    3    3  502    0 -0.29880440597E+03 -0.54467113236E+03  0.10134064410E+04  0.11886729282E+04  0.50400001928E-02 0.  1.
       -1    1    3    3    0  502  0.29880440597E+03  0.54467113236E+03 -0.13045640518E+04  0.14449353206E+04  0.50400001928E-02 0. -1.
</event>
<event>
 5   0  0.2705807E-06  0.2597800E+04  0.7818609E-02  0.8368949E-01
        2   -1    0    0  501    0  0.00000000000E+00  0.00000000000E+00  0.18878684404E+04  0.18878684404E+04  0.25500000920E-02 0. -1.
       -2   -1    0    0    0  501  0.00000000000E+00  0.00000000000E+00 -0.89367508060E+03  0.89367508060E+03  0.25500000920E-02 0.  1.
    10030    2    1    2    0    0  0.00000000000E+00  0.00000000000E+00  0.99419335980E+03  0.27815435210E+04  0.25977998234E+04 0.  0.
        4    1    3    3  502    0 -0.12456283750E+04 -0.13336355944E+03  0.86453588427E+03  0.15221037402E+04  0.12699999809E+01 0. -1.
       -4    1    3    3    0  502  0.12456283750E+04  0.13336355944E+03  0.12965747553E+03  0.12594397808E+04  0.12699999809E+01 0.  1.
</event>
<event>
 5   0  0.9197000E-07  0.2598750E+04  0.7818609E-02  0.8368626E-01
        4   -1    0    0  501    0  0.00000000000E+00  0.00000000000E+00  0.16224829957E+04  0.16224834927E+04  0.12699999809E+01 0. -1.
       -4   -1    0    0    0  501  0.00000000000E+00  0.00000000000E+00 -0.10406109623E+04  0.10406117372E+04  0.12699999809E+01 0.  1.
    10030    2    1    2    0    0  0.00000000000E+00  0.00000000000E+00  0.58187203341E+03  0.26630952299E+04  0.25987499188E+04 0.  0.
        5    1    3    3  502    0  0.66643165010E+03  0.38629834054E+03 -0.78139385318E+03  0.10972492861E+04  0.46999998093E+01 0.  1.
       -5    1    3    3    0  502 -0.66643165010E+03 -0.38629834054E+03  0.13632658866E+04  0.15658459438E+04  0.46999998093E+01 0. -1.
</event>
<event>
 5   0  0.1100104E-06  0.2577013E+04  0.7818609E-02  0.8376051E-01
        1   -1    0    0  501    0  0.00000000000E+00  0.00000000000E+00  0.12455184044E+04  0.12455184044E+04  0.50400001928E-02 0. -1.
       -1   -1    0    0    0  501  0.00000000000E+00  0.00000000000E+00 -0.13329783981E+04  0.13329783981E+04  0.50400001928E-02 0.  1.
    10030    2    1    2    0    0  0.00000000000E+00  0.00000000000E+00 -0.87459993696E+02  0.25784968025E+04  0.25770130986E+04 0.  0.
        4    1    3    3  502    0 -0.58000531502E+03  0.56938033276E+02  0.11061049939E+04  0.12502471658E+04  0.12699999809E+01 0. -1.
       -4    1    3    3    0  502  0.58000531502E+03 -0.56938033276E+02 -0.11935649876E+04  0.13282496368E+04  0.12699999809E+01 0.  1.
</event>
<event>
 5   0  0.2820028E-06  0.2605275E+04  0.7818609E-02  0.8366412E-01
       -2   -1    0    0    0  501  0.00000000000E+00  0.00000000000E+00  0.11716919718E+04  0.11716919718E+04  0.25500000920E-02 0.  1.
        2   -1    0    0  501    0  0.00000000000E+00  0.00000000000E+00 -0.14482169106E+04  0.14482169106E+04  0.25500000920E-02 0. -1.
    10030    2    1    2    0    0  0.00000000000E+00  0.00000000000E+00 -0.27652493884E+03  0.26199088824E+04  0.26052747475E+04 0.  0.
        3    1    3    3  502    0 -0.95523131153E+02  0.63897613170E+03 -0.12757434370E+04  0.14300127597E+04  0.10100000352E+00 0. -1.
       -3    1    3    3    0  502  0.95523131153E+02 -0.63897613170E+03  0.99921849819E+03  0.11898961227E+04  0.10100000352E+00 0.  1.
</event>
<event>
 5   0  0.1032076E-06  0.2604301E+04  0.7818609E-02  0.8366742E-01
        1   -1    0    0  501    0  0.00000000000E+00  0.00000000000E+00  0.16279528990E+04  0.16279528990E+04  0.50400001928E-02 0.  1.
       -1   -1    0    0    0  501  0.00000000000E+00  0.00000000000E+00 -0.10415506339E+04  0.10415506339E+04  0.50400001928E-02 0. -1.
    10030    2    1    2    0    0  0.00000000000E+00  0.00000000000E+00  0.58640226509E+03  0.26695035328E+04  0.26043005770E+04 0.  0.
        1    1    3    3  502    0 -0.10515267990E+04  0.69775758045E+03 -0.35803894630E+02  0.12624801658E+04  0.50400001928E-02 0. -1.
       -1    1    3    3    0  502  0.10515267990E+04 -0.69775758045E+03  0.62220615972E+03  0.14070233670E+04  0.50400001928E-02 0.  1.
</event>
<event>
 5   0  0.2623368E-06  0.2591145E+04  0.7818609E-02  0.8371215E-01
        2   -1    0    0  501    0  0.00000000000E+00  0.00000000000E+00  0.14545144727E+04  0.14545144727E+04  0.25500000920E-02 0. -1.
       -2   -1    0    0    0  501  0.00000000000E+00  0.00000000000E+00 -0.11539992646E+04  0.11539992646E+04  0.25500000920E-02 0.  1.
    10030    2    1    2    0    0  0.00000000000E+00  0.00000000000E+00  0.30051520811E+03  0.26085137374E+04  0.25911454085E+04 0.  0.
        5    1    3    3  502    0 -0.77234016120E+03 -0.69588808778E+02 -0.89455002330E+03  0.11838892520E+04  0.46999998093E+01 0.  1.
       -5    1    3    3    0  502  0.77234016120E+03  0.69588808778E+02  0.11950652314E+04  0.14246244853E+04  0.46999998093E+01 0. -1.
</event>
<event>
 5   0  0.1122628E-06  0.2598908E+04  0.7818609E-02  0.8368572E-01
       -1   -1    0    0    0  501  0.00000000000E+00  0.00000000000E+00  0.18959253975E+04  0.18959253976E+04  0.50400001928E-02 0.  1.
        1   -1    0    0  501    0  0.00000000000E+00  0.00000000000E+00 -0.89063698691E+03  0.89063698692E+03  0.50400001928E-02 0. -1.
    10030    2    1    2    0    0  0.00000000000E+00  0.00000000000E+00  0.10052884106E+04  0.27865623845E+04  0.25989084505E+04 0.  0.
        2    1    3    3  502    0  0.19426591614E+03  0.13997744645E+03 -0.86677947030E+03  0.89924389452E+03  0.25500000920E-02 0. -1.
       -2    1    3    3    0  502 -0.19426591614E+03 -0.13997744645E+03  0.18720678809E+04  0.18873184900E+04  0.25500000920E-02 0.  1.
</event>
<event>
 5   0  0.2586775E-06  0.2600993E+04  0.7818609E-02  0.8367864E-01
       -2   -1    0    0    0  501  0.00000000000E+00  0.00000000000E+00  0.15398050908E+04  0.15398050908E+04  0.25500000920E-02 0. -1.
        2   -1    0    0  501    0  0.00000000000E+00  0.00000000000E+00 -0.10983801445E+04  0.10983801445E+04  0.25500000920E-02 0.  1.
    10030    2    1    2    0    0  0.00000000000E+00  0.00000000000E+00  0.44142494630E+03  0.26381852353E+04  0.26009931474E+04 0.  0.
        1    1    3    3  502    0 -0.77538231439E+03  0.42134340440E+03 -0.74821847441E+03  0.11569696986E+04  0.50400001928E-02 0.  1.
       -1    1    3    3    0  502  0.77538231439E+03 -0.42134340440E+03  0.11896434207E+04  0.14812155368E+04  0.50400001928E-02 0. -1.
</event>
<event>
 5   0  0.2746631E-06  0.2597573E+04  0.7818609E-02  0.8369026E-01
       -2   -1    0    0    0  501  0.00000000000E+00  0.00000000000E+00  0.94353194910E+03  0.94353194910E+03  0.25500000920E-02 0. -1.
        2   -1    0    0  501    0  0.00000000000E+00  0.00000000000E+00 -0.17877998283E+04  0.17877998283E+04  0.25500000920E-02 0.  1.
    10030    2    1    2    0    0  0.00000000000E+00  0.00000000000E+00 -0.84426787916E+03  0.27313317774E+04  0.25975729107E+04 0.  0.
        2    1    3    3  502    0 -0.96862175867E+03 -0.33548842426E+03  0.41647152204E+03  0.11064488795E+04  0.25500000920E-02 0. -1.
       -2    1    3    3    0  502  0.96862175867E+03  0.33548842426E+03 -0.12607394012E+04  0.16248828979E+04  0.25500000920E-02 0.  1.
</event>
<event>
 5   0  0.9197000E-07  0.2605477E+04  0.7818609E-02  0.8366343E-01
        3   -1    0    0  501    0  0.00000000000E+00  0.00000000000E+00  0.60886183900E+03  0.60886184738E+03  0.10100000352E+00 0.  1.
       -3   -1    0    0    0  501  0.00000000000E+00  0.00000000000E+00 -0.27873775553E+04  0.27873775571E+04  0.10100000352E+00 0. -1.
    10030    2    1    2    0    0  0.00000000000E+00  0.00000000000E+00 -0.21785157163E+04  0.33962394045E+04  0.26054771860E+04 0.  0.
        2    1    3    3  502    0  0.37775794707E+03  0.10555285190E+04 -0.22433252395E+03  0.11433138686E+04  0.25500000920E-02 0.  1.
       -2    1    3    3    0  502 -0.37775794707E+03 -0.10555285190E+04 -0.19541831924E+04  0.22529255359E+04  0.25500000920E-02 0. -1.
</event>
<event>
 5   0  0.1100104E-06  0.2599131E+04  0.7818609E-02  0.8368496E-01
        1   -1    0    0  501    0  0.00000000000E+00  0.00000000000E+00  0.24620939866E+04  0.24620939866E+04  0.50400001928E-02 0.  1.
       -1   -1    0    0    0  501  0.00000000000E+00  0.00000000000E+00 -0.68594898912E+03  0.68594898913E+03  0.50400001928E-02 0. -1.
    10030    2    1    2    0    0  0.00000000000E+00  0.00000000000E+00  0.17761449974E+04  0.31480429757E+04  0.25991313020E+04 0.  0.
        4    1    3    3  502    0  0.11251757223E+04 -0.61696651446E+03  0.63925853951E+03  0.14336391384E+04  0.12699999809E+01 0.  1.
       -4    1    3    3    0  502 -0.11251757223E+04  0.61696651446E+03  0.11368864579E+04  0.17144038373E+04  0.12699999809E+01 0. -1.
</event>
<event>
 5   0  0.9197000E-07  0.2602441E+04  0.7818609E-02  0.8367372E-01
       -3   -1    0    0    0  501  0.00000000000E+00  0.00000000000E+00  0.25547878686E+04  0.25547878706E+04  0.10100000352E+00 0.  1.
        3   -1    0    0  501    0  0.00000000000E+00  0.00000000000E+00 -0.66274587283E+03  0.66274588052E+03  0.10100000352E+00 0. -1.
    10030    2    1    2    0    0  0.00000000000E+00  0.00000000000E+00  0.18920419958E+04  0.32175337511E+04  0.26024412627E+04 0.  0.
        5    1    3    3  502    0 -0.92092229784E+02 -0.12909796223E+04  0.11120961674E+04  0.17064258963E+04  0.46999998093E+01 0.  1.
       -5    1    3    3    0  502  0.92092229784E+02  0.12909796223E+04  0.77994582839E+03  0.15111078549E+04  0.46999998093E+01 0. -1.
</event>
<event>
 5   0  0.2705807E-06  0.2599451E+04  0.7818609E-02  0.8368388E-01
       -2   -1    0    0    0  501  0.00000000000E+00  0.00000000000E+00  0.12108866258E+04  0.12108866258E+04  0.25500000920E-02 0. -1.
        2   -1    0    0  501    0  0.00000000000E+00  0.00000000000E+00 -0.13950822377E+04  0.13950822377E+04  0.25500000920E-02 0.  1.
    10030    2    1    2    0    0  0.00000000000E+00  0.00000000000E+00 -0.18419561189E+03  0.26059688635E+04  0.25994510370E+04 0.  0.
        4    1    3    3  502    0  0.12278420842E+03  0.46045150098E+03 -0.13043416023E+04  0.13886684900E+04  0.12699999809E+01 0.  1.
       -4    1    3    3    0  502 -0.12278420842E+03 -0.46045150098E+03  0.11201459904E+04  0.12173003735E+04  0.12699999809E+01 0. -1.
</event>
<event>
 5   0  0.2623368E-06  0.2600663E+04  0.7818609E-02  0.8367976E-01
       -2   -1    0    0    0  501  0.00000000000E+00  0.00000000000E+00  0.95868764295E+03  0.95868764296E+03  0.25500000920E-02 0.  1.
        2   -1    0    0  501    0  0.00000000000E+00  0.00000000000E+00 -0.17637262933E+04  0.17637262933E+04  0.25500000920E-02 0. -1.
    10030    2    1    2    0    0  0.00000000000E+00  0.00000000000E+00 -0.80503865039E+03  0.27224139363E+04  0.26006634561E+04 0.  0.
        5    1    3    3  502    0 -0.18559318659E+03  0.42147174913E+03  0.87045149071E+03  0.98477974893E+03  0.46999998093E+01 0.  1.
       -5    1    3    3    0  502  0.18559318659E+03 -0.42147174913E+03 -0.16754901411E+04  0.17376341874E+04  0.46999998093E+01 0. -1.
</event>
<event>
 5   0  0.1032076E-06  0.2589500E+04  0.7818609E-02  0.8371777E-01
       -1   -1    0    0    0  501  0.00000000000E+00  0.00000000000E+00  0.17054123458E+04  0.17054123458E+04  0.50400001928E-02 0.  1.
        1   -1    0    0  501    0  0.00000000000E+00  0.00000000000E+00 -0.98297459611E+03  0.98297459612E+03  0.50400001928E-02 0. -1.
    10030    2    1    2    0    0  0.00000000000E+00  0.00000000000E+00  0.72243774969E+03  0.26883869419E+04  0.25894995747E+04 0.  0.
        1    1    3    3  502    0 -0.51279838164E+03  0.69386738798E+03 -0.64102922263E+03  0.10748639898E+04  0.50400001928E-02 0. -1.
       -1    1    3    3    0  502  0.51279838164E+03 -0.69386738798E+03  0.13634669723E+04  0.16135229521E+04  0.50400001928E-02 0.  1.
</event>
<event>
 5   0  0.2705807E-06  0.2588501E+04  0.7818609E-02  0.8372118E-01
        2   -1    0    0  501    0  0.00000000000E+00  0.00000000000E+00  0.15513010274E+04  0.15513010274E+04  0.25500000920E-02 0.  1.
       -2   -1    0    0    0  501  0.00000000000E+00  0.00000000000E+00 -0.10797930848E+04  0.10797930848E+04  0.25500000920E-02 0. -1.
    10030    2    1    2    0    0  0.00000000000E+00  0.00000000000E+00  0.47150794260E+03  0.26310941122E+04  0.25885008185E+04 0.  0.
        4    1    3    3  502    0 -0.54338204646E+03  0.80721536006E+03 -0.63164703342E+03  0.11601035616E+04  0.12699999809E+01 0. -1.
       -4    1    3    3    0  502  0.54338204646E+03 -0.80721536006E+03  0.11031549760E+04  0.14709905506E+04  0.12699999809E+01 0.  1.
</event>
<event>
 5   0  0.9197000E-07  0.2599780E+04  0.7818609E-02  0.8368276E-01
       -3   -1    0    0    0  501  0.00000000000E+00  0.00000000000E+00  0.12665430374E+04  0.12665430414E+04  0.10100000352E+00 0. -1.
        3   -1    0    0  501    0  0.00000000000E+00  0.00000000000E+00 -0.13341154610E+04  0.13341154648E+04  0.10100000352E+00 0.  1.
    10030    2    1    2    0    0  0.00000000000E+00  0.00000000000E+00 -0.67572423545E+02  0.26006585062E+04  0.25997804972E+04 0.  0.
        5    1    3    3  502    0 -0.13024938965E+03  0.12653299384E+04 -0.30158506928E+03  0.13072874207E+04  0.46999998093E+01 0.  1.
       -5    1    3    3    0  502  0.13024938965E+03 -0.12653299384E+04  0.23401264574E+03  0.12933710855E+04  0.46999998093E+01 0. -1.
</event>
<event>
 5   0  0.1055179E-06  0.2599161E+04  0.7818609E-02  0.8368486E-01
       -1   -1    0    0    0  501  0.00000000000E+00  0.00000000000E+00  0.95208605554E+03  0.95208605556E+03  0.50400001928E-02 0.  1.
        1   -1    0    0  501    0  0.00000000000E+00  0.00000000000E+00 -0.17739039920E+04  0.17739039920E+04  0.50400001928E-02 0. -1.
    10030    2    1    2    0    0  0.00000000000E+00  0.00000000000E+00 -0.82181793641E+03  0.27259900475E+04  0.25991608297E+04 0.  0.
        3    1    3    3  502    0  0.36455012418E+03 -0.11705338326E+04  0.41246285817E+02  0.12266815042E+04  0.10100000352E+00 0.  1.
       -3    1    3    3    0  502 -0.36455012418E+03  0.11705338326E+04 -0.86306422223E+03  0.14993085434E+04  0.10100000352E+00 0. -1.
</event>
<event>
 5   0  0.1122628E-06  0.2585393E+04  0.7818609E-02  0.8373180E-01
       -1   -1    0    0    0  501  0.00000000000E+00  0.00000000000E+00  0.81703219315E+03  0.81703219317E+03  0.50400001928E-02 0. -1.
        1   -1    0    0  501    0  0.00000000000E+00  0.00000000000E+00 -0.20452853454E+04  0.20452853454E+04  0.50400001928E-02 0.  1.
    10030    2    1    2    0    0  0.00000000000E+00  0.00000000000E+00 -0.12282531523E+04  0.28623175386E+04  0.25853927914E+04 0.  0.
        2    1    3    3  502    0  0.40288253141E+03  0.67755305307E+03 -0.17484005845E+04  0.19178887032E+04  0.25500000920E-02 0.  1.
       -2    1    3    3    0  502 -0.40288253141E+03 -0.67755305307E+03  0.52014743227E+03  0.94442883540E+03  0.25500000920E-02 0. -1.
</event>
<event>
 5   0  0.1122628E-06  0.2599416E+04  0.7818609E-02  0.8368400E-01
       -1   -1    0    0    0  501  0.00000000000E+00  0.00000000000E+00  0.74125193422E+03  0.74125193423E+03  0.50400001928E-02 0.  1.
        1   -1    0    0  501    0  0.00000000000E+00  0.00000000000E+00 -0.22789028548E+04  0.22789028548E+04  0.50400001928E-02 0. -1.
    10030    2    1    2    0    0  0.00000000000E+00  0.00000000000E+00 -0.15376509206E+04  0.30201547891E+04  0.25994162030E+04 0.  0.
        2    1    3    3  502    0 -0.70824875249E+03  0.76491391923E+03 -0.16706940810E+04  0.19692456199E+04  0.25500000920E-02 0. -1.
       -2    1    3    3    0  502  0.70824875249E+03 -0.76491391923E+03  0.13304316041E+03  0.10509091691E+04  0.25500000920E-02 0.  1.
</event>
<event>
 5   0  0.1032076E-06  0.2603632E+04  0.7818609E-02  0.8366969E-01
       -1   -1    0    0    0  501  0.00000000000E+00  0.00000000000E+00  0.10940422761E+04  0.10940422761E+04  0.50400001928E-02 0. -1.
        1   -1    0    0  501    0  0.00000000000E+00  0.00000000000E+00 -0.15490483226E+04  0.15490483226E+04  0.50400001928E-02 0.  1.
    10030    2    1    2    0    0  0.00000000000E+00  0.00000000000E+00 -0.45500604650E+03  0.26430905988E+04  0.26036315813E+04 0.  0.
        1    1    3    3  502    0 -0.28203751520E+03 -0.20661721132E+03 -0.15004967429E+04  0.15406902049E+04  0.50400001928E-02 0.  1.
       -1    1    3    3    0  502  0.28203751520E+03  0.20661721132E+03  0.10454906964E+04  0.11024003938E+04  0.50400001928E-02 0. -1.
</event>
<event>
 5   0  0.1088757E-06  0.2601477E+04  0.7818609E-02  0.8367700E-01
        1   -1    0    0  501    0  0.00000000000E+00  0.00000000000E+00  0.16000198437E+04  0.16000198437E+04  0.50400001928E-02 0.  1.
       -1   -1    0    0    0  501  0.00000000000E+00  0.00000000000E+00 -0.10574376431E+04  0.10574376431E+04  0.50400001928E-02 0. -1.
    10030    2    1    2    0    0  0.00000000000E+00  0.00000000000E+00  0.54258220065E+03  0.26574574868E+04  0.26014774359E+04 0.  0.
        5    1    3    3  502    0 -0.27099082595E+03  0.12436349197E+04  0.54507957355E+03  0.13846290741E+04  0.46999998093E+01 0. -1.
       -5    1    3    3    0  502  0.27099082595E+03 -0.12436349197E+04 -0.24973728964E+01  0.12728284127E+04  0.46999998093E+01 0.  1.
</event>
<event>
 5   0  0.1122628E-06  0.2529169E+04  0.7818609E-02  0.8392667E-01
        1   -1    0    0  501    0  0.00000000000E+00  0.00000000000E+00  0.11435089238E+04  0.11435089238E+04  0.50400001928E-02 0. -1.
       -1   -1    0    0    0  501  0.00000000000E+00  0.00000000000E+00 -0.13984793228E+04  0.13984793228E+04  0.50400001928E-02 0.  1.
    10030    2    1    2    0    0  0.00000000000E+00  0.00000000000E+00 -0.25497039902E+03  0.25419882467E+04  0.25291687057E+04 0.  0.
        2    1    3    3  502    0  0.11058420217E+04 -0.25589343925E+03 -0.68781036194E+03  0.13271967161E+04  0.25500000920E-02 0.  1.
       -2    1    3    3    0  502 -0.11058420217E+04  0.25589343925E+03  0.43283996291E+03  0.12147915306E+04  0.25500000920E-02 0. -1.
</event>
<event>
 5   0  0.2705807E-06  0.2601091E+04  0.7818609E-02  0.8367831E-01
        2   -1    0    0  501    0  0.00000000000E+00  0.00000000000E+00  0.15885691358E+04  0.15885691358E+04  0.25500000920E-02 0.  1.
       -2   -1    0    0    0  501  0.00000000000E+00  0.00000000000E+00 -0.10647437311E+04  0.10647437311E+04  0.25500000920E-02 0. -1.
    10030    2    1    2    0    0  0.00000000000E+00  0.00000000000E+00  0.52382540476E+03  0.26533128669E+04  0.26010913315E+04 0.  0.
        4    1    3    3  502    0 -0.19036622660E+03 -0.98549651932E+02 -0.10465981491E+04  0.10683260892E+04  0.12699999809E+01 0. -1.
       -4    1    3    3    0  502  0.19036622660E+03  0.98549651932E+02  0.15704235539E+04  0.15849867777E+04  0.12699999809E+01 0.  1.
</event>
<event>
 5   0  0.2705807E-06  0.2604885E+04  0.7818609E-02  0.8366544E-01
        2   -1    0    0  501    0  0.00000000000E+00  0.00000000000E+00  0.67304243195E+03  0.67304243196E+03  0.25500000920E-02 0.  1.
       -2   -1    0    0    0  501  0.00000000000E+00  0.00000000000E+00 -0.25204303229E+04  0.25204303229E+04  0.25500000920E-02 0. -1.
    10030    2    1    2    0    0  0.00000000000E+00  0.00000000000E+00 -0.18473878910E+04  0.31934727549E+04  0.26048850678E+04 0.  0.
        4    1    3    3  502    0 -0.20041784407E+02  0.95231400099E+03  0.16530453096E+03  0.96676306842E+03  0.12699999809E+01 0.  1.
       -4    1    3    3    0  502  0.20041784407E+02 -0.95231400099E+03 -0.20126924219E+04  0.22267096865E+04  0.12699999809E+01 0. -1.
</event>
<event>
 5   0  0.2586775E-06  0.2600528E+04  0.7818609E-02  0.8368022E-01
        2   -1    0    0  501    0  0.00000000000E+00  0.00000000000E+00  0.98928186164E+03  0.98928186164E+03  0.25500000920E-02 0.  1.
       -2   -1    0    0    0  501  0.00000000000E+00  0.00000000000E+00 -0.17090032038E+04  0.17090032038E+04  0.25500000920E-02 0. -1.
    10030    2    1    2    0    0  0.00000000000E+00  0.00000000000E+00 -0.71972134212E+03  0.26982850654E+04  0.26005275395E+04 0.  0.
        1    1    3    3  502    0 -0.22155826910E+03 -0.11481128483E+04  0.23023125546E+03  0.11917456146E+04  0.50400001928E-02 0.  1.
       -1    1    3    3    0  502  0.22155826910E+03  0.11481128483E+04 -0.94995259759E+03  0.15065394508E+04  0.50400001928E-02 0. -1.
</event>
<event>
 5   0  0.1100104E-06  0.2558692E+04  0.7818609E-02  0.8382370E-01
       -1   -1    0    0    0  501  0.00000000000E+00  0.00000000000E+00  0.10114430897E+04  0.10114430897E+04  0.50400001928E-02 0. -1.
        1   -1    0    0  501    0  0.00000000000E+00  0.00000000000E+00 -0.16182088828E+04  0.16182088828E+04  0.50400001928E-02 0.  1.
    10030    2    1    2    0    0  0.00000000000E+00  0.00000000000E+00 -0.60676579313E+03  0.26296519726E+04  0.25586920036E+04 0.  0.
        4    1    3    3  502    0  0.79873391631E+03  0.70253971627E+03  0.42709351880E+03  0.11462758868E+04  0.12699999809E+01 0. -1.
       -4    1    3    3    0  502 -0.79873391631E+03 -0.70253971627E+03 -0.10338593119E+04  0.14833760858E+04  0.12699999809E+01 0.  1.
</event>
<event>
 5   0  0.1100104E-06  0.2599489E+04  0.7818609E-02  0.8368375E-01
        1   -1    0    0  501    0  0.00000000000E+00  0.00000000000E+00  0.10381377448E+04  0.10381377448E+04  0.50400001928E-02 0.  1.
       -1   -1    0    0    0  501  0.00000000000E+00  0.00000000000E+00 -0.16272748106E+04  0.16272748106E+04  0.50400001928E-02 0. -1.
    10030    2    1    2    0    0  0.00000000000E+00  0.00000000000E+00 -0.58913706585E+03  0.26654125554E+04  0.25994887206E+04 0.  0.
        4    1    3    3  502    0  0.12228892782E+04 -0.24249596191E+02  0.15622580548E+03  0.12330670480E+04  0.12699999809E+01 0.  1.
       -4    1    3    3    0  502 -0.12228892782E+04  0.24249596191E+02 -0.74536287133E+03  0.14323455074E+04  0.12699999809E+01 0. -1.
</event>
<event>
 5   0  0.2623368E-06  0.2604060E+04  0.7818609E-02  0.8366823E-01
       -2   -1    0    0    0  501  0.00000000000E+00  0.00000000000E+00  0.67415035590E+03  0.67415035590E+03  0.25500000920E-02 0.  1.
        2   -1    0    0  501    0  0.00000000000E+00  0.00000000000E+00 -0.25146949356E+04  0.25146949356E+04  0.25500000920E-02 0. -1.
    10030    2    1    2    0    0  0.00000000000E+00  0.00000000000E+00 -0.18405445797E+04  0.31888452915E+04  0.26040602803E+04 0.  0.
        5    1    3    3  502    0  0.52560698735E+03  0.45140794463E+03 -0.22702027592E+04  0.23735784157E+04  0.46999998093E+01 0. -1.
       -5    1    3    3    0  502 -0.52560698735E+03 -0.45140794463E+03  0.42965817948E+03  0.81526687582E+03  0.46999998093E+01 0.  1.
</event>
<event>
 5   0  0.1088757E-06  0.2604116E+04  0.7818609E-02  0.8366805E-01
       -1   -1    0    0    0  501  0.00000000000E+00  0.00000000000E+00  0.12888044096E+04  0.12888044096E+04  0.50400001928E-02 0.  1.
        1   -1    0    0  501    0  0.00000000000E+00  0.00000000000E+00 -0.13154476078E+04  0.13154476078E+04  0.50400001928E-02 0. -1.
    10030    2    1    2    0    0  0.00000000000E+00  0.00000000000E+00 -0.26643198257E+02  0.26042520174E+04  0.26041157252E+04 0.  0.
        5    1    3    3  502    0  0.97411092881E+03 -0.92778954459E+02  0.84569515611E+03  0.12933377065E+04  0.46999998093E+01 0.  1.
       -5    1    3    3    0  502 -0.97411092881E+03  0.92778954459E+02 -0.87233835436E+03  0.13109143109E+04  0.46999998093E+01 0. -1.
</event>
<event>
 5   0  0.1088757E-06  0.2600577E+04  0.7818609E-02  0.8368005E-01
        1   -1    0    0  501    0  0.00000000000E+00  0.00000000000E+00  0.19286976740E+04  0.19286976740E+04  0.50400001928E-02 0.  1.
       -1   -1    0    0    0  501  0.00000000000E+00  0.00000000000E+00 -0.87662814390E+03  0.87662814392E+03  0.50400001928E-02 0. -1.
    10030    2    1    2    0    0  0.00000000000E+00  0.00000000000E+00  0.10520695301E+04  0.28053258179E+04  0.26005773683E+04 0.  0.
        5    1    3    3  502    0 -0.14888552364E+03  0.54143077077E+03  0.17911506601E+04  0.18771139965E+04  0.46999998093E+01 0.  1.
       -5    1    3    3    0  502  0.14888552364E+03 -0.54143077077E+03 -0.73908113001E+03  0.92821182142E+03  0.46999998093E+01 0. -1.
</event>
<event>
 5   0  0.2746631E-06  0.2598906E+04  0.7818609E-02  0.8368573E-01
        2   -1    0    0  501    0  0.00000000000E+00  0.00000000000E+00  0.15734413330E+04  0.15734413330E+04  0.25500000920E-02 0. -1.
       -2   -1    0    0    0  501  0.00000000000E+00  0.00000000000E+00 -0.10731747481E+04  0.10731747481E+04  0.25500000920E-02 0.  1.
    10030    2    1    2    0    0  0.00000000000E+00  0.00000000000E+00  0.50026658489E+03  0.26466160811E+04  0.25989055436E+04 0.  0.
        2    1    3    3  502    0 -0.10204214410E+04 -0.78219879107E+03  0.58306875154E+02  0.12870487783E+04  0.25500000920E-02 0. -1.
       -2    1    3    3    0  502  0.10204214410E+04  0.78219879107E+03  0.44195970973E+03  0.13595673028E+04  0.25500000920E-02 0.  1.
</event>
<event>
 5   0  0.1055179E-06  0.2595001E+04  0.7818609E-02  0.8369901E-01
        1   -1    0    0  501    0  0.00000000000E+00  0.00000000000E+00  0.85506358015E+03  0.85506358016E+03  0.50400001928E-02 0.  1.
       -1   -1    0    0    0  501  0.00000000000E+00  0.00000000000E+00 -0.19688679947E+04  0.19688679947E+04  0.50400001928E-02 0. -1.
    10030    2    1    2    0    0  0.00000000000E+00  0.00000000000E+00 -0.11138044146E+04  0.28239315749E+04  0.25950008219E+04 0.  0.
        3    1    3    3  502    0 -0.30972405653E+03 -0.51619827163E+03  0.69389648505E+03  0.91863049644E+03  0.10100000352E+00 0.  1.
       -3    1    3    3    0  502  0.30972405653E+03  0.51619827163E+03 -0.18077008996E+04  0.19053010784E+04  0.10100000352E+00 0. -1.
</event>
<event>
 5   0  0.2820028E-06  0.2596023E+04  0.7818609E-02  0.8369553E-01
       -2   -1    0    0    0  501  0.00000000000E+00  0.00000000000E+00  0.23703313198E+04  0.23703313198E+04  0.25500000920E-02 0.  1.
        2   -1    0    0  501    0  0.00000000000E+00  0.00000000000E+00 -0.71080102710E+03  0.71080102710E+03  0.25500000920E-02 0. -1.
    10030    2    1    2    0    0  0.00000000000E+00  0.00000000000E+00  0.16595302927E+04  0.30811323469E+04  0.25960230636E+04 0.  0.
        3    1    3    3  502    0  0.83394009845E+03 -0.55438998369E+02 -0.34894570715E+03  0.90570010880E+03  0.10100000352E+00 0. -1.
       -3    1    3    3    0  502 -0.83394009845E+03  0.55438998369E+02  0.20084759998E+04  0.21754322381E+04  0.10100000352E+00 0.  1.
</event>
<event>
 5   0  0.9197000E-07  0.2599757E+04  0.7818609E-02  0.8368284E-01
        3   -1    0    0  501    0  0.00000000000E+00  0.00000000000E+00  0.89062724353E+03  0.89062724926E+03  0.10100000352E+00 0.  1.
       -3   -1    0    0    0  501  0.00000000000E+00  0.00000000000E+00 -0.18971849711E+04  0.18971849738E+04  0.10100000352E+00 0. -1.
    10030    2    1    2    0    0  0.00000000000E+00  0.00000000000E+00 -0.10065577275E+04  0.27878122230E+04  0.25997573987E+04 0.  0.
        5    1    3    3  502    0 -0.51004360063E+03  0.55418598250E+03 -0.16393453371E+04  0.18040902976E+04  0.46999998093E+01 0. -1.
       -5    1    3    3    0  502  0.51004360063E+03 -0.55418598250E+03  0.63278760953E+03  0.98372192541E+03  0.46999998093E+01 0.  1.
</event>
<event>
 5   0  0.2705807E-06  0.2603392E+04  0.7818609E-02  0.8367050E-01
        2   -1    0    0  501    0  0.00000000000E+00  0.00000000000E+00  0.15824547984E+04  0.15824547984E+04  0.25500000920E-02 0.  1.
       -2   -1    0    0    0  501  0.00000000000E+00  0.00000000000E+00 -0.10707490571E+04  0.10707490571E+04  0.25500000920E-02 0. -1.
    10030    2    1    2    0    0  0.00000000000E+00  0.00000000000E+00  0.51170574137E+03  0.26532038555E+04  0.26033916212E+04 0.  0.
        4    1    3    3  502    0  0.82525251351E+03  0.60920538806E+03  0.10725836669E+04  0.14841193521E+04  0.12699999809E+01 0.  1.
       -4    1    3    3    0  502 -0.82525251351E+03 -0.60920538806E+03 -0.56087792553E+03  0.11690845034E+04  0.12699999809E+01 0. -1.
</event>
<event>
 5   0  0.2705807E-06  0.2589591E+04  0.7818609E-02  0.8371746E-01
        2   -1    0    0  501    0  0.00000000000E+00  0.00000000000E+00  0.14194568682E+04  0.14194568682E+04  0.25500000920E-02 0.  1.
       -2   -1    0    0    0  501  0.00000000000E+00  0.00000000000E+00 -0.11810818591E+04  0.11810818591E+04  0.25500000920E-02 0. -1.
    10030    2    1    2    0    0  0.00000000000E+00  0.00000000000E+00  0.23837500917E+03  0.26005387273E+04  0.25895905134E+04 0.  0.
        4    1    3    3  502    0 -0.66374859140E+03  0.18972729474E+03 -0.98085888814E+03  0.11994350380E+04  0.12699999809E+01 0. -1.
       -4    1    3    3    0  502  0.66374859140E+03 -0.18972729474E+03  0.12192338973E+04  0.14011036893E+04  0.12699999809E+01 0.  1.
</event>
<event>
 5   0  0.1122628E-06  0.2612091E+04  0.7818609E-02  0.8364106E-01
       -1   -1    0    0    0  501  0.00000000000E+00  0.00000000000E+00  0.11930633897E+04  0.11930633897E+04  0.50400001928E-02 0.  1.
        1   -1    0    0  501    0  0.00000000000E+00  0.00000000000E+00 -0.14297272219E+04  0.14297272219E+04  0.50400001928E-02 0. -1.
    10030    2    1    2    0    0  0.00000000000E+00  0.00000000000E+00 -0.23666383221E+03  0.26227906116E+04  0.26120912738E+04 0.  0.
        2    1    3    3  502    0  0.11101776358E+03 -0.23483712120E+03 -0.14035285336E+04  0.14273632200E+04  0.25500000920E-02 0. -1.
       -2    1    3    3    0  502 -0.11101776358E+03  0.23483712120E+03  0.11668647014E+04  0.11954273916E+04  0.25500000920E-02 0.  1.
</event>
<event>
 5   0  0.2586775E-06  0.2598699E+04  0.7818609E-02  0.8368643E-01
        2   -1    0    0  501    0  0.00000000000E+00  0.00000000000E+00  0.15610622945E+04  0.15610622945E+04  0.25500000920E-02 0.  1.
       -2   -1    0    0    0  501  0.00000000000E+00  0.00000000000E+00 -0.10815128738E+04  0.10815128738E+04  0.25500000920E-02 0. -1.
    10030    2    1    2    0    0  0.00000000000E+00  0.00000000000E+00  0.47954942067E+03  0.26425751684E+04  0.25986988809E+04 0.  0.
        1    1    3    3  502    0 -0.43099556675E+03 -0.49894716520E+03 -0.89877367337E+03  0.11146746468E+04  0.50400001928E-02 0. -1.
       -1    1    3    3    0  502  0.43099556675E+03  0.49894716520E+03  0.13783230940E+04  0.15279005216E+04  0.50400001928E-02 0.  1.
</event>
<event>
 5   0  0.1032076E-06  0.2598168E+04  0.7818609E-02  0.8368824E-01
       -1   -1    0    0    0  501  0.00000000000E+00  0.00000000000E+00  0.11161703514E+04  0.11161703515E+04  0.50400001928E-02 0. -1.
        1   -1    0    0  501    0  0.00000000000E+00  0.00000000000E+00 -0.15119731821E+04  0.15119731821E+04  0.50400001928E-02 0.  1.
    10030    2    1    2    0    0  0.00000000000E+00  0.00000000000E+00 -0.39580283063E+03  0.26281435335E+04  0.25981683071E+04 0.  0.
        1    1    3    3  502    0 -0.38857061037E+03 -0.11614575857E+04 -0.63608357309E+03  0.13800627357E+04  0.50400001928E-02 0.  1.
       -1    1    3    3    0  502  0.38857061037E+03  0.11614575857E+04  0.24028074246E+03  0.12480807978E+04  0.50400001928E-02 0. -1.
</event>
<event>
 5   0  0.1088757E-06  0.2589974E+04  0.7818609E-02  0.8371615E-01
        1   -1    0    0  501    0  0.00000000000E+00  0.00000000000E+00  0.21548079730E+04  0.21548079730E+04  0.50400001928E-02 0. -1.
       -1   -1    0    0    0  501  0.00000000000E+00  0.00000000000E+00 -0.77825539606E+03  0.77825539607E+03  0.50400001928E-02 0.  1.
    10030    2    1    2    0    0  0.00000000000E+00  0.00000000000E+00  0.13765525769E+04  0.29330633691E+04  0.25899736929E+04 0.  0.
        5    1    3    3  502    0 -0.77465307373E+03  0.48084977675E+03  0.17296947174E+04  0.19552927652E+04  0.46999998093E+01 0. -1.
       -5    1    3    3    0  502  0.77465307373E+03 -0.48084977675E+03 -0.35314214041E+03  0.97777060386E+03  0.46999998093E+01 0.  1.
</event>
<event>
 5   0  0.2586775E-06  0.2591356E+04  0.7818609E-02  0.8371143E-01
       -2   -1    0    0    0  501  0.00000000000E+00  0.00000000000E+00  0.87395598341E+03  0.87395598341E+03  0.25500000920E-02 0. -1.
        2   -1    0    0  501    0  0.00000000000E+00  0.00000000000E+00 -0.19209000190E+04  0.19209000190E+04  0.25500000920E-02 0.  1.
    10030    2    1    2    0    0  0.00000000000E+00  0.00000000000E+00 -0.10469440356E+04  0.27948560024E+04  0.25913564518E+04 0.  0.
        1    1    3    3  502    0  0.12771992335E+04  0.18298646800E+03 -0.65135920462E+03  0.14453341285E+04  0.50400001928E-02 0.  1.
       -1    1    3    3    0  502 -0.12771992335E+04 -0.18298646800E+03 -0.39558483094E+03  0.13495218739E+04  0.50400001928E-02 0. -1.
</event>
<event>
 5   0  0.1088757E-06  0.2601117E+04  0.7818609E-02  0.8367822E-01
        1   -1    0    0  501    0  0.00000000000E+00  0.00000000000E+00  0.15587463875E+04  0.15587463875E+04  0.50400001928E-02 0.  1.
       -1   -1    0    0    0  501  0.00000000000E+00  0.00000000000E+00 -0.10851363562E+04  0.10851363562E+04  0.50400001928E-02 0. -1.
    10030    2    1    2    0    0  0.00000000000E+00  0.00000000000E+00  0.47361003131E+03  0.26438827438E+04  0.26011169718E+04 0.  0.
        5    1    3    3  502    0 -0.28142585043E+03  0.12334183004E+04  0.54327357051E+03  0.13768403957E+04  0.46999998093E+01 0.  1.
       -5    1    3    3    0  502  0.28142585043E+03 -0.12334183004E+04 -0.69663539204E+02  0.12670423480E+04  0.46999998093E+01 0. -1.
</event>
<event>
 5   0  0.1055179E-06  0.2608247E+04  0.7818609E-02  0.8365405E-01
       -1   -1    0    0    0  501  0.00000000000E+00  0.00000000000E+00  0.11497656779E+04  0.11497656780E+04  0.50400001928E-02 0.  1.
        1   -1    0    0  501    0  0.00000000000E+00  0.00000000000E+00 -0.14792036044E+04  0.14792036044E+04  0.50400001928E-02 0. -1.
    10030    2    1    2    0    0  0.00000000000E+00  0.00000000000E+00 -0.32943792645E+03  0.26289692824E+04  0.26082465643E+04 0.  0.
        3    1    3    3  502    0  0.46184270606E+03 -0.66787088035E+03  0.86387272802E+03  0.11855911177E+04  0.10100000352E+00 0.  1.
       -3    1    3    3    0  502 -0.46184270606E+03  0.66787088035E+03 -0.11933106545E+04  0.14433781647E+04  0.10100000352E+00 0. -1.
</event>
<event>
 5   0  0.1100104E-06  0.2597279E+04  0.7818609E-02  0.8369126E-01
       -1   -1    0    0    0  501  0.00000000000E+00  0.00000000000E+00  0.11812720541E+04  0.11812720541E+04  0.50400001928E-02 0. -1.
        1   -1    0    0  501    0  0.00000000000E+00  0.00000000000E+00 -0.14276681454E+04  0.14276681454E+04  0.50400001928E-02 0.  1.
    10030    2    1    2    0    0  0.00000000000E+00  0.00000000000E+00 -0.24639609130E+03  0.26089401995E+04  0.25972789475E+04 0.  0.
        4    1    3    3  502    0  0.34521408761E+03 -0.12364952099E+04  0.73563274721E+02  0.12858873740E+04  0.12699999809E+01 0. -1.
       -4    1    3    3    0  502 -0.34521408761E+03  0.12364952099E+04 -0.31995936602E+03  0.13230528255E+04  0.12699999809E+01 0.  1.
</event>
<event>
 5   0  0.2623368E-06  0.2621279E+04  0.7818609E-02  0.8361009E-01
       -2   -1    0    0    0  501  0.00000000000E+00  0.00000000000E+00  0.13952984758E+04  0.13952984758E+04  0.25500000920E-02 0. -1.
        2   -1    0    0  501    0  0.00000000000E+00  0.00000000000E+00 -0.12311175187E+04  0.12311175188E+04  0.25500000920E-02 0.  1.
    10030    2    1    2    0    0  0.00000000000E+00  0.00000000000E+00  0.16418095702E+03  0.26264159945E+04  0.26212793803E+04 0.  0.
        5    1    3    3  502    0  0.12344514499E+04  0.41097106165E+03  0.24047208998E+03  0.13231086545E+04  0.46999998093E+01 0.  1.
       -5    1    3    3    0  502 -0.12344514499E+04 -0.41097106165E+03 -0.76291132960E+02  0.13033073400E+04  0.46999998093E+01 0. -1.
</event>
<event>
 5   0  0.2586775E-06  0.2605844E+04  0.7818609E-02  0.8366219E-01
       -2   -1    0    0    0  501  0.00000000000E+00  0.00000000000E+00  0.14037098088E+04  0.14037098088E+04  0.25500000920E-02 0.  1.
        2   -1    0    0  501    0  0.00000000000E+00  0.00000000000E+00 -0.12093710173E+04  0.12093710173E+04  0.25500000920E-02 0. -1.
    10030    2    1    2    0    0  0.00000000000E+00  0.00000000000E+00  0.19433879156E+03  0.26130808261E+04  0.26058441699E+04 0.  0.
        1    1    3    3  502    0  0.86004620216E+02  0.15730284662E+03 -0.11969434688E+04  0.12102952729E+04  0.50400001928E-02 0. -1.
       -1    1    3    3    0  502 -0.86004620216E+02 -0.15730284662E+03  0.13912822603E+04  0.14027855532E+04  0.50400001928E-02 0.  1.
</event>
<event>
 5   0  0.1122628E-06  0.2594919E+04  0.7818609E-02  0.8369929E-01
        1   -1    0    0  501    0  0.00000000000E+00  0.00000000000E+00  0.12156965069E+04  0.12156965069E+04  0.50400001928E-02 0. -1.
       -1   -1    0    0    0  501  0.00000000000E+00  0.00000000000E+00 -0.13847220206E+04  0.13847220206E+04  0.50400001928E-02 0.  1.
    10030    2    1    2    0    0  0.00000000000E+00  0.00000000000E+00 -0.16902551376E+03  0.26004185275E+04  0.25949194388E+04 0.  0.
        2    1    3    3  502    0 -0.16348988047E+03  0.67634528220E+03  0.10129014691E+04  0.12288780525E+04  0.25500000920E-02 0. -1.
       -2    1    3    3    0  502  0.16348988047E+03 -0.67634528220E+03 -0.11819269829E+04  0.13715404750E+04  0.25500000920E-02 0.  1.
</event>
<event>
 5   0  0.1088757E-06  0.2600310E+04  0.7818609E-02  0.8368096E-01
        1   -1    0    0  501    0  0.00000000000E+00  0.00000000000E+00  0.13030752266E+04  0.13030752266E+04  0.50400001928E-02 0. -1.
       -1   -1    0    0    0  501  0.00000000000E+00  0.00000000000E+00 -0.12972417170E+04  0.12972417170E+04  0.50400001928E-02 0.  1.
    10030    2    1    2    0    0  0.00000000000E+00  0.00000000000E+00  0.58335095979E+01  0.26003169436E+04  0.26003104002E+04 0.  0.
        5    1    3    3  502    0  0.46845805658E+03  0.94376961703E+03 -0.75881176229E+03  0.12984496222E+04  0.46999998093E+01 0.  1.
       -5    1    3    3    0  502 -0.46845805658E+03 -0.94376961703E+03  0.76464527189E+03  0.13018673214E+04  0.46999998093E+01 0. -1.
</event>
<event>
 5   0  0.2820028E-06  0.2599245E+04  0.7818609E-02  0.8368458E-01
        2   -1    0    0  501    0  0.00000000000E+00  0.00000000000E+00  0.13728368277E+04  0.13728368277E+04  0.25500000920E-02 0. -1.
       -2   -1    0    0    0  501  0.00000000000E+00  0.00000000000E+00 -0.12303124586E+04  0.12303124586E+04  0.25500000920E-02 0.  1.
    10030    2    1    2    0    0  0.00000000000E+00  0.00000000000E+00  0.14252436906E+03  0.26031492863E+04  0.25992447001E+04 0.  0.
        3    1    3    3  502    0 -0.71444282561E+03 -0.24645512307E+03  0.11301344877E+04  0.13595486932E+04  0.10100000352E+00 0. -1.
       -3    1    3    3    0  502  0.71444282561E+03  0.24645512307E+03 -0.98761011859E+03  0.12436005932E+04  0.10100000352E+00 0.  1.
</event>
<event>
 5   0  0.2586775E-06  0.2591154E+04  0.7818609E-02  0.8371212E-01
       -2   -1    0    0    0  501  0.00000000000E+00  0.00000000000E+00  0.12175061994E+04  0.12175061994E+04  0.25500000920E-02 0. -1.
        2   -1    0    0  501    0  0.00000000000E+00  0.00000000000E+00 -0.13786542659E+04  0.13786542659E+04  0.25500000920E-02 0.  1.
    10030    2    1    2    0    0  0.00000000000E+00  0.00000000000E+00 -0.16114806655E+03  0.25961604653E+04  0.25911542722E+04 0.  0.
        1    1    3    3  502    0 -0.63842627213E+03  0.51652760915E+03 -0.10845735429E+04  0.13604001786E+04  0.50400001928E-02 0.  1.
       -1    1    3    3    0  502  0.63842627213E+03 -0.51652760915E+03  0.92342547630E+03  0.12357602867E+04  0.50400001928E-02 0. -1.
</event>
<event>
 5   0  0.1088757E-06  0.2604159E+04  0.7818609E-02  0.8366790E-01
       -1   -1    0    0    0  501  0.00000000000E+00  0.00000000000E+00  0.10081366225E+04  0.10081366225E+04  0.50400001928E-02 0.  1.
        1   -1    0    0  501    0  0.00000000000E+00  0.00000000000E+00 -0.16817279545E+04  0.16817279546E+04  0.50400001928E-02 0. -1.
    10030    2    1    2    0    0  0.00000000000E+00  0.00000000000E+00 -0.67359133208E+03  0.26898645770E+04  0.26041593961E+04 0.  0.
        5    1    3    3  502    0  0.10651723922E+04 -0.68250396966E+03 -0.65513597831E+03  0.14246505304E+04  0.46999998093E+01 0.  1.
       -5    1    3    3    0  502 -0.10651723922E+04  0.68250396966E+03 -0.18455353768E+02  0.12652140466E+04  0.46999998093E+01 0. -1.
</event>
<event>
 5   0  0.1122628E-06  0.2600196E+04  0.7818609E-02  0.8368135E-01
       -1   -1    0    0    0  501  0.00000000000E+00  0.00000000000E+00  0.92202428775E+03  0.92202428776E+03  0.50400001928E-02 0.  1.
        1   -1    0    0  501    0  0.00000000000E+00  0.00000000000E+00 -0.18331997326E+04  0.18331997327E+04  0.50400001928E-02 0. -1.
    10030    2    1    2    0    0  0.00000000000E+00  0.00000000000E+00 -0.91117544490E+03  0.27552240204E+04  0.26001958986E+04 0.  0.
        2    1    3    3  502    0 -0.80544824370E+03  0.91288836846E+03  0.27839794808E+02  0.12177385190E+04  0.25500000920E-02 0.  1.
       -2    1    3    3    0  502  0.80544824370E+03 -0.91288836846E+03 -0.93901523971E+03  0.15374855014E+04  0.25500000920E-02 0. -1.
</event>
<event>
 5   0  0.1088757E-06  0.2600776E+04  0.7818609E-02  0.8367938E-01
       -1   -1    0    0    0  501  0.00000000000E+00  0.00000000000E+00  0.12610713996E+04  0.12610713996E+04  0.50400001928E-02 0. -1.
        1   -1    0    0  501    0  0.00000000000E+00  0.00000000000E+00 -0.13409300274E+04  0.13409300274E+04  0.50400001928E-02 0.  1.
    10030    2    1    2    0    0  0.00000000000E+00  0.00000000000E+00 -0.79858627869E+02  0.26020014270E+04  0.26007756585E+04 0.  0.
        5    1    3    3  502    0  0.96817385783E+03 -0.37818614971E+03  0.74184861653E+03  0.12770069861E+04  0.46999998093E+01 0. -1.
       -5    1    3    3    0  502 -0.96817385783E+03  0.37818614971E+03 -0.82170724440E+03  0.13249944409E+04  0.46999998093E+01 0.  1.
</event>
<event>
 5   0  0.1122628E-06  0.2600259E+04  0.7818609E-02  0.8368113E-01
       -1   -1    0    0    0  501  0.00000000000E+00  0.00000000000E+00  0.11023851138E+04  0.11023851138E+04  0.50400001928E-02 0. -1.
        1   -1    0    0  501    0  0.00000000000E+00  0.00000000000E+00 -0.15333450190E+04  0.15333450190E+04  0.50400001928E-02 0.  1.
    10030    2    1    2    0    0  0.00000000000E+00  0.00000000000E+00 -0.43095990516E+03  0.26357301329E+04  0.26002590051E+04 0.  0.
        2    1    3    3  502    0 -0.12801024162E+04 -0.22619968554E+03 -0.23833142965E+03  0.13216014392E+04  0.25500000920E-02 0. -1.
       -2    1    3    3    0  502  0.12801024162E+04  0.22619968554E+03 -0.19262847552E+03  0.13141286936E+04  0.25500000920E-02 0.  1.
</event>
<event>
 5   0  0.1088757E-06  0.2597203E+04  0.7818609E-02  0.8369152E-01
        1   -1    0    0  501    0  0.00000000000E+00  0.00000000000E+00  0.16362152087E+04  0.16362152087E+04  0.50400001928E-02 0. -1.
       -1   -1    0    0    0  501  0.00000000000E+00  0.00000000000E+00 -0.10306501992E+04  0.10306501992E+04  0.50400001928E-02 0.  1.
    10030    2    1    2    0    0  0.00000000000E+00  0.00000000000E+00  0.60556500952E+03  0.26668654079E+04  0.25972027497E+04 0.  0.
        5    1    3    3  502    0 -0.67121939411E+03  0.59447175237E+03 -0.66178088685E+03  0.11144093375E+04  0.46999998093E+01 0.  1.
       -5    1    3    3    0  502  0.67121939411E+03 -0.59447175237E+03  0.12673458964E+04  0.15524560704E+04  0.46999998093E+01 0. -1.
</event>
<event>
 5   0  0.1122628E-06  0.2603572E+04  0.7818609E-02  0.8366989E-01
       -1   -1    0    0    0  501  0.00000000000E+00  0.00000000000E+00  0.13544907371E+04  0.13544907371E+04  0.50400001928E-02 0. -1.
        1   -1    0    0  501    0  0.00000000000E+00  0.00000000000E+00 -0.12511318722E+04  0.12511318722E+04  0.50400001928E-02 0.  1.
    10030    2    1    2    0    0  0.00000000000E+00  0.00000000000E+00  0.10335886483E+03  0.26056226093E+04  0.26035718018E+04 0.  0.
        2    1    3    3  502    0 -0.83927061437E+03  0.71633178691E+03 -0.63961797957E+03  0.12753891770E+04  0.25500000920E-02 0.  1.
       -2    1    3    3    0  502  0.83927061437E+03 -0.71633178691E+03  0.74297684439E+03  0.13302334323E+04  0.25500000920E-02 0. -1.
</event>
<event>
 5   0  0.2820028E-06  0.2620404E+04  0.7818609E-02  0.8361303E-01
        2   -1    0    0  501    0  0.00000000000E+00  0.00000000000E+00  0.15925448741E+04  0.15925448741E+04  0.25500000920E-02 0.  1.
       -2   -1    0    0    0  501  0.00000000000E+00  0.00000000000E+00 -0.10779154217E+04  0.10779154217E+04  0.25500000920E-02 0. -1.
    10030    2    1    2    0    0  0.00000000000E+00  0.00000000000E+00  0.51462945246E+03  0.26704602958E+04  0.26204035411E+04 0.  0.
        3    1    3    3  502    0 -0.10289634108E+04  0.19695220524E+03 -0.54452728788E+03  0.11807056574E+04  0.10100000352E+00 0. -1.
       -3    1    3    3    0  502  0.10289634108E+04 -0.19695220524E+03  0.10591567403E+04  0.14897546384E+04  0.10100000352E+00 0.  1.
</event>
<event>
 5   0  0.2746631E-06  0.2605513E+04  0.7818609E-02  0.8366331E-01
       -2   -1    0    0    0  501  0.00000000000E+00  0.00000000000E+00  0.10787224936E+04  0.10787224937E+04  0.25500000920E-02 0. -1.
        2   -1    0    0  501    0  0.00000000000E+00  0.00000000000E+00 -0.15733185727E+04  0.15733185727E+04  0.25500000920E-02 0.  1.
    10030    2    1    2    0    0  0.00000000000E+00  0.00000000000E+00 -0.49459607904E+03  0.26520410663E+04  0.26055127204E+04 0.  0.
        2    1    3    3  502    0  0.11952758786E+04 -0.35310990780E+03 -0.63328370195E+03  0.13980054649E+04  0.25500000920E-02 0.  1.
       -2    1    3    3    0  502 -0.11952758786E+04  0.35310990780E+03  0.13868762291E+03  0.12540356014E+04  0.25500000920E-02 0. -1.
</event>
<event>
 5   0  0.2586775E-06  0.2596529E+04  0.7818609E-02  0.8369381E-01
        2   -1    0    0  501    0  0.00000000000E+00  0.00000000000E+00  0.52938743635E+03  0.52938743636E+03  0.25500000920E-02 0.  1.
       -2   -1    0    0    0  501  0.00000000000E+00  0.00000000000E+00 -0.31838499944E+04  0.31838499944E+04  0.25500000920E-02 0. -1.
    10030    2    1    2    0    0  0.00000000000E+00  0.00000000000E+00 -0.26544625581E+04  0.37132374308E+04  0.25965285951E+04 0.  0.
        1    1    3    3  502    0  0.53116079378E+03 -0.10706499876E+04 -0.60215653874E+03  0.13382883404E+04  0.50400001928E-02 0.  1.
       -1    1    3    3    0  502 -0.53116079378E+03  0.10706499876E+04 -0.20523060193E+04  0.23749490904E+04  0.50400001928E-02 0. -1.
</event>
<event>
 5   0  0.1122628E-06  0.2602263E+04  0.7818609E-02  0.8367433E-01
        1   -1    0    0  501    0  0.00000000000E+00  0.00000000000E+00  0.16439389947E+04  0.16439389947E+04  0.50400001928E-02 0.  1.
       -1   -1    0    0    0  501  0.00000000000E+00  0.00000000000E+00 -0.10298089477E+04  0.10298089478E+04  0.50400001928E-02 0. -1.
    10030    2    1    2    0    0  0.00000000000E+00  0.00000000000E+00  0.61413004693E+03  0.26737479424E+04  0.26022629278E+04 0.  0.
        2    1    3    3  502    0  0.82330938635E+03  0.41080903836E+03  0.12523045964E+04  0.15539849464E+04  0.25500000920E-02 0.  1.
       -2    1    3    3    0  502 -0.82330938635E+03 -0.41080903836E+03 -0.63817454944E+03  0.11197629960E+04  0.25500000920E-02 0. -1.
</event>
<event>
 5   0  0.2705807E-06  0.2606893E+04  0.7818609E-02  0.8365864E-01
        2   -1    0    0  501    0  0.00000000000E+00  0.00000000000E+00  0.10326309925E+04  0.10326309925E+04  0.25500000920E-02 0. -1.
       -2   -1    0    0    0  501  0.00000000000E+00  0.00000000000E+00 -0.16452856514E+04  0.16452856514E+04  0.25500000920E-02 0.  1.
    10030    2    1    2    0    0  0.00000000000E+00  0.00000000000E+00 -0.61265465881E+03  0.26779166439E+04  0.26068931356E+04 0.  0.
        4    1    3    3  502    0  0.37674926726E+03  0.11707454445E+04 -0.74981441538E+03  0.14404194447E+04  0.12699999809E+01 0.  1.
       -4    1    3    3    0  502 -0.37674926726E+03 -0.11707454445E+04  0.13715975656E+03  0.12374971992E+04  0.12699999809E+01 0. -1.
</event>
<event>
 5   0  0.1032076E-06  0.2597995E+04  0.7818609E-02  0.8368882E-01
       -1   -1    0    0    0  501  0.00000000000E+00  0.00000000000E+00  0.10081659903E+04  0.10081659903E+04  0.50400001928E-02 0.  1.
        1   -1    0    0  501    0  0.00000000000E+00  0.00000000000E+00 -0.16737272081E+04  0.16737272081E+04  0.50400001928E-02 0. -1.
    10030    2    1    2    0    0  0.00000000000E+00  0.00000000000E+00 -0.66556121781E+03  0.26818931985E+04  0.25979952643E+04 0.  0.
        1    1    3    3  502    0 -0.84167447274E+02  0.25415778233E+03 -0.16449365057E+04  0.16665822648E+04  0.50400001928E-02 0. -1.
       -1    1    3    3    0  502  0.84167447274E+02 -0.25415778233E+03  0.97937528790E+03  0.10153109337E+04  0.50400001928E-02 0.  1.
</event>
<event>
 5   0  0.1100104E-06  0.2603155E+04  0.7818609E-02  0.8367130E-01
        1   -1    0    0  501    0  0.00000000000E+00  0.00000000000E+00  0.17483127795E+04  0.17483127795E+04  0.50400001928E-02 0.  1.
       -1   -1    0    0    0  501  0.00000000000E+00  0.00000000000E+00 -0.96899387198E+03  0.96899387200E+03  0.50400001928E-02 0. -1.
    10030    2    1    2    0    0  0.00000000000E+00  0.00000000000E+00  0.77931890750E+03  0.27173066515E+04  0.26031552928E+04 0.  0.
        4    1    3    3  502    0 -0.36132031730E+03  0.62580107444E+03 -0.74036590079E+03  0.10345639837E+04  0.12699999809E+01 0. -1.
       -4    1    3    3    0  502  0.36132031730E+03 -0.62580107444E+03  0.15196848083E+04  0.16827426678E+04  0.12699999809E+01 0.  1.
</event>
<event>
 5   0  0.2820028E-06  0.2597245E+04  0.7818609E-02  0.8369138E-01
        2   -1    0    0  501    0  0.00000000000E+00  0.00000000000E+00  0.16053656762E+04  0.16053656762E+04  0.25500000920E-02 0. -1.
       -2   -1    0    0    0  501  0.00000000000E+00  0.00000000000E+00 -0.10504900182E+04  0.10504900182E+04  0.25500000920E-02 0.  1.
    10030    2    1    2    0    0  0.00000000000E+00  0.00000000000E+00  0.55487565802E+03  0.26558556945E+04  0.25972451702E+04 0.  0.
        3    1    3    3  502    0  0.23747118191E+03  0.47334815019E+03  0.14899315214E+04  0.15812485517E+04  0.10100000352E+00 0. -1.
       -3    1    3    3    0  502 -0.23747118191E+03 -0.47334815019E+03 -0.93505586337E+03  0.10746071428E+04  0.10100000352E+00 0.  1.
</event>
<event>
 5   0  0.1088757E-06  0.2599797E+04  0.7818609E-02  0.8368270E-01
       -1   -1    0    0    0  501  0.00000000000E+00  0.00000000000E+00  0.12650369291E+04  0.12650369291E+04  0.50400001928E-02 0. -1.
        1   -1    0    0  501    0  0.00000000000E+00  0.00000000000E+00 -0.13357204817E+04  0.13357204817E+04  0.50400001928E-02 0.  1.
    10030    2    1    2    0    0  0.00000000000E+00  0.00000000000E+00 -0.70683552670E+02  0.26007574108E+04  0.25997967123E+04 0.  0.
        5    1    3    3  502    0  0.63684575735E+03 -0.93846306427E+03 -0.67073646944E+03  0.13176475034E+04  0.46999998093E+01 0.  1.
       -5    1    3    3    0  502 -0.63684575735E+03  0.93846306427E+03  0.60005291677E+03  0.12831099074E+04  0.46999998093E+01 0. -1.
</event>
<event>
 5   0  0.2820028E-06  0.2596900E+04  0.7818609E-02  0.8369255E-01
       -2   -1    0    0    0  501  0.00000000000E+00  0.00000000000E+00  0.91535406221E+03  0.91535406221E+03  0.25500000920E-02 0.  1.
        2   -1    0    0  501    0  0.00000000000E+00  0.00000000000E+00 -0.18418795591E+04  0.18418795591E+04  0.25500000920E-02 0. -1.
    10030    2    1    2    0    0  0.00000000000E+00  0.00000000000E+00 -0.92652549691E+03  0.27572336213E+04  0.25968996411E+04 0.  0.
        3    1    3    3  502    0  0.19070112770E+03 -0.12601461570E+04 -0.72685824115E+03  0.14671939784E+04  0.10100000352E+00 0. -1.
       -3    1    3    3    0  502 -0.19070112770E+03  0.12601461570E+04 -0.19966725576E+03  0.12900396430E+04  0.10100000352E+00 0.  1.
</event>
<event>
 5   0  0.1100104E-06  0.2600698E+04  0.7818609E-02  0.8367964E-01
       -1   -1    0    0    0  501  0.00000000000E+00  0.00000000000E+00  0.10880518279E+04  0.10880518280E+04  0.50400001928E-02 0.  1.
        1   -1    0    0  501    0  0.00000000000E+00  0.00000000000E+00 -0.15540694032E+04  0.15540694032E+04  0.50400001928E-02 0. -1.
    10030    2    1    2    0    0  0.00000000000E+00  0.00000000000E+00 -0.46601757523E+03  0.26421212311E+04  0.26006984100E+04 0.  0.
        4    1    3    3  502    0 -0.89375897378E+03  0.63472761795E+03 -0.94359343879E+03  0.14463935989E+04  0.12699999809E+01 0. -1.
       -4    1    3    3    0  502  0.89375897378E+03 -0.63472761795E+03  0.47757586356E+03  0.11957276323E+04  0.12699999809E+01 0.  1.
</event>
<event>
 5   0  0.1088757E-06  0.2600414E+04  0.7818609E-02  0.8368061E-01
        1   -1    0    0  501    0  0.00000000000E+00  0.00000000000E+00  0.27909992163E+04  0.27909992163E+04  0.50400001928E-02 0. -1.
       -1   -1    0    0    0  501  0.00000000000E+00  0.00000000000E+00 -0.60571073487E+03  0.60571073489E+03  0.50400001928E-02 0.  1.
    10030    2    1    2    0    0  0.00000000000E+00  0.00000000000E+00  0.21852884814E+04  0.33967099512E+04  0.26004139565E+04 0.  0.
        5    1    3    3  502    0 -0.35204277886E+02  0.64797241541E+03  0.25643353865E+04  0.26451740315E+04  0.46999998093E+01 0. -1.
       -5    1    3    3    0  502  0.35204277886E+02 -0.64797241541E+03 -0.37904690511E+03  0.75153591969E+03  0.46999998093E+01 0.  1.
</event>
<event>
 5   0  0.2623368E-06  0.2601712E+04  0.7818609E-02  0.8367620E-01
        2   -1    0    0  501    0  0.00000000000E+00  0.00000000000E+00  0.67250195924E+03  0.67250195925E+03  0.25500000920E-02 0. -1.
       -2   -1    0    0    0  501  0.00000000000E+00  0.00000000000E+00 -0.25163135889E+04  0.25163135889E+04  0.25500000920E-02 0.  1.
    10030    2    1    2    0    0  0.00000000000E+00  0.00000000000E+00 -0.18438116296E+04  0.31888155481E+04  0.26017116048E+04 0.  0.
        5    1    3    3  502    0  0.28744755681E+03  0.12219386635E+04 -0.50366353563E+03  0.13525750413E+04  0.46999998093E+01 0. -1.
       -5    1    3    3    0  502 -0.28744755681E+03 -0.12219386635E+04 -0.13401480940E+04  0.18362405069E+04  0.46999998093E+01 0.  1.
</event>
<event>
 5   0  0.1032076E-06  0.2596029E+04  0.7818609E-02  0.8369551E-01
        1   -1    0    0  501    0  0.00000000000E+00  0.00000000000E+00  0.86817674239E+03  0.86817674240E+03  0.50400001928E-02 0. -1.
       -1   -1    0    0    0  501  0.00000000000E+00  0.00000000000E+00 -0.19406661496E+04  0.19406661496E+04  0.50400001928E-02 0.  1.
    10030    2    1    2    0    0  0.00000000000E+00  0.00000000000E+00 -0.10724894072E+04  0.28088428920E+04  0.25960286716E+04 0.  0.
        1    1    3    3  502    0 -0.12232026091E+04  0.13065485455E+03 -0.98437895382E+03  0.15755307799E+04  0.50400001928E-02 0.  1.
       -1    1    3    3    0  502  0.12232026091E+04 -0.13065485455E+03 -0.88110453416E+02  0.12333121121E+04  0.50400001928E-02 0. -1.
</event>
<event>
 5   0  0.2623368E-06  0.2602057E+04  0.7818609E-02  0.8367503E-01
        2   -1    0    0  501    0  0.00000000000E+00  0.00000000000E+00  0.17028429787E+04  0.17028429787E+04  0.25500000920E-02 0. -1.
       -2   -1    0    0    0  501  0.00000000000E+00  0.00000000000E+00 -0.99402872354E+03  0.99402872355E+03  0.25500000920E-02 0.  1.
    10030    2    1    2    0    0  0.00000000000E+00  0.00000000000E+00  0.70881425513E+03  0.26968717022E+04  0.26020567500E+04 0.  0.
        5    1    3    3  502    0 -0.10970718620E+02 -0.86667842126E+03  0.13600200065E+04  0.16127393933E+04  0.46999998093E+01 0. -1.
       -5    1    3    3    0  502  0.10970718620E+02  0.86667842126E+03 -0.65120575141E+03  0.10841323089E+04  0.46999998093E+01 0.  1.
</event>
<event>
 5   0  0.1122628E-06  0.2602315E+04  0.7818609E-02  0.8367415E-01
        1   -1    0    0  501    0  0.00000000000E+00  0.00000000000E+00  0.14018903732E+04  0.14018903732E+04  0.50400001928E-02 0. -1.
       -1   -1    0    0    0  501  0.00000000000E+00  0.00000000000E+00 -0.12076625448E+04  0.12076625448E+04  0.50400001928E-02 0.  1.
    10030    2    1    2    0    0  0.00000000000E+00  0.00000000000E+00  0.19422782843E+03  0.26095529180E+04  0.26023147355E+04 0.  0.
        2    1    3    3  502    0  0.11391948663E+04 -0.25980759144E+03 -0.47696910469E+03  0.12620477229E+04  0.25500000920E-02 0.  1.
       -2    1    3    3    0  502 -0.11391948663E+04  0.25980759144E+03  0.67119693311E+03  0.13475051952E+04  0.25500000920E-02 0. -1.
</event>
<event>
 5   0  0.1055179E-06  0.2587820E+04  0.7818609E-02  0.8372350E-01
       -1   -1    0    0    0  501  0.00000000000E+00  0.00000000000E+00  0.23917563957E+04  0.23917563958E+04  0.50400001928E-02 0. -1.
        1   -1    0    0  501    0  0.00000000000E+00  0.00000000000E+00 -0.69998890949E+03  0.69998890951E+03  0.50400001928E-02 0.  1.
    10030    2    1    2    0    0  0.00000000000E+00  0.00000000000E+00  0.16917674863E+04  0.30917453053E+04  0.25878198942E+04 0.  0.
        3    1    3    3  502    0 -0.10860402856E+04 -0.30324917680E+03  0.16040989534E+04  0.19607592987E+04  0.10100000352E+00 0. -1.
       -3    1    3    3    0  502  0.10860402856E+04  0.30324917680E+03  0.87668532843E+02  0.11309860065E+04  0.10100000352E+00 0.  1.
</event>
<event>
 5   0  0.1088757E-06  0.2594611E+04  0.7818609E-02  0.8370034E-01
        1   -1    0    0  501    0  0.00000000000E+00  0.00000000000E+00  0.17722698549E+04  0.17722698549E+04  0.50400001928E-02 0. -1.
       -1   -1    0    0    0  501  0.00000000000E+00  0.00000000000E+00 -0.94963045456E+03  0.94963045458E+03  0.50400001928E-02 0.  1.
    10030    2    1    2    0    0  0.00000000000E+00  0.00000000000E+00  0.82263940032E+03  0.27219003095E+04  0.25946108979E+04 0.  0.
        5    1    3    3  502    0 -0.11874516340E+04 -0.13986091317E+03  0.93937994046E+03  0.15205456983E+04  0.46999998093E+01 0.  1.
       -5    1    3    3    0  502  0.11874516340E+04  0.13986091317E+03 -0.11674054015E+03  0.12013546112E+04  0.46999998093E+01 0. -1.
</event>
<event>
 5   0  0.2746631E-06  0.2601894E+04  0.7818609E-02  0.8367558E-01
        2   -1    0    0  501    0  0.00000000000E+00  0.00000000000E+00  0.11386219826E+04  0.11386219826E+04  0.25500000920E-02 0.  1.
       -2   -1    0    0    0  501  0.00000000000E+00  0.00000000000E+00 -0.14864140444E+04  0.14864140444E+04  0.25500000920E-02 0. -1.
    10030    2    1    2    0    0  0.00000000000E+00  0.00000000000E+00 -0.34779206183E+03  0.26250360270E+04  0.26018944684E+04 0.  0.
        2    1    3    3  502    0  0.50824499888E+03 -0.32627486932E+03 -0.13364010101E+04  0.14665387581E+04  0.25500000920E-02 0. -1.
       -2    1    3    3    0  502 -0.50824499888E+03  0.32627486932E+03  0.98860894830E+03  0.11584972688E+04  0.25500000920E-02 0.  1.
</event>
<event>
 5   0  0.2586775E-06  0.2601776E+04  0.7818609E-02  0.8367598E-01
       -2   -1    0    0    0  501  0.00000000000E+00  0.00000000000E+00  0.14065821082E+04  0.14065821082E+04  0.25500000920E-02 0.  1.
        2   -1    0    0  501    0  0.00000000000E+00  0.00000000000E+00 -0.12031363007E+04  0.12031363007E+04  0.25500000920E-02 0. -1.
    10030    2    1    2    0    0  0.00000000000E+00  0.00000000000E+00  0.20344580755E+03  0.26097184089E+04  0.26017763119E+04 0.  0.
        1    1    3    3  502    0 -0.24538841418E+03  0.12044944397E+04 -0.32535570725E+03  0.12715654389E+04  0.50400001928E-02 0. -1.
       -1    1    3    3    0  502  0.24538841418E+03 -0.12044944397E+04  0.52880151480E+03  0.13381529700E+04  0.50400001928E-02 0.  1.
</event>
<event>
 5   0  0.1032076E-06  0.2608278E+04  0.7818609E-02  0.8365395E-01
       -1   -1    0    0    0  501  0.00000000000E+00  0.00000000000E+00  0.12075126791E+04  0.12075126791E+04  0.50400001928E-02 0. -1.
        1   -1    0    0  501    0  0.00000000000E+00  0.00000000000E+00 -0.14084977013E+04  0.14084977013E+04  0.50400001928E-02 0.  1.
    10030    2    1    2    0    0  0.00000000000E+00  0.00000000000E+00 -0.20098502227E+03  0.26160103804E+04  0.26082782312E+04 0.  0.
        1    1    3    3  502    0  0.51477310748E+03 -0.13442874247E+03 -0.12947012005E+04  0.13997548491E+04  0.50400001928E-02 0.  1.
       -1    1    3    3    0  502 -0.51477310748E+03  0.13442874247E+03  0.10937161782E+04  0.12162555313E+04  0.50400001928E-02 0. -1.
</event>
<event>
 5   0  0.1055179E-06  0.2596403E+04  0.7818609E-02  0.8369424E-01
        1   -1    0    0  501    0  0.00000000000E+00  0.00000000000E+00  0.14484914314E+04  0.14484914314E+04  0.50400001928E-02 0. -1.
       -1   -1    0    0    0  501  0.00000000000E+00  0.00000000000E+00 -0.11635053200E+04  0.11635053200E+04  0.50400001928E-02 0.  1.
    10030    2    1    2    0    0  0.00000000000E+00  0.00000000000E+00  0.28498611138E+03  0.26119967515E+04  0.25964032710E+04 0.  0.
        3    1    3    3  502    0  0.11568275235E+04  0.58510136207E+03  0.21171000647E+03  0.13135504026E+04  0.10100000352E+00 0. -1.
       -3    1    3    3    0  502 -0.11568275235E+04 -0.58510136207E+03  0.73276104915E+02  0.12984463489E+04  0.10100000352E+00 0.  1.
</event>
<event>
 5   0  0.1055179E-06  0.2610562E+04  0.7818609E-02  0.8364623E-01
       -1   -1    0    0    0  501  0.00000000000E+00  0.00000000000E+00  0.12560661736E+04  0.12560661736E+04  0.50400001928E-02 0.  1.
        1   -1    0    0  501    0  0.00000000000E+00  0.00000000000E+00 -0.13564236645E+04  0.13564236646E+04  0.50400001928E-02 0. -1.
    10030    2    1    2    0    0  0.00000000000E+00  0.00000000000E+00 -0.10035749093E+03  0.26124898382E+04  0.26105615351E+04 0.  0.
        3    1    3    3  502    0  0.32137897156E+03  0.98622144593E+03  0.74277052496E+03  0.12757841693E+04  0.10100000352E+00 0.  1.
       -3    1    3    3    0  502 -0.32137897156E+03 -0.98622144593E+03 -0.84312801589E+03  0.13367056689E+04  0.10100000352E+00 0. -1.
</event>
<event>
 5   0  0.1122628E-06  0.2602456E+04  0.7818609E-02  0.8367368E-01
        1   -1    0    0  501    0  0.00000000000E+00  0.00000000000E+00  0.12828393777E+04  0.12828393777E+04  0.50400001928E-02 0. -1.
       -1   -1    0    0    0  501  0.00000000000E+00  0.00000000000E+00 -0.13198799362E+04  0.13198799362E+04  0.50400001928E-02 0.  1.
    10030    2    1    2    0    0  0.00000000000E+00  0.00000000000E+00 -0.37040558509E+02  0.26027193139E+04  0.26024557295E+04 0.  0.
        2    1    3    3  502    0 -0.11335174665E+04  0.34671428269E+03  0.51830341788E+03  0.12937198591E+04  0.25500000920E-02 0. -1.
       -2    1    3    3    0  502  0.11335174665E+04 -0.34671428269E+03 -0.55534397639E+03  0.13089994549E+04  0.25500000920E-02 0.  1.
</event>
<event>
 5   0  0.2586775E-06  0.2605082E+04  0.7818609E-02  0.8366477E-01
        2   -1    0    0  501    0  0.00000000000E+00  0.00000000000E+00  0.22325310092E+04  0.22325310092E+04  0.25500000920E-02 0.  1.
       -2   -1    0    0    0  501  0.00000000000E+00  0.00000000000E+00 -0.75995032355E+03  0.75995032356E+03  0.25500000920E-02 0. -1.
    10030    2    1    2    0    0  0.00000000000E+00  0.00000000000E+00  0.14725806857E+04  0.29924813328E+04  0.26050816976E+04 0.  0.
        1    1    3    3  502    0 -0.30974845219E+03  0.79243706594E+03 -0.39663750350E+03  0.93873420962E+03  0.50400001928E-02 0. -1.
       -1    1    3    3    0  502  0.30974845219E+03 -0.79243706594E+03  0.18692181892E+04  0.20537471232E+04  0.50400001928E-02 0.  1.
</event>
<event>
 5   0  0.2820028E-06  0.2600269E+04  0.7818609E-02  0.8368110E-01
       -2   -1    0    0    0  501  0.00000000000E+00  0.00000000000E+00  0.83059666963E+03  0.83059666963E+03  0.25500000920E-02 0. -1.
        2   -1    0    0  501    0  0.00000000000E+00  0.00000000000E+00 -0.20351032035E+04  0.20351032035E+04  0.25500000920E-02 0.  1.
    10030    2    1    2    0    0  0.00000000000E+00  0.00000000000E+00 -0.12045065338E+04  0.28656998731E+04  0.26002691731E+04 0.  0.
        3    1    3    3  502    0 -0.40116539723E+02 -0.27233025588E+03 -0.20026199019E+04  0.20214498725E+04  0.10100000352E+00 0.  1.
       -3    1    3    3    0  502  0.40116539723E+02  0.27233025588E+03  0.79811336810E+03  0.84425000064E+03  0.10100000352E+00 0. -1.
</event>
<event>
 5   0  0.1055179E-06  0.2596394E+04  0.7818609E-02  0.8369427E-01
        1   -1    0    0  501    0  0.00000000000E+00  0.00000000000E+00  0.19786170402E+04  0.19786170402E+04  0.50400001928E-02 0.  1.
       -1   -1    0    0    0  501  0.00000000000E+00  0.00000000000E+00 -0.85176403242E+03  0.85176403244E+03  0.50400001928E-02 0. -1.
    10030    2    1    2    0    0  0.00000000000E+00  0.00000000000E+00  0.11268530078E+04  0.28303810726E+04  0.25963935209E+04 0.  0.
        3    1    3    3  502    0  0.90895608384E+03 -0.46658029556E+03 -0.30963422381E+03  0.10676009073E+04  0.10100000352E+00 0. -1.
       -3    1    3    3    0  502 -0.90895608384E+03  0.46658029556E+03  0.14364872316E+04  0.17627801653E+04  0.10100000352E+00 0.  1.
</event>
<event>
 5   0  0.2705807E-06  0.2575210E+04  0.7818609E-02  0.8376671E-01
        2   -1    0    0  501    0  0.00000000000E+00  0.00000000000E+00  0.10526537570E+04  0.10526537570E+04  0.25500000920E-02 0.  1.
       -2   -1    0    0    0  501  0.00000000000E+00  0.00000000000E+00 -0.15749972524E+04  0.15749972524E+04  0.25500000920E-02 0. -1.
    10030    2    1    2    0    0  0.00000000000E+00  0.00000000000E+00 -0.52234349548E+03  0.26276510094E+04  0.25752101079E+04 0.  0.
        4    1    3    3  502    0  0.11974602035E+04  0.13791148334E+03 -0.72315504568E+03  0.14056618901E+04  0.12699999809E+01 0.  1.
       -4    1    3    3    0  502 -0.11974602035E+04 -0.13791148334E+03  0.20081155020E+03  0.12219891193E+04  0.12699999809E+01 0. -1.
</event>
<event>
 5   0  0.1055179E-06  0.2596407E+04  0.7818609E-02  0.8369423E-01
        1   -1    0    0  501    0  0.00000000000E+00  0.00000000000E+00  0.11602381448E+04  0.11602381448E+04  0.50400001928E-02 0. -1.
       -1   -1    0    0    0  501  0.00000000000E+00  0.00000000000E+00 -0.14525741823E+04  0.14525741823E+04  0.50400001928E-02 0.  1.
    10030    2    1    2    0    0  0.00000000000E+00  0.00000000000E+00 -0.29233603744E+03  0.26128123271E+04  0.25964067282E+04 0.  0.
        3    1    3    3  502    0  0.10511643533E+04  0.75676772878E+03 -0.57932348151E+02  0.12965338639E+04  0.10100000352E+00 0. -1.
       -3    1    3    3    0  502 -0.10511643533E+04 -0.75676772878E+03 -0.23440368929E+03  0.13162784632E+04  0.10100000352E+00 0.  1.
</event>
<event>
 5   0  0.1055179E-06  0.2595457E+04  0.7818609E-02  0.8369746E-01
        1   -1    0    0  501    0  0.00000000000E+00  0.00000000000E+00  0.12142613618E+04  0.12142613618E+04  0.50400001928E-02 0. -1.
       -1   -1    0    0    0  501  0.00000000000E+00  0.00000000000E+00 -0.13869334887E+04  0.13869334887E+04  0.50400001928E-02 0.  1.
    10030    2    1    2    0    0  0.00000000000E+00  0.00000000000E+00 -0.17267212697E+03  0.26011948505E+04  0.25954573753E+04 0.  0.
        3    1    3    3  502    0  0.90613095528E+03  0.79755293109E+03 -0.56376687558E+03  0.13322901659E+04  0.10100000352E+00 0. -1.
       -3    1    3    3    0  502 -0.90613095528E+03 -0.79755293109E+03  0.39109474862E+03  0.12689046846E+04  0.10100000352E+00 0.  1.
</event>
<event>
 5   0  0.2820028E-06  0.2601201E+04  0.7818609E-02  0.8367793E-01
        2   -1    0    0  501    0  0.00000000000E+00  0.00000000000E+00  0.29004192110E+04  0.29004192110E+04  0.25500000920E-02 0. -1.
       -2   -1    0    0    0  501  0.00000000000E+00  0.00000000000E+00 -0.58321264604E+03  0.58321264604E+03  0.25500000920E-02 0.  1.
    10030    2    1    2    0    0  0.00000000000E+00  0.00000000000E+00  0.23172065650E+04  0.34836318570E+04  0.26012006172E+04 0.  0.
        3    1    3    3  502    0  0.86429394706E+03 -0.92900732797E+03  0.77626842252E+03  0.14874983416E+04  0.10100000352E+00 0. -1.
       -3    1    3    3    0  502 -0.86429394706E+03  0.92900732797E+03  0.15409381425E+04  0.19961335154E+04  0.10100000352E+00 0.  1.
</event>
<event>
 5   0  0.1100104E-06  0.2603387E+04  0.7818609E-02  0.8367052E-01
       -1   -1    0    0    0  501  0.00000000000E+00  0.00000000000E+00  0.11947681287E+04  0.11947681287E+04  0.50400001928E-02 0.  1.
        1   -1    0    0  501    0  0.00000000000E+00  0.00000000000E+00 -0.14181884449E+04  0.14181884449E+04  0.50400001928E-02 0. -1.
    10030    2    1    2    0    0  0.00000000000E+00  0.00000000000E+00 -0.22342031621E+03  0.26129565737E+04  0.26033872970E+04 0.  0.
        4    1    3    3  502    0 -0.11922658930E+04 -0.39636985130E+02 -0.63452375386E+03  0.13511813562E+04  0.12699999809E+01 0. -1.
       -4    1    3    3    0  502  0.11922658930E+04  0.39636985130E+02  0.41110343765E+03  0.12617752175E+04  0.12699999809E+01 0.  1.
</event>
<event>
 5   0  0.1055179E-06  0.2600617E+04  0.7818609E-02  0.8367992E-01
       -1   -1    0    0    0  501  0.00000000000E+00  0.00000000000E+00  0.18117549962E+04  0.18117549962E+04  0.50400001928E-02 0. -1.
        1   -1    0    0  501    0  0.00000000000E+00  0.00000000000E+00 -0.93323993314E+03  0.93323993315E+03  0.50400001928E-02 0.  1.
    10030    2    1    2    0    0  0.00000000000E+00  0.00000000000E+00  0.87851506304E+03  0.27449949293E+04  0.26006169357E+04 0.  0.
        3    1    3    3  502    0 -0.44217940005E+03 -0.91998711980E+03  0.12895241148E+04  0.16446189149E+04  0.10100000352E+00 0. -1.
       -3    1    3    3    0  502  0.44217940005E+03  0.91998711980E+03 -0.41100905172E+03  0.11003760145E+04  0.10100000352E+00 0.  1.
</event>
<event>
 5   0  0.2746631E-06  0.2599537E+04  0.7818609E-02  0.8368358E-01
       -2   -1    0    0    0  501  0.00000000000E+00  0.00000000000E+00  0.91577608098E+03  0.91577608099E+03  0.25500000920E-02 0. -1.
        2   -1    0    0  501    0  0.00000000000E+00  0.00000000000E+00 -0.18447725972E+04  0.18447725972E+04  0.25500000920E-02 0.  1.
    10030    2    1    2    0    0  0.00000000000E+00  0.00000000000E+00 -0.92899651626E+03  0.27605486782E+04  0.25995373584E+04 0.  0.
        2    1    3    3  502    0 -0.82848717026E+03  0.98255508167E+03 -0.25859953884E+03  0.13109840584E+04  0.25500000920E-02 0. -1.
       -2    1    3    3    0  502  0.82848717026E+03 -0.98255508167E+03 -0.67039697741E+03  0.14495646199E+04  0.25500000920E-02 0.  1.
</event>
<event>
 5   0  0.1100104E-06  0.2599942E+04  0.7818609E-02  0.8368221E-01
        1   -1    0    0  501    0  0.00000000000E+00  0.00000000000E+00  0.22118818945E+04  0.22118818945E+04  0.50400001928E-02 0.  1.
       -1   -1    0    0    0  501  0.00000000000E+00  0.00000000000E+00 -0.76402125443E+03  0.76402125445E+03  0.50400001928E-02 0. -1.
    10030    2    1    2    0    0  0.00000000000E+00  0.00000000000E+00  0.14478606400E+04  0.29759031489E+04  0.25999421376E+04 0.  0.
        4    1    3    3  502    0  0.24773791330E+03 -0.36505310883E+03 -0.67571225678E+03  0.80698606730E+03  0.12699999809E+01 0. -1.
       -4    1    3    3    0  502 -0.24773791330E+03  0.36505310883E+03  0.21235728968E+04  0.21689170816E+04  0.12699999809E+01 0.  1.
</event>
<event>
 5   0  0.2586775E-06  0.2600775E+04  0.7818609E-02  0.8367938E-01
       -2   -1    0    0    0  501  0.00000000000E+00  0.00000000000E+00  0.76675838243E+03  0.76675838244E+03  0.25500000920E-02 0. -1.
        2   -1    0    0  501    0  0.00000000000E+00  0.00000000000E+00 -0.22053982216E+04  0.22053982216E+04  0.25500000920E-02 0.  1.
    10030    2    1    2    0    0  0.00000000000E+00  0.00000000000E+00 -0.14386398391E+04  0.29721566040E+04  0.26007749407E+04 0.  0.
        1    1    3    3  502    0 -0.53063017115E+03 -0.99824197730E+03 -0.14536964386E+04  0.18415452097E+04  0.50400001928E-02 0.  1.
       -1    1    3    3    0  502  0.53063017115E+03  0.99824197730E+03  0.15056599425E+02  0.11306113943E+04  0.50400001928E-02 0. -1.
</event>
<event>
 5   0  0.1122628E-06  0.2599087E+04  0.7818609E-02  0.8368511E-01
        1   -1    0    0  501    0  0.00000000000E+00  0.00000000000E+00  0.12036176779E+04  0.12036176779E+04  0.50400001928E-02 0. -1.
       -1   -1    0    0    0  501  0.00000000000E+00  0.00000000000E+00 -0.14031143501E+04  0.14031143501E+04  0.50400001928E-02 0.  1.
    10030    2    1    2    0    0  0.00000000000E+00  0.00000000000E+00 -0.19949667218E+03  0.26067320280E+04  0.25990869442E+04 0.  0.
        2    1    3    3  502    0 -0.12476103563E+03 -0.15686616476E+03 -0.13875192705E+04  0.14019208379E+04  0.25500000920E-02 0.  1.
       -2    1    3    3    0  502  0.12476103563E+03  0.15686616476E+03  0.11880225983E+04  0.12048111901E+04  0.25500000920E-02 0. -1.
</event>
<event>
 5   0  0.1100104E-06  0.2599647E+04  0.7818609E-02  0.8368321E-01
        1   -1    0    0  501    0  0.00000000000E+00  0.00000000000E+00  0.16595172038E+04  0.16595172038E+04  0.50400001928E-02 0.  1.
       -1   -1    0    0    0  501  0.00000000000E+00  0.00000000000E+00 -0.10180922371E+04  0.10180922371E+04  0.50400001928E-02 0. -1.
    10030    2    1    2    0    0  0.00000000000E+00  0.00000000000E+00  0.64142496672E+03  0.26776094409E+04  0.25996473473E+04 0.  0.
        4    1    3    3  502    0  0.37436643771E+03 -0.10286395968E+04  0.10426537980E+04  0.15117467398E+04  0.12699999809E+01 0.  1.
       -4    1    3    3    0  502 -0.37436643771E+03  0.10286395968E+04 -0.40122883132E+03  0.11658627011E+04  0.12699999809E+01 0. -1.
</event>
<event>
 5   0  0.2820028E-06  0.2597529E+04  0.7818609E-02  0.8369041E-01
       -2   -1    0    0    0  501  0.00000000000E+00  0.00000000000E+00  0.16246635545E+04  0.16246635545E+04  0.25500000920E-02 0. -1.
        2   -1    0    0  501    0  0.00000000000E+00  0.00000000000E+00 -0.10382390379E+04  0.10382390379E+04  0.25500000920E-02 0.  1.
    10030    2    1    2    0    0  0.00000000000E+00  0.00000000000E+00  0.58642451661E+03  0.26629025924E+04  0.25975289225E+04 0.  0.
        3    1    3    3  502    0 -0.10863432950E+04  0.19239021990E+02  0.10226514310E+04  0.14920884203E+04  0.10100000352E+00 0. -1.
       -3    1    3    3    0  502  0.10863432950E+04 -0.19239021990E+02 -0.43622691436E+03  0.11708141721E+04  0.10100000352E+00 0.  1.
</event>
<event>
 5   0  0.1055179E-06  0.2604789E+04  0.7818609E-02  0.8366576E-01
       -1   -1    0    0    0  501  0.00000000000E+00  0.00000000000E+00  0.11044349761E+04  0.11044349761E+04  0.50400001928E-02 0.  1.
        1   -1    0    0  501    0  0.00000000000E+00  0.00000000000E+00 -0.15358369817E+04  0.15358369817E+04  0.50400001928E-02 0. -1.
    10030    2    1    2    0    0  0.00000000000E+00  0.00000000000E+00 -0.43140200562E+03  0.26402719578E+04  0.26047894964E+04 0.  0.
        3    1    3    3  502    0  0.42928488169E+02 -0.22785653330E+03 -0.15147479164E+04  0.15323911757E+04  0.10100000352E+00 0. -1.
       -3    1    3    3    0  502 -0.42928488169E+02  0.22785653330E+03  0.10833459108E+04  0.11078807822E+04  0.10100000352E+00 0.  1.
</event>
<event>
 5   0  0.2746631E-06  0.2592860E+04  0.7818609E-02  0.8370630E-01
       -2   -1    0    0    0  501  0.00000000000E+00  0.00000000000E+00  0.89955512423E+03  0.89955512424E+03  0.25500000920E-02 0.  1.
        2   -1    0    0  501    0  0.00000000000E+00  0.00000000000E+00 -0.18684028887E+04  0.18684028887E+04  0.25500000920E-02 0. -1.
    10030    2    1    2    0    0  0.00000000000E+00  0.00000000000E+00 -0.96884776450E+03  0.27679580130E+04  0.25928604997E+04 0.  0.
        2    1    3    3  502    0  0.82604786271E+03 -0.73939334786E+03 -0.12018757910E+04  0.16351033641E+04  0.25500000920E-02 0. -1.
       -2    1    3    3    0  502 -0.82604786271E+03  0.73939334786E+03  0.23302802647E+03  0.11328546489E+04  0.25500000920E-02 0.  1.
</event>
<event>
 5   0  0.2820028E-06  0.2600974E+04  0.7818609E-02  0.8367870E-01
        2   -1    0    0  501    0  0.00000000000E+00  0.00000000000E+00  0.11559300966E+04  0.11559300966E+04  0.25500000920E-02 0. -1.
       -2   -1    0    0    0  501  0.00000000000E+00  0.00000000000E+00 -0.14631216014E+04  0.14631216014E+04  0.25500000920E-02 0.  1.
    10030    2    1    2    0    0  0.00000000000E+00  0.00000000000E+00 -0.30719150477E+03  0.26190516980E+04  0.26009738900E+04 0.  0.
        3    1    3    3  502    0 -0.36503371070E+02 -0.74786253034E+03 -0.12242996229E+04  0.14351099043E+04  0.10100000352E+00 0.  1.
       -3    1    3    3    0  502  0.36503371070E+02  0.74786253034E+03  0.91710811816E+03  0.11839417938E+04  0.10100000352E+00 0. -1.
</event>
<event>
 5   0  0.2746631E-06  0.2599407E+04  0.7818609E-02  0.8368403E-01
        2   -1    0    0  501    0  0.00000000000E+00  0.00000000000E+00  0.12101336296E+04  0.12101336296E+04  0.25500000920E-02 0.  1.
       -2   -1    0    0    0  501  0.00000000000E+00  0.00000000000E+00 -0.13959033237E+04  0.13959033237E+04  0.25500000920E-02 0. -1.
    10030    2    1    2    0    0  0.00000000000E+00  0.00000000000E+00 -0.18576969409E+03  0.26060369533E+04  0.25994072830E+04 0.  0.
        2    1    3    3  502    0 -0.10211776312E+04 -0.15298113335E+03  0.69844606245E+03  0.12466089538E+04  0.25500000920E-02 0.  1.
       -2    1    3    3    0  502  0.10211776312E+04  0.15298113335E+03 -0.88421575654E+03  0.13594279995E+04  0.25500000920E-02 0. -1.
</event>
<event>
 5   0  0.2746631E-06  0.2598354E+04  0.7818609E-02  0.8368760E-01
       -2   -1    0    0    0  501  0.00000000000E+00  0.00000000000E+00  0.12071836132E+04  0.12071836132E+04  0.25500000920E-02 0.  1.
        2   -1    0    0  501    0  0.00000000000E+00  0.00000000000E+00 -0.13981811683E+04  0.13981811683E+04  0.25500000920E-02 0. -1.
    10030    2    1    2    0    0  0.00000000000E+00  0.00000000000E+00 -0.19099755514E+03  0.26053647815E+04  0.25983543982E+04 0.  0.
        2    1    3    3  502    0  0.18401741788E+03  0.64950830653E+03  0.10175131503E+04  0.12210882283E+04  0.25500000920E-02 0.  1.
       -2    1    3    3    0  502 -0.18401741788E+03 -0.64950830653E+03 -0.12085107055E+04  0.13842765531E+04  0.25500000920E-02 0. -1.
</event>
<event>
 5   0  0.1088757E-06  0.2600465E+04  0.7818609E-02  0.8368043E-01
       -1   -1    0    0    0  501  0.00000000000E+00  0.00000000000E+00  0.80648686842E+03  0.80648686843E+03  0.50400001928E-02 0. -1.
        1   -1    0    0  501    0  0.00000000000E+00  0.00000000000E+00 -0.20962579502E+04  0.20962579503E+04  0.50400001928E-02 0.  1.
    10030    2    1    2    0    0  0.00000000000E+00  0.00000000000E+00 -0.12897710818E+04  0.29027448187E+04  0.26004649659E+04 0.  0.
        5    1    3    3  502    0 -0.92233285660E+03  0.13316810745E+01  0.37809454985E+03  0.99683361218E+03  0.46999998093E+01 0. -1.
       -5    1    3    3    0  502  0.92233285660E+03 -0.13316810745E+01 -0.16678656317E+04  0.19059112065E+04  0.46999998093E+01 0.  1.
</event>
<event>
 5   0  0.1100104E-06  0.2593557E+04  0.7818609E-02  0.8370393E-01
        1   -1    0    0  501    0  0.00000000000E+00  0.00000000000E+00  0.10959967250E+04  0.10959967251E+04  0.50400001928E-02 0. -1.
       -1   -1    0    0    0  501  0.00000000000E+00  0.00000000000E+00 -0.15343427864E+04  0.15343427864E+04  0.50400001928E-02 0.  1.
    10030    2    1    2    0    0  0.00000000000E+00  0.00000000000E+00 -0.43834606140E+03  0.26303395115E+04  0.25935571473E+04 0.  0.
        4    1    3    3  502    0  0.24725903773E+02 -0.10835215118E+04  0.50296659095E+03  0.11948251928E+04  0.12699999809E+01 0. -1.
       -4    1    3    3    0  502 -0.24725903773E+02  0.10835215118E+04 -0.94131265235E+03  0.14355143187E+04  0.12699999809E+01 0.  1.
</event>
<event>
 5   0  0.2746631E-06  0.2602272E+04  0.7818609E-02  0.8367430E-01
       -2   -1    0    0    0  501  0.00000000000E+00  0.00000000000E+00  0.12227137517E+04  0.12227137517E+04  0.25500000920E-02 0. -1.
        2   -1    0    0  501    0  0.00000000000E+00  0.00000000000E+00 -0.13845876205E+04  0.13845876205E+04  0.25500000920E-02 0.  1.
    10030    2    1    2    0    0  0.00000000000E+00  0.00000000000E+00 -0.16187386883E+03  0.26073013722E+04  0.26022715646E+04 0.  0.
        2    1    3    3  502    0 -0.44561157192E+03  0.11573645340E+04  0.31338695775E+03  0.12791691533E+04  0.25500000920E-02 0. -1.
       -2    1    3    3    0  502  0.44561157192E+03 -0.11573645340E+04 -0.47526082658E+03  0.13281322189E+04  0.25500000920E-02 0.  1.
</event>
<event>
 5   0  0.2746631E-06  0.2599136E+04  0.7818609E-02  0.8368495E-01
       -2   -1    0    0    0  501  0.00000000000E+00  0.00000000000E+00  0.77101329776E+03  0.77101329777E+03  0.25500000920E-02 0.  1.
        2   -1    0    0  501    0  0.00000000000E+00  0.00000000000E+00 -0.21904641624E+04  0.21904641624E+04  0.25500000920E-02 0. -1.
    10030    2    1    2    0    0  0.00000000000E+00  0.00000000000E+00 -0.14194508646E+04  0.29614774601E+04  0.25991360083E+04 0.  0.
        2    1    3    3  502    0  0.11426674356E+04  0.36926471144E+03 -0.12758081478E+04  0.17520649889E+04  0.25500000920E-02 0. -1.
       -2    1    3    3    0  502 -0.11426674356E+04 -0.36926471144E+03 -0.14364271681E+03  0.12094124712E+04  0.25500000920E-02 0.  1.
</event>
<event>
 5   0  0.9197000E-07  0.2601772E+04  0.7818609E-02  0.8367600E-01
       -3   -1    0    0    0  501  0.00000000000E+00  0.00000000000E+00  0.17808660128E+04  0.17808660156E+04  0.10100000352E+00 0. -1.
        3   -1    0    0  501    0  0.00000000000E+00  0.00000000000E+00 -0.95027048587E+03  0.95027049124E+03  0.10100000352E+00 0.  1.
    10030    2    1    2    0    0  0.00000000000E+00  0.00000000000E+00  0.83059552690E+03  0.27311365069E+04  0.26017720288E+04 0.  0.
        1    1    3    3  502    0  0.52738119135E+02 -0.66630281423E+03  0.15868377972E+04  0.17218579918E+04  0.50400001928E-02 0. -1.
       -1    1    3    3    0  502 -0.52738119135E+02  0.66630281423E+03 -0.75624227030E+03  0.10092785150E+04  0.50400001928E-02 0.  1.
</event>
<event>
 5   0  0.2820028E-06  0.2597555E+04  0.7818609E-02  0.8369032E-01
       -2   -1    0    0    0  501  0.00000000000E+00  0.00000000000E+00  0.96444307567E+03  0.96444307567E+03  0.25500000920E-02 0. -1.
        2   -1    0    0  501    0  0.00000000000E+00  0.00000000000E+00 -0.17490127351E+04  0.17490127351E+04  0.25500000920E-02 0.  1.
    10030    2    1    2    0    0  0.00000000000E+00  0.00000000000E+00 -0.78456965944E+03  0.27134558108E+04  0.25975551749E+04 0.  0.
        3    1    3    3  502    0 -0.29046667743E+03 -0.10060372519E+04  0.41033443768E+03  0.11246582609E+04  0.10100000352E+00 0. -1.
       -3    1    3    3    0  502  0.29046667743E+03  0.10060372519E+04 -0.11949040971E+04  0.15887975499E+04  0.10100000352E+00 0.  1.
</event>
<event>
 5   0  0.1122628E-06  0.2600404E+04  0.7818609E-02  0.8368064E-01
       -1   -1    0    0    0  501  0.00000000000E+00  0.00000000000E+00  0.12566768358E+04  0.12566768358E+04  0.50400001928E-02 0. -1.
        1   -1    0    0  501    0  0.00000000000E+00  0.00000000000E+00 -0.13452349399E+04  0.13452349399E+04  0.50400001928E-02 0.  1.
    10030    2    1    2    0    0  0.00000000000E+00  0.00000000000E+00 -0.88558104078E+02  0.26019117757E+04  0.26004042668E+04 0.  0.
        2    1    3    3  502    0 -0.18669109306E+03  0.11199196008E+04  0.58969074731E+03  0.12793782294E+04  0.25500000920E-02 0. -1.
       -2    1    3    3    0  502  0.18669109306E+03 -0.11199196008E+04 -0.67824885139E+03  0.13225335462E+04  0.25500000920E-02 0.  1.
</event>
<event>
 5   0  0.1032076E-06  0.2597043E+04  0.7818609E-02  0.8369206E-01
        1   -1    0    0  501    0  0.00000000000E+00  0.00000000000E+00  0.15239377130E+04  0.15239377130E+04  0.50400001928E-02 0. -1.
       -1   -1    0    0    0  501  0.00000000000E+00  0.00000000000E+00 -0.11064480208E+04  0.11064480208E+04  0.50400001928E-02 0.  1.
    10030    2    1    2    0    0  0.00000000000E+00  0.00000000000E+00  0.41748969222E+03  0.26303857338E+04  0.25970428309E+04 0.  0.
        1    1    3    3  502    0 -0.33499024208E+02  0.80706013012E+03  0.12385033986E+04  0.14786341354E+04  0.50400001928E-02 0. -1.
       -1    1    3    3    0  502  0.33499024208E+02 -0.80706013012E+03 -0.82101370633E+03  0.11517515983E+04  0.50400001928E-02 0.  1.
</event>
<event>
 5   0  0.2746631E-06  0.2599837E+04  0.7818609E-02  0.8368256E-01
       -2   -1    0    0    0  501  0.00000000000E+00  0.00000000000E+00  0.93247359611E+03  0.93247359611E+03  0.25500000920E-02 0. -1.
        2   -1    0    0  501    0  0.00000000000E+00  0.00000000000E+00 -0.18121568767E+04  0.18121568767E+04  0.25500000920E-02 0.  1.
    10030    2    1    2    0    0  0.00000000000E+00  0.00000000000E+00 -0.87968328058E+03  0.27446304728E+04  0.25998372561E+04 0.  0.
        2    1    3    3  502    0 -0.11727410796E+04 -0.41974010412E+03 -0.47264212408E+02  0.12464899921E+04  0.25500000920E-02 0. -1.
       -2    1    3    3    0  502  0.11727410796E+04  0.41974010412E+03 -0.83241906817E+03  0.14981404807E+04  0.25500000920E-02 0.  1.
</event>
<event>
 5   0  0.2623368E-06  0.2605110E+04  0.7818609E-02  0.8366467E-01
       -2   -1    0    0    0  501  0.00000000000E+00  0.00000000000E+00  0.88797912341E+03  0.88797912341E+03  0.25500000920E-02 0.  1.
        2   -1    0    0  501    0  0.00000000000E+00  0.00000000000E+00 -0.19106866478E+04  0.19106866479E+04  0.25500000920E-02 0. -1.
    10030    2    1    2    0    0  0.00000000000E+00  0.00000000000E+00 -0.10227075244E+04  0.27986657713E+04  0.26051102508E+04 0.  0.
        5    1    3    3  502    0 -0.20579155023E+03  0.12693219669E+04 -0.73438221595E+03  0.14808334636E+04  0.46999998093E+01 0. -1.
       -5    1    3    3    0  502  0.20579155023E+03 -0.12693219669E+04 -0.28832530849E+03  0.13178323077E+04  0.46999998093E+01 0.  1.
</event>
<event>
 5   0  0.9197000E-07  0.2579039E+04  0.7818609E-02  0.8375356E-01
       -4   -1    0    0    0  501  0.00000000000E+00  0.00000000000E+00  0.10503762400E+04  0.10503770077E+04  0.12699999809E+01 0.  1.
        4   -1    0    0  501    0  0.00000000000E+00  0.00000000000E+00 -0.15831074827E+04  0.15831079921E+04  0.12699999809E+01 0. -1.
    10030    2    1    2    0    0  0.00000000000E+00  0.00000000000E+00 -0.53273124278E+03  0.26334849999E+04  0.25790387100E+04 0.  0.
        5    1    3    3  502    0 -0.39435727628E+03 -0.10721170977E+04 -0.87723020326E+03  0.14403151225E+04  0.46999998093E+01 0. -1.
       -5    1    3    3    0  502  0.39435727628E+03  0.10721170977E+04  0.34449896048E+03  0.11931698774E+04  0.46999998093E+01 0.  1.
</event>
<event>
 5   0  0.1088757E-06  0.2610693E+04  0.7818609E-02  0.8364578E-01
        1   -1    0    0  501    0  0.00000000000E+00  0.00000000000E+00  0.20573722838E+04  0.20573722838E+04  0.50400001928E-02 0. -1.
       -1   -1    0    0    0  501  0.00000000000E+00  0.00000000000E+00 -0.82820660221E+03  0.82820660223E+03  0.50400001928E-02 0.  1.
    10030    2    1    2    0    0  0.00000000000E+00  0.00000000000E+00  0.12291656816E+04  0.28855788861E+04  0.26106928649E+04 0.  0.
        5    1    3    3  502    0  0.58457825732E+03 -0.54186453354E+03 -0.52796996664E+03  0.95609794860E+03  0.46999998093E+01 0.  1.
       -5    1    3    3    0  502 -0.58457825732E+03  0.54186453354E+03  0.17571356483E+04  0.19294809375E+04  0.46999998093E+01 0. -1.
</event>
<event>
 5   0  0.2705807E-06  0.2588820E+04  0.7818609E-02  0.8372009E-01
       -2   -1    0    0    0  501  0.00000000000E+00  0.00000000000E+00  0.14952799282E+04  0.14952799282E+04  0.25500000920E-02 0.  1.
        2   -1    0    0  501    0  0.00000000000E+00  0.00000000000E+00 -0.11205240772E+04  0.11205240773E+04  0.25500000920E-02 0. -1.
    10030    2    1    2    0    0  0.00000000000E+00  0.00000000000E+00  0.37475585095E+03  0.26158040055E+04  0.25888199333E+04 0.  0.
        4    1    3    3  502    0 -0.66735166783E+03  0.36395935216E+03  0.12459963056E+04  0.14595660536E+04  0.12699999809E+01 0.  1.
       -4    1    3    3    0  502  0.66735166783E+03 -0.36395935216E+03 -0.87124045460E+03  0.11562379518E+04  0.12699999809E+01 0. -1.
</event>
<event>
 5   0  0.1055179E-06  0.2598295E+04  0.7818609E-02  0.8368781E-01
       -1   -1    0    0    0  501  0.00000000000E+00  0.00000000000E+00  0.15543954660E+04  0.15543954660E+04  0.50400001928E-02 0.  1.
        1   -1    0    0  501    0  0.00000000000E+00  0.00000000000E+00 -0.10858137082E+04  0.10858137082E+04  0.50400001928E-02 0. -1.
    10030    2    1    2    0    0  0.00000000000E+00  0.00000000000E+00  0.46858175785E+03  0.26402091742E+04  0.25982947523E+04 0.  0.
        3    1    3    3  502    0  0.10452435739E+04 -0.41415169750E+02  0.10171307231E+04  0.14590422417E+04  0.10100000352E+00 0.  1.
       -3    1    3    3    0  502 -0.10452435739E+04  0.41415169750E+02 -0.54854896524E+03  0.11811669325E+04  0.10100000352E+00 0. -1.
</event>
<event>
 5   0  0.1122628E-06  0.2603967E+04  0.7818609E-02  0.8366855E-01
        1   -1    0    0  501    0  0.00000000000E+00  0.00000000000E+00  0.12606336771E+04  0.12606336771E+04  0.50400001928E-02 0.  1.
       -1   -1    0    0    0  501  0.00000000000E+00  0.00000000000E+00 -0.13446891284E+04  0.13446891284E+04  0.50400001928E-02 0. -1.
    10030    2    1    2    0    0  0.00000000000E+00  0.00000000000E+00 -0.84055451267E+02  0.26053228056E+04  0.26039665133E+04 0.  0.
        2    1    3    3  502    0  0.32421251695E+03 -0.10518849385E+04  0.65373703929E+03  0.12802139651E+04  0.25500000920E-02 0.  1.
       -2    1    3    3    0  502 -0.32421251695E+03  0.10518849385E+04 -0.73779249056E+03  0.13251088405E+04  0.25500000920E-02 0. -1.
</event>
<event>
 5   0  0.2746631E-06  0.2607769E+04  0.7818609E-02  0.8365567E-01
        2   -1    0    0  501    0  0.00000000000E+00  0.00000000000E+00  0.11668723273E+04  0.11668723273E+04  0.25500000920E-02 0.  1.
       -2   -1    0    0    0  501  0.00000000000E+00  0.00000000000E+00 -0.14569847334E+04  0.14569847334E+04  0.25500000920E-02 0. -1.
    10030    2    1    2    0    0  0.00000000000E+00  0.00000000000E+00 -0.29011240605E+03  0.26238570607E+04  0.26077692894E+04 0.  0.
        2    1    3    3  502    0 -0.85660927992E+03  0.52375424593E+03 -0.98206389621E+03  0.14044740883E+04  0.25500000920E-02 0. -1.
       -2    1    3    3    0  502  0.85660927992E+03 -0.52375424593E+03  0.69195149016E+03  0.12193829724E+04  0.25500000920E-02 0.  1.
</event>
<event>
 5   0  0.2820028E-06  0.2601437E+04  0.7818609E-02  0.8367713E-01
        2   -1    0    0  501    0  0.00000000000E+00  0.00000000000E+00  0.13008121367E+04  0.13008121367E+04  0.25500000920E-02 0. -1.
       -2   -1    0    0    0  501  0.00000000000E+00  0.00000000000E+00 -0.13006244359E+04  0.13006244359E+04  0.25500000920E-02 0.  1.
    10030    2    1    2    0    0  0.00000000000E+00  0.00000000000E+00  0.18770083037E+00  0.26014365726E+04  0.26014365658E+04 0.  0.
        3    1    3    3  502    0  0.24242702916E+03 -0.39846899275E+03 -0.12141218003E+04  0.13006306773E+04  0.10100000352E+00 0.  1.
       -3    1    3    3    0  502 -0.24242702916E+03  0.39846899275E+03  0.12143095011E+04  0.13008058953E+04  0.10100000352E+00 0. -1.
</event>
<event>
 5   0  0.1100104E-06  0.2595752E+04  0.7818609E-02  0.8369646E-01
        1   -1    0    0  501    0  0.00000000000E+00  0.00000000000E+00  0.15054534881E+04  0.15054534881E+04  0.50400001928E-02 0. -1.
       -1   -1    0    0    0  501  0.00000000000E+00  0.00000000000E+00 -0.11189202483E+04  0.11189202483E+04  0.50400001928E-02 0.  1.
    10030    2    1    2    0    0  0.00000000000E+00  0.00000000000E+00  0.38653323982E+03  0.26243737365E+04  0.25957522153E+04 0.  0.
        4    1    3    3  502    0  0.63875824460E+03 -0.11279376705E+04  0.25898561807E+03  0.13218663498E+04  0.12699999809E+01 0. -1.
       -4    1    3    3    0  502 -0.63875824460E+03  0.11279376705E+04  0.12754762175E+03  0.13025073866E+04  0.12699999809E+01 0.  1.
</event>
<event>
 5   0  0.2820028E-06  0.2597467E+04  0.7818609E-02  0.8369062E-01
       -2   -1    0    0    0  501  0.00000000000E+00  0.00000000000E+00  0.10005450467E+04  0.10005450467E+04  0.25500000920E-02 0.  1.
        2   -1    0    0  501    0  0.00000000000E+00  0.00000000000E+00 -0.16857896720E+04  0.16857896720E+04  0.25500000920E-02 0. -1.
    10030    2    1    2    0    0  0.00000000000E+00  0.00000000000E+00 -0.68524462521E+03  0.26863347187E+04  0.25974668476E+04 0.  0.
        3    1    3    3  502    0  0.46871177771E+03  0.10143804291E+04  0.34187541212E+03  0.11685620194E+04  0.10100000352E+00 0.  1.
       -3    1    3    3    0  502 -0.46871177771E+03 -0.10143804291E+04 -0.10271200373E+04  0.15177726993E+04  0.10100000352E+00 0. -1.
</event>
<event>
 5   0  0.1055179E-06  0.2601295E+04  0.7818609E-02  0.8367761E-01
       -1   -1    0    0    0  501  0.00000000000E+00  0.00000000000E+00  0.11075605506E+04  0.11075605506E+04  0.50400001928E-02 0.  1.
        1   -1    0    0  501    0  0.00000000000E+00  0.00000000000E+00 -0.15273962628E+04  0.15273962628E+04  0.50400001928E-02 0. -1.
    10030    2    1    2    0    0  0.00000000000E+00  0.00000000000E+00 -0.41983571227E+03  0.26349568134E+04  0.26012949436E+04 0.  0.
        3    1    3    3  502    0  0.97390334194E+02  0.93246439300E+03 -0.11230875083E+04  0.14629765148E+04  0.10100000352E+00 0. -1.
       -3    1    3    3    0  502 -0.97390334194E+02 -0.93246439300E+03  0.70325179606E+03  0.11719802986E+04  0.10100000352E+00 0.  1.
</event>
<event>
 5   0  0.2746631E-06  0.2599751E+04  0.7818609E-02  0.8368286E-01
        2   -1    0    0  501    0  0.00000000000E+00  0.00000000000E+00  0.18212807925E+04  0.18212807925E+04  0.25500000920E-02 0. -1.
       -2   -1    0    0    0  501  0.00000000000E+00  0.00000000000E+00 -0.92774068405E+03  0.92774068405E+03  0.25500000920E-02 0.  1.
    10030    2    1    2    0    0  0.00000000000E+00  0.00000000000E+00  0.89354010850E+03  0.27490214766E+04  0.25997509791E+04 0.  0.
        2    1    3    3  502    0  0.88429594399E+03 -0.94597248999E+03  0.32698274299E+03  0.13355751505E+04  0.25500000920E-02 0.  1.
       -2    1    3    3    0  502 -0.88429594399E+03  0.94597248999E+03  0.56655736552E+03  0.14134463261E+04  0.25500000920E-02 0. -1.
</event>
<event>
 5   0  0.2820028E-06  0.2601266E+04  0.7818609E-02  0.8367771E-01
        2   -1    0    0  501    0  0.00000000000E+00  0.00000000000E+00  0.18234889468E+04  0.18234889468E+04  0.25500000920E-02 0.  1.
       -2   -1    0    0    0  501  0.00000000000E+00  0.00000000000E+00 -0.92769731975E+03  0.92769731975E+03  0.25500000920E-02 0. -1.
    10030    2    1    2    0    0  0.00000000000E+00  0.00000000000E+00  0.89579162701E+03  0.27511862665E+04  0.26012656985E+04 0.  0.
        3    1    3    3  502    0 -0.49990979827E+03  0.84333768499E+03  0.13518587099E+04  0.16699252196E+04  0.10100000352E+00 0.  1.
       -3    1    3    3    0  502  0.49990979827E+03 -0.84333768499E+03 -0.45606708287E+03  0.10812610469E+04  0.10100000352E+00 0. -1.
</event>
<event>
 5   0  0.2586775E-06  0.2600146E+04  0.7818609E-02  0.8368152E-01
        2   -1    0    0  501    0  0.00000000000E+00  0.00000000000E+00  0.15755844399E+04  0.15755844399E+04  0.25500000920E-02 0.  1.
       -2   -1    0    0    0  501  0.00000000000E+00  0.00000000000E+00 -0.10727382143E+04  0.10727382143E+04  0.25500000920E-02 0. -1.
    10030    2    1    2    0    0  0.00000000000E+00  0.00000000000E+00  0.50284622560E+03  0.26483226542E+04  0.26001458717E+04 0.  0.
        1    1    3    3  502    0 -0.64293795723E+03 -0.47996895716E+03  0.12933385426E+04  0.15219934305E+04  0.50400001928E-02 0.  1.
       -1    1    3    3    0  502  0.64293795723E+03  0.47996895716E+03 -0.79049231704E+03  0.11263292236E+04  0.50400001928E-02 0. -1.
</event>
<event>
 5   0  0.1032076E-06  0.2600823E+04  0.7818609E-02  0.8367922E-01
        1   -1    0    0  501    0  0.00000000000E+00  0.00000000000E+00  0.14575391922E+04  0.14575391922E+04  0.50400001928E-02 0. -1.
       -1   -1    0    0    0  501  0.00000000000E+00  0.00000000000E+00 -0.11602229660E+04  0.11602229660E+04  0.50400001928E-02 0.  1.
    10030    2    1    2    0    0  0.00000000000E+00  0.00000000000E+00  0.29731622621E+03  0.26177621582E+04  0.26008232886E+04 0.  0.
        1    1    3    3  502    0 -0.67168902448E+03  0.70042877663E+03  0.10199191961E+04  0.14078358510E+04  0.50400001928E-02 0. -1.
       -1    1    3    3    0  502  0.67168902448E+03 -0.70042877663E+03 -0.72260296987E+03  0.12099263072E+04  0.50400001928E-02 0.  1.
</event>
<event>
 5   0  0.2820028E-06  0.2599533E+04  0.7818609E-02  0.8368360E-01
       -2   -1    0    0    0  501  0.00000000000E+00  0.00000000000E+00  0.10052350143E+04  0.10052350143E+04  0.25500000920E-02 0. -1.
        2   -1    0    0  501    0  0.00000000000E+00  0.00000000000E+00 -0.16805946455E+04  0.16805946455E+04  0.25500000920E-02 0.  1.
    10030    2    1    2    0    0  0.00000000000E+00  0.00000000000E+00 -0.67535963126E+03  0.26858296598E+04  0.25995327138E+04 0.  0.
        3    1    3    3  502    0 -0.11887582493E+03  0.92271896411E+03  0.60011422464E+03  0.11071038078E+04  0.10100000352E+00 0. -1.
       -3    1    3    3    0  502  0.11887582493E+03 -0.92271896411E+03 -0.12754738559E+04  0.15787258520E+04  0.10100000352E+00 0.  1.
</event>
<event>
 5   0  0.1100104E-06  0.2598295E+04  0.7818609E-02  0.8368781E-01
        1   -1    0    0  501    0  0.00000000000E+00  0.00000000000E+00  0.11788895719E+04  0.11788895719E+04  0.50400001928E-02 0.  1.
       -1   -1    0    0    0  501  0.00000000000E+00  0.00000000000E+00 -0.14316726956E+04  0.14316726956E+04  0.50400001928E-02 0. -1.
    10030    2    1    2    0    0  0.00000000000E+00  0.00000000000E+00 -0.25278312363E+03  0.26105622675E+04  0.25982948341E+04 0.  0.
        4    1    3    3  502    0  0.35818487384E+01 -0.25657070467E+02 -0.14314125360E+04  0.14316475041E+04  0.12699999809E+01 0. -1.
       -4    1    3    3    0  502 -0.35818487384E+01  0.25657070467E+02  0.11786294123E+04  0.11789147634E+04  0.12699999809E+01 0.  1.
</event>
<event>
 5   0  0.2623368E-06  0.2582807E+04  0.7818609E-02  0.8374065E-01
        2   -1    0    0  501    0  0.00000000000E+00  0.00000000000E+00  0.17239224090E+04  0.17239224090E+04  0.25500000920E-02 0.  1.
       -2   -1    0    0    0  501  0.00000000000E+00  0.00000000000E+00 -0.96740026735E+03  0.96740026736E+03  0.25500000920E-02 0. -1.
    10030    2    1    2    0    0  0.00000000000E+00  0.00000000000E+00  0.75652214162E+03  0.26913226763E+04  0.25828069996E+04 0.  0.
        5    1    3    3  502    0 -0.70501203002E+03 -0.10771385474E+04  0.48468692100E+03  0.13755773021E+04  0.46999998093E+01 0.  1.
       -5    1    3    3    0  502  0.70501203002E+03  0.10771385474E+04  0.27183522063E+03  0.13157453742E+04  0.46999998093E+01 0. -1.
</event>
<event>
 5   0  0.1100104E-06  0.2596675E+04  0.7818609E-02  0.8369331E-01
        1   -1    0    0  501    0  0.00000000000E+00  0.00000000000E+00  0.20267856589E+04  0.20267856589E+04  0.50400001928E-02 0. -1.
       -1   -1    0    0    0  501  0.00000000000E+00  0.00000000000E+00 -0.83170140812E+03  0.83170140813E+03  0.50400001928E-02 0.  1.
    10030    2    1    2    0    0  0.00000000000E+00  0.00000000000E+00  0.11950842508E+04  0.28584870671E+04  0.25966751714E+04 0.  0.
        4    1    3    3  502    0  0.38795150208E+02  0.83599721647E+03 -0.49515294273E+03  0.97240652982E+03  0.12699999809E+01 0.  1.
       -4    1    3    3    0  502 -0.38795150208E+02 -0.83599721647E+03  0.16902371935E+04  0.18860805372E+04  0.12699999809E+01 0. -1.
</event>
<event>
 5   0  0.1055179E-06  0.2604799E+04  0.7818609E-02  0.8366573E-01
        1   -1    0    0  501    0  0.00000000000E+00  0.00000000000E+00  0.18342587611E+04  0.18342587611E+04  0.50400001928E-02 0.  1.
       -1   -1    0    0    0  501  0.00000000000E+00  0.00000000000E+00 -0.92475734336E+03  0.92475734337E+03  0.50400001928E-02 0. -1.
    10030    2    1    2    0    0  0.00000000000E+00  0.00000000000E+00  0.90950141770E+03  0.27590161044E+04  0.26047988475E+04 0.  0.
        3    1    3    3  502    0  0.14541555028E+03  0.11357782000E+04  0.11120610107E+04  0.15961884299E+04  0.10100000352E+00 0. -1.
       -3    1    3    3    0  502 -0.14541555028E+03 -0.11357782000E+04 -0.20255959304E+03  0.11628276746E+04  0.10100000352E+00 0.  1.
</event>
<event>
 5   0  0.2586775E-06  0.2601524E+04  0.7818609E-02  0.8367684E-01
        2   -1    0    0  501    0  0.00000000000E+00  0.00000000000E+00  0.21454381492E+04  0.21454381492E+04  0.25500000920E-02 0.  1.
       -2   -1    0    0    0  501  0.00000000000E+00  0.00000000000E+00 -0.78864175620E+03  0.78864175620E+03  0.25500000920E-02 0. -1.
    10030    2    1    2    0    0  0.00000000000E+00  0.00000000000E+00  0.13567963930E+04  0.29340799054E+04  0.26015242530E+04 0.  0.
        1    1    3    3  502    0 -0.16967596409E+03  0.41259731988E+03  0.20564562334E+04  0.21042905505E+04  0.50400001928E-02 0.  1.
       -1    1    3    3    0  502  0.16967596409E+03 -0.41259731988E+03 -0.69965984040E+03  0.82978935487E+03  0.50400001928E-02 0. -1.
</event>
<event>
 5   0  0.2705807E-06  0.2593069E+04  0.7818609E-02  0.8370559E-01
       -2   -1    0    0    0  501  0.00000000000E+00  0.00000000000E+00  0.11431738827E+04  0.11431738827E+04  0.25500000920E-02 0. -1.
        2   -1    0    0  501    0  0.00000000000E+00  0.00000000000E+00 -0.14704694634E+04  0.14704694634E+04  0.25500000920E-02 0.  1.
    10030    2    1    2    0    0  0.00000000000E+00  0.00000000000E+00 -0.32729558069E+03  0.26136433461E+04  0.25930694444E+04 0.  0.
        4    1    3    3  502    0 -0.69586663803E+03 -0.10117258629E+04 -0.58309990671E+03  0.13593479002E+04  0.12699999809E+01 0.  1.
       -4    1    3    3    0  502  0.69586663803E+03  0.10117258629E+04  0.25580432602E+03  0.12542954460E+04  0.12699999809E+01 0. -1.
</event>
<event>
 5   0  0.2820028E-06  0.2606949E+04  0.7818609E-02  0.8365844E-01
        2   -1    0    0  501    0  0.00000000000E+00  0.00000000000E+00  0.14334002186E+04  0.14334002186E+04  0.25500000920E-02 0. -1.
       -2   -1    0    0    0  501  0.00000000000E+00  0.00000000000E+00 -0.11853258714E+04  0.11853258714E+04  0.25500000920E-02 0.  1.
    10030    2    1    2    0    0  0.00000000000E+00  0.00000000000E+00  0.24807434724E+03  0.26187260900E+04  0.26069494535E+04 0.  0.
        3    1    3    3  502    0  0.43614483539E+03  0.89179659011E+03 -0.72448152179E+03  0.12289820833E+04  0.10100000352E+00 0.  1.
       -3    1    3    3    0  502 -0.43614483539E+03 -0.89179659011E+03  0.97255586902E+03  0.13897440067E+04  0.10100000352E+00 0. -1.
</event>
<event>
 5   0  0.1100104E-06  0.2597748E+04  0.7818609E-02  0.8368967E-01
        1   -1    0    0  501    0  0.00000000000E+00  0.00000000000E+00  0.21291508721E+04  0.21291508721E+04  0.50400001928E-02 0. -1.
       -1   -1    0    0    0  501  0.00000000000E+00  0.00000000000E+00 -0.79236933117E+03  0.79236933118E+03  0.50400001928E-02 0.  1.
    10030    2    1    2    0    0  0.00000000000E+00  0.00000000000E+00  0.13367815409E+04  0.29215202033E+04  0.25977481421E+04 0.  0.
        4    1    3    3  502    0  0.50086192411E+03 -0.97996778015E+03  0.14442041350E+04  0.18157441212E+04  0.12699999809E+01 0. -1.
       -4    1    3    3    0  502 -0.50086192411E+03  0.97996778015E+03 -0.10742259406E+03  0.11057760821E+04  0.12699999809E+01 0.  1.
</event>
<event>
 5   0  0.1122628E-06  0.2595485E+04  0.7818609E-02  0.8369736E-01
       -1   -1    0    0    0  501  0.00000000000E+00  0.00000000000E+00  0.83675452447E+03  0.83675452449E+03  0.50400001928E-02 0. -1.
        1   -1    0    0  501    0  0.00000000000E+00  0.00000000000E+00 -0.20126997487E+04  0.20126997488E+04  0.50400001928E-02 0.  1.
    10030    2    1    2    0    0  0.00000000000E+00  0.00000000000E+00 -0.11759452243E+04  0.28494542732E+04  0.25954850192E+04 0.  0.
        2    1    3    3  502    0  0.87930287300E+03  0.77467420620E+03 -0.12000593644E+04  0.16773300648E+04  0.25500000920E-02 0.  1.
       -2    1    3    3    0  502 -0.87930287300E+03 -0.77467420620E+03  0.24114140138E+02  0.11721242084E+04  0.25500000920E-02 0. -1.
</event>
<event>
 5   0  0.2623368E-06  0.2602990E+04  0.7818609E-02  0.8367186E-01
        2   -1    0    0  501    0  0.00000000000E+00  0.00000000000E+00  0.14748853519E+04  0.14748853519E+04  0.25500000920E-02 0. -1.
       -2   -1    0    0    0  501  0.00000000000E+00  0.00000000000E+00 -0.11484883829E+04  0.11484883829E+04  0.25500000920E-02 0.  1.
    10030    2    1    2    0    0  0.00000000000E+00  0.00000000000E+00  0.32639696906E+03  0.26233737348E+04  0.26029895833E+04 0.  0.
        5    1    3    3  502    0 -0.15770087342E+03 -0.41767440023E+03  0.13952879751E+04  0.14649819431E+04  0.46999998093E+01 0. -1.
       -5    1    3    3    0  502  0.15770087342E+03  0.41767440023E+03 -0.10688910061E+04  0.11583917917E+04  0.46999998093E+01 0.  1.
</event>
<event>
 5   0  0.1032076E-06  0.2590902E+04  0.7818609E-02  0.8371298E-01
        1   -1    0    0  501    0  0.00000000000E+00  0.00000000000E+00  0.20026316028E+04  0.20026316028E+04  0.50400001928E-02 0. -1.
       -1   -1    0    0    0  501  0.00000000000E+00  0.00000000000E+00 -0.83799418354E+03  0.83799418355E+03  0.50400001928E-02 0.  1.
    10030    2    1    2    0    0  0.00000000000E+00  0.00000000000E+00  0.11646374193E+04  0.28406257864E+04  0.25909022637E+04 0.  0.
        1    1    3    3  502    0 -0.23183957663E+03  0.66342687912E+03  0.17754698944E+04  0.19094968340E+04  0.50400001928E-02 0. -1.
       -1    1    3    3    0  502  0.23183957663E+03 -0.66342687912E+03 -0.61083247512E+03  0.93112895235E+03  0.50400001928E-02 0.  1.
</event>
<event>
 5   0  0.2820028E-06  0.2599014E+04  0.7818609E-02  0.8368536E-01
        2   -1    0    0  501    0  0.00000000000E+00  0.00000000000E+00  0.14633299841E+04  0.14633299841E+04  0.25500000920E-02 0.  1.
       -2   -1    0    0    0  501  0.00000000000E+00  0.00000000000E+00 -0.11540245447E+04  0.11540245447E+04  0.25500000920E-02 0. -1.
    10030    2    1    2    0    0  0.00000000000E+00  0.00000000000E+00  0.30930543943E+03  0.26173545288E+04  0.25990142120E+04 0.  0.
        3    1    3    3  502    0 -0.25562058824E+03  0.37235021162E+03 -0.10724416239E+04  0.11636655929E+04  0.10100000352E+00 0. -1.
       -3    1    3    3    0  502  0.25562058824E+03 -0.37235021162E+03  0.13817470633E+04  0.14536889359E+04  0.10100000352E+00 0.  1.
</event>
<event>
 5   0  0.1122628E-06  0.2601622E+04  0.7818609E-02  0.8367650E-01
       -1   -1    0    0    0  501  0.00000000000E+00  0.00000000000E+00  0.10374034016E+04  0.10374034016E+04  0.50400001928E-02 0. -1.
        1   -1    0    0  501    0  0.00000000000E+00  0.00000000000E+00 -0.16311004169E+04  0.16311004169E+04  0.50400001928E-02 0.  1.
    10030    2    1    2    0    0  0.00000000000E+00  0.00000000000E+00 -0.59369701529E+03  0.26685038186E+04  0.26016218949E+04 0.  0.
        2    1    3    3  502    0 -0.23567437587E+03  0.81483166479E+03 -0.13084148475E+04  0.15593083295E+04  0.25500000920E-02 0.  1.
       -2    1    3    3    0  502  0.23567437587E+03 -0.81483166479E+03  0.71471783216E+03  0.11091954891E+04  0.25500000920E-02 0. -1.
</event>
<event>
 5   0  0.1100104E-06  0.2530992E+04  0.7818609E-02  0.8392027E-01
       -1   -1    0    0    0  501  0.00000000000E+00  0.00000000000E+00  0.81546909183E+03  0.81546909184E+03  0.50400001928E-02 0. -1.
        1   -1    0    0  501    0  0.00000000000E+00  0.00000000000E+00 -0.19638763763E+04  0.19638763763E+04  0.50400001928E-02 0.  1.
    10030    2    1    2    0    0  0.00000000000E+00  0.00000000000E+00 -0.11484072845E+04  0.27793454682E+04  0.25309922837E+04 0.  0.
        4    1    3    3  502    0 -0.99770461475E+03 -0.24377479507E+03  0.23769480187E+03  0.10542016319E+04  0.12699999809E+01 0. -1.
       -4    1    3    3    0  502  0.99770461475E+03  0.24377479507E+03 -0.13861020864E+04  0.17251438363E+04  0.12699999809E+01 0.  1.
</event>
<event>
 5   0  0.1088757E-06  0.2601592E+04  0.7818609E-02  0.8367660E-01
        1   -1    0    0  501    0  0.00000000000E+00  0.00000000000E+00  0.16836499109E+04  0.16836499109E+04  0.50400001928E-02 0. -1.
       -1   -1    0    0    0  501  0.00000000000E+00  0.00000000000E+00 -0.10050015805E+04  0.10050015805E+04  0.50400001928E-02 0.  1.
    10030    2    1    2    0    0  0.00000000000E+00  0.00000000000E+00  0.67864833039E+03  0.26886514915E+04  0.26015924520E+04 0.  0.
        5    1    3    3  502    0 -0.10080906186E+04 -0.25567870983E+03 -0.46812155447E+03  0.11405166276E+04  0.46999998093E+01 0.  1.
       -5    1    3    3    0  502  0.10080906186E+04  0.25567870983E+03  0.11467698849E+04  0.15481348639E+04  0.46999998093E+01 0. -1.
</event>
<event>
 5   0  0.2705807E-06  0.2603228E+04  0.7818609E-02  0.8367105E-01
        2   -1    0    0  501    0  0.00000000000E+00  0.00000000000E+00  0.22654472710E+04  0.22654472710E+04  0.25500000920E-02 0. -1.
       -2   -1    0    0    0  501  0.00000000000E+00  0.00000000000E+00 -0.74784319308E+03  0.74784319309E+03  0.25500000920E-02 0.  1.
    10030    2    1    2    0    0  0.00000000000E+00  0.00000000000E+00  0.15176040779E+04  0.30132904641E+04  0.26032282427E+04 0.  0.
        4    1    3    3  502    0  0.31745134278E+03 -0.11785139700E+04  0.23531701683E+03  0.12429988913E+04  0.12699999809E+01 0.  1.
       -4    1    3    3    0  502 -0.31745134278E+03  0.11785139700E+04  0.12822870611E+04  0.17702915727E+04  0.12699999809E+01 0. -1.
</event>
<event>
 5   0  0.1088757E-06  0.2596596E+04  0.7818609E-02  0.8369358E-01
       -1   -1    0    0    0  501  0.00000000000E+00  0.00000000000E+00  0.75235124000E+03  0.75235124002E+03  0.50400001928E-02 0.  1.
        1   -1    0    0  501    0  0.00000000000E+00  0.00000000000E+00 -0.22404137839E+04  0.22404137839E+04  0.50400001928E-02 0. -1.
    10030    2    1    2    0    0  0.00000000000E+00  0.00000000000E+00 -0.14880625438E+04  0.29927650239E+04  0.25965963016E+04 0.  0.
        5    1    3    3  502    0  0.10129261253E+04 -0.81052448923E+03 -0.80265082680E+03  0.15255293254E+04  0.46999998093E+01 0.  1.
       -5    1    3    3    0  502 -0.10129261253E+04  0.81052448923E+03 -0.68541171705E+03  0.14672356985E+04  0.46999998093E+01 0. -1.
</event>
<event>
 5   0  0.2746631E-06  0.2599995E+04  0.7818609E-02  0.8368203E-01
        2   -1    0    0  501    0  0.00000000000E+00  0.00000000000E+00  0.74241010755E+03  0.74241010755E+03  0.25500000920E-02 0.  1.
       -2   -1    0    0    0  501  0.00000000000E+00  0.00000000000E+00 -0.22763605941E+04  0.22763605941E+04  0.25500000920E-02 0. -1.
    10030    2    1    2    0    0  0.00000000000E+00  0.00000000000E+00 -0.15339504865E+04  0.30187707016E+04  0.25999947027E+04 0.  0.
        2    1    3    3  502    0 -0.49859886666E+03  0.36550807668E+03  0.56080953955E+03  0.83468815950E+03  0.25500000920E-02 0.  1.
       -2    1    3    3    0  502  0.49859886666E+03 -0.36550807668E+03 -0.20947600261E+04  0.21840825421E+04  0.25500000920E-02 0. -1.
</event>
<event>
 5   0  0.1100104E-06  0.2600518E+04  0.7818609E-02  0.8368025E-01
        1   -1    0    0  501    0  0.00000000000E+00  0.00000000000E+00  0.14651159132E+04  0.14651159132E+04  0.50400001928E-02 0.  1.
       -1   -1    0    0    0  501  0.00000000000E+00  0.00000000000E+00 -0.11539522106E+04  0.11539522106E+04  0.50400001928E-02 0. -1.
    10030    2    1    2    0    0  0.00000000000E+00  0.00000000000E+00  0.31116370260E+03  0.26190681238E+04  0.26005182151E+04 0.  0.
        4    1    3    3  502    0  0.76131910208E+03  0.57607074732E+03  0.10446059942E+04  0.14151563790E+04  0.12699999809E+01 0.  1.
       -4    1    3    3    0  502 -0.76131910208E+03 -0.57607074732E+03 -0.73344229160E+03  0.12039117447E+04  0.12699999809E+01 0. -1.
</event>
<event>
 5   0  0.1032076E-06  0.2607299E+04  0.7818609E-02  0.8365726E-01
        1   -1    0    0  501    0  0.00000000000E+00  0.00000000000E+00  0.94393347690E+03  0.94393347692E+03  0.50400001928E-02 0.  1.
       -1   -1    0    0    0  501  0.00000000000E+00  0.00000000000E+00 -0.18004462437E+04  0.18004462437E+04  0.50400001928E-02 0. -1.
    10030    2    1    2    0    0  0.00000000000E+00  0.00000000000E+00 -0.85651276675E+03  0.27443797206E+04  0.26072985888E+04 0.  0.
        1    1    3    3  502    0  0.33859204637E+03  0.52944093142E+03  0.77396283109E+03  0.99698081108E+03  0.50400001928E-02 0.  1.
       -1    1    3    3    0  502 -0.33859204637E+03 -0.52944093142E+03 -0.16304755978E+04  0.17473989095E+04  0.50400001928E-02 0. -1.
</event>
<event>
 5   0  0.2746631E-06  0.2608805E+04  0.7818609E-02  0.8365216E-01
       -2   -1    0    0    0  501  0.00000000000E+00  0.00000000000E+00  0.88475774700E+03  0.88475774700E+03  0.25500000920E-02 0.  1.
        2   -1    0    0  501    0  0.00000000000E+00  0.00000000000E+00 -0.19230871939E+04  0.19230871939E+04  0.25500000920E-02 0. -1.
    10030    2    1    2    0    0  0.00000000000E+00  0.00000000000E+00 -0.10383294469E+04  0.28078449409E+04  0.26088053151E+04 0.  0.
        2    1    3    3  502    0 -0.15286377808E+03  0.96551291295E+03  0.41037302218E+03  0.10601832564E+04  0.25500000920E-02 0.  1.
       -2    1    3    3    0  502  0.15286377808E+03 -0.96551291295E+03 -0.14487024691E+04  0.17476616846E+04  0.25500000920E-02 0. -1.
</event>
<event>
 5   0  0.2705807E-06  0.2597194E+04  0.7818609E-02  0.8369155E-01
        2   -1    0    0  501    0  0.00000000000E+00  0.00000000000E+00  0.14094149743E+04  0.14094149743E+04  0.25500000920E-02 0.  1.
       -2   -1    0    0    0  501  0.00000000000E+00  0.00000000000E+00 -0.11964919708E+04  0.11964919708E+04  0.25500000920E-02 0. -1.
    10030    2    1    2    0    0  0.00000000000E+00  0.00000000000E+00  0.21292300349E+03  0.26059069451E+04  0.25971936395E+04 0.  0.
        4    1    3    3  502    0 -0.59009595030E+03  0.80495873736E+03  0.94001954865E+03  0.13710616923E+04  0.12699999809E+01 0.  1.
       -4    1    3    3    0  502  0.59009595030E+03 -0.80495873736E+03 -0.72709654516E+03  0.12348452528E+04  0.12699999809E+01 0. -1.
</event>
<event>
 5   0  0.1122628E-06  0.2595866E+04  0.7818609E-02  0.8369607E-01
       -1   -1    0    0    0  501  0.00000000000E+00  0.00000000000E+00  0.11779557210E+04  0.11779557210E+04  0.50400001928E-02 0. -1.
        1   -1    0    0  501    0  0.00000000000E+00  0.00000000000E+00 -0.14301307504E+04  0.14301307504E+04  0.50400001928E-02 0.  1.
    10030    2    1    2    0    0  0.00000000000E+00  0.00000000000E+00 -0.25217502940E+03  0.26080864714E+04  0.25958664829E+04 0.  0.
        2    1    3    3  502    0 -0.11755475866E+03  0.10616052317E+04 -0.86699093040E+03  0.13756809451E+04  0.25500000920E-02 0.  1.
       -2    1    3    3    0  502  0.11755475866E+03 -0.10616052317E+04  0.61481590100E+03  0.12324055264E+04  0.25500000920E-02 0. -1.
</event>
<event>
 5   0  0.1032076E-06  0.2596814E+04  0.7818609E-02  0.8369284E-01
       -1   -1    0    0    0  501  0.00000000000E+00  0.00000000000E+00  0.19398495867E+04  0.19398495867E+04  0.50400001928E-02 0.  1.
        1   -1    0    0  501    0  0.00000000000E+00  0.00000000000E+00 -0.86906763232E+03  0.86906763234E+03  0.50400001928E-02 0. -1.
    10030    2    1    2    0    0  0.00000000000E+00  0.00000000000E+00  0.10707819544E+04  0.28089172190E+04  0.25968138073E+04 0.  0.
        1    1    3    3  502    0 -0.47030207128E+03  0.11095442290E+04  0.12605587140E+02  0.12051685920E+04  0.50400001928E-02 0. -1.
       -1    1    3    3    0  502  0.47030207128E+03 -0.11095442290E+04  0.10581763672E+04  0.16037486270E+04  0.50400001928E-02 0.  1.
</event>
<event>
 5   0  0.1100104E-06  0.2600483E+04  0.7818609E-02  0.8368037E-01
       -1   -1    0    0    0  501  0.00000000000E+00  0.00000000000E+00  0.95958613835E+03  0.95958613836E+03  0.50400001928E-02 0.  1.
        1   -1    0    0  501    0  0.00000000000E+00  0.00000000000E+00 -0.17618302072E+04  0.17618302073E+04  0.50400001928E-02 0. -1.
    10030    2    1    2    0    0  0.00000000000E+00  0.00000000000E+00 -0.80224406890E+03  0.27214163456E+04  0.26004829129E+04 0.  0.
        4    1    3    3  502    0  0.62910991863E+02  0.11416604427E+04  0.24676455605E+03  0.11697182218E+04  0.12699999809E+01 0.  1.
       -4    1    3    3    0  502 -0.62910991863E+02 -0.11416604427E+04 -0.10490086249E+04  0.15516981238E+04  0.12699999809E+01 0. -1.
</event>
<event>
 5   0  0.2705807E-06  0.2595838E+04  0.7818609E-02  0.8369616E-01
       -2   -1    0    0    0  501  0.00000000000E+00  0.00000000000E+00  0.76515667272E+03  0.76515667272E+03  0.25500000920E-02 0.  1.
        2   -1    0    0  501    0  0.00000000000E+00  0.00000000000E+00 -0.22016327663E+04  0.22016327663E+04  0.25500000920E-02 0. -1.
    10030    2    1    2    0    0  0.00000000000E+00  0.00000000000E+00 -0.14364760936E+04  0.29667894390E+04  0.25958382091E+04 0.  0.
        4    1    3    3  502    0 -0.39988823723E+03 -0.93878544393E+03  0.19848335952E+03  0.10395316103E+04  0.12699999809E+01 0.  1.
       -4    1    3    3    0  502  0.39988823723E+03  0.93878544393E+03 -0.16349594531E+04  0.19272578287E+04  0.12699999809E+01 0. -1.
</event>
<event>
 5   0  0.1055179E-06  0.2605459E+04  0.7818609E-02  0.8366349E-01
       -1   -1    0    0    0  501  0.00000000000E+00  0.00000000000E+00  0.13366146412E+04  0.13366146412E+04  0.50400001928E-02 0. -1.
        1   -1    0    0  501    0  0.00000000000E+00  0.00000000000E+00 -0.12697033402E+04  0.12697033403E+04  0.50400001928E-02 0.  1.
    10030    2    1    2    0    0  0.00000000000E+00  0.00000000000E+00  0.66911300952E+02  0.26063179815E+04  0.26054589420E+04 0.  0.
        3    1    3    3  502    0 -0.81730872152E+02 -0.12738806777E+04  0.29364167278E+03  0.13098386765E+04  0.10100000352E+00 0. -1.
       -3    1    3    3    0  502  0.81730872152E+02  0.12738806777E+04 -0.22673037183E+03  0.12964793049E+04  0.10100000352E+00 0.  1.
</event>
<event>
 5   0  0.1032076E-06  0.2667241E+04  0.7818609E-02  0.8345713E-01
       -1   -1    0    0    0  501  0.00000000000E+00  0.00000000000E+00  0.12974323247E+04  0.12974323247E+04  0.50400001928E-02 0. -1.
        1   -1    0    0  501    0  0.00000000000E+00  0.00000000000E+00 -0.13708180858E+04  0.13708180858E+04  0.50400001928E-02 0.  1.
    10030    2    1    2    0    0  0.00000000000E+00  0.00000000000E+00 -0.73385761118E+02  0.26682504106E+04  0.26672410434E+04 0.  0.
        1    1    3    3  502    0  0.36839343077E+03  0.12080133383E+04  0.39187763481E+03  0.13223380907E+04  0.50400001928E-02 0. -1.
       -1    1    3    3    0  502 -0.36839343077E+03 -0.12080133383E+04 -0.46526339593E+03  0.13459123199E+04  0.50400001928E-02 0.  1.
</event>
<event>
 5   0  0.1032076E-06  0.2553420E+04  0.7818609E-02  0.8384198E-01
       -1   -1    0    0    0  501  0.00000000000E+00  0.00000000000E+00  0.69835546602E+03  0.69835546604E+03  0.50400001928E-02 0.  1.
        1   -1    0    0  501    0  0.00000000000E+00  0.00000000000E+00 -0.23340388575E+04  0.23340388575E+04  0.50400001928E-02 0. -1.
    10030    2    1    2    0    0  0.00000000000E+00  0.00000000000E+00 -0.16356833914E+04  0.30323943235E+04  0.25534202898E+04 0.  0.
        1    1    3    3  502    0 -0.90857717129E+02  0.99638403210E+03  0.12398783647E+03  0.10081712393E+04  0.50400001928E-02 0.  1.
       -1    1    3    3    0  502  0.90857717129E+02 -0.99638403210E+03 -0.17596712279E+04  0.20242230842E+04  0.50400001928E-02 0. -1.
</event>
<event>
 5   0  0.2705807E-06  0.2599374E+04  0.7818609E-02  0.8368414E-01
        2   -1    0    0  501    0  0.00000000000E+00  0.00000000000E+00  0.12833178779E+04  0.12833178779E+04  0.25500000920E-02 0. -1.
       -2   -1    0    0    0  501  0.00000000000E+00  0.00000000000E+00 -0.13162652672E+04  0.13162652672E+04  0.25500000920E-02 0.  1.
    10030    2    1    2    0    0  0.00000000000E+00  0.00000000000E+00 -0.32947389306E+02  0.25995831451E+04  0.25993743474E+04 0.  0.
        4    1    3    3  502    0  0.12500496874E+04 -0.14223251037E+02 -0.37197181769E+03  0.13042971930E+04  0.12699999809E+01 0. -1.
       -4    1    3    3    0  502 -0.12500496874E+04  0.14223251037E+02  0.33902442838E+03  0.12952859521E+04  0.12699999809E+01 0.  1.
</event>
<event>
 5   0  0.2820028E-06  0.2588527E+04  0.7818609E-02  0.8372109E-01
       -2   -1    0    0    0  501  0.00000000000E+00  0.00000000000E+00  0.13812208477E+04  0.13812208478E+04  0.25500000920E-02 0. -1.
        2   -1    0    0  501    0  0.00000000000E+00  0.00000000000E+00 -0.12127811364E+04  0.12127811364E+04  0.25500000920E-02 0.  1.
    10030    2    1    2    0    0  0.00000000000E+00  0.00000000000E+00  0.16843971139E+03  0.25940019841E+04  0.25885274496E+04 0.  0.
        3    1    3    3  502    0  0.74077112680E+03  0.49559128383E+03  0.10246960325E+04  0.13580701573E+04  0.10100000352E+00 0. -1.
       -3    1    3    3    0  502 -0.74077112680E+03 -0.49559128383E+03 -0.85625632111E+03  0.12359318268E+04  0.10100000352E+00 0.  1.
</event>
<event>
 5   0  0.2623368E-06  0.2568189E+04  0.7818609E-02  0.8379088E-01
        2   -1    0    0  501    0  0.00000000000E+00  0.00000000000E+00  0.75432078226E+03  0.75432078226E+03  0.25500000920E-02 0. -1.
       -2   -1    0    0    0  501  0.00000000000E+00  0.00000000000E+00 -0.21859382893E+04  0.21859382893E+04  0.25500000920E-02 0.  1.
    10030    2    1    2    0    0  0.00000000000E+00  0.00000000000E+00 -0.14316175070E+04  0.29402590715E+04  0.25681889964E+04 0.  0.
        5    1    3    3  502    0 -0.41846442332E+03  0.10248592768E+04  0.29177378915E+02  0.11073944285E+04  0.46999998093E+01 0. -1.
       -5    1    3    3    0  502  0.41846442332E+03 -0.10248592768E+04 -0.14607948859E+04  0.18328646430E+04  0.46999998093E+01 0.  1.
</event>
<event>
 5   0  0.2820028E-06  0.2598879E+04  0.7818609E-02  0.8368582E-01
       -2   -1    0    0    0  501  0.00000000000E+00  0.00000000000E+00  0.94347847237E+03  0.94347847237E+03  0.25500000920E-02 0.  1.
        2   -1    0    0  501    0  0.00000000000E+00  0.00000000000E+00 -0.17896994609E+04  0.17896994609E+04  0.25500000920E-02 0. -1.
    10030    2    1    2    0    0  0.00000000000E+00  0.00000000000E+00 -0.84622098857E+03  0.27331779333E+04  0.25988789225E+04 0.  0.
        3    1    3    3  502    0  0.99793968117E+03 -0.68120351062E+03 -0.92596227020E+03  0.15222772304E+04  0.10100000352E+00 0. -1.
       -3    1    3    3    0  502 -0.99793968117E+03  0.68120351062E+03  0.79741281627E+02  0.12109007029E+04  0.10100000352E+00 0.  1.
</event>
<event>
 5   0  0.1088757E-06  0.2608215E+04  0.7818609E-02  0.8365416E-01
       -1   -1    0    0    0  501  0.00000000000E+00  0.00000000000E+00  0.90143696176E+03  0.90143696177E+03  0.50400001928E-02 0. -1.
        1   -1    0    0  501    0  0.00000000000E+00  0.00000000000E+00 -0.18866509460E+04  0.18866509460E+04  0.50400001928E-02 0.  1.
    10030    2    1    2    0    0  0.00000000000E+00  0.00000000000E+00 -0.98521398423E+03  0.27880879078E+04  0.26082154027E+04 0.  0.
        5    1    3    3  502    0 -0.10312752004E+04  0.41970066965E+03  0.23318529242E+03  0.11375740247E+04  0.46999998093E+01 0.  1.
       -5    1    3    3    0  502  0.10312752004E+04 -0.41970066965E+03 -0.12183992766E+04  0.16505138831E+04  0.46999998093E+01 0. -1.
</event>
<event>
 5   0  0.2623368E-06  0.2598907E+04  0.7818609E-02  0.8368573E-01
       -2   -1    0    0    0  501  0.00000000000E+00  0.00000000000E+00  0.13832849342E+04  0.13832849342E+04  0.25500000920E-02 0. -1.
        2   -1    0    0  501    0  0.00000000000E+00  0.00000000000E+00 -0.12207022534E+04  0.12207022534E+04  0.25500000920E-02 0.  1.
    10030    2    1    2    0    0  0.00000000000E+00  0.00000000000E+00  0.16258268080E+03  0.26039871877E+04  0.25989067212E+04 0.  0.
        5    1    3    3  502    0  0.12790712207E+04 -0.10495134972E+03  0.28545171416E+03  0.13147405616E+04  0.46999998093E+01 0. -1.
       -5    1    3    3    0  502 -0.12790712207E+04  0.10495134972E+03 -0.12286903336E+03  0.12892466260E+04  0.46999998093E+01 0.  1.
</event>
<event>
 5   0  0.2746631E-06  0.2608118E+04  0.7818609E-02  0.8365449E-01
       -2   -1    0    0    0  501  0.00000000000E+00  0.00000000000E+00  0.86368388903E+03  0.86368388904E+03  0.25500000920E-02 0.  1.
        2   -1    0    0  501    0  0.00000000000E+00  0.00000000000E+00 -0.19689724376E+04  0.19689724376E+04  0.25500000920E-02 0. -1.
    10030    2    1    2    0    0  0.00000000000E+00  0.00000000000E+00 -0.11052885486E+04  0.28326563266E+04  0.26081179209E+04 0.  0.
        2    1    3    3  502    0  0.37393873558E+03 -0.11636936585E+04 -0.59031638565E+02  0.12237229438E+04  0.25500000920E-02 0.  1.
       -2    1    3    3    0  502 -0.37393873558E+03  0.11636936585E+04 -0.10462569100E+04  0.16089333829E+04  0.25500000920E-02 0. -1.
</event>
<event>
 5   0  0.2623368E-06  0.2595953E+04  0.7818609E-02  0.8369577E-01
       -2   -1    0    0    0  501  0.00000000000E+00  0.00000000000E+00  0.62148083093E+03  0.62148083093E+03  0.25500000920E-02 0. -1.
        2   -1    0    0  501    0  0.00000000000E+00  0.00000000000E+00 -0.27108517383E+04  0.27108517383E+04  0.25500000920E-02 0.  1.
    10030    2    1    2    0    0  0.00000000000E+00  0.00000000000E+00 -0.20893709074E+04  0.33323325692E+04  0.25959525349E+04 0.  0.
        5    1    3    3  502    0  0.48718256420E+03 -0.11736742498E+04 -0.13839767631E+04  0.18789017713E+04  0.46999998093E+01 0.  1.
       -5    1    3    3    0  502 -0.48718256420E+03  0.11736742498E+04 -0.70539414427E+03  0.14534307979E+04  0.46999998093E+01 0. -1.
</event>
<event>
 5   0  0.1032076E-06  0.2593179E+04  0.7818609E-02  0.8370522E-01
        1   -1    0    0  501    0  0.00000000000E+00  0.00000000000E+00  0.14044708908E+04  0.14044708908E+04  0.50400001928E-02 0. -1.
       -1   -1    0    0    0  501  0.00000000000E+00  0.00000000000E+00 -0.11969950425E+04  0.11969950425E+04  0.50400001928E-02 0.  1.
    10030    2    1    2    0    0  0.00000000000E+00  0.00000000000E+00  0.20747584829E+03  0.26014659333E+04  0.25931792793E+04 0.  0.
        1    1    3    3  502    0  0.21870822224E+03 -0.86223125089E+03 -0.84260504619E+03  0.12252588626E+04  0.50400001928E-02 0.  1.
       -1    1    3    3    0  502 -0.21870822224E+03  0.86223125089E+03  0.10500808945E+04  0.13762070707E+04  0.50400001928E-02 0. -1.
</event>
<event>
 5   0  0.2746631E-06  0.2594852E+04  0.7818609E-02  0.8369952E-01
        2   -1    0    0  501    0  0.00000000000E+00  0.00000000000E+00  0.20828087324E+04  0.20828087324E+04  0.25500000920E-02 0. -1.
       -2   -1    0    0    0  501  0.00000000000E+00  0.00000000000E+00 -0.80819443727E+03  0.80819443728E+03  0.25500000920E-02 0.  1.
    10030    2    1    2    0    0  0.00000000000E+00  0.00000000000E+00  0.12746142952E+04  0.28910031697E+04  0.25948521588E+04 0.  0.
        2    1    3    3  502    0 -0.68621535187E+03 -0.89845003907E+03 -0.71905165460E+02  0.11328169908E+04  0.25500000920E-02 0.  1.
       -2    1    3    3    0  502  0.68621535187E+03  0.89845003907E+03  0.13465194606E+04  0.17581861789E+04  0.25500000920E-02 0. -1.
</event>
<event>
 5   0  0.1088757E-06  0.2601196E+04  0.7818609E-02  0.8367795E-01
       -1   -1    0    0    0  501  0.00000000000E+00  0.00000000000E+00  0.56896662174E+03  0.56896662177E+03  0.50400001928E-02 0.  1.
        1   -1    0    0  501    0  0.00000000000E+00  0.00000000000E+00 -0.29730309575E+04  0.29730309575E+04  0.50400001928E-02 0. -1.
    10030    2    1    2    0    0  0.00000000000E+00  0.00000000000E+00 -0.24040643357E+04  0.35419975793E+04  0.26011961712E+04 0.  0.
        5    1    3    3  502    0 -0.52047382815E+03  0.52800158951E+03  0.25302667955E+03  0.78340492396E+03  0.46999998093E+01 0.  1.
       -5    1    3    3    0  502  0.52047382815E+03 -0.52800158951E+03 -0.26570910153E+04  0.27585926553E+04  0.46999998093E+01 0. -1.
</event>
<event>
 5   0  0.1055179E-06  0.2607678E+04  0.7818609E-02  0.8365598E-01
        1   -1    0    0  501    0  0.00000000000E+00  0.00000000000E+00  0.23462900796E+04  0.23462900796E+04  0.50400001928E-02 0. -1.
       -1   -1    0    0    0  501  0.00000000000E+00  0.00000000000E+00 -0.72454647354E+03  0.72454647356E+03  0.50400001928E-02 0.  1.
    10030    2    1    2    0    0  0.00000000000E+00  0.00000000000E+00  0.16217436061E+04  0.30708365532E+04  0.26076780500E+04 0.  0.
        3    1    3    3  502    0  0.37101867414E+02 -0.98118342855E+02 -0.71956916376E+03  0.72717504730E+03  0.10100000352E+00 0.  1.
       -3    1    3    3    0  502 -0.37101867414E+02  0.98118342855E+02  0.23413127698E+04  0.23436615059E+04  0.10100000352E+00 0. -1.
</event>
<event>
 5   0  0.2705807E-06  0.2587630E+04  0.7818609E-02  0.8372415E-01
       -2   -1    0    0    0  501  0.00000000000E+00  0.00000000000E+00  0.21698900865E+04  0.21698900865E+04  0.25500000920E-02 0.  1.
        2   -1    0    0  501    0  0.00000000000E+00  0.00000000000E+00 -0.77144822570E+03  0.77144822570E+03  0.25500000920E-02 0. -1.
    10030    2    1    2    0    0  0.00000000000E+00  0.00000000000E+00  0.13984418608E+04  0.29413383122E+04  0.25876304661E+04 0.  0.
        4    1    3    3  502    0 -0.50651626665E+03  0.64072634068E+03  0.18398090309E+04  0.20129550057E+04  0.12699999809E+01 0.  1.
       -4    1    3    3    0  502  0.50651626665E+03 -0.64072634068E+03 -0.44136717008E+03  0.92838330648E+03  0.12699999809E+01 0. -1.
</event>
<event>
 5   0  0.1055179E-06  0.2599760E+04  0.7818609E-02  0.8368283E-01
        1   -1    0    0  501    0  0.00000000000E+00  0.00000000000E+00  0.10765537423E+04  0.10765537423E+04  0.50400001928E-02 0. -1.
       -1   -1    0    0    0  501  0.00000000000E+00  0.00000000000E+00 -0.15695342293E+04  0.15695342294E+04  0.50400001928E-02 0.  1.
    10030    2    1    2    0    0  0.00000000000E+00  0.00000000000E+00 -0.49298048708E+03  0.26460879716E+04  0.25997599491E+04 0.  0.
        3    1    3    3  502    0  0.87938833257E+03  0.51339354441E+03 -0.10688430226E+04  0.14762527521E+04  0.10100000352E+00 0.  1.
       -3    1    3    3    0  502 -0.87938833257E+03 -0.51339354441E+03  0.57586253550E+03  0.11698352195E+04  0.10100000352E+00 0. -1.
</event>
<event>
 5   0  0.1032076E-06  0.2600441E+04  0.7818609E-02  0.8368051E-01
        1   -1    0    0  501    0  0.00000000000E+00  0.00000000000E+00  0.12726276551E+04  0.12726276551E+04  0.50400001928E-02 0.  1.
       -1   -1    0    0    0  501  0.00000000000E+00  0.00000000000E+00 -0.13284120982E+04  0.13284120982E+04  0.50400001928E-02 0. -1.
    10030    2    1    2    0    0  0.00000000000E+00  0.00000000000E+00 -0.55784443073E+02  0.26010397533E+04  0.26004414807E+04 0.  0.
        1    1    3    3  502    0 -0.11173096236E+04  0.60073811095E+02  0.63451712742E+03  0.12863131978E+04  0.50400001928E-02 0.  1.
       -1    1    3    3    0  502  0.11173096236E+04 -0.60073811095E+02 -0.69030157049E+03  0.13147265556E+04  0.50400001928E-02 0. -1.
</event>
<event>
 5   0  0.1055179E-06  0.2603994E+04  0.7818609E-02  0.8366846E-01
        1   -1    0    0  501    0  0.00000000000E+00  0.00000000000E+00  0.11246694428E+04  0.11246694428E+04  0.50400001928E-02 0.  1.
       -1   -1    0    0    0  501  0.00000000000E+00  0.00000000000E+00 -0.15072840046E+04  0.15072840046E+04  0.50400001928E-02 0. -1.
    10030    2    1    2    0    0  0.00000000000E+00  0.00000000000E+00 -0.38261456184E+03  0.26319534474E+04  0.26039940565E+04 0.  0.
        3    1    3    3  502    0  0.74282157980E+03 -0.55174316912E+03  0.73449251342E+03  0.11813905732E+04  0.10100000352E+00 0.  1.
       -3    1    3    3    0  502 -0.74282157980E+03  0.55174316912E+03 -0.11171070753E+04  0.14505628742E+04  0.10100000352E+00 0. -1.
</event>
<event>
 5   0  0.2623368E-06  0.2603978E+04  0.7818609E-02  0.8366851E-01
       -2   -1    0    0    0  501  0.00000000000E+00  0.00000000000E+00  0.83565793593E+03  0.83565793593E+03  0.25500000920E-02 0. -1.
        2   -1    0    0  501    0  0.00000000000E+00  0.00000000000E+00 -0.20285519182E+04  0.20285519182E+04  0.25500000920E-02 0.  1.
    10030    2    1    2    0    0  0.00000000000E+00  0.00000000000E+00 -0.11928939823E+04  0.28642098541E+04  0.26039781173E+04 0.  0.
        5    1    3    3  502    0  0.12194370142E+03  0.23212772815E+02  0.82912480585E+03  0.83837887188E+03  0.46999998093E+01 0. -1.
       -5    1    3    3    0  502 -0.12194370142E+03 -0.23212772815E+02 -0.20220187881E+04  0.20258309822E+04  0.46999998093E+01 0.  1.
</event>
<event>
 5   0  0.1100104E-06  0.2599057E+04  0.7818609E-02  0.8368522E-01
        1   -1    0    0  501    0  0.00000000000E+00  0.00000000000E+00  0.86995351908E+03  0.86995351909E+03  0.50400001928E-02 0.  1.
       -1   -1    0    0    0  501  0.00000000000E+00  0.00000000000E+00 -0.19412239244E+04  0.19412239244E+04  0.50400001928E-02 0. -1.
    10030    2    1    2    0    0  0.00000000000E+00  0.00000000000E+00 -0.10712704053E+04  0.28111774435E+04  0.25990572017E+04 0.  0.
        4    1    3    3  502    0 -0.48196305375E+03 -0.71782281304E+03  0.51370627687E+03  0.10057105587E+04  0.12699999809E+01 0.  1.
       -4    1    3    3    0  502  0.48196305375E+03  0.71782281304E+03 -0.15849766822E+04  0.18054668848E+04  0.12699999809E+01 0. -1.
</event>
<event>
 5   0  0.1088757E-06  0.2600128E+04  0.7818609E-02  0.8368158E-01
        1   -1    0    0  501    0  0.00000000000E+00  0.00000000000E+00  0.12569748177E+04  0.12569748177E+04  0.50400001928E-02 0. -1.
       -1   -1    0    0    0  501  0.00000000000E+00  0.00000000000E+00 -0.13446297853E+04  0.13446297853E+04  0.50400001928E-02 0.  1.
    10030    2    1    2    0    0  0.00000000000E+00  0.00000000000E+00 -0.87654967556E+02  0.26016046030E+04  0.26001275194E+04 0.  0.
        5    1    3    3  502    0  0.35062577894E+03 -0.95198590739E+03  0.76960918834E+03  0.12733954600E+04  0.46999998093E+01 0. -1.
       -5    1    3    3    0  502 -0.35062577894E+03  0.95198590739E+03 -0.85726415590E+03  0.13282091431E+04  0.46999998093E+01 0.  1.
</event>
<event>
 5   0  0.2623368E-06  0.2606783E+04  0.7818609E-02  0.8365901E-01
        2   -1    0    0  501    0  0.00000000000E+00  0.00000000000E+00  0.23874588988E+04  0.23874588988E+04  0.25500000920E-02 0. -1.
       -2   -1    0    0    0  501  0.00000000000E+00  0.00000000000E+00 -0.71156364279E+03  0.71156364280E+03  0.25500000920E-02 0.  1.
    10030    2    1    2    0    0  0.00000000000E+00  0.00000000000E+00  0.16758952560E+04  0.30990225416E+04  0.26067826538E+04 0.  0.
        5    1    3    3  502    0  0.53032593194E+03 -0.67755060093E+03 -0.32594495778E+03  0.92009924270E+03  0.46999998093E+01 0.  1.
       -5    1    3    3    0  502 -0.53032593194E+03  0.67755060093E+03  0.20018402137E+04  0.21789232989E+04  0.46999998093E+01 0. -1.
</event>
<event>
 5   0  0.1088757E-06  0.2600909E+04  0.7818609E-02  0.8367892E-01
        1   -1    0    0  501    0  0.00000000000E+00  0.00000000000E+00  0.15287530534E+04  0.15287530534E+04  0.50400001928E-02 0. -1.
       -1   -1    0    0    0  501  0.00000000000E+00  0.00000000000E+00 -0.11062496260E+04  0.11062496260E+04  0.50400001928E-02 0.  1.
    10030    2    1    2    0    0  0.00000000000E+00  0.00000000000E+00  0.42250342735E+03  0.26350026794E+04  0.26009094514E+04 0.  0.
        5    1    3    3  502    0 -0.23371425839E+03 -0.65014663279E+03 -0.90493763884E+03  0.11385285323E+04  0.46999998093E+01 0.  1.
       -5    1    3    3    0  502  0.23371425839E+03  0.65014663279E+03  0.13274410662E+04  0.14964741471E+04  0.46999998093E+01 0. -1.
</event>
<event>
 5   0  0.2705807E-06  0.2599319E+04  0.7818609E-02  0.8368433E-01
       -2   -1    0    0    0  501  0.00000000000E+00  0.00000000000E+00  0.74972487592E+03  0.74972487592E+03  0.25500000920E-02 0.  1.
        2   -1    0    0  501    0  0.00000000000E+00  0.00000000000E+00 -0.22529797275E+04  0.22529797275E+04  0.25500000920E-02 0. -1.
    10030    2    1    2    0    0  0.00000000000E+00  0.00000000000E+00 -0.15032548516E+04  0.30027046034E+04  0.25993191006E+04 0.  0.
        4    1    3    3  502    0 -0.94778969996E+03 -0.31283550270E+03 -0.17132429011E+04  0.19827693305E+04  0.12699999809E+01 0. -1.
       -4    1    3    3    0  502  0.94778969996E+03  0.31283550270E+03  0.20998804948E+03  0.10199352729E+04  0.12699999809E+01 0.  1.
</event>
<event>
 5   0  0.1100104E-06  0.2599865E+04  0.7818609E-02  0.8368247E-01
       -1   -1    0    0    0  501  0.00000000000E+00  0.00000000000E+00  0.73937187686E+03  0.73937187688E+03  0.50400001928E-02 0.  1.
        1   -1    0    0  501    0  0.00000000000E+00  0.00000000000E+00 -0.22854858318E+04  0.22854858318E+04  0.50400001928E-02 0. -1.
    10030    2    1    2    0    0  0.00000000000E+00  0.00000000000E+00 -0.15461139549E+04  0.30248577087E+04  0.25998645727E+04 0.  0.
        4    1    3    3  502    0 -0.71025411773E+03  0.64215356486E+02  0.49145484525E+03  0.86609122012E+03  0.12699999809E+01 0.  1.
       -4    1    3    3    0  502  0.71025411773E+03 -0.64215356486E+02 -0.20375688002E+04  0.21587664886E+04  0.12699999809E+01 0. -1.
</event>
<event>
 5   0  0.1122628E-06  0.2602139E+04  0.7818609E-02  0.8367475E-01
       -1   -1    0    0    0  501  0.00000000000E+00  0.00000000000E+00  0.72323595658E+03  0.72323595660E+03  0.50400001928E-02 0.  1.
        1   -1    0    0  501    0  0.00000000000E+00  0.00000000000E+00 -0.23405660523E+04  0.23405660523E+04  0.50400001928E-02 0. -1.
    10030    2    1    2    0    0  0.00000000000E+00  0.00000000000E+00 -0.16173300957E+04  0.30638020089E+04  0.26021387571E+04 0.  0.
        2    1    3    3  502    0 -0.83673398101E+03  0.28409273888E+03  0.31572124383E+03  0.93835619200E+03  0.25500000920E-02 0.  1.
       -2    1    3    3    0  502  0.83673398101E+03 -0.28409273888E+03 -0.19330513396E+04  0.21254458169E+04  0.25500000920E-02 0. -1.
</event>
<event>
 5   0  0.1055179E-06  0.2595726E+04  0.7818609E-02  0.8369654E-01
        1   -1    0    0  501    0  0.00000000000E+00  0.00000000000E+00  0.14129565949E+04  0.14129565949E+04  0.50400001928E-02 0. -1.
       -1   -1    0    0    0  501  0.00000000000E+00  0.00000000000E+00 -0.11921444177E+04  0.11921444177E+04  0.50400001928E-02 0.  1.
    10030    2    1    2    0    0  0.00000000000E+00  0.00000000000E+00  0.22081217714E+03  0.26051010126E+04  0.25957259617E+04 0.  0.
        3    1    3    3  502    0 -0.12498708365E+04 -0.34956573062E+03  0.11909756455E+03  0.13032872085E+04  0.10100000352E+00 0.  1.
       -3    1    3    3    0  502  0.12498708365E+04  0.34956573062E+03  0.10171461259E+03  0.13018138041E+04  0.10100000352E+00 0. -1.
</event>
<event>
 5   0  0.2820028E-06  0.2593987E+04  0.7818609E-02  0.8370247E-01
        2   -1    0    0  501    0  0.00000000000E+00  0.00000000000E+00  0.19204010073E+04  0.19204010073E+04  0.25500000920E-02 0. -1.
       -2   -1    0    0    0  501  0.00000000000E+00  0.00000000000E+00 -0.87595882404E+03  0.87595882404E+03  0.25500000920E-02 0.  1.
    10030    2    1    2    0    0  0.00000000000E+00  0.00000000000E+00  0.10444421832E+04  0.27963598313E+04  0.25939870532E+04 0.  0.
        3    1    3    3  502    0  0.20165589316E+03 -0.97397179142E+03  0.14195722483E+04  0.17333411459E+04  0.10100000352E+00 0. -1.
       -3    1    3    3    0  502 -0.20165589316E+03  0.97397179142E+03 -0.37513006503E+03  0.10630186854E+04  0.10100000352E+00 0.  1.
</event>
<event>
 5   0  0.1122628E-06  0.2592594E+04  0.7818609E-02  0.8370721E-01
        1   -1    0    0  501    0  0.00000000000E+00  0.00000000000E+00  0.19996608171E+04  0.19996608171E+04  0.50400001928E-02 0.  1.
       -1   -1    0    0    0  501  0.00000000000E+00  0.00000000000E+00 -0.84033573597E+03  0.84033573599E+03  0.50400001928E-02 0. -1.
    10030    2    1    2    0    0  0.00000000000E+00  0.00000000000E+00  0.11593250812E+04  0.28399965531E+04  0.25925944106E+04 0.  0.
        2    1    3    3  502    0 -0.62869671299E+03 -0.93236353438E+03  0.12860428703E+04  0.17083523002E+04  0.25500000920E-02 0.  1.
       -2    1    3    3    0  502  0.62869671299E+03  0.93236353438E+03 -0.12671778917E+03  0.11316442530E+04  0.25500000920E-02 0. -1.
</event>
<event>
 5   0  0.1122628E-06  0.2601511E+04  0.7818609E-02  0.8367688E-01
        1   -1    0    0  501    0  0.00000000000E+00  0.00000000000E+00  0.86074403763E+03  0.86074403764E+03  0.50400001928E-02 0.  1.
       -1   -1    0    0    0  501  0.00000000000E+00  0.00000000000E+00 -0.19657000481E+04  0.19657000481E+04  0.50400001928E-02 0. -1.
    10030    2    1    2    0    0  0.00000000000E+00  0.00000000000E+00 -0.11049560104E+04  0.28264440857E+04  0.26015107889E+04 0.  0.
        2    1    3    3  502    0  0.99035198779E+03 -0.31566711137E+03 -0.14020902109E+04  0.17453652181E+04  0.25500000920E-02 0. -1.
       -2    1    3    3    0  502 -0.99035198779E+03  0.31566711137E+03  0.29713420049E+03  0.10810788676E+04  0.25500000920E-02 0.  1.
</event>
<event>
 5   0  0.2623368E-06  0.2599621E+04  0.7818609E-02  0.8368330E-01
       -2   -1    0    0    0  501  0.00000000000E+00  0.00000000000E+00  0.10082372906E+04  0.10082372906E+04  0.25500000920E-02 0.  1.
        2   -1    0    0  501    0  0.00000000000E+00  0.00000000000E+00 -0.16757040882E+04  0.16757040882E+04  0.25500000920E-02 0. -1.
    10030    2    1    2    0    0  0.00000000000E+00  0.00000000000E+00 -0.66746679760E+03  0.26839413788E+04  0.25996210107E+04 0.  0.
        5    1    3    3  502    0 -0.52762554917E+03  0.11630399587E+04 -0.58330663099E+03  0.14040368163E+04  0.46999998093E+01 0.  1.
       -5    1    3    3    0  502  0.52762554917E+03 -0.11630399587E+04 -0.84160166610E+02  0.12799045626E+04  0.46999998093E+01 0. -1.
</event>
<event>
 5   0  0.2705807E-06  0.2596006E+04  0.7818609E-02  0.8369559E-01
       -2   -1    0    0    0  501  0.00000000000E+00  0.00000000000E+00  0.80064677184E+03  0.80064677185E+03  0.25500000920E-02 0. -1.
        2   -1    0    0  501    0  0.00000000000E+00  0.00000000000E+00 -0.21043127222E+04  0.21043127222E+04  0.25500000920E-02 0.  1.
    10030    2    1    2    0    0  0.00000000000E+00  0.00000000000E+00 -0.13036659503E+04  0.29049594940E+04  0.25960055377E+04 0.  0.
        4    1    3    3  502    0 -0.15066811175E+03 -0.48297767854E+03  0.68576763261E+03  0.85220137098E+03  0.12699999809E+01 0. -1.
       -4    1    3    3    0  502  0.15066811175E+03  0.48297767854E+03 -0.19894335830E+04  0.20527581231E+04  0.12699999809E+01 0.  1.
</event>
<event>
 5   0  0.1122628E-06  0.2604078E+04  0.7818609E-02  0.8366817E-01
       -1   -1    0    0    0  501  0.00000000000E+00  0.00000000000E+00  0.93051589702E+03  0.93051589703E+03  0.50400001928E-02 0. -1.
        1   -1    0    0  501    0  0.00000000000E+00  0.00000000000E+00 -0.18218982397E+04  0.18218982397E+04  0.50400001928E-02 0.  1.
    10030    2    1    2    0    0  0.00000000000E+00  0.00000000000E+00 -0.89138234268E+03  0.27524141367E+04  0.26040777829E+04 0.  0.
        2    1    3    3  502    0  0.10011079985E+04 -0.79336737651E+03 -0.71236498582E+03  0.14625706451E+04  0.25500000920E-02 0.  1.
       -2    1    3    3    0  502 -0.10011079985E+04  0.79336737651E+03 -0.17901735686E+03  0.12898434916E+04  0.25500000920E-02 0. -1.
</event>
<event>
 5   0  0.1032076E-06  0.2596127E+04  0.7818609E-02  0.8369518E-01
       -1   -1    0    0    0  501  0.00000000000E+00  0.00000000000E+00  0.13641977887E+04  0.13641977887E+04  0.50400001928E-02 0. -1.
        1   -1    0    0  501    0  0.00000000000E+00  0.00000000000E+00 -0.12351356693E+04  0.12351356693E+04  0.50400001928E-02 0.  1.
    10030    2    1    2    0    0  0.00000000000E+00  0.00000000000E+00  0.12906211946E+03  0.25993334580E+04  0.25961273843E+04 0.  0.
        1    1    3    3  502    0 -0.42708090998E+03 -0.62756352979E+03 -0.98973427956E+03  0.12473203405E+04  0.50400001928E-02 0.  1.
       -1    1    3    3    0  502  0.42708090998E+03  0.62756352979E+03  0.11187963990E+04  0.13520131176E+04  0.50400001928E-02 0. -1.
</event>
<event>
 5   0  0.1055179E-06  0.2600632E+04  0.7818609E-02  0.8367987E-01
       -1   -1    0    0    0  501  0.00000000000E+00  0.00000000000E+00  0.10861148418E+04  0.10861148418E+04  0.50400001928E-02 0. -1.
        1   -1    0    0  501    0  0.00000000000E+00  0.00000000000E+00 -0.15567613392E+04  0.15567613392E+04  0.50400001928E-02 0.  1.
    10030    2    1    2    0    0  0.00000000000E+00  0.00000000000E+00 -0.47064649747E+03  0.26428761810E+04  0.26006319198E+04 0.  0.
        3    1    3    3  502    0  0.12346339630E+04 -0.34980681206E+03 -0.21825539794E+02  0.12834181675E+04  0.10100000352E+00 0. -1.
       -3    1    3    3    0  502 -0.12346339630E+04  0.34980681206E+03 -0.44882095767E+03  0.13594580135E+04  0.10100000352E+00 0.  1.
</event>
<event>
 5   0  0.2746631E-06  0.2602699E+04  0.7818609E-02  0.8367285E-01
       -2   -1    0    0    0  501  0.00000000000E+00  0.00000000000E+00  0.97851116275E+03  0.97851116276E+03  0.25500000920E-02 0. -1.
        2   -1    0    0  501    0  0.00000000000E+00  0.00000000000E+00 -0.17307017001E+04  0.17307017002E+04  0.25500000920E-02 0.  1.
    10030    2    1    2    0    0  0.00000000000E+00  0.00000000000E+00 -0.75219053740E+03  0.27092128629E+04  0.26026993165E+04 0.  0.
        2    1    3    3  502    0  0.88841387994E+03 -0.50114462666E+03  0.46511437490E+03  0.11210515334E+04  0.25500000920E-02 0. -1.
       -2    1    3    3    0  502 -0.88841387994E+03  0.50114462666E+03 -0.12173049123E+04  0.15881613295E+04  0.25500000920E-02 0.  1.
</event>
<event>
 5   0  0.1032076E-06  0.2601083E+04  0.7818609E-02  0.8367833E-01
       -1   -1    0    0    0  501  0.00000000000E+00  0.00000000000E+00  0.98887025084E+03  0.98887025085E+03  0.50400001928E-02 0. -1.
        1   -1    0    0  501    0  0.00000000000E+00  0.00000000000E+00 -0.17104453756E+04  0.17104453756E+04  0.50400001928E-02 0.  1.
    10030    2    1    2    0    0  0.00000000000E+00  0.00000000000E+00 -0.72157512474E+03  0.26993156264E+04  0.26010832725E+04 0.  0.
        1    1    3    3  502    0 -0.57990289027E+03 -0.95529586879E+03  0.32956550146E+03  0.11651141484E+04  0.50400001928E-02 0. -1.
       -1    1    3    3    0  502  0.57990289027E+03  0.95529586879E+03 -0.10511406262E+04  0.15342014780E+04  0.50400001928E-02 0.  1.
</event>
<event>
 5   0  0.2623368E-06  0.2553892E+04  0.7818609E-02  0.8384034E-01
        2   -1    0    0  501    0  0.00000000000E+00  0.00000000000E+00  0.93938255751E+03  0.93938255752E+03  0.25500000920E-02 0. -1.
       -2   -1    0    0    0  501  0.00000000000E+00  0.00000000000E+00 -0.17358109674E+04  0.17358109674E+04  0.25500000920E-02 0.  1.
    10030    2    1    2    0    0  0.00000000000E+00  0.00000000000E+00 -0.79642840987E+03  0.26751935249E+04  0.25538915763E+04 0.  0.
        5    1    3    3  502    0 -0.16276430151E+02  0.12238091271E+04 -0.16783263317E+02  0.12240414494E+04  0.46999998093E+01 0.  1.
       -5    1    3    3    0  502  0.16276430151E+02 -0.12238091271E+04 -0.77964514655E+03  0.14511520755E+04  0.46999998093E+01 0. -1.
</event>
<event>
 5   0  0.1055179E-06  0.2599780E+04  0.7818609E-02  0.8368276E-01
       -1   -1    0    0    0  501  0.00000000000E+00  0.00000000000E+00  0.10446731737E+04  0.10446731737E+04  0.50400001928E-02 0.  1.
        1   -1    0    0  501    0  0.00000000000E+00  0.00000000000E+00 -0.16174572169E+04  0.16174572169E+04  0.50400001928E-02 0. -1.
    10030    2    1    2    0    0  0.00000000000E+00  0.00000000000E+00 -0.57278404312E+03  0.26621303906E+04  0.25997801170E+04 0.  0.
        3    1    3    3  502    0 -0.78451453375E+03 -0.29355946666E+03  0.73146652566E+03  0.11120627242E+04  0.10100000352E+00 0.  1.
       -3    1    3    3    0  502  0.78451453375E+03  0.29355946666E+03 -0.13042505688E+04  0.15500676664E+04  0.10100000352E+00 0. -1.
</event>
<event>
 5   0  0.2746631E-06  0.2601260E+04  0.7818609E-02  0.8367773E-01
        2   -1    0    0  501    0  0.00000000000E+00  0.00000000000E+00  0.20971625517E+04  0.20971625517E+04  0.25500000920E-02 0. -1.
       -2   -1    0    0    0  501  0.00000000000E+00  0.00000000000E+00 -0.80663205758E+03  0.80663205758E+03  0.25500000920E-02 0.  1.
    10030    2    1    2    0    0  0.00000000000E+00  0.00000000000E+00  0.12905304941E+04  0.29037946093E+04  0.26012601132E+04 0.  0.
        2    1    3    3  502    0  0.13270504424E+03 -0.11021672943E+04  0.14017656093E+04  0.17881079936E+04  0.25500000920E-02 0. -1.
       -2    1    3    3    0  502 -0.13270504424E+03  0.11021672943E+04 -0.11123511516E+03  0.11156866157E+04  0.25500000920E-02 0.  1.
</event>
<event>
 5   0  0.9197000E-07  0.2601194E+04  0.7818609E-02  0.8367796E-01
        3   -1    0    0  501    0  0.00000000000E+00  0.00000000000E+00  0.12172456826E+04  0.12172456868E+04  0.10100000352E+00 0.  1.
       -3   -1    0    0    0  501  0.00000000000E+00  0.00000000000E+00 -0.13896561333E+04  0.13896561370E+04  0.10100000352E+00 0. -1.
    10030    2    1    2    0    0  0.00000000000E+00  0.00000000000E+00 -0.17241045075E+03  0.26069018238E+04  0.26011942940E+04 0.  0.
        1    1    3    3  502    0 -0.10009149532E+04  0.81340647949E+03 -0.25417995173E+03  0.13145601136E+04  0.50400001928E-02 0. -1.
       -1    1    3    3    0  502  0.10009149532E+04 -0.81340647949E+03  0.81769500980E+02  0.12923417101E+04  0.50400001928E-02 0.  1.
</event>
<event>
 5   0  0.2623368E-06  0.2598104E+04  0.7818609E-02  0.8368846E-01
        2   -1    0    0  501    0  0.00000000000E+00  0.00000000000E+00  0.22770419469E+04  0.22770419469E+04  0.25500000920E-02 0.  1.
       -2   -1    0    0    0  501  0.00000000000E+00  0.00000000000E+00 -0.74110866982E+03  0.74110866983E+03  0.25500000920E-02 0. -1.
    10030    2    1    2    0    0  0.00000000000E+00  0.00000000000E+00  0.15359332771E+04  0.30181506168E+04  0.25981035610E+04 0.  0.
        5    1    3    3  502    0 -0.78966650165E+03  0.10301827608E+04  0.70801102094E+03  0.14785639655E+04  0.46999998093E+01 0. -1.
       -5    1    3    3    0  502  0.78966650165E+03 -0.10301827608E+04  0.82792225616E+03  0.15395866512E+04  0.46999998093E+01 0.  1.
</event>
<event>
 5   0  0.1032076E-06  0.2600296E+04  0.7818609E-02  0.8368101E-01
       -1   -1    0    0    0  501  0.00000000000E+00  0.00000000000E+00  0.10855806515E+04  0.10855806515E+04  0.50400001928E-02 0. -1.
        1   -1    0    0  501    0  0.00000000000E+00  0.00000000000E+00 -0.15571250697E+04  0.15571250697E+04  0.50400001928E-02 0.  1.
    10030    2    1    2    0    0  0.00000000000E+00  0.00000000000E+00 -0.47154441826E+03  0.26427057212E+04  0.26002960198E+04 0.  0.
        1    1    3    3  502    0  0.84502219030E+03 -0.84137749996E+03 -0.76230124340E+03  0.14153027186E+04  0.50400001928E-02 0.  1.
       -1    1    3    3    0  502 -0.84502219030E+03  0.84137749996E+03  0.29075682514E+03  0.12274030027E+04  0.50400001928E-02 0. -1.
</event>
<event>
 5   0  0.1100104E-06  0.2595555E+04  0.7818609E-02  0.8369713E-01
       -1   -1    0    0    0  501  0.00000000000E+00  0.00000000000E+00  0.12065332227E+04  0.12065332227E+04  0.50400001928E-02 0. -1.
        1   -1    0    0  501    0  0.00000000000E+00  0.00000000000E+00 -0.13959217482E+04  0.13959217482E+04  0.50400001928E-02 0.  1.
    10030    2    1    2    0    0  0.00000000000E+00  0.00000000000E+00 -0.18938852556E+03  0.26024549709E+04  0.25955546348E+04 0.  0.
        4    1    3    3  502    0 -0.26964850752E+03 -0.92111640688E+03  0.78116029564E+03  0.12374888981E+04  0.12699999809E+01 0. -1.
       -4    1    3    3    0  502  0.26964850752E+03  0.92111640688E+03 -0.97054882120E+03  0.13649660728E+04  0.12699999809E+01 0.  1.
</event>
<event>
 5   0  0.2820028E-06  0.2597347E+04  0.7818609E-02  0.8369103E-01
       -2   -1    0    0    0  501  0.00000000000E+00  0.00000000000E+00  0.73767753159E+03  0.73767753159E+03  0.25500000920E-02 0.  1.
        2   -1    0    0  501    0  0.00000000000E+00  0.00000000000E+00 -0.22863006335E+04  0.22863006335E+04  0.25500000920E-02 0. -1.
    10030    2    1    2    0    0  0.00000000000E+00  0.00000000000E+00 -0.15486231019E+04  0.30239781651E+04  0.25973468061E+04 0.  0.
        3    1    3    3  502    0 -0.13364673545E+03 -0.68916877729E+03  0.49773538324E+03  0.86055538777E+03  0.10100000352E+00 0.  1.
       -3    1    3    3    0  502  0.13364673545E+03  0.68916877729E+03 -0.20463584851E+04  0.21634227773E+04  0.10100000352E+00 0. -1.
</event>
<event>
 5   0  0.1088757E-06  0.2600589E+04  0.7818609E-02  0.8368001E-01
        1   -1    0    0  501    0  0.00000000000E+00  0.00000000000E+00  0.16060269735E+04  0.16060269735E+04  0.50400001928E-02 0.  1.
       -1   -1    0    0    0  501  0.00000000000E+00  0.00000000000E+00 -0.10527631794E+04  0.10527631794E+04  0.50400001928E-02 0. -1.
    10030    2    1    2    0    0  0.00000000000E+00  0.00000000000E+00  0.55326379417E+03  0.26587901529E+04  0.26005892123E+04 0.  0.
        5    1    3    3  502    0  0.45421587869E+03  0.12171872760E+04  0.33156561123E+03  0.13408261535E+04  0.46999998093E+01 0. -1.
       -5    1    3    3    0  502 -0.45421587869E+03 -0.12171872760E+04  0.22169818294E+03  0.13179639994E+04  0.46999998093E+01 0.  1.
</event>
<event>
 5   0  0.2586775E-06  0.2607420E+04  0.7818609E-02  0.8365685E-01
        2   -1    0    0  501    0  0.00000000000E+00  0.00000000000E+00  0.17295567107E+04  0.17295567107E+04  0.25500000920E-02 0.  1.
       -2   -1    0    0    0  501  0.00000000000E+00  0.00000000000E+00 -0.98271411726E+03  0.98271411726E+03  0.25500000920E-02 0. -1.
    10030    2    1    2    0    0  0.00000000000E+00  0.00000000000E+00  0.74684259341E+03  0.27122708279E+04  0.26074200246E+04 0.  0.
        1    1    3    3  502    0  0.62975158740E+03 -0.84301540780E+03  0.11740455812E+04  0.15765928664E+04  0.50400001928E-02 0.  1.
       -1    1    3    3    0  502 -0.62975158740E+03  0.84301540780E+03 -0.42720298775E+03  0.11356779616E+04  0.50400001928E-02 0. -1.
</event>
<event>
 5   0  0.1032076E-06  0.2596737E+04  0.7818609E-02  0.8369310E-01
       -1   -1    0    0    0  501  0.00000000000E+00  0.00000000000E+00  0.12568328203E+04  0.12568328203E+04  0.50400001928E-02 0.  1.
        1   -1    0    0  501    0  0.00000000000E+00  0.00000000000E+00 -0.13412770508E+04  0.13412770508E+04  0.50400001928E-02 0. -1.
    10030    2    1    2    0    0  0.00000000000E+00  0.00000000000E+00 -0.84444230455E+02  0.25981098711E+04  0.25967371978E+04 0.  0.
        1    1    3    3  502    0  0.97203945732E+03  0.30217284200E+03 -0.84862079742E+03  0.13252646494E+04  0.50400001928E-02 0. -1.
       -1    1    3    3    0  502 -0.97203945732E+03 -0.30217284200E+03  0.76417656696E+03  0.12728452218E+04  0.50400001928E-02 0.  1.
</event>
<event>
 5   0  0.2746631E-06  0.2603991E+04  0.7818609E-02  0.8366847E-01
       -2   -1    0    0    0  501  0.00000000000E+00  0.00000000000E+00  0.11919641033E+04  0.11919641033E+04  0.25500000920E-02 0. -1.
        2   -1    0    0  501    0  0.00000000000E+00  0.00000000000E+00 -0.14221835693E+04  0.14221835693E+04  0.25500000920E-02 0.  1.
    10030    2    1    2    0    0  0.00000000000E+00  0.00000000000E+00 -0.23021946599E+03  0.26141476726E+04  0.26039906013E+04 0.  0.
        2    1    3    3  502    0 -0.66457748002E+03 -0.34625514280E+03 -0.11839861678E+04  0.14012063005E+04  0.25500000920E-02 0.  1.
       -2    1    3    3    0  502  0.66457748002E+03  0.34625514280E+03  0.95376670182E+03  0.12129413722E+04  0.25500000920E-02 0. -1.
</event>
<event>
 5   0  0.1055179E-06  0.2598854E+04  0.7818609E-02  0.8368590E-01
        1   -1    0    0  501    0  0.00000000000E+00  0.00000000000E+00  0.19136766605E+04  0.19136766606E+04  0.50400001928E-02 0. -1.
       -1   -1    0    0    0  501  0.00000000000E+00  0.00000000000E+00 -0.88233861189E+03  0.88233861190E+03  0.50400001928E-02 0.  1.
    10030    2    1    2    0    0  0.00000000000E+00  0.00000000000E+00  0.10313380487E+04  0.27960152725E+04  0.25988542155E+04 0.  0.
        3    1    3    3  502    0 -0.76905026388E+03 -0.99991435852E+02 -0.60605808534E+03  0.98424743262E+03  0.10100000352E+00 0.  1.
       -3    1    3    3    0  502  0.76905026388E+03  0.99991435852E+02  0.16373961340E+04  0.18117678398E+04  0.10100000352E+00 0. -1.
</event>
<event>
 5   0  0.2705807E-06  0.2603109E+04  0.7818609E-02  0.8367146E-01
       -2   -1    0    0    0  501  0.00000000000E+00  0.00000000000E+00  0.14448894753E+04  0.14448894753E+04  0.25500000920E-02 0. -1.
        2   -1    0    0  501    0  0.00000000000E+00  0.00000000000E+00 -0.11724382119E+04  0.11724382119E+04  0.25500000920E-02 0.  1.
    10030    2    1    2    0    0  0.00000000000E+00  0.00000000000E+00  0.27245126339E+03  0.26173276871E+04  0.26031086283E+04 0.  0.
        4    1    3    3  502    0 -0.39045664216E+03  0.95571547377E+03  0.93314163609E+03  0.13916189788E+04  0.12699999809E+01 0. -1.
       -4    1    3    3    0  502  0.39045664216E+03 -0.95571547377E+03 -0.66069037270E+03  0.12257087083E+04  0.12699999809E+01 0.  1.
</event>
<event>
 5   0  0.2586775E-06  0.2666292E+04  0.7818609E-02  0.8346026E-01
        2   -1    0    0  501    0  0.00000000000E+00  0.00000000000E+00  0.15638612203E+04  0.15638612203E+04  0.25500000920E-02 0.  1.
       -2   -1    0    0    0  501  0.00000000000E+00  0.00000000000E+00 -0.11364680941E+04  0.11364680941E+04  0.25500000920E-02 0. -1.
    10030    2    1    2    0    0  0.00000000000E+00  0.00000000000E+00  0.42739312615E+03  0.27003293144E+04  0.26662920924E+04 0.  0.
        1    1    3    3  502    0  0.76998240106E+03 -0.62501781981E+03  0.11160010580E+04  0.14929764012E+04  0.50400001928E-02 0.  1.
       -1    1    3    3    0  502 -0.76998240106E+03  0.62501781981E+03 -0.68860793188E+03  0.12073529132E+04  0.50400001928E-02 0. -1.
</event>
<event>
 5   0  0.1055179E-06  0.2594312E+04  0.7818609E-02  0.8370136E-01
        1   -1    0    0  501    0  0.00000000000E+00  0.00000000000E+00  0.12743942569E+04  0.12743942569E+04  0.50400001928E-02 0. -1.
       -1   -1    0    0    0  501  0.00000000000E+00  0.00000000000E+00 -0.13203245383E+04  0.13203245383E+04  0.50400001928E-02 0.  1.
    10030    2    1    2    0    0  0.00000000000E+00  0.00000000000E+00 -0.45930281401E+02  0.25947187952E+04  0.25943122470E+04 0.  0.
        3    1    3    3  502    0  0.16450270997E+03  0.16292019488E+03 -0.12994918592E+04  0.13199557697E+04  0.10100000352E+00 0.  1.
       -3    1    3    3    0  502 -0.16450270997E+03 -0.16292019488E+03  0.12535615778E+04  0.12747630255E+04  0.10100000352E+00 0. -1.
</event>
<event>
 5   0  0.1088757E-06  0.2595039E+04  0.7818609E-02  0.8369888E-01
        1   -1    0    0  501    0  0.00000000000E+00  0.00000000000E+00  0.67391841124E+03  0.67391841126E+03  0.50400001928E-02 0. -1.
       -1   -1    0    0    0  501  0.00000000000E+00  0.00000000000E+00 -0.24981607780E+04  0.24981607780E+04  0.50400001928E-02 0.  1.
    10030    2    1    2    0    0  0.00000000000E+00  0.00000000000E+00 -0.18242423668E+04  0.31720791893E+04  0.25950387609E+04 0.  0.
        5    1    3    3  502    0  0.19520089260E+03  0.79987755684E+03 -0.21379183840E+04  0.22909876911E+04  0.46999998093E+01 0.  1.
       -5    1    3    3    0  502 -0.19520089260E+03 -0.79987755684E+03  0.31367601717E+03  0.88109149818E+03  0.46999998093E+01 0. -1.
</event>
<event>
 5   0  0.1055179E-06  0.2598191E+04  0.7818609E-02  0.8368816E-01
        1   -1    0    0  501    0  0.00000000000E+00  0.00000000000E+00  0.14412086520E+04  0.14412086521E+04  0.50400001928E-02 0. -1.
       -1   -1    0    0    0  501  0.00000000000E+00  0.00000000000E+00 -0.11709959026E+04  0.11709959026E+04  0.50400001928E-02 0.  1.
    10030    2    1    2    0    0  0.00000000000E+00  0.00000000000E+00  0.27021274944E+03  0.26122045547E+04  0.25981912373E+04 0.  0.
        3    1    3    3  502    0 -0.79636018399E+03  0.99633139277E+03  0.38297946569E+03  0.13317428687E+04  0.10100000352E+00 0. -1.
       -3    1    3    3    0  502  0.79636018399E+03 -0.99633139277E+03 -0.11276671625E+03  0.12804616860E+04  0.10100000352E+00 0.  1.
</event>
<event>
 5   0  0.1088757E-06  0.2600768E+04  0.7818609E-02  0.8367940E-01
       -1   -1    0    0    0  501  0.00000000000E+00  0.00000000000E+00  0.15554893217E+04  0.15554893217E+04  0.50400001928E-02 0.  1.
        1   -1    0    0  501    0  0.00000000000E+00  0.00000000000E+00 -0.10871169280E+04  0.10871169280E+04  0.50400001928E-02 0. -1.
    10030    2    1    2    0    0  0.00000000000E+00  0.00000000000E+00  0.46837239367E+03  0.26426062497E+04  0.26007681734E+04 0.  0.
        5    1    3    3  502    0 -0.96196517500E+03  0.28415723060E+03 -0.60668587086E+03  0.11722679581E+04  0.46999998093E+01 0. -1.
       -5    1    3    3    0  502  0.96196517500E+03 -0.28415723060E+03  0.10750582645E+04  0.14703382916E+04  0.46999998093E+01 0.  1.
</event>
<event>
 5   0  0.2746631E-06  0.2635472E+04  0.7818609E-02  0.8356251E-01
       -2   -1    0    0    0  501  0.00000000000E+00  0.00000000000E+00  0.13215851759E+04  0.13215851759E+04  0.25500000920E-02 0.  1.
        2   -1    0    0  501    0  0.00000000000E+00  0.00000000000E+00 -0.13138984771E+04  0.13138984771E+04  0.25500000920E-02 0. -1.
    10030    2    1    2    0    0  0.00000000000E+00  0.00000000000E+00  0.76866988311E+01  0.26354836530E+04  0.26354724434E+04 0.  0.
        2    1    3    3  502    0  0.43652167408E+03 -0.59695000383E+03 -0.10868162629E+04  0.13145607891E+04  0.25500000920E-02 0. -1.
       -2    1    3    3    0  502 -0.43652167408E+03  0.59695000383E+03  0.10945029618E+04  0.13209228639E+04  0.25500000920E-02 0.  1.
</event>
<event>
 5   0  0.1055179E-06  0.2598574E+04  0.7818609E-02  0.8368686E-01
       -1   -1    0    0    0  501  0.00000000000E+00  0.00000000000E+00  0.10102437717E+04  0.10102437717E+04  0.50400001928E-02 0.  1.
        1   -1    0    0  501    0  0.00000000000E+00  0.00000000000E+00 -0.16710293490E+04  0.16710293490E+04  0.50400001928E-02 0. -1.
    10030    2    1    2    0    0  0.00000000000E+00  0.00000000000E+00 -0.66078557731E+03  0.26812731208E+04  0.25985742185E+04 0.  0.
        3    1    3    3  502    0 -0.16704394603E+03 -0.49664084326E+02 -0.16589154152E+04  0.16680439341E+04  0.10100000352E+00 0. -1.
       -3    1    3    3    0  502  0.16704394603E+03  0.49664084326E+02  0.99812983789E+03  0.10132291866E+04  0.10100000352E+00 0.  1.
</event>
<event>
 5   0  0.2586775E-06  0.2618319E+04  0.7818609E-02  0.8362005E-01
        2   -1    0    0  501    0  0.00000000000E+00  0.00000000000E+00  0.17411545310E+04  0.17411545310E+04  0.25500000920E-02 0.  1.
       -2   -1    0    0    0  501  0.00000000000E+00  0.00000000000E+00 -0.98434639253E+03  0.98434639254E+03  0.25500000920E-02 0. -1.
    10030    2    1    2    0    0  0.00000000000E+00  0.00000000000E+00  0.75680813843E+03  0.27255009235E+04  0.26183194468E+04 0.  0.
        1    1    3    3  502    0 -0.51683958403E+03  0.11878596733E+04  0.18154502109E+03  0.13080872883E+04  0.50400001928E-02 0.  1.
       -1    1    3    3    0  502  0.51683958403E+03 -0.11878596733E+04  0.57526311733E+03  0.14174136352E+04  0.50400001928E-02 0. -1.
</event>
<event>
 5   0  0.2705807E-06  0.2598923E+04  0.7818609E-02  0.8368567E-01
       -2   -1    0    0    0  501  0.00000000000E+00  0.00000000000E+00  0.13129489693E+04  0.13129489693E+04  0.25500000920E-02 0. -1.
        2   -1    0    0  501    0  0.00000000000E+00  0.00000000000E+00 -0.12861122456E+04  0.12861122456E+04  0.25500000920E-02 0.  1.
    10030    2    1    2    0    0  0.00000000000E+00  0.00000000000E+00  0.26836723706E+02  0.25990612149E+04  0.25989226593E+04 0.  0.
        4    1    3    3  502    0 -0.44572865075E+03 -0.17351413192E+03  0.12217116243E+04  0.13120068940E+04  0.12699999809E+01 0. -1.
       -4    1    3    3    0  502  0.44572865075E+03  0.17351413192E+03 -0.11948749006E+04  0.12870543209E+04  0.12699999809E+01 0.  1.
</event>
<event>
 5   0  0.1055179E-06  0.2587550E+04  0.7818609E-02  0.8372442E-01
        1   -1    0    0  501    0  0.00000000000E+00  0.00000000000E+00  0.18431919300E+04  0.18431919300E+04  0.50400001928E-02 0.  1.
       -1   -1    0    0    0  501  0.00000000000E+00  0.00000000000E+00 -0.90812804253E+03  0.90812804254E+03  0.50400001928E-02 0. -1.
    10030    2    1    2    0    0  0.00000000000E+00  0.00000000000E+00  0.93506388744E+03  0.27513199725E+04  0.25875504087E+04 0.  0.
        3    1    3    3  502    0 -0.10366216272E+04  0.44481620224E+03  0.11411993247E+04  0.16046126513E+04  0.10100000352E+00 0.  1.
       -3    1    3    3    0  502  0.10366216272E+04 -0.44481620224E+03 -0.20613543725E+03  0.11467073212E+04  0.10100000352E+00 0. -1.
</event>
<event>
 5   0  0.2820028E-06  0.2602791E+04  0.7818609E-02  0.8367254E-01
       -2   -1    0    0    0  501  0.00000000000E+00  0.00000000000E+00  0.73224007764E+03  0.73224007765E+03  0.25500000920E-02 0.  1.
        2   -1    0    0  501    0  0.00000000000E+00  0.00000000000E+00 -0.23129436240E+04  0.23129436240E+04  0.25500000920E-02 0. -1.
    10030    2    1    2    0    0  0.00000000000E+00  0.00000000000E+00 -0.15807035463E+04  0.30451837016E+04  0.26027908243E+04 0.  0.
        3    1    3    3  502    0 -0.94257221038E+03  0.51990300022E+03  0.65317354356E+02  0.10784284253E+04  0.10100000352E+00 0.  1.
       -3    1    3    3    0  502  0.94257221038E+03 -0.51990300022E+03 -0.16460209007E+04  0.19667552764E+04  0.10100000352E+00 0. -1.
</event>
<event>
 5   0  0.2586775E-06  0.2611419E+04  0.7818609E-02  0.8364333E-01
        2   -1    0    0  501    0  0.00000000000E+00  0.00000000000E+00  0.25645373659E+04  0.25645373659E+04  0.25500000920E-02 0.  1.
       -2   -1    0    0    0  501  0.00000000000E+00  0.00000000000E+00 -0.66478924788E+03  0.66478924788E+03  0.25500000920E-02 0. -1.
    10030    2    1    2    0    0  0.00000000000E+00  0.00000000000E+00  0.18997481181E+04  0.32293266138E+04  0.26114186693E+04 0.  0.
        1    1    3    3  502    0 -0.55027951957E+03 -0.19884120888E+03 -0.49359919516E+03  0.76549692455E+03  0.50400001928E-02 0. -1.
       -1    1    3    3    0  502  0.55027951957E+03  0.19884120888E+03  0.23933473132E+04  0.24638296893E+04  0.50400001928E-02 0.  1.
</event>
<event>
 5   0  0.1122628E-06  0.2602995E+04  0.7818609E-02  0.8367185E-01
        1   -1    0    0  501    0  0.00000000000E+00  0.00000000000E+00  0.93681084673E+03  0.93681084674E+03  0.50400001928E-02 0. -1.
       -1   -1    0    0    0  501  0.00000000000E+00  0.00000000000E+00 -0.18081514459E+04  0.18081514459E+04  0.50400001928E-02 0.  1.
    10030    2    1    2    0    0  0.00000000000E+00  0.00000000000E+00 -0.87134059915E+03  0.27449622926E+04  0.26029951111E+04 0.  0.
        2    1    3    3  502    0 -0.82463249341E+03  0.93454543667E+03 -0.40390856439E+02  0.12470065532E+04  0.25500000920E-02 0. -1.
       -2    1    3    3    0  502  0.82463249341E+03 -0.93454543667E+03 -0.83094974271E+03  0.14979557394E+04  0.25500000920E-02 0.  1.
</event>
<event>
 5   0  0.1088757E-06  0.2613079E+04  0.7818609E-02  0.8363772E-01
       -1   -1    0    0    0  501  0.00000000000E+00  0.00000000000E+00  0.28555394371E+04  0.28555394371E+04  0.50400001928E-02 0.  1.
        1   -1    0    0  501    0  0.00000000000E+00  0.00000000000E+00 -0.59780154757E+03  0.59780154759E+03  0.50400001928E-02 0. -1.
    10030    2    1    2    0    0  0.00000000000E+00  0.00000000000E+00  0.22577378895E+04  0.34533409847E+04  0.26130793288E+04 0.  0.
        5    1    3    3  502    0 -0.25267597668E+03  0.73756742451E+03 -0.25667365962E+03  0.82082538486E+03  0.46999998093E+01 0. -1.
       -5    1    3    3    0  502  0.25267597668E+03 -0.73756742451E+03  0.25144115491E+04  0.26325155998E+04  0.46999998093E+01 0.  1.
</event>
<event>
 5   0  0.1032076E-06  0.2601261E+04  0.7818609E-02  0.8367773E-01
       -1   -1    0    0    0  501  0.00000000000E+00  0.00000000000E+00  0.47497131511E+03  0.47497131514E+03  0.50400001928E-02 0.  1.
        1   -1    0    0  501    0  0.00000000000E+00  0.00000000000E+00 -0.35615625519E+04  0.35615625519E+04  0.50400001928E-02 0. -1.
    10030    2    1    2    0    0  0.00000000000E+00  0.00000000000E+00 -0.30865912368E+04  0.40365338671E+04  0.26012612704E+04 0.  0.
        1    1    3    3  502    0  0.48735999023E+03  0.12627164384E+03  0.31763682835E+03  0.59527929820E+03  0.50400001928E-02 0.  1.
       -1    1    3    3    0  502 -0.48735999023E+03 -0.12627164384E+03 -0.34042280652E+04  0.34412545689E+04  0.50400001928E-02 0. -1.
</event>
<event>
 5   0  0.2623368E-06  0.2598969E+04  0.7818609E-02  0.8368551E-01
       -2   -1    0    0    0  501  0.00000000000E+00  0.00000000000E+00  0.10833188373E+04  0.10833188373E+04  0.25500000920E-02 0. -1.
        2   -1    0    0  501    0  0.00000000000E+00  0.00000000000E+00 -0.15587844087E+04  0.15587844087E+04  0.25500000920E-02 0.  1.
    10030    2    1    2    0    0  0.00000000000E+00  0.00000000000E+00 -0.47546557149E+03  0.26421032460E+04  0.25989694213E+04 0.  0.
        5    1    3    3  502    0 -0.49492746240E+03  0.37364121505E+03 -0.13986474878E+04  0.15299666126E+04  0.46999998093E+01 0.  1.
       -5    1    3    3    0  502  0.49492746240E+03 -0.37364121505E+03  0.92318191633E+03  0.11121366334E+04  0.46999998093E+01 0. -1.
</event>
<event>
 5   0  0.2820028E-06  0.2600288E+04  0.7818609E-02  0.8368103E-01
        2   -1    0    0  501    0  0.00000000000E+00  0.00000000000E+00  0.23282537764E+04  0.23282537764E+04  0.25500000920E-02 0.  1.
       -2   -1    0    0    0  501  0.00000000000E+00  0.00000000000E+00 -0.72602655488E+03  0.72602655488E+03  0.25500000920E-02 0. -1.
    10030    2    1    2    0    0  0.00000000000E+00  0.00000000000E+00  0.16022272216E+04  0.30542803313E+04  0.26002877289E+04 0.  0.
        3    1    3    3  502    0 -0.35987476212E+03  0.98717718941E+03 -0.98309937677E+02  0.10553167779E+04  0.10100000352E+00 0. -1.
       -3    1    3    3    0  502  0.35987476212E+03 -0.98717718941E+03  0.17005371592E+04  0.19989635534E+04  0.10100000352E+00 0.  1.
</event>
<event>
 5   0  0.2705807E-06  0.2601405E+04  0.7818609E-02  0.8367724E-01
       -2   -1    0    0    0  501  0.00000000000E+00  0.00000000000E+00  0.11034657809E+04  0.11034657809E+04  0.25500000920E-02 0.  1.
        2   -1    0    0  501    0  0.00000000000E+00  0.00000000000E+00 -0.15331935323E+04  0.15331935323E+04  0.25500000920E-02 0. -1.
    10030    2    1    2    0    0  0.00000000000E+00  0.00000000000E+00 -0.42972775135E+03  0.26366593132E+04  0.26014046963E+04 0.  0.
        4    1    3    3  502    0  0.29797854942E+03 -0.51109108299E+03 -0.13889316706E+04  0.15096814596E+04  0.12699999809E+01 0. -1.
       -4    1    3    3    0  502 -0.29797854942E+03  0.51109108299E+03  0.95920391922E+03  0.11269778536E+04  0.12699999809E+01 0.  1.
</event>
<event>
 5   0  0.2820028E-06  0.2598226E+04  0.7818609E-02  0.8368804E-01
        2   -1    0    0  501    0  0.00000000000E+00  0.00000000000E+00  0.11406714096E+04  0.11406714096E+04  0.25500000920E-02 0.  1.
       -2   -1    0    0    0  501  0.00000000000E+00  0.00000000000E+00 -0.14795618946E+04  0.14795618946E+04  0.25500000920E-02 0. -1.
    10030    2    1    2    0    0  0.00000000000E+00  0.00000000000E+00 -0.33889048498E+03  0.26202333042E+04  0.25982255113E+04 0.  0.
        3    1    3    3  502    0  0.15221241040E+03  0.12344853122E+04  0.20865896387E+03  0.12612141679E+04  0.10100000352E+00 0.  1.
       -3    1    3    3    0  502 -0.15221241040E+03 -0.12344853122E+04 -0.54754944885E+03  0.13590191363E+04  0.10100000352E+00 0. -1.
</event>
<event>
 5   0  0.1088757E-06  0.2594991E+04  0.7818609E-02  0.8369905E-01
       -1   -1    0    0    0  501  0.00000000000E+00  0.00000000000E+00  0.90486957420E+03  0.90486957422E+03  0.50400001928E-02 0. -1.
        1   -1    0    0  501    0  0.00000000000E+00  0.00000000000E+00 -0.18604830767E+04  0.18604830767E+04  0.50400001928E-02 0.  1.
    10030    2    1    2    0    0  0.00000000000E+00  0.00000000000E+00 -0.95561350251E+03  0.27653526509E+04  0.25949909668E+04 0.  0.
        5    1    3    3  502    0  0.64382635781E+03  0.99355821945E+03  0.87894063105E+02  0.11871890207E+04  0.46999998093E+01 0. -1.
       -5    1    3    3    0  502 -0.64382635781E+03 -0.99355821945E+03 -0.10435075656E+04  0.15781636303E+04  0.46999998093E+01 0.  1.
</event>
<event>
 5   0  0.1100104E-06  0.2595702E+04  0.7818609E-02  0.8369663E-01
        1   -1    0    0  501    0  0.00000000000E+00  0.00000000000E+00  0.24412572702E+04  0.24412572702E+04  0.50400001928E-02 0. -1.
       -1   -1    0    0    0  501  0.00000000000E+00  0.00000000000E+00 -0.68997950276E+03  0.68997950278E+03  0.50400001928E-02 0.  1.
    10030    2    1    2    0    0  0.00000000000E+00  0.00000000000E+00  0.17512777674E+04  0.31312367730E+04  0.25957021997E+04 0.  0.
        4    1    3    3  502    0 -0.20751296969E+03  0.76903632924E+03  0.21117079487E+04  0.22569427511E+04  0.12699999809E+01 0. -1.
       -4    1    3    3    0  502  0.20751296969E+03 -0.76903632924E+03 -0.36043018124E+03  0.87429402190E+03  0.12699999809E+01 0.  1.
</event>
<event>
 5   0  0.1088757E-06  0.2590606E+04  0.7818609E-02  0.8371399E-01
        1   -1    0    0  501    0  0.00000000000E+00  0.00000000000E+00  0.22063401563E+04  0.22063401563E+04  0.50400001928E-02 0.  1.
       -1   -1    0    0    0  501  0.00000000000E+00  0.00000000000E+00 -0.76044903625E+03  0.76044903626E+03  0.50400001928E-02 0. -1.
    10030    2    1    2    0    0  0.00000000000E+00  0.00000000000E+00  0.14458911200E+04  0.29667891925E+04  0.25906055242E+04 0.  0.
        5    1    3    3  502    0  0.56257559353E+02  0.82445208974E+03 -0.41934170088E+03  0.92669073231E+03  0.46999998093E+01 0. -1.
       -5    1    3    3    0  502 -0.56257559353E+02 -0.82445208974E+03  0.18652328209E+04  0.20400984602E+04  0.46999998093E+01 0.  1.
</event>
<event>
 5   0  0.1100104E-06  0.2608366E+04  0.7818609E-02  0.8365365E-01
        1   -1    0    0  501    0  0.00000000000E+00  0.00000000000E+00  0.13397798992E+04  0.13397798992E+04  0.50400001928E-02 0.  1.
       -1   -1    0    0    0  501  0.00000000000E+00  0.00000000000E+00 -0.12695321657E+04  0.12695321657E+04  0.50400001928E-02 0. -1.
    10030    2    1    2    0    0  0.00000000000E+00  0.00000000000E+00  0.70247733545E+02  0.26093120649E+04  0.26083662910E+04 0.  0.
        4    1    3    3  502    0  0.11627612458E+04  0.42586155181E+03  0.44456469685E+03  0.13156789725E+04  0.12699999809E+01 0.  1.
       -4    1    3    3    0  502 -0.11627612458E+04 -0.42586155181E+03 -0.37431696331E+03  0.12936330925E+04  0.12699999809E+01 0. -1.
</event>
<event>
 5   0  0.2820028E-06  0.2605919E+04  0.7818609E-02  0.8366193E-01
       -2   -1    0    0    0  501  0.00000000000E+00  0.00000000000E+00  0.98148540832E+03  0.98148540832E+03  0.25500000920E-02 0.  1.
        2   -1    0    0  501    0  0.00000000000E+00  0.00000000000E+00 -0.17297284939E+04  0.17297284939E+04  0.25500000920E-02 0. -1.
    10030    2    1    2    0    0  0.00000000000E+00  0.00000000000E+00 -0.74824308554E+03  0.27112139022E+04  0.26059188607E+04 0.  0.
        3    1    3    3  502    0  0.71520632717E+03  0.43645555013E+03  0.66403992884E+03  0.10690942779E+04  0.10100000352E+00 0.  1.
       -3    1    3    3    0  502 -0.71520632717E+03 -0.43645555013E+03 -0.14122830144E+04  0.16421196243E+04  0.10100000352E+00 0. -1.
</event>
<event>
 5   0  0.1055179E-06  0.2601260E+04  0.7818609E-02  0.8367773E-01
       -1   -1    0    0    0  501  0.00000000000E+00  0.00000000000E+00  0.80832005786E+03  0.80832005787E+03  0.50400001928E-02 0. -1.
        1   -1    0    0  501    0  0.00000000000E+00  0.00000000000E+00 -0.20927827010E+04  0.20927827010E+04  0.50400001928E-02 0.  1.
    10030    2    1    2    0    0  0.00000000000E+00  0.00000000000E+00 -0.12844626431E+04  0.29011027588E+04  0.26012598747E+04 0.  0.
        3    1    3    3  502    0  0.91039391872E+03  0.75814190625E+03 -0.12407907400E+04  0.17155634374E+04  0.10100000352E+00 0.  1.
       -3    1    3    3    0  502 -0.91039391872E+03 -0.75814190625E+03 -0.43671903120E+02  0.11855393214E+04  0.10100000352E+00 0. -1.
</event>
<event>
 5   0  0.2623368E-06  0.2608858E+04  0.7818609E-02  0.8365199E-01
        2   -1    0    0  501    0  0.00000000000E+00  0.00000000000E+00  0.22282222567E+04  0.22282222567E+04  0.25500000920E-02 0.  1.
       -2   -1    0    0    0  501  0.00000000000E+00  0.00000000000E+00 -0.76362904891E+03  0.76362904891E+03  0.25500000920E-02 0. -1.
    10030    2    1    2    0    0  0.00000000000E+00  0.00000000000E+00  0.14645932078E+04  0.29918513056E+04  0.26088581737E+04 0.  0.
        5    1    3    3  502    0 -0.36646079997E+03 -0.36042568368E+03  0.21071779077E+04  0.21689677306E+04  0.46999998093E+01 0.  1.
       -5    1    3    3    0  502  0.36646079997E+03  0.36042568368E+03 -0.64258469999E+03  0.82288357501E+03  0.46999998093E+01 0. -1.
</event>
<event>
 5   0  0.2820028E-06  0.2606175E+04  0.7818609E-02  0.8366107E-01
        2   -1    0    0  501    0  0.00000000000E+00  0.00000000000E+00  0.99145803774E+03  0.99145803774E+03  0.25500000920E-02 0.  1.
       -2   -1    0    0    0  501  0.00000000000E+00  0.00000000000E+00 -0.17126668618E+04  0.17126668618E+04  0.25500000920E-02 0. -1.
    10030    2    1    2    0    0  0.00000000000E+00  0.00000000000E+00 -0.72120882410E+03  0.27041248996E+04  0.26061752252E+04 0.  0.
        3    1    3    3  502    0  0.10628638593E+01 -0.32792151322E+03 -0.16691548665E+04  0.17010619116E+04  0.10100000352E+00 0. -1.
       -3    1    3    3    0  502 -0.10628638593E+01  0.32792151322E+03  0.94794604236E+03  0.10030629880E+04  0.10100000352E+00 0.  1.
</event>
<event>
 5   0  0.1055179E-06  0.2600794E+04  0.7818609E-02  0.8367931E-01
       -1   -1    0    0    0  501  0.00000000000E+00  0.00000000000E+00  0.71545587771E+03  0.71545587773E+03  0.50400001928E-02 0. -1.
        1   -1    0    0  501    0  0.00000000000E+00  0.00000000000E+00 -0.23635739784E+04  0.23635739784E+04  0.50400001928E-02 0.  1.
    10030    2    1    2    0    0  0.00000000000E+00  0.00000000000E+00 -0.16481181006E+04  0.30790298561E+04  0.26007944135E+04 0.  0.
        3    1    3    3  502    0  0.19209516748E+03  0.36510748944E+03 -0.22840428881E+04  0.23210032222E+04  0.10100000352E+00 0.  1.
       -3    1    3    3    0  502 -0.19209516748E+03 -0.36510748944E+03  0.63592478749E+03  0.75802663394E+03  0.10100000352E+00 0. -1.
</event>
<event>
 5   0  0.2705807E-06  0.2599932E+04  0.7818609E-02  0.8368224E-01
        2   -1    0    0  501    0  0.00000000000E+00  0.00000000000E+00  0.15231290976E+04  0.15231290976E+04  0.25500000920E-02 0. -1.
       -2   -1    0    0    0  501  0.00000000000E+00  0.00000000000E+00 -0.11095002753E+04  0.11095002753E+04  0.25500000920E-02 0.  1.
    10030    2    1    2    0    0  0.00000000000E+00  0.00000000000E+00  0.41362882229E+03  0.26326293730E+04  0.25999324247E+04 0.  0.
        4    1    3    3  502    0 -0.89626846901E+03 -0.79746480579E+03  0.71377360084E+03  0.13959662070E+04  0.12699999809E+01 0. -1.
       -4    1    3    3    0  502  0.89626846901E+03  0.79746480579E+03 -0.30014477855E+03  0.12366631659E+04  0.12699999809E+01 0.  1.
</event>
<event>
 5   0  0.2623368E-06  0.2518073E+04  0.7818609E-02  0.8396575E-01
        2   -1    0    0  501    0  0.00000000000E+00  0.00000000000E+00  0.23562096126E+04  0.23562096126E+04  0.25500000920E-02 0. -1.
       -2   -1    0    0    0  501  0.00000000000E+00  0.00000000000E+00 -0.67276390295E+03  0.67276390296E+03  0.25500000920E-02 0.  1.
    10030    2    1    2    0    0  0.00000000000E+00  0.00000000000E+00  0.16834457096E+04  0.30289735155E+04  0.25180728942E+04 0.  0.
        5    1    3    3  502    0 -0.30962612614E+03 -0.11592059711E+04  0.38284797236E+03  0.12594528500E+04  0.46999998093E+01 0.  1.
       -5    1    3    3    0  502  0.30962612614E+03  0.11592059711E+04  0.13005977373E+04  0.17695206655E+04  0.46999998093E+01 0. -1.
</event>
<event>
 5   0  0.1122628E-06  0.2581277E+04  0.7818609E-02  0.8374589E-01
        1   -1    0    0  501    0  0.00000000000E+00  0.00000000000E+00  0.19036803572E+04  0.19036803572E+04  0.50400001928E-02 0.  1.
       -1   -1    0    0    0  501  0.00000000000E+00  0.00000000000E+00 -0.87501412283E+03  0.87501412284E+03  0.50400001928E-02 0. -1.
    10030    2    1    2    0    0  0.00000000000E+00  0.00000000000E+00  0.10286662344E+04  0.27786944801E+04  0.25812765818E+04 0.  0.
        2    1    3    3  502    0  0.10867089354E+04 -0.25207393960E+03 -0.18435977591E+03  0.11306927559E+04  0.25500000920E-02 0. -1.
       -2    1    3    3    0  502 -0.10867089354E+04  0.25207393960E+03  0.12130260103E+04  0.16480017242E+04  0.25500000920E-02 0.  1.
</event>
<event>
 5   0  0.1100104E-06  0.2597129E+04  0.7818609E-02  0.8369177E-01
        1   -1    0    0  501    0  0.00000000000E+00  0.00000000000E+00  0.14491918350E+04  0.14491918350E+04  0.50400001928E-02 0. -1.
       -1   -1    0    0    0  501  0.00000000000E+00  0.00000000000E+00 -0.11635933077E+04  0.11635933077E+04  0.50400001928E-02 0.  1.
    10030    2    1    2    0    0  0.00000000000E+00  0.00000000000E+00  0.28559852731E+03  0.26127851427E+04  0.25971291233E+04 0.  0.
        4    1    3    3  502    0  0.12130161359E+04 -0.22680331384E+03  0.54948909614E+03  0.13508470561E+04  0.12699999809E+01 0.  1.
       -4    1    3    3    0  502 -0.12130161359E+04  0.22680331384E+03 -0.26389056883E+03  0.12619380866E+04  0.12699999809E+01 0. -1.
</event>
<event>
 5   0  0.1055179E-06  0.2599636E+04  0.7818609E-02  0.8368325E-01
       -1   -1    0    0    0  501  0.00000000000E+00  0.00000000000E+00  0.78186538061E+03  0.78186538062E+03  0.50400001928E-02 0. -1.
        1   -1    0    0  501    0  0.00000000000E+00  0.00000000000E+00 -0.21608926642E+04  0.21608926642E+04  0.50400001928E-02 0.  1.
    10030    2    1    2    0    0  0.00000000000E+00  0.00000000000E+00 -0.13790272836E+04  0.29427580448E+04  0.25996362556E+04 0.  0.
        3    1    3    3  502    0  0.11664592264E+03 -0.16553446915E+03  0.76389915057E+03  0.79028466655E+03  0.10100000352E+00 0. -1.
       -3    1    3    3    0  502 -0.11664592264E+03  0.16553446915E+03 -0.21429264341E+04  0.21524733782E+04  0.10100000352E+00 0.  1.
</event>
<event>
 5   0  0.1088757E-06  0.2597378E+04  0.7818609E-02  0.8369092E-01
        1   -1    0    0  501    0  0.00000000000E+00  0.00000000000E+00  0.15294080014E+04  0.15294080014E+04  0.50400001928E-02 0. -1.
       -1   -1    0    0    0  501  0.00000000000E+00  0.00000000000E+00 -0.11027748593E+04  0.11027748593E+04  0.50400001928E-02 0.  1.
    10030    2    1    2    0    0  0.00000000000E+00  0.00000000000E+00  0.42663314209E+03  0.26321828607E+04  0.25973776727E+04 0.  0.
        5    1    3    3  502    0 -0.12910991441E+04 -0.11320912337E+02  0.71783204856E+02  0.12931512215E+04  0.46999998093E+01 0.  1.
       -5    1    3    3    0  502  0.12910991441E+04  0.11320912337E+02  0.35484993723E+03  0.13390316393E+04  0.46999998093E+01 0. -1.
</event>
<event>
 5   0  0.2586775E-06  0.2601243E+04  0.7818609E-02  0.8367779E-01
        2   -1    0    0  501    0  0.00000000000E+00  0.00000000000E+00  0.17767208074E+04  0.17767208074E+04  0.25500000920E-02 0. -1.
       -2   -1    0    0    0  501  0.00000000000E+00  0.00000000000E+00 -0.95210002453E+03  0.95210002453E+03  0.25500000920E-02 0.  1.
    10030    2    1    2    0    0  0.00000000000E+00  0.00000000000E+00  0.82462078285E+03  0.27288208319E+04  0.26012427217E+04 0.  0.
        1    1    3    3  502    0  0.10706256963E+04  0.27975417080E+03 -0.30466731810E+03  0.11477473382E+04  0.50400001928E-02 0. -1.
       -1    1    3    3    0  502 -0.10706256963E+04 -0.27975417080E+03  0.11292881010E+04  0.15810734937E+04  0.50400001928E-02 0.  1.
</event>
<event>
 5   0  0.1032076E-06  0.2536913E+04  0.7818609E-02  0.8389952E-01
       -1   -1    0    0    0  501  0.00000000000E+00  0.00000000000E+00  0.11585227250E+04  0.11585227250E+04  0.50400001928E-02 0. -1.
        1   -1    0    0  501    0  0.00000000000E+00  0.00000000000E+00 -0.13888218275E+04  0.13888218275E+04  0.50400001928E-02 0.  1.
    10030    2    1    2    0    0  0.00000000000E+00  0.00000000000E+00 -0.23029910249E+03  0.25473445525E+04  0.25369128074E+04 0.  0.
        1    1    3    3  502    0  0.18106219198E+02 -0.10379234648E+04 -0.84709738947E+03  0.13398458647E+04  0.50400001928E-02 0.  1.
       -1    1    3    3    0  502 -0.18106219198E+02  0.10379234648E+04  0.61679828698E+03  0.12074986877E+04  0.50400001928E-02 0. -1.
</event>
<event>
 5   0  0.2586775E-06  0.2599647E+04  0.7818609E-02  0.8368321E-01
       -2   -1    0    0    0  501  0.00000000000E+00  0.00000000000E+00  0.13180242885E+04  0.13180242885E+04  0.25500000920E-02 0. -1.
        2   -1    0    0  501    0  0.00000000000E+00  0.00000000000E+00 -0.12818743402E+04  0.12818743402E+04  0.25500000920E-02 0.  1.
    10030    2    1    2    0    0  0.00000000000E+00  0.00000000000E+00  0.36149948391E+02  0.25998986287E+04  0.25996472955E+04 0.  0.
        1    1    3    3  502    0  0.14601525417E+03  0.26416124308E+02  0.13095259783E+04  0.13179061249E+04  0.50400001928E-02 0. -1.
       -1    1    3    3    0  502 -0.14601525417E+03 -0.26416124308E+02 -0.12733760300E+04  0.12819925038E+04  0.50400001928E-02 0.  1.
</event>
<event>
 5   0  0.1055179E-06  0.2600881E+04  0.7818609E-02  0.8367902E-01
        1   -1    0    0  501    0  0.00000000000E+00  0.00000000000E+00  0.17405388484E+04  0.17405388485E+04  0.50400001928E-02 0.  1.
       -1   -1    0    0    0  501  0.00000000000E+00  0.00000000000E+00 -0.97162181302E+03  0.97162181304E+03  0.50400001928E-02 0. -1.
    10030    2    1    2    0    0  0.00000000000E+00  0.00000000000E+00  0.76891703542E+03  0.27121606615E+04  0.26008810135E+04 0.  0.
        3    1    3    3  502    0  0.46940484302E+03 -0.94897003285E+03 -0.40300703078E+03  0.11328281895E+04  0.10100000352E+00 0. -1.
       -3    1    3    3    0  502 -0.46940484302E+03  0.94897003285E+03  0.11719240662E+04  0.15793324720E+04  0.10100000352E+00 0.  1.
</event>
<event>
 5   0  0.1122628E-06  0.2619066E+04  0.7818609E-02  0.8361754E-01
       -1   -1    0    0    0  501  0.00000000000E+00  0.00000000000E+00  0.11528330537E+04  0.11528330537E+04  0.50400001928E-02 0.  1.
        1   -1    0    0  501    0  0.00000000000E+00  0.00000000000E+00 -0.14875323793E+04  0.14875323793E+04  0.50400001928E-02 0. -1.
    10030    2    1    2    0    0  0.00000000000E+00  0.00000000000E+00 -0.33469932564E+03  0.26403654330E+04  0.26190658604E+04 0.  0.
        2    1    3    3  502    0 -0.48545914158E+03 -0.40692943654E+03  0.98810141239E+03  0.11737148485E+04  0.25500000920E-02 0.  1.
       -2    1    3    3    0  502  0.48545914158E+03  0.40692943654E+03 -0.13228007380E+04  0.14666505845E+04  0.25500000920E-02 0. -1.
</event>
<event>
 5   0  0.1088757E-06  0.2597625E+04  0.7818609E-02  0.8369008E-01
       -1   -1    0    0    0  501  0.00000000000E+00  0.00000000000E+00  0.11500136929E+04  0.11500136930E+04  0.50400001928E-02 0. -1.
        1   -1    0    0  501    0  0.00000000000E+00  0.00000000000E+00 -0.14668642093E+04  0.14668642093E+04  0.50400001928E-02 0.  1.
    10030    2    1    2    0    0  0.00000000000E+00  0.00000000000E+00 -0.31685051634E+03  0.26168779022E+04  0.25976250125E+04 0.  0.
        5    1    3    3  502    0 -0.11186412854E+04  0.64586959564E+03 -0.29502514874E+03  0.13249784105E+04  0.46999998093E+01 0.  1.
       -5    1    3    3    0  502  0.11186412854E+04 -0.64586959564E+03 -0.21825367602E+02  0.12918994917E+04  0.46999998093E+01 0. -1.
</event>
<event>
 5   0  0.2623368E-06  0.2599545E+04  0.7818609E-02  0.8368356E-01
        2   -1    0    0  501    0  0.00000000000E+00  0.00000000000E+00  0.14234498981E+04  0.14234498981E+04  0.25500000920E-02 0.  1.
       -2   -1    0    0    0  501  0.00000000000E+00  0.00000000000E+00 -0.11868405297E+04  0.11868405297E+04  0.25500000920E-02 0. -1.
    10030    2    1    2    0    0  0.00000000000E+00  0.00000000000E+00  0.23660936840E+03  0.26102904278E+04  0.25995445994E+04 0.  0.
        5    1    3    3  502    0 -0.90481506361E+03  0.49893645907E+03 -0.67347119441E+03  0.12333748130E+04  0.46999998093E+01 0. -1.
       -5    1    3    3    0  502  0.90481506361E+03 -0.49893645907E+03  0.91008056281E+03  0.13769156148E+04  0.46999998093E+01 0.  1.
</event>
<event>
 5   0  0.2623368E-06  0.2598522E+04  0.7818609E-02  0.8368703E-01
        2   -1    0    0  501    0  0.00000000000E+00  0.00000000000E+00  0.11829366814E+04  0.11829366814E+04  0.25500000920E-02 0.  1.
       -2   -1    0    0    0  501  0.00000000000E+00  0.00000000000E+00 -0.14270244924E+04  0.14270244924E+04  0.25500000920E-02 0. -1.
    10030    2    1    2    0    0  0.00000000000E+00  0.00000000000E+00 -0.24408781103E+03  0.26099611738E+04  0.25985223627E+04 0.  0.
        5    1    3    3  502    0 -0.14251217422E+03  0.13974414466E+03 -0.14115253482E+04  0.14255749873E+04  0.46999998093E+01 0. -1.
       -5    1    3    3    0  502  0.14251217422E+03 -0.13974414466E+03  0.11674375371E+04  0.11843861865E+04  0.46999998093E+01 0.  1.
</event>
<event>
 5   0  0.2623368E-06  0.2617222E+04  0.7818609E-02  0.8362375E-01
        2   -1    0    0  501    0  0.00000000000E+00  0.00000000000E+00  0.17205356522E+04  0.17205356522E+04  0.25500000920E-02 0. -1.
       -2   -1    0    0    0  501  0.00000000000E+00  0.00000000000E+00 -0.99530783778E+03  0.99530783778E+03  0.25500000920E-02 0.  1.
    10030    2    1    2    0    0  0.00000000000E+00  0.00000000000E+00  0.72522781442E+03  0.27158434900E+04  0.26172219010E+04 0.  0.
        5    1    3    3  502    0 -0.12868428485E+04 -0.18733510083E+03  0.51434829596E+03  0.13984402799E+04  0.46999998093E+01 0. -1.
       -5    1    3    3    0  502  0.12868428485E+04  0.18733510083E+03  0.21087951845E+03  0.13174032101E+04  0.46999998093E+01 0.  1.
</event>
<event>
 5   0  0.1100104E-06  0.2594598E+04  0.7818609E-02  0.8370038E-01
        1   -1    0    0  501    0  0.00000000000E+00  0.00000000000E+00  0.14433919173E+04  0.14433919173E+04  0.50400001928E-02 0. -1.
       -1   -1    0    0    0  501  0.00000000000E+00  0.00000000000E+00 -0.11659932759E+04  0.11659932759E+04  0.50400001928E-02 0.  1.
    10030    2    1    2    0    0  0.00000000000E+00  0.00000000000E+00  0.27739864139E+03  0.26093851933E+04  0.25945984430E+04 0.  0.
        4    1    3    3  502    0  0.95206579904E+03  0.85766701359E+03 -0.64843994171E+02  0.12830543045E+04  0.12699999809E+01 0.  1.
       -4    1    3    3    0  502 -0.95206579904E+03 -0.85766701359E+03  0.34224263556E+03  0.13263308887E+04  0.12699999809E+01 0. -1.
</event>
<event>
 5   0  0.2746631E-06  0.2601202E+04  0.7818609E-02  0.8367793E-01
       -2   -1    0    0    0  501  0.00000000000E+00  0.00000000000E+00  0.87899103309E+03  0.87899103309E+03  0.25500000920E-02 0. -1.
        2   -1    0    0  501    0  0.00000000000E+00  0.00000000000E+00 -0.19244369329E+04  0.19244369329E+04  0.25500000920E-02 0.  1.
    10030    2    1    2    0    0  0.00000000000E+00  0.00000000000E+00 -0.10454458999E+04  0.28034279660E+04  0.26012018821E+04 0.  0.
        2    1    3    3  502    0 -0.77695602638E+03 -0.22027899855E+03  0.57603586998E+03  0.99196815858E+03  0.25500000920E-02 0. -1.
       -2    1    3    3    0  502  0.77695602638E+03  0.22027899855E+03 -0.16214817698E+04  0.18114598075E+04  0.25500000920E-02 0.  1.
</event>
<event>
 5   0  0.2820028E-06  0.2586019E+04  0.7818609E-02  0.8372966E-01
        2   -1    0    0  501    0  0.00000000000E+00  0.00000000000E+00  0.19477035162E+04  0.19477035162E+04  0.25500000920E-02 0.  1.
       -2   -1    0    0    0  501  0.00000000000E+00  0.00000000000E+00 -0.85838187382E+03  0.85838187382E+03  0.25500000920E-02 0. -1.
    10030    2    1    2    0    0  0.00000000000E+00  0.00000000000E+00  0.10893216423E+04  0.28060853900E+04  0.25860188660E+04 0.  0.
        3    1    3    3  502    0  0.40524613971E+03  0.83889875933E+03 -0.42824235135E+03  0.10253619282E+04  0.10100000352E+00 0. -1.
       -3    1    3    3    0  502 -0.40524613971E+03 -0.83889875933E+03  0.15175639937E+04  0.17807234618E+04  0.10100000352E+00 0.  1.
</event>
<event>
 5   0  0.1032076E-06  0.2602365E+04  0.7818609E-02  0.8367398E-01
        1   -1    0    0  501    0  0.00000000000E+00  0.00000000000E+00  0.12161032509E+04  0.12161032509E+04  0.50400001928E-02 0. -1.
       -1   -1    0    0    0  501  0.00000000000E+00  0.00000000000E+00 -0.13922138163E+04  0.13922138163E+04  0.50400001928E-02 0.  1.
    10030    2    1    2    0    0  0.00000000000E+00  0.00000000000E+00 -0.17611056535E+03  0.26083170672E+04  0.26023648845E+04 0.  0.
        1    1    3    3  502    0  0.63570025013E+03 -0.29960159987E+03  0.10095292307E+04  0.12300508910E+04  0.50400001928E-02 0. -1.
       -1    1    3    3    0  502 -0.63570025013E+03  0.29960159987E+03 -0.11856397961E+04  0.13782661763E+04  0.50400001928E-02 0.  1.
</event>
<event>
 5   0  0.2820028E-06  0.2605187E+04  0.7818609E-02  0.8366441E-01
        2   -1    0    0  501    0  0.00000000000E+00  0.00000000000E+00  0.12043581354E+04  0.12043581354E+04  0.25500000920E-02 0. -1.
       -2   -1    0    0    0  501  0.00000000000E+00  0.00000000000E+00 -0.14088420926E+04  0.14088420926E+04  0.25500000920E-02 0.  1.
    10030    2    1    2    0    0  0.00000000000E+00  0.00000000000E+00 -0.20448395724E+03  0.26132002280E+04  0.26051874679E+04 0.  0.
        3    1    3    3  502    0  0.59283125051E+03 -0.11493545278E+04  0.54076042892E+02  0.12943681666E+04  0.10100000352E+00 0.  1.
       -3    1    3    3    0  502 -0.59283125051E+03  0.11493545278E+04 -0.25856000014E+03  0.13188320614E+04  0.10100000352E+00 0. -1.
</event>
<event>
 5   0  0.1100104E-06  0.2590527E+04  0.7818609E-02  0.8371426E-01
       -1   -1    0    0    0  501  0.00000000000E+00  0.00000000000E+00  0.79499775672E+03  0.79499775674E+03  0.50400001928E-02 0.  1.
        1   -1    0    0  501    0  0.00000000000E+00  0.00000000000E+00 -0.21103300590E+04  0.21103300590E+04  0.50400001928E-02 0. -1.
    10030    2    1    2    0    0  0.00000000000E+00  0.00000000000E+00 -0.13153323023E+04  0.29053278158E+04  0.25905270992E+04 0.  0.
        4    1    3    3  502    0 -0.65451845195E+03 -0.95825158987E+03 -0.12362697903E+02  0.11605149558E+04  0.12699999809E+01 0.  1.
       -4    1    3    3    0  502  0.65451845195E+03  0.95825158987E+03 -0.13029696044E+04  0.17448128600E+04  0.12699999809E+01 0. -1.
</event>
<event>
 5   0  0.2623368E-06  0.2607604E+04  0.7818609E-02  0.8365623E-01
        2   -1    0    0  501    0  0.00000000000E+00  0.00000000000E+00  0.11008822505E+04  0.11008822505E+04  0.25500000920E-02 0. -1.
       -2   -1    0    0    0  501  0.00000000000E+00  0.00000000000E+00 -0.15441249776E+04  0.15441249776E+04  0.25500000920E-02 0.  1.
    10030    2    1    2    0    0  0.00000000000E+00  0.00000000000E+00 -0.44324272708E+03  0.26450072280E+04  0.26076040960E+04 0.  0.
        5    1    3    3  502    0 -0.40833104209E+03  0.12240743793E+04 -0.32437763176E+02  0.12908007687E+04  0.46999998093E+01 0.  1.
       -5    1    3    3    0  502  0.40833104209E+03 -0.12240743793E+04 -0.41080496390E+03  0.13542064593E+04  0.46999998093E+01 0. -1.
</event>
<event>
 5   0  0.1055179E-06  0.2598289E+04  0.7818609E-02  0.8368783E-01
        1   -1    0    0  501    0  0.00000000000E+00  0.00000000000E+00  0.15597791106E+04  0.15597791107E+04  0.50400001928E-02 0.  1.
       -1   -1    0    0    0  501  0.00000000000E+00  0.00000000000E+00 -0.10820609514E+04  0.10820609514E+04  0.50400001928E-02 0. -1.
    10030    2    1    2    0    0  0.00000000000E+00  0.00000000000E+00  0.47771815921E+03  0.26418400621E+04  0.25982887203E+04 0.  0.
        3    1    3    3  502    0  0.61241341779E+03 -0.11367888499E+04  0.93504935672E+02  0.12946359592E+04  0.10100000352E+00 0. -1.
       -3    1    3    3    0  502 -0.61241341779E+03  0.11367888499E+04  0.38421322354E+03  0.13472041029E+04  0.10100000352E+00 0.  1.
</event>
<event>
 5   0  0.2746631E-06  0.2593401E+04  0.7818609E-02  0.8370446E-01
       -2   -1    0    0    0  501  0.00000000000E+00  0.00000000000E+00  0.11545800036E+04  0.11545800036E+04  0.25500000920E-02 0. -1.
        2   -1    0    0  501    0  0.00000000000E+00  0.00000000000E+00 -0.14563151080E+04  0.14563151080E+04  0.25500000920E-02 0.  1.
    10030    2    1    2    0    0  0.00000000000E+00  0.00000000000E+00 -0.30173510447E+03  0.26108951116E+04  0.25934010894E+04 0.  0.
        2    1    3    3  502    0 -0.12115858192E+04  0.16971663653E+03  0.28178523771E+03  0.12554468743E+04  0.25500000920E-02 0.  1.
       -2    1    3    3    0  502  0.12115858192E+04 -0.16971663653E+03 -0.58352034219E+03  0.13554482372E+04  0.25500000920E-02 0. -1.
</event>
<event>
 5   0  0.1088757E-06  0.2592341E+04  0.7818609E-02  0.8370807E-01
       -1   -1    0    0    0  501  0.00000000000E+00  0.00000000000E+00  0.14974463602E+04  0.14974463602E+04  0.50400001928E-02 0.  1.
        1   -1    0    0  501    0  0.00000000000E+00  0.00000000000E+00 -0.11219486033E+04  0.11219486033E+04  0.50400001928E-02 0. -1.
    10030    2    1    2    0    0  0.00000000000E+00  0.00000000000E+00  0.37549775686E+03  0.26193949635E+04  0.25923409130E+04 0.  0.
        5    1    3    3  502    0 -0.10220081288E+04  0.73960658667E+02 -0.61430130174E+03  0.11947212954E+04  0.46999998093E+01 0. -1.
       -5    1    3    3    0  502  0.10220081288E+04 -0.73960658667E+02  0.98979905860E+03  0.14246736681E+04  0.46999998093E+01 0.  1.
</event>
<event>
 5   0  0.1122628E-06  0.2604883E+04  0.7818609E-02  0.8366544E-01
        1   -1    0    0  501    0  0.00000000000E+00  0.00000000000E+00  0.21754878427E+04  0.21754878427E+04  0.50400001928E-02 0. -1.
       -1   -1    0    0    0  501  0.00000000000E+00  0.00000000000E+00 -0.77975789280E+03  0.77975789282E+03  0.50400001928E-02 0.  1.
    10030    2    1    2    0    0  0.00000000000E+00  0.00000000000E+00  0.13957299499E+04  0.29552457355E+04  0.26048829656E+04 0.  0.
        2    1    3    3  502    0 -0.95905623898E+03  0.78372165621E+03  0.11549797509E+04  0.16935131322E+04  0.25500000920E-02 0. -1.
       -2    1    3    3    0  502  0.95905623898E+03 -0.78372165621E+03  0.24075019897E+03  0.12617326033E+04  0.25500000920E-02 0.  1.
</event>
<event>
 5   0  0.1088757E-06  0.2597415E+04  0.7818609E-02  0.8369080E-01
        1   -1    0    0  501    0  0.00000000000E+00  0.00000000000E+00  0.18577543236E+04  0.18577543236E+04  0.50400001928E-02 0. -1.
       -1   -1    0    0    0  501  0.00000000000E+00  0.00000000000E+00 -0.90789212736E+03  0.90789212737E+03  0.50400001928E-02 0.  1.
    10030    2    1    2    0    0  0.00000000000E+00  0.00000000000E+00  0.94986219619E+03  0.27656464509E+04  0.25974145029E+04 0.  0.
        5    1    3    3  502    0 -0.17965571003E+01  0.82787817149E+03  0.15403562974E+04  0.17487438656E+04  0.46999998093E+01 0. -1.
       -5    1    3    3    0  502  0.17965571003E+01 -0.82787817149E+03 -0.59049410125E+03  0.10169025853E+04  0.46999998093E+01 0.  1.
</event>
<event>
 5   0  0.2623368E-06  0.2598338E+04  0.7818609E-02  0.8368766E-01
       -2   -1    0    0    0  501  0.00000000000E+00  0.00000000000E+00  0.86747882170E+03  0.86747882170E+03  0.25500000920E-02 0.  1.
        2   -1    0    0  501    0  0.00000000000E+00  0.00000000000E+00 -0.19456838867E+04  0.19456838867E+04  0.25500000920E-02 0. -1.
    10030    2    1    2    0    0  0.00000000000E+00  0.00000000000E+00 -0.10782050650E+04  0.28131627084E+04  0.25983375958E+04 0.  0.
        5    1    3    3  502    0 -0.31618757676E+03 -0.88429759986E+03  0.43281462401E+03  0.10340732167E+04  0.46999998093E+01 0.  1.
       -5    1    3    3    0  502  0.31618757676E+03  0.88429759986E+03 -0.15110196890E+04  0.17790894917E+04  0.46999998093E+01 0. -1.
</event>
<event>
 5   0  0.1088757E-06  0.2609206E+04  0.7818609E-02  0.8365081E-01
        1   -1    0    0  501    0  0.00000000000E+00  0.00000000000E+00  0.15875894919E+04  0.15875894919E+04  0.50400001928E-02 0.  1.
       -1   -1    0    0    0  501  0.00000000000E+00  0.00000000000E+00 -0.10720582919E+04  0.10720582919E+04  0.50400001928E-02 0. -1.
    10030    2    1    2    0    0  0.00000000000E+00  0.00000000000E+00  0.51553119999E+03  0.26596477838E+04  0.26092056101E+04 0.  0.
        5    1    3    3  502    0 -0.19623832169E+03  0.60818955561E+03  0.14171021042E+04  0.15545431735E+04  0.46999998093E+01 0.  1.
       -5    1    3    3    0  502  0.19623832169E+03 -0.60818955561E+03 -0.90157090420E+03  0.11051046103E+04  0.46999998093E+01 0. -1.
</event>
<event>
 5   0  0.2586775E-06  0.2596977E+04  0.7818609E-02  0.8369229E-01
       -2   -1    0    0    0  501  0.00000000000E+00  0.00000000000E+00  0.11252539906E+04  0.11252539906E+04  0.25500000920E-02 0.  1.
        2   -1    0    0  501    0  0.00000000000E+00  0.00000000000E+00 -0.14983923332E+04  0.14983923332E+04  0.25500000920E-02 0. -1.
    10030    2    1    2    0    0  0.00000000000E+00  0.00000000000E+00 -0.37313834263E+03  0.26236463238E+04  0.25969766672E+04 0.  0.
        1    1    3    3  502    0  0.97517233917E+02 -0.12942722259E+04 -0.22466245085E+03  0.13172408370E+04  0.50400001928E-02 0. -1.
       -1    1    3    3    0  502 -0.97517233917E+02  0.12942722259E+04 -0.14847589178E+03  0.13064054869E+04  0.50400001928E-02 0.  1.
</event>
<event>
 5   0  0.2623368E-06  0.2599794E+04  0.7818609E-02  0.8368271E-01
       -2   -1    0    0    0  501  0.00000000000E+00  0.00000000000E+00  0.22236805275E+04  0.22236805275E+04  0.25500000920E-02 0. -1.
        2   -1    0    0  501    0  0.00000000000E+00  0.00000000000E+00 -0.75988096815E+03  0.75988096816E+03  0.25500000920E-02 0.  1.
    10030    2    1    2    0    0  0.00000000000E+00  0.00000000000E+00  0.14637995594E+04  0.29835614957E+04  0.25997942320E+04 0.  0.
        5    1    3    3  502    0 -0.78035252837E+02 -0.10709574581E+04 -0.10881774396E+03  0.10793066150E+04  0.46999998093E+01 0.  1.
       -5    1    3    3    0  502  0.78035252837E+02  0.10709574581E+04  0.15726173033E+04  0.19042548807E+04  0.46999998093E+01 0. -1.
</event>
<event>
 5   0  0.2623368E-06  0.2591773E+04  0.7818609E-02  0.8371001E-01
        2   -1    0    0  501    0  0.00000000000E+00  0.00000000000E+00  0.22746787336E+04  0.22746787336E+04  0.25500000920E-02 0.  1.
       -2   -1    0    0    0  501  0.00000000000E+00  0.00000000000E+00 -0.73826780649E+03  0.73826780649E+03  0.25500000920E-02 0. -1.
    10030    2    1    2    0    0  0.00000000000E+00  0.00000000000E+00  0.15364109271E+04  0.30129465401E+04  0.25917731993E+04 0.  0.
        5    1    3    3  502    0 -0.11420796504E+04 -0.33025641754E+03  0.13676391617E+04  0.18121462953E+04  0.46999998093E+01 0.  1.
       -5    1    3    3    0  502  0.11420796504E+04  0.33025641754E+03  0.16877176544E+03  0.12008002448E+04  0.46999998093E+01 0. -1.
</event>
<event>
 5   0  0.1088757E-06  0.2601716E+04  0.7818609E-02  0.8367619E-01
        1   -1    0    0  501    0  0.00000000000E+00  0.00000000000E+00  0.25601193834E+04  0.25601193834E+04  0.50400001928E-02 0.  1.
       -1   -1    0    0    0  501  0.00000000000E+00  0.00000000000E+00 -0.66099718682E+03  0.66099718684E+03  0.50400001928E-02 0. -1.
    10030    2    1    2    0    0  0.00000000000E+00  0.00000000000E+00  0.18991221966E+04  0.32211165703E+04  0.26017161340E+04 0.  0.
        5    1    3    3  502    0 -0.36131267055E+03 -0.33941098960E+03  0.24385799272E+04  0.24884615362E+04  0.46999998093E+01 0.  1.
       -5    1    3    3    0  502  0.36131267055E+03  0.33941098960E+03 -0.53945773064E+03  0.73265503404E+03  0.46999998093E+01 0. -1.
</event>
<event>
 5   0  0.1088757E-06  0.2593625E+04  0.7818609E-02  0.8370370E-01
       -1   -1    0    0    0  501  0.00000000000E+00  0.00000000000E+00  0.16028500799E+04  0.16028500799E+04  0.50400001928E-02 0. -1.
        1   -1    0    0  501    0  0.00000000000E+00  0.00000000000E+00 -0.10492073264E+04  0.10492073265E+04  0.50400001928E-02 0.  1.
    10030    2    1    2    0    0  0.00000000000E+00  0.00000000000E+00  0.55364275348E+03  0.26520574064E+04  0.25936245272E+04 0.  0.
        5    1    3    3  502    0  0.46324374128E+03 -0.56582694585E+03 -0.81826184183E+03  0.10974194405E+04  0.46999998093E+01 0.  1.
       -5    1    3    3    0  502 -0.46324374128E+03  0.56582694585E+03  0.13719045953E+04  0.15546379659E+04  0.46999998093E+01 0. -1.
</event>
<event>
 5   0  0.2623368E-06  0.2594856E+04  0.7818609E-02  0.8369950E-01
        2   -1    0    0  501    0  0.00000000000E+00  0.00000000000E+00  0.12382879327E+04  0.12382879327E+04  0.25500000920E-02 0. -1.
       -2   -1    0    0    0  501  0.00000000000E+00  0.00000000000E+00 -0.13593930743E+04  0.13593930743E+04  0.25500000920E-02 0.  1.
    10030    2    1    2    0    0  0.00000000000E+00  0.00000000000E+00 -0.12110514166E+03  0.25976810070E+04  0.25948564813E+04 0.  0.
        5    1    3    3  502    0  0.84243692992E+03  0.87903946827E+03  0.38814014812E+03  0.12779222325E+04  0.46999998093E+01 0. -1.
       -5    1    3    3    0  502 -0.84243692992E+03 -0.87903946827E+03 -0.50924528977E+03  0.13197587745E+04  0.46999998093E+01 0.  1.
</event>
<event>
 5   0  0.1100104E-06  0.2600883E+04  0.7818609E-02  0.8367901E-01
        1   -1    0    0  501    0  0.00000000000E+00  0.00000000000E+00  0.19386567961E+04  0.19386567961E+04  0.50400001928E-02 0.  1.
       -1   -1    0    0    0  501  0.00000000000E+00  0.00000000000E+00 -0.87232974507E+03  0.87232974508E+03  0.50400001928E-02 0. -1.
    10030    2    1    2    0    0  0.00000000000E+00  0.00000000000E+00  0.10663270510E+04  0.28109865412E+04  0.26008829183E+04 0.  0.
        4    1    3    3  502    0  0.60509873790E+03 -0.10128774535E+04 -0.57897727548E+02  0.11812785354E+04  0.12699999809E+01 0.  1.
       -4    1    3    3    0  502 -0.60509873790E+03  0.10128774535E+04  0.11242247785E+04  0.16297080058E+04  0.12699999809E+01 0. -1.
</event>
<event>
 5   0  0.2586775E-06  0.2604196E+04  0.7818609E-02  0.8366777E-01
       -2   -1    0    0    0  501  0.00000000000E+00  0.00000000000E+00  0.82432962206E+03  0.82432962206E+03  0.25500000920E-02 0.  1.
        2   -1    0    0  501    0  0.00000000000E+00  0.00000000000E+00 -0.20567731899E+04  0.20567731899E+04  0.25500000920E-02 0. -1.
    10030    2    1    2    0    0  0.00000000000E+00  0.00000000000E+00 -0.12324435678E+04  0.28811028119E+04  0.26041958961E+04 0.  0.
        1    1    3    3  502    0 -0.18199206068E+03  0.11268660115E+04 -0.13093458744E+04  0.17370477071E+04  0.50400001928E-02 0. -1.
       -1    1    3    3    0  502  0.18199206068E+03 -0.11268660115E+04  0.76902306585E+02  0.11440551048E+04  0.50400001928E-02 0.  1.
</event>
<event>
 5   0  0.1088757E-06  0.2581645E+04  0.7818609E-02  0.8374463E-01
        1   -1    0    0  501    0  0.00000000000E+00  0.00000000000E+00  0.17251102306E+04  0.17251102306E+04  0.50400001928E-02 0.  1.
       -1   -1    0    0    0  501  0.00000000000E+00  0.00000000000E+00 -0.96586478367E+03  0.96586478368E+03  0.50400001928E-02 0. -1.
    10030    2    1    2    0    0  0.00000000000E+00  0.00000000000E+00  0.75924544696E+03  0.26909750143E+04  0.25816453821E+04 0.  0.
        5    1    3    3  502    0  0.85722115818E+03  0.96291506883E+03  0.44691347212E+03  0.13644732630E+04  0.46999998093E+01 0.  1.
       -5    1    3    3    0  502 -0.85722115818E+03 -0.96291506883E+03  0.31233197484E+03  0.13265017513E+04  0.46999998093E+01 0. -1.
</event>
<event>
 5   0  0.1032076E-06  0.2611026E+04  0.7818609E-02  0.8364466E-01
       -1   -1    0    0    0  501  0.00000000000E+00  0.00000000000E+00  0.14730394786E+04  0.14730394786E+04  0.50400001928E-02 0.  1.
        1   -1    0    0  501    0  0.00000000000E+00  0.00000000000E+00 -0.11570386990E+04  0.11570386990E+04  0.50400001928E-02 0. -1.
    10030    2    1    2    0    0  0.00000000000E+00  0.00000000000E+00  0.31600077962E+03  0.26300781776E+04  0.26110256084E+04 0.  0.
        1    1    3    3  502    0 -0.98331587757E+03  0.85235123232E+03  0.52590029547E+02  0.13023741588E+04  0.50400001928E-02 0.  1.
       -1    1    3    3    0  502  0.98331587757E+03 -0.85235123232E+03  0.26341075007E+03  0.13277040188E+04  0.50400001928E-02 0. -1.
</event>
<event>
 5   0  0.1032076E-06  0.2599310E+04  0.7818609E-02  0.8368436E-01
        1   -1    0    0  501    0  0.00000000000E+00  0.00000000000E+00  0.12089972765E+04  0.12089972765E+04  0.50400001928E-02 0.  1.
       -1   -1    0    0    0  501  0.00000000000E+00  0.00000000000E+00 -0.13971104317E+04  0.13971104317E+04  0.50400001928E-02 0. -1.
    10030    2    1    2    0    0  0.00000000000E+00  0.00000000000E+00 -0.18811315519E+03  0.26061077083E+04  0.25993096829E+04 0.  0.
        1    1    3    3  502    0  0.12348921279E+04  0.38572394678E+03  0.30207778149E+02  0.12940842479E+04  0.50400001928E-02 0. -1.
       -1    1    3    3    0  502 -0.12348921279E+04 -0.38572394678E+03 -0.21832093334E+03  0.13120234604E+04  0.50400001928E-02 0.  1.
</event>
<event>
 5   0  0.1100104E-06  0.2604528E+04  0.7818609E-02  0.8366665E-01
        1   -1    0    0  501    0  0.00000000000E+00  0.00000000000E+00  0.85034212918E+03  0.85034212920E+03  0.50400001928E-02 0.  1.
       -1   -1    0    0    0  501  0.00000000000E+00  0.00000000000E+00 -0.19943644309E+04  0.19943644309E+04  0.50400001928E-02 0. -1.
    10030    2    1    2    0    0  0.00000000000E+00  0.00000000000E+00 -0.11440223017E+04  0.28447065601E+04  0.26045284384E+04 0.  0.
        4    1    3    3  502    0 -0.10412357793E+04 -0.54055737038E+03  0.45372117949E+02  0.11740674856E+04  0.12699999809E+01 0.  1.
       -4    1    3    3    0  502  0.10412357793E+04  0.54055737038E+03 -0.11893944197E+04  0.16706390745E+04  0.12699999809E+01 0. -1.
</event>
<event>
 5   0  0.2705807E-06  0.2602454E+04  0.7818609E-02  0.8367368E-01
       -2   -1    0    0    0  501  0.00000000000E+00  0.00000000000E+00  0.63053789375E+03  0.63053789375E+03  0.25500000920E-02 0.  1.
        2   -1    0    0  501    0  0.00000000000E+00  0.00000000000E+00 -0.26853139512E+04  0.26853139512E+04  0.25500000920E-02 0. -1.
    10030    2    1    2    0    0  0.00000000000E+00  0.00000000000E+00 -0.20547760574E+04  0.33158518449E+04  0.26024543822E+04 0.  0.
        4    1    3    3  502    0 -0.75295876962E+03  0.10542462181E+04 -0.87233905747E+03  0.15618447558E+04  0.12699999809E+01 0. -1.
       -4    1    3    3    0  502  0.75295876962E+03 -0.10542462181E+04 -0.11824370000E+04  0.17540070892E+04  0.12699999809E+01 0.  1.
</event>
<event>
 5   0  0.2586775E-06  0.2599433E+04  0.7818609E-02  0.8368394E-01
       -2   -1    0    0    0  501  0.00000000000E+00  0.00000000000E+00  0.11000171061E+04  0.11000171061E+04  0.25500000920E-02 0.  1.
        2   -1    0    0  501    0  0.00000000000E+00  0.00000000000E+00 -0.15356700904E+04  0.15356700904E+04  0.25500000920E-02 0. -1.
    10030    2    1    2    0    0  0.00000000000E+00  0.00000000000E+00 -0.43565298431E+03  0.26356871965E+04  0.25994332988E+04 0.  0.
        1    1    3    3  502    0 -0.57748958980E+02 -0.91274733359E+03  0.71853611788E+03  0.11630721345E+04  0.50400001928E-02 0.  1.
       -1    1    3    3    0  502  0.57748958980E+02  0.91274733359E+03 -0.11541891022E+04  0.14726150620E+04  0.50400001928E-02 0. -1.
</event>
<event>
 5   0  0.1100104E-06  0.2595047E+04  0.7818609E-02  0.8369885E-01
       -1   -1    0    0    0  501  0.00000000000E+00  0.00000000000E+00  0.11391436156E+04  0.11391436156E+04  0.50400001928E-02 0. -1.
        1   -1    0    0  501    0  0.00000000000E+00  0.00000000000E+00 -0.14779241181E+04  0.14779241181E+04  0.50400001928E-02 0.  1.
    10030    2    1    2    0    0  0.00000000000E+00  0.00000000000E+00 -0.33878050249E+03  0.26170677337E+04  0.25950474551E+04 0.  0.
        4    1    3    3  502    0  0.11671608639E+04 -0.39818404285E+01 -0.74102085808E+03  0.13825316858E+04  0.12699999809E+01 0.  1.
       -4    1    3    3    0  502 -0.11671608639E+04  0.39818404285E+01  0.40224035560E+03  0.12345360480E+04  0.12699999809E+01 0. -1.
</event>
<event>
 5   0  0.2623368E-06  0.2578517E+04  0.7818609E-02  0.8375535E-01
        2   -1    0    0  501    0  0.00000000000E+00  0.00000000000E+00  0.10503861713E+04  0.10503861713E+04  0.25500000920E-02 0. -1.
       -2   -1    0    0    0  501  0.00000000000E+00  0.00000000000E+00 -0.15824541191E+04  0.15824541191E+04  0.25500000920E-02 0.  1.
    10030    2    1    2    0    0  0.00000000000E+00  0.00000000000E+00 -0.53206794781E+03  0.26328402904E+04  0.25785173441E+04 0.  0.
        5    1    3    3  502    0 -0.99775388704E+03 -0.41553063654E+03 -0.98368341704E+03  0.14614491726E+04  0.46999998093E+01 0.  1.
       -5    1    3    3    0  502  0.99775388704E+03  0.41553063654E+03  0.45161546923E+03  0.11713911179E+04  0.46999998093E+01 0. -1.
</event>
<event>
 5   0  0.2820028E-06  0.2599313E+04  0.7818609E-02  0.8368435E-01
        2   -1    0    0  501    0  0.00000000000E+00  0.00000000000E+00  0.20538547013E+04  0.20538547013E+04  0.25500000920E-02 0. -1.
       -2   -1    0    0    0  501  0.00000000000E+00  0.00000000000E+00 -0.82240796146E+03  0.82240796147E+03  0.25500000920E-02 0.  1.
    10030    2    1    2    0    0  0.00000000000E+00  0.00000000000E+00  0.12314467398E+04  0.28762626627E+04  0.25993125691E+04 0.  0.
        3    1    3    3  502    0  0.11358398590E+04  0.55266174245E+03  0.27729481148E+03  0.12932360997E+04  0.10100000352E+00 0. -1.
       -3    1    3    3    0  502 -0.11358398590E+04 -0.55266174245E+03  0.95415192833E+03  0.15830265631E+04  0.10100000352E+00 0.  1.
</event>
<event>
 5   0  0.2705807E-06  0.2602700E+04  0.7818609E-02  0.8367285E-01
        2   -1    0    0  501    0  0.00000000000E+00  0.00000000000E+00  0.17007043109E+04  0.17007043109E+04  0.25500000920E-02 0.  1.
       -2   -1    0    0    0  501  0.00000000000E+00  0.00000000000E+00 -0.99577063156E+03  0.99577063156E+03  0.25500000920E-02 0. -1.
    10030    2    1    2    0    0  0.00000000000E+00  0.00000000000E+00  0.70493367930E+03  0.26964749424E+04  0.26026996797E+04 0.  0.
        4    1    3    3  502    0 -0.56021888045E+03 -0.98231398773E+03 -0.31472668805E+03  0.11738144937E+04  0.12699999809E+01 0. -1.
       -4    1    3    3    0  502  0.56021888045E+03  0.98231398773E+03  0.10196603674E+04  0.15226604487E+04  0.12699999809E+01 0.  1.
</event>
<event>
 5   0  0.2746631E-06  0.2600223E+04  0.7818609E-02  0.8368125E-01
        2   -1    0    0  501    0  0.00000000000E+00  0.00000000000E+00  0.18600019043E+04  0.18600019043E+04  0.25500000920E-02 0.  1.
       -2   -1    0    0    0  501  0.00000000000E+00  0.00000000000E+00 -0.90875718633E+03  0.90875718634E+03  0.25500000920E-02 0. -1.
    10030    2    1    2    0    0  0.00000000000E+00  0.00000000000E+00  0.95124471794E+03  0.27687590906E+04  0.26002231421E+04 0.  0.
        2    1    3    3  502    0 -0.98768672522E+02 -0.55700420099E+03  0.17220853682E+04  0.18126188087E+04  0.25500000920E-02 0.  1.
       -2    1    3    3    0  502  0.98768672522E+02  0.55700420099E+03 -0.77084065021E+03  0.95614028187E+03  0.25500000920E-02 0. -1.
</event>
<event>
 5   0  0.2746631E-06  0.2591462E+04  0.7818609E-02  0.8371107E-01
       -2   -1    0    0    0  501  0.00000000000E+00  0.00000000000E+00  0.17795783891E+04  0.17795783891E+04  0.25500000920E-02 0. -1.
        2   -1    0    0  501    0  0.00000000000E+00  0.00000000000E+00 -0.94343651659E+03  0.94343651659E+03  0.25500000920E-02 0.  1.
    10030    2    1    2    0    0  0.00000000000E+00  0.00000000000E+00  0.83614187256E+03  0.27230149057E+04  0.25914623180E+04 0.  0.
        2    1    3    3  502    0 -0.25012114126E+03 -0.14585021514E+02  0.17538831396E+04  0.17716882839E+04  0.25500000920E-02 0. -1.
       -2    1    3    3    0  502  0.25012114126E+03  0.14585021514E+02 -0.91774126702E+03  0.95132662180E+03  0.25500000920E-02 0.  1.
</event>
<event>
 5   0  0.2746631E-06  0.2595001E+04  0.7818609E-02  0.8369901E-01
       -2   -1    0    0    0  501  0.00000000000E+00  0.00000000000E+00  0.16006391886E+04  0.16006391886E+04  0.25500000920E-02 0.  1.
        2   -1    0    0  501    0  0.00000000000E+00  0.00000000000E+00 -0.10517720346E+04  0.10517720346E+04  0.25500000920E-02 0. -1.
    10030    2    1    2    0    0  0.00000000000E+00  0.00000000000E+00  0.54886715394E+03  0.26524112232E+04  0.25950009912E+04 0.  0.
        2    1    3    3  502    0  0.54402616259E+03  0.93516327279E+02  0.14746335551E+04  0.15745646671E+04  0.25500000920E-02 0.  1.
       -2    1    3    3    0  502 -0.54402616259E+03 -0.93516327279E+02 -0.92576640113E+03  0.10778465561E+04  0.25500000920E-02 0. -1.
</event>
<event>
 5   0  0.2820028E-06  0.2598372E+04  0.7818609E-02  0.8368754E-01
       -2   -1    0    0    0  501  0.00000000000E+00  0.00000000000E+00  0.15697333445E+04  0.15697333445E+04  0.25500000920E-02 0. -1.
        2   -1    0    0  501    0  0.00000000000E+00  0.00000000000E+00 -0.10752685152E+04  0.10752685152E+04  0.25500000920E-02 0.  1.
    10030    2    1    2    0    0  0.00000000000E+00  0.00000000000E+00  0.49446482938E+03  0.26450018597E+04  0.25983724464E+04 0.  0.
        3    1    3    3  502    0  0.60749783752E+03  0.60924572006E+03 -0.74371078242E+03  0.11372509433E+04  0.10100000352E+00 0.  1.
       -3    1    3    3    0  502 -0.60749783752E+03 -0.60924572006E+03  0.12381756118E+04  0.15077509164E+04  0.10100000352E+00 0. -1.
</event>
<event>
 5   0  0.2705807E-06  0.2595503E+04  0.7818609E-02  0.8369730E-01
       -2   -1    0    0    0  501  0.00000000000E+00  0.00000000000E+00  0.86997056718E+03  0.86997056719E+03  0.25500000920E-02 0.  1.
        2   -1    0    0  501    0  0.00000000000E+00  0.00000000000E+00 -0.19358802090E+04  0.19358802090E+04  0.25500000920E-02 0. -1.
    10030    2    1    2    0    0  0.00000000000E+00  0.00000000000E+00 -0.10659096418E+04  0.28058507762E+04  0.25955028826E+04 0.  0.
        4    1    3    3  502    0  0.48256295580E+03  0.28518918194E+03 -0.17982637489E+04  0.18836013377E+04  0.12699999809E+01 0. -1.
       -4    1    3    3    0  502 -0.48256295580E+03 -0.28518918194E+03  0.73235410707E+03  0.92224943852E+03  0.12699999809E+01 0.  1.
</event>
<event>
 5   0  0.2586775E-06  0.2605010E+04  0.7818609E-02  0.8366501E-01
       -2   -1    0    0    0  501  0.00000000000E+00  0.00000000000E+00  0.18905552573E+04  0.18905552573E+04  0.25500000920E-02 0.  1.
        2   -1    0    0  501    0  0.00000000000E+00  0.00000000000E+00 -0.89736576120E+03  0.89736576121E+03  0.25500000920E-02 0. -1.
    10030    2    1    2    0    0  0.00000000000E+00  0.00000000000E+00  0.99318949613E+03  0.27879210185E+04  0.26050102169E+04 0.  0.
        1    1    3    3  502    0  0.11396524268E+04 -0.66174611385E+02  0.11677934849E+04  0.16330732857E+04  0.50400001928E-02 0. -1.
       -1    1    3    3    0  502 -0.11396524268E+04  0.66174611385E+02 -0.17460398877E+03  0.11548477328E+04  0.50400001928E-02 0.  1.
</event>
<event>
 5   0  0.1032076E-06  0.2609557E+04  0.7818609E-02  0.8364962E-01
       -1   -1    0    0    0  501  0.00000000000E+00  0.00000000000E+00  0.10416154460E+04  0.10416154460E+04  0.50400001928E-02 0.  1.
        1   -1    0    0  501    0  0.00000000000E+00  0.00000000000E+00 -0.16344289486E+04  0.16344289486E+04  0.50400001928E-02 0. -1.
    10030    2    1    2    0    0  0.00000000000E+00  0.00000000000E+00 -0.59281350264E+03  0.26760443947E+04  0.26095566200E+04 0.  0.
        1    1    3    3  502    0 -0.61274619499E+03  0.63018529791E+03 -0.12852653899E+04  0.15570801301E+04  0.50400001928E-02 0. -1.
       -1    1    3    3    0  502  0.61274619499E+03 -0.63018529791E+03  0.69245188722E+03  0.11189642645E+04  0.50400001928E-02 0.  1.
</event>
<event>
 5   0  0.1055179E-06  0.2599503E+04  0.7818609E-02  0.8368370E-01
        1   -1    0    0  501    0  0.00000000000E+00  0.00000000000E+00  0.13680155071E+04  0.13680155071E+04  0.50400001928E-02 0.  1.
       -1   -1    0    0    0  501  0.00000000000E+00  0.00000000000E+00 -0.12348942494E+04  0.12348942494E+04  0.50400001928E-02 0. -1.
    10030    2    1    2    0    0  0.00000000000E+00  0.00000000000E+00  0.13312125771E+03  0.26029097564E+04  0.25995034008E+04 0.  0.
        3    1    3    3  502    0 -0.90756795241E+03  0.37899870360E+03 -0.78427918982E+03  0.12579401668E+04  0.10100000352E+00 0. -1.
       -3    1    3    3    0  502  0.90756795241E+03 -0.37899870360E+03  0.91740044753E+03  0.13449695896E+04  0.10100000352E+00 0.  1.
</event>
<event>
 5   0  0.1032076E-06  0.2598965E+04  0.7818609E-02  0.8368553E-01
       -1   -1    0    0    0  501  0.00000000000E+00  0.00000000000E+00  0.12023876270E+04  0.12023876270E+04  0.50400001928E-02 0.  1.
        1   -1    0    0  501    0  0.00000000000E+00  0.00000000000E+00 -0.14044182081E+04  0.14044182081E+04  0.50400001928E-02 0. -1.
    10030    2    1    2    0    0  0.00000000000E+00  0.00000000000E+00 -0.20203058112E+03  0.26068058352E+04  0.25989652377E+04 0.  0.
        1    1    3    3  502    0 -0.61009726152E+03  0.19434916234E+03  0.10331766857E+04  0.12155016781E+04  0.50400001928E-02 0.  1.
       -1    1    3    3    0  502  0.61009726152E+03 -0.19434916234E+03 -0.12352072669E+04  0.13913041571E+04  0.50400001928E-02 0. -1.
</event>
<event>
 5   0  0.2705807E-06  0.2602889E+04  0.7818609E-02  0.8367220E-01
        2   -1    0    0  501    0  0.00000000000E+00  0.00000000000E+00  0.95728866169E+03  0.95728866169E+03  0.25500000920E-02 0.  1.
       -2   -1    0    0    0  501  0.00000000000E+00  0.00000000000E+00 -0.17693287672E+04  0.17693287672E+04  0.25500000920E-02 0. -1.
    10030    2    1    2    0    0  0.00000000000E+00  0.00000000000E+00 -0.81204010555E+03  0.27266174289E+04  0.26028894465E+04 0.  0.
        4    1    3    3  502    0 -0.69046199885E+03  0.90877269970E+03 -0.10611701306E+04  0.15584252470E+04  0.12699999809E+01 0. -1.
       -4    1    3    3    0  502  0.69046199885E+03 -0.90877269970E+03  0.24913002506E+03  0.11681921819E+04  0.12699999809E+01 0.  1.
</event>
<event>
 5   0  0.2746631E-06  0.2601071E+04  0.7818609E-02  0.8367837E-01
       -2   -1    0    0    0  501  0.00000000000E+00  0.00000000000E+00  0.66814574038E+03  0.66814574038E+03  0.25500000920E-02 0. -1.
        2   -1    0    0  501    0  0.00000000000E+00  0.00000000000E+00 -0.25314727320E+04  0.25314727320E+04  0.25500000920E-02 0.  1.
    10030    2    1    2    0    0  0.00000000000E+00  0.00000000000E+00 -0.18633269916E+04  0.31996184724E+04  0.26010711046E+04 0.  0.
        2    1    3    3  502    0  0.24399262570E+03  0.10832235901E+04 -0.98731639802E+02  0.11147437751E+04  0.25500000920E-02 0. -1.
       -2    1    3    3    0  502 -0.24399262570E+03 -0.10832235901E+04 -0.17645953518E+04  0.20848746972E+04  0.25500000920E-02 0.  1.
</event>
<event>
 5   0  0.2746631E-06  0.2603538E+04  0.7818609E-02  0.8367000E-01
       -2   -1    0    0    0  501  0.00000000000E+00  0.00000000000E+00  0.97108197495E+03  0.97108197495E+03  0.25500000920E-02 0.  1.
        2   -1    0    0  501    0  0.00000000000E+00  0.00000000000E+00 -0.17450668788E+04  0.17450668788E+04  0.25500000920E-02 0. -1.
    10030    2    1    2    0    0  0.00000000000E+00  0.00000000000E+00 -0.77398490381E+03  0.27161488537E+04  0.26035383547E+04 0.  0.
        2    1    3    3  502    0 -0.10430348121E+04  0.27885501288E+03  0.37173377447E+03  0.11418702801E+04  0.25500000920E-02 0.  1.
       -2    1    3    3    0  502  0.10430348121E+04 -0.27885501288E+03 -0.11457186783E+04  0.15742785736E+04  0.25500000920E-02 0. -1.
</event>
<event>
 5   0  0.2586775E-06  0.2602941E+04  0.7818609E-02  0.8367203E-01
        2   -1    0    0  501    0  0.00000000000E+00  0.00000000000E+00  0.11759555219E+04  0.11759555219E+04  0.25500000920E-02 0. -1.
       -2   -1    0    0    0  501  0.00000000000E+00  0.00000000000E+00 -0.14403822142E+04  0.14403822142E+04  0.25500000920E-02 0.  1.
    10030    2    1    2    0    0  0.00000000000E+00  0.00000000000E+00 -0.26442669223E+03  0.26163377361E+04  0.26029409663E+04 0.  0.
        1    1    3    3  502    0  0.86921362543E+03 -0.71664383850E+00 -0.11058538382E+04  0.14065722703E+04  0.50400001928E-02 0.  1.
       -1    1    3    3    0  502 -0.86921362543E+03  0.71664383850E+00  0.84142714596E+03  0.12097654658E+04  0.50400001928E-02 0. -1.
</event>
<event>
 5   0  0.2623368E-06  0.2598902E+04  0.7818609E-02  0.8368574E-01
        2   -1    0    0  501    0  0.00000000000E+00  0.00000000000E+00  0.22446522631E+04  0.22446522631E+04  0.25500000920E-02 0.  1.
       -2   -1    0    0    0  501  0.00000000000E+00  0.00000000000E+00 -0.75226489250E+03  0.75226489250E+03  0.25500000920E-02 0. -1.
    10030    2    1    2    0    0  0.00000000000E+00  0.00000000000E+00  0.14923873706E+04  0.29969171556E+04  0.25989021477E+04 0.  0.
        5    1    3    3  502    0  0.41633822469E+03 -0.20171875157E+03  0.21464598343E+04  0.21957549686E+04  0.46999998093E+01 0.  1.
       -5    1    3    3    0  502 -0.41633822469E+03  0.20171875157E+03 -0.65407246369E+03  0.80116218697E+03  0.46999998093E+01 0. -1.
</event>
<event>
 5   0  0.1122628E-06  0.2599888E+04  0.7818609E-02  0.8368239E-01
       -1   -1    0    0    0  501  0.00000000000E+00  0.00000000000E+00  0.18545535522E+04  0.18545535522E+04  0.50400001928E-02 0. -1.
        1   -1    0    0  501    0  0.00000000000E+00  0.00000000000E+00 -0.91119229228E+03  0.91119229229E+03  0.50400001928E-02 0.  1.
    10030    2    1    2    0    0  0.00000000000E+00  0.00000000000E+00  0.94336125990E+03  0.27657458445E+04  0.25998883841E+04 0.  0.
        2    1    3    3  502    0  0.77489683741E+03  0.85049685682E+03  0.11152935287E+04  0.16024012192E+04  0.25500000920E-02 0. -1.
       -2    1    3    3    0  502 -0.77489683741E+03 -0.85049685682E+03 -0.17193226883E+03  0.11633446253E+04  0.25500000920E-02 0.  1.
</event>
<event>
 5   0  0.1055179E-06  0.2601724E+04  0.7818609E-02  0.8367616E-01
        1   -1    0    0  501    0  0.00000000000E+00  0.00000000000E+00  0.16544036642E+04  0.16544036642E+04  0.50400001928E-02 0. -1.
       -1   -1    0    0    0  501  0.00000000000E+00  0.00000000000E+00 -0.10228714565E+04  0.10228714565E+04  0.50400001928E-02 0.  1.
    10030    2    1    2    0    0  0.00000000000E+00  0.00000000000E+00  0.63153220774E+03  0.26772751207E+04  0.26017242634E+04 0.  0.
        3    1    3    3  502    0  0.21289139589E+03 -0.75416576986E+03  0.13842599808E+04  0.15906805020E+04  0.10100000352E+00 0. -1.
       -3    1    3    3    0  502 -0.21289139589E+03  0.75416576986E+03 -0.75272777306E+03  0.10865946187E+04  0.10100000352E+00 0.  1.
</event>
<event>
 5   0  0.1032076E-06  0.2597583E+04  0.7818609E-02  0.8369023E-01
       -1   -1    0    0    0  501  0.00000000000E+00  0.00000000000E+00  0.92495080948E+03  0.92495080949E+03  0.50400001928E-02 0.  1.
        1   -1    0    0  501    0  0.00000000000E+00  0.00000000000E+00 -0.18237286946E+04  0.18237286947E+04  0.50400001928E-02 0. -1.
    10030    2    1    2    0    0  0.00000000000E+00  0.00000000000E+00 -0.89877788517E+03  0.27486795041E+04  0.25975829784E+04 0.  0.
        1    1    3    3  502    0  0.26006727465E+03  0.41197766435E+03 -0.17233718369E+04  0.17909134740E+04  0.50400001928E-02 0. -1.
       -1    1    3    3    0  502 -0.26006727465E+03 -0.41197766435E+03  0.82459395170E+03  0.95776603013E+03  0.50400001928E-02 0.  1.
</event>
<event>
 5   0  0.1122628E-06  0.2592261E+04  0.7818609E-02  0.8370835E-01
       -1   -1    0    0    0  501  0.00000000000E+00  0.00000000000E+00  0.13553043323E+04  0.13553043323E+04  0.50400001928E-02 0.  1.
        1   -1    0    0  501    0  0.00000000000E+00  0.00000000000E+00 -0.12395405895E+04  0.12395405895E+04  0.50400001928E-02 0. -1.
    10030    2    1    2    0    0  0.00000000000E+00  0.00000000000E+00  0.11576374280E+03  0.25948449218E+04  0.25922613533E+04 0.  0.
        2    1    3    3  502    0  0.12458016015E+04  0.12566619725E+02  0.41569467315E+03  0.13133855533E+04  0.25500000920E-02 0. -1.
       -2    1    3    3    0  502 -0.12458016015E+04 -0.12566619725E+02 -0.29993093036E+03  0.12814593685E+04  0.25500000920E-02 0.  1.
</event>
<event>
 5   0  0.2820028E-06  0.2599602E+04  0.7818609E-02  0.8368337E-01
       -2   -1    0    0    0  501  0.00000000000E+00  0.00000000000E+00  0.11892143352E+04  0.11892143352E+04  0.25500000920E-02 0. -1.
        2   -1    0    0  501    0  0.00000000000E+00  0.00000000000E+00 -0.14206708034E+04  0.14206708034E+04  0.25500000920E-02 0.  1.
    10030    2    1    2    0    0  0.00000000000E+00  0.00000000000E+00 -0.23145646813E+03  0.26098851386E+04  0.25996015733E+04 0.  0.
        3    1    3    3  502    0  0.78535431401E+03 -0.10206259845E+03 -0.11504769673E+04  0.13967087868E+04  0.10100000352E+00 0.  1.
       -3    1    3    3    0  502 -0.78535431401E+03  0.10206259845E+03  0.91902049918E+03  0.12131763518E+04  0.10100000352E+00 0. -1.
</event>
<event>
 5   0  0.1122628E-06  0.2599872E+04  0.7818609E-02  0.8368245E-01
       -1   -1    0    0    0  501  0.00000000000E+00  0.00000000000E+00  0.14062283249E+04  0.14062283249E+04  0.50400001928E-02 0. -1.
        1   -1    0    0  501    0  0.00000000000E+00  0.00000000000E+00 -0.12016779512E+04  0.12016779513E+04  0.50400001928E-02 0.  1.
    10030    2    1    2    0    0  0.00000000000E+00  0.00000000000E+00  0.20455037365E+03  0.26079062762E+04  0.25998719757E+04 0.  0.
        2    1    3    3  502    0 -0.20933812726E+03 -0.92167917522E+03 -0.79296172989E+03  0.12337354897E+04  0.25500000920E-02 0.  1.
       -2    1    3    3    0  502  0.20933812726E+03  0.92167917522E+03  0.99751210354E+03  0.13741707864E+04  0.25500000920E-02 0. -1.
</event>
<event>
 5   0  0.2623368E-06  0.2524454E+04  0.7818609E-02  0.8394325E-01
       -2   -1    0    0    0  501  0.00000000000E+00  0.00000000000E+00  0.80766061304E+03  0.80766061305E+03  0.25500000920E-02 0.  1.
        2   -1    0    0  501    0  0.00000000000E+00  0.00000000000E+00 -0.19726322655E+04  0.19726322655E+04  0.25500000920E-02 0. -1.
    10030    2    1    2    0    0  0.00000000000E+00  0.00000000000E+00 -0.11649716524E+04  0.27802928785E+04  0.25244543053E+04 0.  0.
        5    1    3    3  502    0  0.53708784616E+03 -0.10693295529E+04 -0.10247632525E+04  0.15754652839E+04  0.46999998093E+01 0. -1.
       -5    1    3    3    0  502 -0.53708784616E+03  0.10693295529E+04 -0.14020839993E+03  0.12048275946E+04  0.46999998093E+01 0.  1.
</event>
<event>
 5   0  0.2586775E-06  0.2602458E+04  0.7818609E-02  0.8367367E-01
       -2   -1    0    0    0  501  0.00000000000E+00  0.00000000000E+00  0.72662740330E+03  0.72662740331E+03  0.25500000920E-02 0. -1.
        2   -1    0    0  501    0  0.00000000000E+00  0.00000000000E+00 -0.23302127287E+04  0.23302127287E+04  0.25500000920E-02 0.  1.
    10030    2    1    2    0    0  0.00000000000E+00  0.00000000000E+00 -0.16035853254E+04  0.30568401320E+04  0.26024576263E+04 0.  0.
        1    1    3    3  502    0 -0.83835023182E+03  0.10995390148E+03  0.35997594576E+03  0.91896879882E+03  0.50400001928E-02 0. -1.
       -1    1    3    3    0  502  0.83835023182E+03 -0.10995390148E+03 -0.19635612711E+04  0.21378713332E+04  0.50400001928E-02 0.  1.
</event>
<event>
 5   0  0.1088757E-06  0.2595395E+04  0.7818609E-02  0.8369767E-01
       -1   -1    0    0    0  501  0.00000000000E+00  0.00000000000E+00  0.10909987052E+04  0.10909987052E+04  0.50400001928E-02 0. -1.
        1   -1    0    0  501    0  0.00000000000E+00  0.00000000000E+00 -0.15435570178E+04  0.15435570178E+04  0.50400001928E-02 0.  1.
    10030    2    1    2    0    0  0.00000000000E+00  0.00000000000E+00 -0.45255831261E+03  0.26345557230E+04  0.25953949278E+04 0.  0.
        5    1    3    3  502    0 -0.39942323883E+02  0.11715404683E+04 -0.79136006243E+03  0.14143462435E+04  0.46999998093E+01 0.  1.
       -5    1    3    3    0  502  0.39942323883E+02 -0.11715404683E+04  0.33880174982E+03  0.12202094795E+04  0.46999998093E+01 0. -1.
</event>
<event>
 5   0  0.1055179E-06  0.2606336E+04  0.7818609E-02  0.8366052E-01
        1   -1    0    0  501    0  0.00000000000E+00  0.00000000000E+00  0.21526487205E+04  0.21526487205E+04  0.50400001928E-02 0.  1.
       -1   -1    0    0    0  501  0.00000000000E+00  0.00000000000E+00 -0.78891041746E+03  0.78891041748E+03  0.50400001928E-02 0. -1.
    10030    2    1    2    0    0  0.00000000000E+00  0.00000000000E+00  0.13637383031E+04  0.29415591380E+04  0.26063361263E+04 0.  0.
        3    1    3    3  502    0 -0.58328414006E+03  0.26721711046E+03  0.19620537039E+04  0.20642868307E+04  0.10100000352E+00 0.  1.
       -3    1    3    3    0  502  0.58328414006E+03 -0.26721711046E+03 -0.59831540082E+03  0.87727230734E+03  0.10100000352E+00 0. -1.
</event>
<event>
 5   0  0.1032076E-06  0.2599050E+04  0.7818609E-02  0.8368524E-01
       -1   -1    0    0    0  501  0.00000000000E+00  0.00000000000E+00  0.93313909518E+03  0.93313909519E+03  0.50400001928E-02 0.  1.
        1   -1    0    0  501    0  0.00000000000E+00  0.00000000000E+00 -0.18097685173E+04  0.18097685173E+04  0.50400001928E-02 0. -1.
    10030    2    1    2    0    0  0.00000000000E+00  0.00000000000E+00 -0.87662942214E+03  0.27429076125E+04  0.25990504087E+04 0.  0.
        1    1    3    3  502    0  0.54620220843E+03  0.10621540817E+04 -0.97877094109E+03  0.15441828586E+04  0.50400001928E-02 0. -1.
       -1    1    3    3    0  502 -0.54620220843E+03 -0.10621540817E+04  0.10214151896E+03  0.11987247539E+04  0.50400001928E-02 0.  1.
</event>
<event>
 5   0  0.1088757E-06  0.2606215E+04  0.7818609E-02  0.8366093E-01
        1   -1    0    0  501    0  0.00000000000E+00  0.00000000000E+00  0.16562955368E+04  0.16562955368E+04  0.50400001928E-02 0.  1.
       -1   -1    0    0    0  501  0.00000000000E+00  0.00000000000E+00 -0.10252330739E+04  0.10252330739E+04  0.50400001928E-02 0. -1.
    10030    2    1    2    0    0  0.00000000000E+00  0.00000000000E+00  0.63106246285E+03  0.26815286107E+04  0.26062148526E+04 0.  0.
        5    1    3    3  502    0  0.75095042746E+03  0.46053701917E+03  0.13035120430E+04  0.15732725851E+04  0.46999998093E+01 0.  1.
       -5    1    3    3    0  502 -0.75095042746E+03 -0.46053701917E+03 -0.67244958019E+03  0.11082560257E+04  0.46999998093E+01 0. -1.
</event>
<event>
 5   0  0.2746631E-06  0.2607155E+04  0.7818609E-02  0.8365775E-01
       -2   -1    0    0    0  501  0.00000000000E+00  0.00000000000E+00  0.14662035799E+04  0.14662035799E+04  0.25500000920E-02 0. -1.
        2   -1    0    0  501    0  0.00000000000E+00  0.00000000000E+00 -0.11589896678E+04  0.11589896678E+04  0.25500000920E-02 0.  1.
    10030    2    1    2    0    0  0.00000000000E+00  0.00000000000E+00  0.30721391212E+03  0.26251932477E+04  0.26071553847E+04 0.  0.
        2    1    3    3  502    0  0.13611780180E+03  0.42282716344E+02 -0.11511198067E+04  0.11599106403E+04  0.25500000920E-02 0.  1.
       -2    1    3    3    0  502 -0.13611780180E+03 -0.42282716344E+02  0.14583337188E+04  0.14652826074E+04  0.25500000920E-02 0. -1.
</event>
<event>
 5   0  0.1122628E-06  0.2601185E+04  0.7818609E-02  0.8367799E-01
       -1   -1    0    0    0  501  0.00000000000E+00  0.00000000000E+00  0.93599384786E+03  0.93599384787E+03  0.50400001928E-02 0.  1.
        1   -1    0    0  501    0  0.00000000000E+00  0.00000000000E+00 -0.18072140314E+04  0.18072140314E+04  0.50400001928E-02 0. -1.
    10030    2    1    2    0    0  0.00000000000E+00  0.00000000000E+00 -0.87122018356E+03  0.27432078793E+04  0.26011852800E+04 0.  0.
        2    1    3    3  502    0 -0.36048743073E+03 -0.20237265575E+03 -0.17360789923E+04  0.17846221301E+04  0.25500000920E-02 0. -1.
       -2    1    3    3    0  502  0.36048743073E+03  0.20237265575E+03  0.86485880877E+03  0.95858574923E+03  0.25500000920E-02 0.  1.
</event>
<event>
 5   0  0.2623368E-06  0.2595487E+04  0.7818609E-02  0.8369736E-01
        2   -1    0    0  501    0  0.00000000000E+00  0.00000000000E+00  0.12003398836E+04  0.12003398836E+04  0.25500000920E-02 0.  1.
       -2   -1    0    0    0  501  0.00000000000E+00  0.00000000000E+00 -0.14030509668E+04  0.14030509668E+04  0.25500000920E-02 0. -1.
    10030    2    1    2    0    0  0.00000000000E+00  0.00000000000E+00 -0.20271108322E+03  0.26033908504E+04  0.25954868786E+04 0.  0.
        5    1    3    3  502    0 -0.15602151132E+02 -0.23928745323E+03 -0.13806272451E+04  0.14013049605E+04  0.46999998093E+01 0. -1.
       -5    1    3    3    0  502  0.15602151132E+02  0.23928745323E+03  0.11779161619E+04  0.12020858899E+04  0.46999998093E+01 0.  1.
</event>
<event>
 5   0  0.1032076E-06  0.2598834E+04  0.7818609E-02  0.8368597E-01
        1   -1    0    0  501    0  0.00000000000E+00  0.00000000000E+00  0.17493758710E+04  0.17493758710E+04  0.50400001928E-02 0.  1.
       -1   -1    0    0    0  501  0.00000000000E+00  0.00000000000E+00 -0.96519282962E+03  0.96519282963E+03  0.50400001928E-02 0. -1.
    10030    2    1    2    0    0  0.00000000000E+00  0.00000000000E+00  0.78418304142E+03  0.27145687007E+04  0.25988343903E+04 0.  0.
        1    1    3    3  502    0  0.63136270440E+02 -0.79107481975E+03 -0.68266127546E+03  0.10468103821E+04  0.50400001928E-02 0. -1.
       -1    1    3    3    0  502 -0.63136270440E+02  0.79107481975E+03  0.14668443169E+04  0.16677583185E+04  0.50400001928E-02 0.  1.
</event>
<event>
 5   0  0.2820028E-06  0.2602944E+04  0.7818609E-02  0.8367202E-01
       -2   -1    0    0    0  501  0.00000000000E+00  0.00000000000E+00  0.93814077317E+03  0.93814077317E+03  0.25500000920E-02 0. -1.
        2   -1    0    0  501    0  0.00000000000E+00  0.00000000000E+00 -0.18055175995E+04  0.18055175995E+04  0.25500000920E-02 0.  1.
    10030    2    1    2    0    0  0.00000000000E+00  0.00000000000E+00 -0.86737682638E+03  0.27436583727E+04  0.26029442382E+04 0.  0.
        3    1    3    3  502    0 -0.90467681733E+03  0.93184384660E+03 -0.34514384059E+03  0.13438368127E+04  0.10100000352E+00 0. -1.
       -3    1    3    3    0  502  0.90467681733E+03 -0.93184384660E+03 -0.52223298579E+03  0.13998215600E+04  0.10100000352E+00 0.  1.
</event>
<event>
 5   0  0.2623368E-06  0.2598751E+04  0.7818609E-02  0.8368626E-01
        2   -1    0    0  501    0  0.00000000000E+00  0.00000000000E+00  0.24026449481E+04  0.24026449481E+04  0.25500000920E-02 0. -1.
       -2   -1    0    0    0  501  0.00000000000E+00  0.00000000000E+00 -0.70271590203E+03  0.70271590204E+03  0.25500000920E-02 0.  1.
    10030    2    1    2    0    0  0.00000000000E+00  0.00000000000E+00  0.16999290461E+04  0.31053608501E+04  0.25987510939E+04 0.  0.
        5    1    3    3  502    0 -0.37121590012E+03  0.76742497671E+03 -0.32181906732E+03  0.91122551626E+03  0.46999998093E+01 0.  1.
       -5    1    3    3    0  502  0.37121590012E+03 -0.76742497671E+03  0.20217481134E+04  0.21941353339E+04  0.46999998093E+01 0. -1.
</event>
<event>
 5   0  0.2623368E-06  0.2596218E+04  0.7818609E-02  0.8369487E-01
       -2   -1    0    0    0  501  0.00000000000E+00  0.00000000000E+00  0.98036770603E+03  0.98036770604E+03  0.25500000920E-02 0.  1.
        2   -1    0    0  501    0  0.00000000000E+00  0.00000000000E+00 -0.17188309958E+04  0.17188309958E+04  0.25500000920E-02 0. -1.
    10030    2    1    2    0    0  0.00000000000E+00  0.00000000000E+00 -0.73846328980E+03  0.26991987019E+04  0.25962175567E+04 0.  0.
        5    1    3    3  502    0  0.80546624235E+03 -0.10131365065E+04 -0.26608515016E+03  0.13213799020E+04  0.46999998093E+01 0. -1.
       -5    1    3    3    0  502 -0.80546624235E+03  0.10131365065E+04 -0.47237813965E+03  0.13778187998E+04  0.46999998093E+01 0.  1.
</event>
<event>
 5   0  0.2820028E-06  0.2597967E+04  0.7818609E-02  0.8368892E-01
        2   -1    0    0  501    0  0.00000000000E+00  0.00000000000E+00  0.21404085005E+04  0.21404085005E+04  0.25500000920E-02 0.  1.
       -2   -1    0    0    0  501  0.00000000000E+00  0.00000000000E+00 -0.78833470475E+03  0.78833470476E+03  0.25500000920E-02 0. -1.
    10030    2    1    2    0    0  0.00000000000E+00  0.00000000000E+00  0.13520737958E+04  0.29287432053E+04  0.25979671309E+04 0.  0.
        3    1    3    3  502    0 -0.46773965665E+03 -0.29424649419E+02  0.20417770534E+04  0.20948746364E+04  0.10100000352E+00 0.  1.
       -3    1    3    3    0  502  0.46773965665E+03  0.29424649419E+02 -0.68970325760E+03  0.83386856887E+03  0.10100000352E+00 0. -1.
</event>
<event>
 5   0  0.1032076E-06  0.2597283E+04  0.7818609E-02  0.8369125E-01
       -1   -1    0    0    0  501  0.00000000000E+00  0.00000000000E+00  0.90800550971E+03  0.90800550973E+03  0.50400001928E-02 0. -1.
        1   -1    0    0  501    0  0.00000000000E+00  0.00000000000E+00 -0.18573336515E+04  0.18573336515E+04  0.50400001928E-02 0.  1.
    10030    2    1    2    0    0  0.00000000000E+00  0.00000000000E+00 -0.94932814174E+03  0.27653391612E+04  0.25972825714E+04 0.  0.
        1    1    3    3  502    0  0.11876585682E+04  0.18936656588E+03 -0.99634400815E+03  0.15617598898E+04  0.50400001928E-02 0. -1.
       -1    1    3    3    0  502 -0.11876585682E+04 -0.18936656588E+03  0.47015866410E+02  0.12035792714E+04  0.50400001928E-02 0.  1.
</event>
<event>
 5   0  0.1100104E-06  0.2599909E+04  0.7818609E-02  0.8368232E-01
        1   -1    0    0  501    0  0.00000000000E+00  0.00000000000E+00  0.16183257466E+04  0.16183257466E+04  0.50400001928E-02 0.  1.
       -1   -1    0    0    0  501  0.00000000000E+00  0.00000000000E+00 -0.10442162920E+04  0.10442162920E+04  0.50400001928E-02 0. -1.
    10030    2    1    2    0    0  0.00000000000E+00  0.00000000000E+00  0.57410945467E+03  0.26625420386E+04  0.25999093141E+04 0.  0.
        4    1    3    3  502    0 -0.11545082433E+04 -0.42283998514E+03 -0.14524917006E+03  0.12380556818E+04  0.12699999809E+01 0. -1.
       -4    1    3    3    0  502  0.11545082433E+04  0.42283998514E+03  0.71935862473E+03  0.14244863568E+04  0.12699999809E+01 0.  1.
</event>
<event>
 5   0  0.1088757E-06  0.2597901E+04  0.7818609E-02  0.8368914E-01
        1   -1    0    0  501    0  0.00000000000E+00  0.00000000000E+00  0.26476584570E+04  0.26476584570E+04  0.50400001928E-02 0. -1.
       -1   -1    0    0    0  501  0.00000000000E+00  0.00000000000E+00 -0.63726977939E+03  0.63726977941E+03  0.50400001928E-02 0.  1.
    10030    2    1    2    0    0  0.00000000000E+00  0.00000000000E+00  0.20103886776E+04  0.32849282364E+04  0.25979012459E+04 0.  0.
        5    1    3    3  502    0 -0.10252299773E+02 -0.79137649840E+02 -0.63415669415E+03  0.63917499952E+03  0.46999998093E+01 0.  1.
       -5    1    3    3    0  502  0.10252299773E+02  0.79137649840E+02  0.26445453717E+04  0.26457532369E+04  0.46999998093E+01 0. -1.
</event>
<event>
 5   0  0.2746631E-06  0.2571865E+04  0.7818609E-02  0.8377821E-01
       -2   -1    0    0    0  501  0.00000000000E+00  0.00000000000E+00  0.13219616061E+04  0.13219616061E+04  0.25500000920E-02 0.  1.
        2   -1    0    0  501    0  0.00000000000E+00  0.00000000000E+00 -0.12508851936E+04  0.12508851936E+04  0.25500000920E-02 0. -1.
    10030    2    1    2    0    0  0.00000000000E+00  0.00000000000E+00  0.71076412497E+02  0.25728467998E+04  0.25718648485E+04 0.  0.
        2    1    3    3  502    0  0.21758540815E+03  0.10625506680E+04  0.72664556535E+03  0.13055156489E+04  0.25500000920E-02 0.  1.
       -2    1    3    3    0  502 -0.21758540815E+03 -0.10625506680E+04 -0.65556915285E+03  0.12673311509E+04  0.25500000920E-02 0. -1.
</event>
<event>
 5   0  0.1055179E-06  0.2630528E+04  0.7818609E-02  0.8357905E-01
        1   -1    0    0  501    0  0.00000000000E+00  0.00000000000E+00  0.15820895326E+04  0.15820895326E+04  0.50400001928E-02 0. -1.
       -1   -1    0    0    0  501  0.00000000000E+00  0.00000000000E+00 -0.10934399131E+04  0.10934399131E+04  0.50400001928E-02 0.  1.
    10030    2    1    2    0    0  0.00000000000E+00  0.00000000000E+00  0.48864961957E+03  0.26755294457E+04  0.26305283432E+04 0.  0.
        3    1    3    3  502    0  0.82576670785E+03  0.27345468317E+03  0.12477369182E+04  0.15210245056E+04  0.10100000352E+00 0. -1.
       -3    1    3    3    0  502 -0.82576670785E+03 -0.27345468317E+03 -0.75908729862E+03  0.11545049401E+04  0.10100000352E+00 0.  1.
</event>
<event>
 5   0  0.1100104E-06  0.2587790E+04  0.7818609E-02  0.8372361E-01
       -1   -1    0    0    0  501  0.00000000000E+00  0.00000000000E+00  0.15004266678E+04  0.15004266678E+04  0.50400001928E-02 0. -1.
        1   -1    0    0  501    0  0.00000000000E+00  0.00000000000E+00 -0.11157917225E+04  0.11157917225E+04  0.50400001928E-02 0.  1.
    10030    2    1    2    0    0  0.00000000000E+00  0.00000000000E+00  0.38463494529E+03  0.26162183903E+04  0.25877895248E+04 0.  0.
        4    1    3    3  502    0 -0.60234290719E+03 -0.78710739290E+03 -0.64856930803E+03  0.11844824971E+04  0.12699999809E+01 0.  1.
       -4    1    3    3    0  502  0.60234290719E+03  0.78710739290E+03  0.10332042533E+04  0.14317358932E+04  0.12699999809E+01 0. -1.
</event>
<event>
 5   0  0.2705807E-06  0.2595881E+04  0.7818609E-02  0.8369602E-01
       -2   -1    0    0    0  501  0.00000000000E+00  0.00000000000E+00  0.73187365169E+03  0.73187365170E+03  0.25500000920E-02 0.  1.
        2   -1    0    0  501    0  0.00000000000E+00  0.00000000000E+00 -0.23018304290E+04  0.23018304290E+04  0.25500000920E-02 0. -1.
    10030    2    1    2    0    0  0.00000000000E+00  0.00000000000E+00 -0.15699567773E+04  0.30337040807E+04  0.25958806149E+04 0.  0.
        4    1    3    3  502    0 -0.92045512008E+03  0.45958925630E+03 -0.17097632314E+04  0.19954327433E+04  0.12699999809E+01 0. -1.
       -4    1    3    3    0  502  0.92045512008E+03 -0.45958925630E+03  0.13980645410E+03  0.10382713374E+04  0.12699999809E+01 0.  1.
</event>
<event>
 5   0  0.1100104E-06  0.2597499E+04  0.7818609E-02  0.8369051E-01
        1   -1    0    0  501    0  0.00000000000E+00  0.00000000000E+00  0.13610894346E+04  0.13610894346E+04  0.50400001928E-02 0.  1.
       -1   -1    0    0    0  501  0.00000000000E+00  0.00000000000E+00 -0.12392646097E+04  0.12392646097E+04  0.50400001928E-02 0. -1.
    10030    2    1    2    0    0  0.00000000000E+00  0.00000000000E+00  0.12182482490E+03  0.26003540442E+04  0.25974987714E+04 0.  0.
        4    1    3    3  502    0  0.12895677320E+04 -0.99688252884E+02 -0.56799452037E+02  0.12946623010E+04  0.12699999809E+01 0.  1.
       -4    1    3    3    0  502 -0.12895677320E+04  0.99688252884E+02  0.17862427694E+03  0.13056917432E+04  0.12699999809E+01 0. -1.
</event>
<event>
 5   0  0.1100104E-06  0.2600662E+04  0.7818609E-02  0.8367976E-01
       -1   -1    0    0    0  501  0.00000000000E+00  0.00000000000E+00  0.84038657373E+03  0.84038657375E+03  0.50400001928E-02 0.  1.
        1   -1    0    0  501    0  0.00000000000E+00  0.00000000000E+00 -0.20120039467E+04  0.20120039467E+04  0.50400001928E-02 0. -1.
    10030    2    1    2    0    0  0.00000000000E+00  0.00000000000E+00 -0.11716173730E+04  0.28523905205E+04  0.26006623027E+04 0.  0.
        4    1    3    3  502    0 -0.20854850259E+03  0.67060598632E+03  0.61449411475E+03  0.93317174025E+03  0.12699999809E+01 0.  1.
       -4    1    3    3    0  502  0.20854850259E+03 -0.67060598632E+03 -0.17861114877E+04  0.19192187802E+04  0.12699999809E+01 0. -1.
</event>
<event>
 5   0  0.1032076E-06  0.2599483E+04  0.7818609E-02  0.8368377E-01
        1   -1    0    0  501    0  0.00000000000E+00  0.00000000000E+00  0.16993605207E+04  0.16993605207E+04  0.50400001928E-02 0. -1.
       -1   -1    0    0    0  501  0.00000000000E+00  0.00000000000E+00 -0.99409627086E+03  0.99409627087E+03  0.50400001928E-02 0.  1.
    10030    2    1    2    0    0  0.00000000000E+00  0.00000000000E+00  0.70526424985E+03  0.26934567916E+04  0.25994829921E+04 0.  0.
        1    1    3    3  502    0 -0.47592860574E+03  0.95818580769E+03 -0.41208650619E+03  0.11464917655E+04  0.50400001928E-02 0.  1.
       -1    1    3    3    0  502  0.47592860574E+03 -0.95818580769E+03  0.11173507560E+04  0.15469650261E+04  0.50400001928E-02 0. -1.
</event>
<event>
 5   0  0.2586775E-06  0.2621450E+04  0.7818609E-02  0.8360951E-01
       -2   -1    0    0    0  501  0.00000000000E+00  0.00000000000E+00  0.67526539311E+03  0.67526539312E+03  0.25500000920E-02 0. -1.
        2   -1    0    0  501    0  0.00000000000E+00  0.00000000000E+00 -0.25441850467E+04  0.25441850467E+04  0.25500000920E-02 0.  1.
    10030    2    1    2    0    0  0.00000000000E+00  0.00000000000E+00 -0.18689196536E+04  0.32194504398E+04  0.26214500687E+04 0.  0.
        1    1    3    3  502    0  0.10694414467E+04  0.11027580753E+01 -0.18651545518E+04  0.21500017968E+04  0.50400001928E-02 0.  1.
       -1    1    3    3    0  502 -0.10694414467E+04 -0.11027580753E+01 -0.37651017528E+01  0.10694486430E+04  0.50400001928E-02 0. -1.
</event>
<event>
 5   0  0.1055179E-06  0.2599314E+04  0.7818609E-02  0.8368434E-01
        1   -1    0    0  501    0  0.00000000000E+00  0.00000000000E+00  0.11553374291E+04  0.11553374291E+04  0.50400001928E-02 0. -1.
       -1   -1    0    0    0  501  0.00000000000E+00  0.00000000000E+00 -0.14620043112E+04  0.14620043112E+04  0.50400001928E-02 0.  1.
    10030    2    1    2    0    0  0.00000000000E+00  0.00000000000E+00 -0.30666688210E+03  0.26173417404E+04  0.25993139882E+04 0.  0.
        3    1    3    3  502    0 -0.70269767944E+03 -0.10194715303E+04  0.24437687578E+03  0.12620722236E+04  0.10100000352E+00 0. -1.
       -3    1    3    3    0  502  0.70269767944E+03  0.10194715303E+04 -0.55104375788E+03  0.13552695168E+04  0.10100000352E+00 0.  1.
</event>
<event>
 5   0  0.2746631E-06  0.2597136E+04  0.7818609E-02  0.8369175E-01
        2   -1    0    0  501    0  0.00000000000E+00  0.00000000000E+00  0.11086506617E+04  0.11086506617E+04  0.25500000920E-02 0. -1.
       -2   -1    0    0    0  501  0.00000000000E+00  0.00000000000E+00 -0.15210186865E+04  0.15210186865E+04  0.25500000920E-02 0.  1.
    10030    2    1    2    0    0  0.00000000000E+00  0.00000000000E+00 -0.41236802480E+03  0.26296693482E+04  0.25971356324E+04 0.  0.
        2    1    3    3  502    0 -0.74558115153E+03  0.16553202353E+03 -0.12695715504E+04  0.14815883456E+04  0.25500000920E-02 0.  1.
       -2    1    3    3    0  502  0.74558115153E+03 -0.16553202353E+03  0.85720352558E+03  0.11480810026E+04  0.25500000920E-02 0. -1.
</event>
<event>
 5   0  0.2820028E-06  0.2599857E+04  0.7818609E-02  0.8368250E-01
       -2   -1    0    0    0  501  0.00000000000E+00  0.00000000000E+00  0.14155998918E+04  0.14155998918E+04  0.25500000920E-02 0. -1.
        2   -1    0    0  501    0  0.00000000000E+00  0.00000000000E+00 -0.11937091215E+04  0.11937091215E+04  0.25500000920E-02 0.  1.
    10030    2    1    2    0    0  0.00000000000E+00  0.00000000000E+00  0.22189077030E+03  0.26093090133E+04  0.25998573063E+04 0.  0.
        3    1    3    3  502    0 -0.12650857286E+04  0.30898234568E+02  0.40937785897E+03  0.13300326474E+04  0.10100000352E+00 0. -1.
       -3    1    3    3    0  502  0.12650857286E+04 -0.30898234568E+02 -0.18748708867E+03  0.12792763659E+04  0.10100000352E+00 0.  1.
</event>
<event>
 5   0  0.9197000E-07  0.2602173E+04  0.7818609E-02  0.8367464E-01
        3   -1    0    0  501    0  0.00000000000E+00  0.00000000000E+00  0.15183028891E+04  0.15183028925E+04  0.10100000352E+00 0.  1.
       -3   -1    0    0    0  501  0.00000000000E+00  0.00000000000E+00 -0.11149459853E+04  0.11149459898E+04  0.10100000352E+00 0. -1.
    10030    2    1    2    0    0  0.00000000000E+00  0.00000000000E+00  0.40335690389E+03  0.26332488823E+04  0.26021727238E+04 0.  0.
        3    1    3    3  502    0  0.12960199384E+04  0.10823748192E+03  0.16324225322E+03  0.13107368450E+04  0.10100000352E+00 0.  1.
       -3    1    3    3    0  502 -0.12960199384E+04 -0.10823748192E+03  0.24011465066E+03  0.13225120374E+04  0.10100000352E+00 0. -1.
</event>
<event>
 5   0  0.1088757E-06  0.2586894E+04  0.7818609E-02  0.8372667E-01
       -1   -1    0    0    0  501  0.00000000000E+00  0.00000000000E+00  0.82933119443E+03  0.82933119445E+03  0.50400001928E-02 0.  1.
        1   -1    0    0  501    0  0.00000000000E+00  0.00000000000E+00 -0.20172935921E+04  0.20172935921E+04  0.50400001928E-02 0. -1.
    10030    2    1    2    0    0  0.00000000000E+00  0.00000000000E+00 -0.11879623977E+04  0.28466247865E+04  0.25868935071E+04 0.  0.
        5    1    3    3  502    0 -0.93338624111E+03  0.38567887093E+03  0.29525342192E+03  0.10522142081E+04  0.46999998093E+01 0.  1.
       -5    1    3    3    0  502  0.93338624111E+03 -0.38567887093E+03 -0.14832158196E+04  0.17944105784E+04  0.46999998093E+01 0. -1.
</event>
<event>
 5   0  0.2705807E-06  0.2616232E+04  0.7818609E-02  0.8362709E-01
       -2   -1    0    0    0  501  0.00000000000E+00  0.00000000000E+00  0.91006844088E+03  0.91006844089E+03  0.25500000920E-02 0.  1.
        2   -1    0    0  501    0  0.00000000000E+00  0.00000000000E+00 -0.18802618208E+04  0.18802618208E+04  0.25500000920E-02 0. -1.
    10030    2    1    2    0    0  0.00000000000E+00  0.00000000000E+00 -0.97019337993E+03  0.27903302617E+04  0.26162315981E+04 0.  0.
        4    1    3    3  502    0 -0.11469310335E+03  0.10370770972E+04  0.35638136126E+03  0.11025845550E+04  0.12699999809E+01 0.  1.
       -4    1    3    3    0  502  0.11469310335E+03 -0.10370770972E+04 -0.13265747412E+04  0.16877457067E+04  0.12699999809E+01 0. -1.
</event>
<event>
 5   0  0.2705807E-06  0.2595933E+04  0.7818609E-02  0.8369584E-01
       -2   -1    0    0    0  501  0.00000000000E+00  0.00000000000E+00  0.11826190172E+04  0.11826190172E+04  0.25500000920E-02 0.  1.
        2   -1    0    0  501    0  0.00000000000E+00  0.00000000000E+00 -0.14245639793E+04  0.14245639793E+04  0.25500000920E-02 0. -1.
    10030    2    1    2    0    0  0.00000000000E+00  0.00000000000E+00 -0.24194496216E+03  0.26071829965E+04  0.25959325516E+04 0.  0.
        4    1    3    3  502    0 -0.46272941121E+03  0.11359113455E+04 -0.54743226122E+03  0.13431667009E+04  0.12699999809E+01 0.  1.
       -4    1    3    3    0  502  0.46272941121E+03 -0.11359113455E+04  0.30548729906E+03  0.12640162956E+04  0.12699999809E+01 0. -1.
</event>
<event>
 5   0  0.2746631E-06  0.2600273E+04  0.7818609E-02  0.8368108E-01
       -2   -1    0    0    0  501  0.00000000000E+00  0.00000000000E+00  0.82390332064E+03  0.82390332064E+03  0.25500000920E-02 0.  1.
        2   -1    0    0  501    0  0.00000000000E+00  0.00000000000E+00 -0.20516422475E+04  0.20516422475E+04  0.25500000920E-02 0. -1.
    10030    2    1    2    0    0  0.00000000000E+00  0.00000000000E+00 -0.12277389268E+04  0.28755455681E+04  0.26002729553E+04 0.  0.
        2    1    3    3  502    0 -0.81849796686E+03 -0.77713869740E+03 -0.13275336413E+04  0.17424778465E+04  0.25500000920E-02 0. -1.
       -2    1    3    3    0  502  0.81849796686E+03  0.77713869740E+03  0.99794714449E+02  0.11330677216E+04  0.25500000920E-02 0.  1.
</event>
<event>
 5   0  0.1088757E-06  0.2602852E+04  0.7818609E-02  0.8367233E-01
        1   -1    0    0  501    0  0.00000000000E+00  0.00000000000E+00  0.18229056253E+04  0.18229056253E+04  0.50400001928E-02 0.  1.
       -1   -1    0    0    0  501  0.00000000000E+00  0.00000000000E+00 -0.92912632689E+03  0.92912632690E+03  0.50400001928E-02 0. -1.
    10030    2    1    2    0    0  0.00000000000E+00  0.00000000000E+00  0.89377929839E+03  0.27520319522E+04  0.26028519803E+04 0.  0.
        5    1    3    3  502    0 -0.94433678895E+03  0.46107922737E+03 -0.36478155913E+03  0.11124089629E+04  0.46999998093E+01 0. -1.
       -5    1    3    3    0  502  0.94433678895E+03 -0.46107922737E+03  0.12585608575E+04  0.16396229893E+04  0.46999998093E+01 0.  1.
</event>
<event>
 5   0  0.2820028E-06  0.2577534E+04  0.7818609E-02  0.8375873E-01
        2   -1    0    0  501    0  0.00000000000E+00  0.00000000000E+00  0.13368457527E+04  0.13368457527E+04  0.25500000920E-02 0.  1.
       -2   -1    0    0    0  501  0.00000000000E+00  0.00000000000E+00 -0.12424171971E+04  0.12424171971E+04  0.25500000920E-02 0. -1.
    10030    2    1    2    0    0  0.00000000000E+00  0.00000000000E+00  0.94428555596E+02  0.25792629498E+04  0.25775338236E+04 0.  0.
        3    1    3    3  502    0  0.55144457739E+03 -0.64802059338E+03 -0.92137014314E+03  0.12541709462E+04  0.10100000352E+00 0. -1.
       -3    1    3    3    0  502 -0.55144457739E+03  0.64802059338E+03  0.10157986987E+04  0.13250920036E+04  0.10100000352E+00 0.  1.
</event>
<event>
 5   0  0.9197000E-07  0.2601008E+04  0.7818609E-02  0.8367859E-01
       -3   -1    0    0    0  501  0.00000000000E+00  0.00000000000E+00  0.12384545579E+04  0.12384545620E+04  0.10100000352E+00 0.  1.
        3   -1    0    0  501    0  0.00000000000E+00  0.00000000000E+00 -0.13656622277E+04  0.13656622315E+04  0.10100000352E+00 0. -1.
    10030    2    1    2    0    0  0.00000000000E+00  0.00000000000E+00 -0.12720766987E+03  0.26041167935E+04  0.26010079744E+04 0.  0.
        2    1    3    3  502    0  0.11916057020E+04  0.51825169449E+03 -0.10609929241E+02  0.12994697144E+04  0.25500000920E-02 0.  1.
       -2    1    3    3    0  502 -0.11916057020E+04 -0.51825169449E+03 -0.11659774063E+03  0.13046470791E+04  0.25500000920E-02 0. -1.
</event>
<event>
 5   0  0.1055179E-06  0.2617410E+04  0.7818609E-02  0.8362311E-01
       -1   -1    0    0    0  501  0.00000000000E+00  0.00000000000E+00  0.98955631927E+03  0.98955631928E+03  0.50400001928E-02 0. -1.
        1   -1    0    0  501    0  0.00000000000E+00  0.00000000000E+00 -0.17307844160E+04  0.17307844160E+04  0.50400001928E-02 0.  1.
    10030    2    1    2    0    0  0.00000000000E+00  0.00000000000E+00 -0.74122809675E+03  0.27203407353E+04  0.26174099077E+04 0.  0.
        3    1    3    3  502    0  0.21886299124E+03  0.12730774748E+04 -0.58882631223E+03  0.14196280153E+04  0.10100000352E+00 0.  1.
       -3    1    3    3    0  502 -0.21886299124E+03 -0.12730774748E+04 -0.15240178452E+03  0.13007127200E+04  0.10100000352E+00 0. -1.
</event>
<event>
 5   0  0.9197000E-07  0.2599685E+04  0.7818609E-02  0.8368308E-01
        3   -1    0    0  501    0  0.00000000000E+00  0.00000000000E+00  0.16736562459E+04  0.16736562489E+04  0.10100000352E+00 0. -1.
       -3   -1    0    0    0  501  0.00000000000E+00  0.00000000000E+00 -0.10095205775E+04  0.10095205826E+04  0.10100000352E+00 0.  1.
    10030    2    1    2    0    0  0.00000000000E+00  0.00000000000E+00  0.66413566834E+03  0.26831768315E+04  0.25996849277E+04 0.  0.
        4    1    3    3  502    0  0.71491591972E+03 -0.38540728523E+02 -0.78767054206E+03  0.10644325511E+04  0.12699999809E+01 0.  1.
       -4    1    3    3    0  502 -0.71491591972E+03  0.38540728523E+02  0.14518062104E+04  0.16187442804E+04  0.12699999809E+01 0. -1.
</event>
<event>
 5   0  0.2705807E-06  0.2601644E+04  0.7818609E-02  0.8367643E-01
       -2   -1    0    0    0  501  0.00000000000E+00  0.00000000000E+00  0.14090031408E+04  0.14090031408E+04  0.25500000920E-02 0.  1.
        2   -1    0    0  501    0  0.00000000000E+00  0.00000000000E+00 -0.12009464225E+04  0.12009464225E+04  0.25500000920E-02 0. -1.
    10030    2    1    2    0    0  0.00000000000E+00  0.00000000000E+00  0.20805671831E+03  0.26099495633E+04  0.26016435430E+04 0.  0.
        4    1    3    3  502    0 -0.42108520039E+03  0.10904044536E+04  0.67667566304E+03  0.13506243683E+04  0.12699999809E+01 0.  1.
       -4    1    3    3    0  502  0.42108520039E+03 -0.10904044536E+04 -0.46861894473E+03  0.12593251950E+04  0.12699999809E+01 0. -1.
</event>
<event>
 5   0  0.1100104E-06  0.2609163E+04  0.7818609E-02  0.8365095E-01
        1   -1    0    0  501    0  0.00000000000E+00  0.00000000000E+00  0.14249970596E+04  0.14249970596E+04  0.50400001928E-02 0. -1.
       -1   -1    0    0    0  501  0.00000000000E+00  0.00000000000E+00 -0.11943412126E+04  0.11943412126E+04  0.50400001928E-02 0.  1.
    10030    2    1    2    0    0  0.00000000000E+00  0.00000000000E+00  0.23065584703E+03  0.26193382722E+04  0.26091628666E+04 0.  0.
        4    1    3    3  502    0 -0.72037768459E+03 -0.39921227025E+03  0.11310130014E+04  0.13991091693E+04  0.12699999809E+01 0. -1.
       -4    1    3    3    0  502  0.72037768459E+03  0.39921227025E+03 -0.90035715441E+03  0.12202291029E+04  0.12699999809E+01 0.  1.
</event>
<event>
 5   0  0.1055179E-06  0.2598156E+04  0.7818609E-02  0.8368828E-01
        1   -1    0    0  501    0  0.00000000000E+00  0.00000000000E+00  0.97420343378E+03  0.97420343380E+03  0.50400001928E-02 0. -1.
       -1   -1    0    0    0  501  0.00000000000E+00  0.00000000000E+00 -0.17322903483E+04  0.17322903484E+04  0.50400001928E-02 0.  1.
    10030    2    1    2    0    0  0.00000000000E+00  0.00000000000E+00 -0.75808691456E+03  0.27064937821E+04  0.25981556579E+04 0.  0.
        3    1    3    3  502    0  0.43195327382E+03  0.70135952331E+03 -0.14254779958E+04  0.16463524344E+04  0.10100000352E+00 0.  1.
       -3    1    3    3    0  502 -0.43195327382E+03 -0.70135952331E+03  0.66739108120E+03  0.10601413477E+04  0.10100000352E+00 0. -1.
</event>
<event>
 5   0  0.2746631E-06  0.2603678E+04  0.7818609E-02  0.8366953E-01
        2   -1    0    0  501    0  0.00000000000E+00  0.00000000000E+00  0.25364050074E+04  0.25364050074E+04  0.25500000920E-02 0.  1.
       -2   -1    0    0    0  501  0.00000000000E+00  0.00000000000E+00 -0.66818360610E+03  0.66818360610E+03  0.25500000920E-02 0. -1.
    10030    2    1    2    0    0  0.00000000000E+00  0.00000000000E+00  0.18682214013E+04  0.32045886135E+04  0.26036775871E+04 0.  0.
        2    1    3    3  502    0  0.46808808186E+03 -0.22818009321E+02 -0.56076203839E+03  0.73080857797E+03  0.25500000920E-02 0. -1.
       -2    1    3    3    0  502 -0.46808808186E+03  0.22818009321E+02  0.24289834397E+04  0.24737800356E+04  0.25500000920E-02 0.  1.
</event>
<event>
 5   0  0.1055179E-06  0.2598838E+04  0.7818609E-02  0.8368596E-01
       -1   -1    0    0    0  501  0.00000000000E+00  0.00000000000E+00  0.80436010928E+03  0.80436010930E+03  0.50400001928E-02 0.  1.
        1   -1    0    0  501    0  0.00000000000E+00  0.00000000000E+00 -0.20991715935E+04  0.20991715935E+04  0.50400001928E-02 0. -1.
    10030    2    1    2    0    0  0.00000000000E+00  0.00000000000E+00 -0.12948114842E+04  0.29035317028E+04  0.25988381191E+04 0.  0.
        3    1    3    3  502    0 -0.87758411968E+02  0.77927280186E+03 -0.18049906815E+04  0.19679834880E+04  0.10100000352E+00 0. -1.
       -3    1    3    3    0  502  0.87758411968E+02 -0.77927280186E+03  0.51017919731E+03  0.93554821477E+03  0.10100000352E+00 0.  1.
</event>
<event>
 5   0  0.2705807E-06  0.2565238E+04  0.7818609E-02  0.8380106E-01
        2   -1    0    0  501    0  0.00000000000E+00  0.00000000000E+00  0.27073178397E+04  0.27073178397E+04  0.25500000920E-02 0. -1.
       -2   -1    0    0    0  501  0.00000000000E+00  0.00000000000E+00 -0.60765379042E+03  0.60765379043E+03  0.25500000920E-02 0.  1.
    10030    2    1    2    0    0  0.00000000000E+00  0.00000000000E+00  0.20996640493E+04  0.33149716302E+04  0.25652383493E+04 0.  0.
        4    1    3    3  502    0  0.33927903745E+03 -0.11738210899E+04  0.54577499534E+03  0.13382220200E+04  0.12699999809E+01 0.  1.
       -4    1    3    3    0  502 -0.33927903745E+03  0.11738210899E+04  0.15538890540E+04  0.19767496102E+04  0.12699999809E+01 0. -1.
</event>
<event>
 5   0  0.2586775E-06  0.2597483E+04  0.7818609E-02  0.8369057E-01
       -2   -1    0    0    0  501  0.00000000000E+00  0.00000000000E+00  0.12792430834E+04  0.12792430834E+04  0.25500000920E-02 0. -1.
        2   -1    0    0  501    0  0.00000000000E+00  0.00000000000E+00 -0.13185367168E+04  0.13185367168E+04  0.25500000920E-02 0.  1.
    10030    2    1    2    0    0  0.00000000000E+00  0.00000000000E+00 -0.39293633424E+02  0.25977798002E+04  0.25974826084E+04 0.  0.
        1    1    3    3  502    0 -0.67702388676E+03  0.10325103329E+04 -0.42254529458E+03  0.13049840830E+04  0.50400001928E-02 0.  1.
       -1    1    3    3    0  502  0.67702388676E+03 -0.10325103329E+04  0.38325166116E+03  0.12927957173E+04  0.50400001928E-02 0. -1.
</event>
<event>
 5   0  0.2586775E-06  0.2633426E+04  0.7818609E-02  0.8356935E-01
        2   -1    0    0  501    0  0.00000000000E+00  0.00000000000E+00  0.94004531977E+03  0.94004531978E+03  0.25500000920E-02 0. -1.
       -2   -1    0    0    0  501  0.00000000000E+00  0.00000000000E+00 -0.18443084137E+04  0.18443084137E+04  0.25500000920E-02 0.  1.
    10030    2    1    2    0    0  0.00000000000E+00  0.00000000000E+00 -0.90426309390E+03  0.27843537335E+04  0.26334262796E+04 0.  0.
        1    1    3    3  502    0 -0.40449560016E+03 -0.33822881331E+03 -0.17278119390E+04  0.18064743334E+04  0.50400001928E-02 0.  1.
       -1    1    3    3    0  502  0.40449560016E+03  0.33822881331E+03  0.82354884511E+03  0.97787940003E+03  0.50400001928E-02 0. -1.
</event>
<event>
 5   0  0.2820028E-06  0.2599371E+04  0.7818609E-02  0.8368415E-01
       -2   -1    0    0    0  501  0.00000000000E+00  0.00000000000E+00  0.11558497546E+04  0.11558497546E+04  0.25500000920E-02 0. -1.
        2   -1    0    0  501    0  0.00000000000E+00  0.00000000000E+00 -0.14614203258E+04  0.14614203258E+04  0.25500000920E-02 0.  1.
    10030    2    1    2    0    0  0.00000000000E+00  0.00000000000E+00 -0.30557057119E+03  0.26172700804E+04  0.25993709430E+04 0.  0.
        3    1    3    3  502    0 -0.10376875733E+03 -0.26894011038E+03  0.11232556934E+04  0.11596551646E+04  0.10100000352E+00 0. -1.
       -3    1    3    3    0  502  0.10376875733E+03  0.26894011038E+03 -0.14288262646E+04  0.14576149157E+04  0.10100000352E+00 0.  1.
</event>
<event>
 5   0  0.2623368E-06  0.2599702E+04  0.7818609E-02  0.8368303E-01
        2   -1    0    0  501    0  0.00000000000E+00  0.00000000000E+00  0.95533422791E+03  0.95533422791E+03  0.25500000920E-02 0. -1.
       -2   -1    0    0    0  501  0.00000000000E+00  0.00000000000E+00 -0.17686086224E+04  0.17686086224E+04  0.25500000920E-02 0.  1.
    10030    2    1    2    0    0  0.00000000000E+00  0.00000000000E+00 -0.81327439448E+03  0.27239428503E+04  0.25997017927E+04 0.  0.
        5    1    3    3  502    0 -0.94896855837E+03 -0.35739787224E+03 -0.12587142592E+04  0.16163719375E+04  0.46999998093E+01 0.  1.
       -5    1    3    3    0  502  0.94896855837E+03  0.35739787224E+03  0.44543986475E+03  0.11075709128E+04  0.46999998093E+01 0. -1.
</event>
<event>
 5   0  0.1055179E-06  0.2529528E+04  0.7818609E-02  0.8392541E-01
        1   -1    0    0  501    0  0.00000000000E+00  0.00000000000E+00  0.14840132380E+04  0.14840132380E+04  0.50400001928E-02 0. -1.
       -1   -1    0    0    0  501  0.00000000000E+00  0.00000000000E+00 -0.10779064644E+04  0.10779064644E+04  0.50400001928E-02 0.  1.
    10030    2    1    2    0    0  0.00000000000E+00  0.00000000000E+00  0.40610677361E+03  0.25619197024E+04  0.25295275942E+04 0.  0.
        3    1    3    3  502    0 -0.37154440700E+03 -0.58775234637E+03 -0.86694559241E+03  0.11113472623E+04  0.10100000352E+00 0.  1.
       -3    1    3    3    0  502  0.37154440700E+03  0.58775234637E+03  0.12730523660E+04  0.14505724401E+04  0.10100000352E+00 0. -1.
</event>
<event>
 5   0  0.1100104E-06  0.2603292E+04  0.7818609E-02  0.8367084E-01
       -1   -1    0    0    0  501  0.00000000000E+00  0.00000000000E+00  0.93578237843E+03  0.93578237844E+03  0.50400001928E-02 0.  1.
        1   -1    0    0  501    0  0.00000000000E+00  0.00000000000E+00 -0.18105514565E+04  0.18105514565E+04  0.50400001928E-02 0. -1.
    10030    2    1    2    0    0  0.00000000000E+00  0.00000000000E+00 -0.87476907803E+03  0.27463338349E+04  0.26032918762E+04 0.  0.
        4    1    3    3  502    0  0.70308859914E+03 -0.44662062585E+03  0.61781359160E+03  0.10370625866E+04  0.12699999809E+01 0.  1.
       -4    1    3    3    0  502 -0.70308859914E+03  0.44662062585E+03 -0.14925826696E+04  0.17092712483E+04  0.12699999809E+01 0. -1.
</event>
<event>
 5   0  0.2705807E-06  0.2599299E+04  0.7818609E-02  0.8368439E-01
       -2   -1    0    0    0  501  0.00000000000E+00  0.00000000000E+00  0.78099952856E+03  0.78099952856E+03  0.25500000920E-02 0. -1.
        2   -1    0    0  501    0  0.00000000000E+00  0.00000000000E+00 -0.21627266622E+04  0.21627266622E+04  0.25500000920E-02 0.  1.
    10030    2    1    2    0    0  0.00000000000E+00  0.00000000000E+00 -0.13817271337E+04  0.29437261908E+04  0.25992987544E+04 0.  0.
        4    1    3    3  502    0 -0.60111733907E+03 -0.46159077030E+03 -0.18865466455E+04  0.20330931983E+04  0.12699999809E+01 0.  1.
       -4    1    3    3    0  502  0.60111733907E+03  0.46159077030E+03  0.50481951182E+03  0.91063299247E+03  0.12699999809E+01 0. -1.
</event>
<event>
 5   0  0.1055179E-06  0.2594944E+04  0.7818609E-02  0.8369921E-01
       -1   -1    0    0    0  501  0.00000000000E+00  0.00000000000E+00  0.71317582093E+03  0.71317582095E+03  0.50400001928E-02 0. -1.
        1   -1    0    0  501    0  0.00000000000E+00  0.00000000000E+00 -0.23604742475E+04  0.23604742475E+04  0.50400001928E-02 0.  1.
    10030    2    1    2    0    0  0.00000000000E+00  0.00000000000E+00 -0.16472984265E+04  0.30736500684E+04  0.25949436674E+04 0.  0.
        3    1    3    3  502    0 -0.11960177854E+04 -0.43458157087E+03 -0.11235662319E+04  0.16975631865E+04  0.10100000352E+00 0.  1.
       -3    1    3    3    0  502  0.11960177854E+04  0.43458157087E+03 -0.52373219466E+03  0.13760868819E+04  0.10100000352E+00 0. -1.
</event>
<event>
 5   0  0.1122628E-06  0.2602901E+04  0.7818609E-02  0.8367217E-01
        1   -1    0    0  501    0  0.00000000000E+00  0.00000000000E+00  0.89478196366E+03  0.89478196368E+03  0.50400001928E-02 0. -1.
       -1   -1    0    0    0  501  0.00000000000E+00  0.00000000000E+00 -0.18929451688E+04  0.18929451688E+04  0.50400001928E-02 0.  1.
    10030    2    1    2    0    0  0.00000000000E+00  0.00000000000E+00 -0.99816320517E+03  0.27877271325E+04  0.26029008397E+04 0.  0.
        2    1    3    3  502    0 -0.37796465380E+02  0.14646289364E+03 -0.18834988141E+04  0.18895628422E+04  0.25500000920E-02 0.  1.
       -2    1    3    3    0  502  0.37796465380E+02 -0.14646289364E+03  0.88533560890E+03  0.89816429032E+03  0.25500000920E-02 0. -1.
</event>
<event>
 5   0  0.1055179E-06  0.2588986E+04  0.7818609E-02  0.8371952E-01
       -1   -1    0    0    0  501  0.00000000000E+00  0.00000000000E+00  0.77405916118E+03  0.77405916119E+03  0.50400001928E-02 0. -1.
        1   -1    0    0  501    0  0.00000000000E+00  0.00000000000E+00 -0.21648379539E+04  0.21648379539E+04  0.50400001928E-02 0.  1.
    10030    2    1    2    0    0  0.00000000000E+00  0.00000000000E+00 -0.13907787927E+04  0.29388971151E+04  0.25889864045E+04 0.  0.
        3    1    3    3  502    0 -0.11226441803E+04 -0.25936746362E+03 -0.13651407704E+04  0.17863960283E+04  0.10100000352E+00 0. -1.
       -3    1    3    3    0  502  0.11226441803E+04  0.25936746362E+03 -0.25638022291E+02  0.11525010868E+04  0.10100000352E+00 0.  1.
</event>
<event>
 5   0  0.1055179E-06  0.2601829E+04  0.7818609E-02  0.8367580E-01
        1   -1    0    0  501    0  0.00000000000E+00  0.00000000000E+00  0.93915665065E+03  0.93915665066E+03  0.50400001928E-02 0.  1.
       -1   -1    0    0    0  501  0.00000000000E+00  0.00000000000E+00 -0.18020200299E+04  0.18020200299E+04  0.50400001928E-02 0. -1.
    10030    2    1    2    0    0  0.00000000000E+00  0.00000000000E+00 -0.86286337924E+03  0.27411766806E+04  0.26018294300E+04 0.  0.
        3    1    3    3  502    0 -0.10817363882E+02 -0.94510911415E+03  0.51032773641E+03  0.10741427567E+04  0.10100000352E+00 0.  1.
       -3    1    3    3    0  502  0.10817363882E+02  0.94510911415E+03 -0.13731911156E+04  0.16670339239E+04  0.10100000352E+00 0. -1.
</event>
<event>
 5   0  0.1088757E-06  0.2617525E+04  0.7818609E-02  0.8362273E-01
       -1   -1    0    0    0  501  0.00000000000E+00  0.00000000000E+00  0.21535541885E+04  0.21535541885E+04  0.50400001928E-02 0.  1.
        1   -1    0    0  501    0  0.00000000000E+00  0.00000000000E+00 -0.79536379757E+03  0.79536379759E+03  0.50400001928E-02 0. -1.
    10030    2    1    2    0    0  0.00000000000E+00  0.00000000000E+00  0.13581903910E+04  0.29489179861E+04  0.26175248138E+04 0.  0.
        5    1    3    3  502    0 -0.61265481424E+03  0.11542321409E+04  0.59754894181E+03  0.14369010350E+04  0.46999998093E+01 0. -1.
       -5    1    3    3    0  502  0.61265481424E+03 -0.11542321409E+04  0.76064144916E+03  0.15120169512E+04  0.46999998093E+01 0.  1.
</event>
<event>
 5   0  0.1122628E-06  0.2600551E+04  0.7818609E-02  0.8368014E-01
       -1   -1    0    0    0  501  0.00000000000E+00  0.00000000000E+00  0.10873527609E+04  0.10873527609E+04  0.50400001928E-02 0.  1.
        1   -1    0    0  501    0  0.00000000000E+00  0.00000000000E+00 -0.15548918049E+04  0.15548918049E+04  0.50400001928E-02 0. -1.
    10030    2    1    2    0    0  0.00000000000E+00  0.00000000000E+00 -0.46753904402E+03  0.26422445658E+04  0.26005506316E+04 0.  0.
        2    1    3    3  502    0 -0.81279272241E+03 -0.92524937685E+03 -0.65758730598E+03  0.13961158562E+04  0.25500000920E-02 0. -1.
       -2    1    3    3    0  502  0.81279272241E+03  0.92524937685E+03  0.19004826196E+03  0.12461287096E+04  0.25500000920E-02 0.  1.
</event>
<event>
 5   0  0.9197000E-07  0.2596905E+04  0.7818609E-02  0.8369253E-01
       -3   -1    0    0    0  501  0.00000000000E+00  0.00000000000E+00  0.14084908172E+04  0.14084908209E+04  0.10100000352E+00 0.  1.
        3   -1    0    0  501    0  0.00000000000E+00  0.00000000000E+00 -0.11970105013E+04  0.11970105055E+04  0.10100000352E+00 0. -1.
    10030    2    1    2    0    0  0.00000000000E+00  0.00000000000E+00  0.21148031596E+03  0.26055013264E+04  0.25969045492E+04 0.  0.
        5    1    3    3  502    0 -0.12007172997E+04 -0.17993224124E+03 -0.35606452660E+03  0.12652674351E+04  0.46999998093E+01 0. -1.
       -5    1    3    3    0  502  0.12007172997E+04  0.17993224124E+03  0.56754484256E+03  0.13402338913E+04  0.46999998093E+01 0.  1.
</event>
<event>
 5   0  0.1122628E-06  0.2600139E+04  0.7818609E-02  0.8368154E-01
       -1   -1    0    0    0  501  0.00000000000E+00  0.00000000000E+00  0.12719951651E+04  0.12719951651E+04  0.50400001928E-02 0.  1.
        1   -1    0    0  501    0  0.00000000000E+00  0.00000000000E+00 -0.13287638787E+04  0.13287638787E+04  0.50400001928E-02 0. -1.
    10030    2    1    2    0    0  0.00000000000E+00  0.00000000000E+00 -0.56768713593E+02  0.26007590438E+04  0.26001394034E+04 0.  0.
        2    1    3    3  502    0 -0.67852862726E+03  0.99435592759E+03 -0.51945595774E+03  0.13110985092E+04  0.25500000920E-02 0. -1.
       -2    1    3    3    0  502  0.67852862726E+03 -0.99435592759E+03  0.46268724415E+03  0.12896605347E+04  0.25500000920E-02 0.  1.
</event>
<event>
 5   0  0.2623368E-06  0.2599197E+04  0.7818609E-02  0.8368474E-01
       -2   -1    0    0    0  501  0.00000000000E+00  0.00000000000E+00  0.19719290959E+04  0.19719290959E+04  0.25500000920E-02 0.  1.
        2   -1    0    0  501    0  0.00000000000E+00  0.00000000000E+00 -0.85649939864E+03  0.85649939864E+03  0.25500000920E-02 0. -1.
    10030    2    1    2    0    0  0.00000000000E+00  0.00000000000E+00  0.11154296972E+04  0.28284284945E+04  0.25991968642E+04 0.  0.
        5    1    3    3  502    0 -0.14323898979E+03 -0.68891605615E+03  0.17466929717E+04  0.18831041309E+04  0.46999998093E+01 0.  1.
       -5    1    3    3    0  502  0.14323898979E+03  0.68891605615E+03 -0.63126327448E+03  0.94532436355E+03  0.46999998093E+01 0. -1.
</event>
<event>
 5   0  0.1055179E-06  0.2601295E+04  0.7818609E-02  0.8367761E-01
       -1   -1    0    0    0  501  0.00000000000E+00  0.00000000000E+00  0.20832399053E+04  0.20832399053E+04  0.50400001928E-02 0. -1.
        1   -1    0    0  501    0  0.00000000000E+00  0.00000000000E+00 -0.81204492275E+03  0.81204492277E+03  0.50400001928E-02 0.  1.
    10030    2    1    2    0    0  0.00000000000E+00  0.00000000000E+00  0.12711949826E+04  0.28952848281E+04  0.26012953604E+04 0.  0.
        3    1    3    3  502    0  0.78942766371E+03  0.93399136241E+03  0.11285375334E+04  0.16640711751E+04  0.10100000352E+00 0. -1.
       -3    1    3    3    0  502 -0.78942766371E+03 -0.93399136241E+03  0.14265744915E+03  0.12312136530E+04  0.10100000352E+00 0.  1.
</event>
<event>
 5   0  0.2623368E-06  0.2597285E+04  0.7818609E-02  0.8369124E-01
        2   -1    0    0  501    0  0.00000000000E+00  0.00000000000E+00  0.18192857278E+04  0.18192857278E+04  0.25500000920E-02 0. -1.
       -2   -1    0    0    0  501  0.00000000000E+00  0.00000000000E+00 -0.92699708442E+03  0.92699708442E+03  0.25500000920E-02 0.  1.
    10030    2    1    2    0    0  0.00000000000E+00  0.00000000000E+00  0.89228864340E+03  0.27462828122E+04  0.25972851714E+04 0.  0.
        5    1    3    3  502    0  0.50755900270E+03 -0.34748123226E+03 -0.76318511076E+03  0.98022086862E+03  0.46999998093E+01 0.  1.
       -5    1    3    3    0  502 -0.50755900270E+03  0.34748123226E+03  0.16554737542E+04  0.17660619436E+04  0.46999998093E+01 0. -1.
</event>
<event>
 5   0  0.1055179E-06  0.2601184E+04  0.7818609E-02  0.8367799E-01
        1   -1    0    0  501    0  0.00000000000E+00  0.00000000000E+00  0.16769667916E+04  0.16769667916E+04  0.50400001928E-02 0. -1.
       -1   -1    0    0    0  501  0.00000000000E+00  0.00000000000E+00 -0.10086901749E+04  0.10086901749E+04  0.50400001928E-02 0.  1.
    10030    2    1    2    0    0  0.00000000000E+00  0.00000000000E+00  0.66827661673E+03  0.26856569665E+04  0.26011842890E+04 0.  0.
        3    1    3    3  502    0 -0.75252323334E+03 -0.77103925215E+03 -0.41804425580E+03  0.11556616092E+04  0.10100000352E+00 0.  1.
       -3    1    3    3    0  502  0.75252323334E+03  0.77103925215E+03  0.10863208725E+04  0.15299953573E+04  0.10100000352E+00 0. -1.
</event>
<event>
 5   0  0.2705807E-06  0.2601799E+04  0.7818609E-02  0.8367590E-01
       -2   -1    0    0    0  501  0.00000000000E+00  0.00000000000E+00  0.10436715288E+04  0.10436715288E+04  0.25500000920E-02 0.  1.
        2   -1    0    0  501    0  0.00000000000E+00  0.00000000000E+00 -0.16215247773E+04  0.16215247773E+04  0.25500000920E-02 0. -1.
    10030    2    1    2    0    0  0.00000000000E+00  0.00000000000E+00 -0.57785324842E+03  0.26651963061E+04  0.26017987957E+04 0.  0.
        4    1    3    3  502    0  0.81288038395E+01 -0.38623145063E+03 -0.15614098979E+04  0.16084909988E+04  0.12699999809E+01 0. -1.
       -4    1    3    3    0  502 -0.81288038395E+01  0.38623145063E+03  0.98355664948E+03  0.10567053073E+04  0.12699999809E+01 0.  1.
</event>
<event>
 5   0  0.1100104E-06  0.2607327E+04  0.7818609E-02  0.8365717E-01
       -1   -1    0    0    0  501  0.00000000000E+00  0.00000000000E+00  0.10045902935E+04  0.10045902935E+04  0.50400001928E-02 0. -1.
        1   -1    0    0  501    0  0.00000000000E+00  0.00000000000E+00 -0.16917725260E+04  0.16917725260E+04  0.50400001928E-02 0.  1.
    10030    2    1    2    0    0  0.00000000000E+00  0.00000000000E+00 -0.68718223248E+03  0.26963628195E+04  0.26073267985E+04 0.  0.
        4    1    3    3  502    0  0.31050218154E+03 -0.34312042750E+03 -0.16039772263E+04  0.16693974326E+04  0.12699999809E+01 0.  1.
       -4    1    3    3    0  502 -0.31050218154E+03  0.34312042750E+03  0.91679499381E+03  0.10269653870E+04  0.12699999809E+01 0. -1.
</event>
<event>
 5   0  0.2705807E-06  0.2600914E+04  0.7818609E-02  0.8367891E-01
        2   -1    0    0  501    0  0.00000000000E+00  0.00000000000E+00  0.16243626943E+04  0.16243626943E+04  0.25500000920E-02 0.  1.
       -2   -1    0    0    0  501  0.00000000000E+00  0.00000000000E+00 -0.10411398539E+04  0.10411398539E+04  0.25500000920E-02 0. -1.
    10030    2    1    2    0    0  0.00000000000E+00  0.00000000000E+00  0.58322284047E+03  0.26655025482E+04  0.26009142532E+04 0.  0.
        4    1    3    3  502    0 -0.11896406839E+04  0.32442857469E+03  0.71501536872E+03  0.14253937867E+04  0.12699999809E+01 0.  1.
       -4    1    3    3    0  502  0.11896406839E+04 -0.32442857469E+03 -0.13179252825E+03  0.12401087615E+04  0.12699999809E+01 0. -1.
</event>
<event>
 5   0  0.2746631E-06  0.2599749E+04  0.7818609E-02  0.8368286E-01
       -2   -1    0    0    0  501  0.00000000000E+00  0.00000000000E+00  0.10299444412E+04  0.10299444412E+04  0.25500000920E-02 0. -1.
        2   -1    0    0  501    0  0.00000000000E+00  0.00000000000E+00 -0.16405490329E+04  0.16405490329E+04  0.25500000920E-02 0.  1.
    10030    2    1    2    0    0  0.00000000000E+00  0.00000000000E+00 -0.61060459166E+03  0.26704934741E+04  0.25997494932E+04 0.  0.
        2    1    3    3  502    0 -0.99676655602E+03 -0.48021544779E+03 -0.10061618795E+04  0.14954972990E+04  0.25500000920E-02 0.  1.
       -2    1    3    3    0  502  0.99676655602E+03  0.48021544779E+03  0.39555728784E+03  0.11749961751E+04  0.25500000920E-02 0. -1.
</event>
<event>
 5   0  0.1032076E-06  0.2596900E+04  0.7818609E-02  0.8369255E-01
        1   -1    0    0  501    0  0.00000000000E+00  0.00000000000E+00  0.14981734222E+04  0.14981734222E+04  0.50400001928E-02 0.  1.
       -1   -1    0    0    0  501  0.00000000000E+00  0.00000000000E+00 -0.11253519557E+04  0.11253519558E+04  0.50400001928E-02 0. -1.
    10030    2    1    2    0    0  0.00000000000E+00  0.00000000000E+00  0.37282146644E+03  0.26235253780E+04  0.25968999909E+04 0.  0.
        1    1    3    3  502    0  0.16776209500E+03  0.43459819674E+02  0.14864374557E+04  0.14965056585E+04  0.50400001928E-02 0.  1.
       -1    1    3    3    0  502 -0.16776209500E+03 -0.43459819674E+02 -0.11136159892E+04  0.11270197194E+04  0.50400001928E-02 0. -1.
</event>
<event>
 5   0  0.9197000E-07  0.2604857E+04  0.7818609E-02  0.8366553E-01
        3   -1    0    0  501    0  0.00000000000E+00  0.00000000000E+00  0.91277706039E+03  0.91277706598E+03  0.10100000352E+00 0. -1.
       -3   -1    0    0    0  501  0.00000000000E+00  0.00000000000E+00 -0.18584163894E+04  0.18584163922E+04  0.10100000352E+00 0.  1.
    10030    2    1    2    0    0  0.00000000000E+00  0.00000000000E+00 -0.94563932905E+03  0.27711934582E+04  0.26048568947E+04 0.  0.
        4    1    3    3  502    0  0.83972119010E+03  0.82497349261E+03 -0.10657278033E+04  0.15879201190E+04  0.12699999809E+01 0.  1.
       -4    1    3    3    0  502 -0.83972119010E+03 -0.82497349261E+03  0.12008847429E+03  0.11832733392E+04  0.12699999809E+01 0. -1.
</event>
<event>
 5   0  0.1032076E-06  0.2599909E+04  0.7818609E-02  0.8368232E-01
       -1   -1    0    0    0  501  0.00000000000E+00  0.00000000000E+00  0.16708613757E+04  0.16708613757E+04  0.50400001928E-02 0.  1.
        1   -1    0    0  501    0  0.00000000000E+00  0.00000000000E+00 -0.10113836499E+04  0.10113836499E+04  0.50400001928E-02 0. -1.
    10030    2    1    2    0    0  0.00000000000E+00  0.00000000000E+00  0.65947772577E+03  0.26822450256E+04  0.25999091343E+04 0.  0.
        1    1    3    3  502    0  0.24315478478E+03  0.14424792345E+03  0.16387595049E+04  0.16629685588E+04  0.50400001928E-02 0.  1.
       -1    1    3    3    0  502 -0.24315478478E+03 -0.14424792345E+03 -0.97928177913E+03  0.10192764668E+04  0.50400001928E-02 0. -1.
</event>
<event>
 5   0  0.2623368E-06  0.2601046E+04  0.7818609E-02  0.8367846E-01
        2   -1    0    0  501    0  0.00000000000E+00  0.00000000000E+00  0.20283621921E+04  0.20283621921E+04  0.25500000920E-02 0.  1.
       -2   -1    0    0    0  501  0.00000000000E+00  0.00000000000E+00 -0.83385505939E+03  0.83385505939E+03  0.25500000920E-02 0. -1.
    10030    2    1    2    0    0  0.00000000000E+00  0.00000000000E+00  0.11945071327E+04  0.28622172515E+04  0.26010460020E+04 0.  0.
        5    1    3    3  502    0 -0.10377403495E+04 -0.75669606221E+03  0.82235137957E+03  0.15250501123E+04  0.46999998093E+01 0.  1.
       -5    1    3    3    0  502  0.10377403495E+04  0.75669606221E+03  0.37215575313E+03  0.13371671392E+04  0.46999998093E+01 0. -1.
</event>
<event>
 5   0  0.2820028E-06  0.2600075E+04  0.7818609E-02  0.8368176E-01
        2   -1    0    0  501    0  0.00000000000E+00  0.00000000000E+00  0.11528177353E+04  0.11528177353E+04  0.25500000920E-02 0.  1.
       -2   -1    0    0    0  501  0.00000000000E+00  0.00000000000E+00 -0.14660578643E+04  0.14660578643E+04  0.25500000920E-02 0. -1.
    10030    2    1    2    0    0  0.00000000000E+00  0.00000000000E+00 -0.31324012895E+03  0.26188755996E+04  0.26000750043E+04 0.  0.
        3    1    3    3  502    0 -0.12622338059E+03  0.71997432402E+03 -0.12394761408E+04  0.14389567342E+04  0.10100000352E+00 0. -1.
       -3    1    3    3    0  502  0.12622338059E+03 -0.71997432402E+03  0.92623601187E+03  0.11799188654E+04  0.10100000352E+00 0.  1.
</event>
<event>
 5   0  0.2623368E-06  0.2596533E+04  0.7818609E-02  0.8369380E-01
       -2   -1    0    0    0  501  0.00000000000E+00  0.00000000000E+00  0.10242209507E+04  0.10242209508E+04  0.25500000920E-02 0. -1.
        2   -1    0    0  501    0  0.00000000000E+00  0.00000000000E+00 -0.16456369523E+04  0.16456369523E+04  0.25500000920E-02 0.  1.
    10030    2    1    2    0    0  0.00000000000E+00  0.00000000000E+00 -0.62141600157E+03  0.26698579031E+04  0.25965329529E+04 0.  0.
        5    1    3    3  502    0 -0.36565904024E+03  0.21754741526E+03 -0.15719017058E+04  0.16284748921E+04  0.46999998093E+01 0.  1.
       -5    1    3    3    0  502  0.36565904024E+03 -0.21754741526E+03  0.95048570422E+03  0.10413830110E+04  0.46999998093E+01 0. -1.
</event>
<event>
 5   0  0.1122628E-06  0.2588030E+04  0.7818609E-02  0.8372279E-01
        1   -1    0    0  501    0  0.00000000000E+00  0.00000000000E+00  0.26182668717E+04  0.26182668717E+04  0.50400001928E-02 0.  1.
       -1   -1    0    0    0  501  0.00000000000E+00  0.00000000000E+00 -0.63953538097E+03  0.63953538099E+03  0.50400001928E-02 0. -1.
    10030    2    1    2    0    0  0.00000000000E+00  0.00000000000E+00  0.19787314908E+04  0.32578022527E+04  0.25880295990E+04 0.  0.
        2    1    3    3  502    0 -0.12551515002E+04  0.11019445253E+03  0.61823168212E+03  0.14034808579E+04  0.25500000920E-02 0.  1.
       -2    1    3    3    0  502  0.12551515002E+04 -0.11019445253E+03  0.13604998086E+04  0.18543213948E+04  0.25500000920E-02 0. -1.
</event>
<event>
 5   0  0.2705807E-06  0.2599766E+04  0.7818609E-02  0.8368281E-01
        2   -1    0    0  501    0  0.00000000000E+00  0.00000000000E+00  0.13810636800E+04  0.13810636800E+04  0.25500000920E-02 0.  1.
       -2   -1    0    0    0  501  0.00000000000E+00  0.00000000000E+00 -0.12234740483E+04  0.12234740483E+04  0.25500000920E-02 0. -1.
    10030    2    1    2    0    0  0.00000000000E+00  0.00000000000E+00  0.15758963173E+03  0.26045377283E+04  0.25997658137E+04 0.  0.
        4    1    3    3  502    0 -0.73811949627E+03 -0.10316481117E+03 -0.98816263886E+03  0.12377117527E+04  0.12699999809E+01 0. -1.
       -4    1    3    3    0  502  0.73811949627E+03  0.10316481117E+03  0.11457522706E+04  0.13668259756E+04  0.12699999809E+01 0.  1.
</event>
<event>
 5   0  0.1032076E-06  0.2603525E+04  0.7818609E-02  0.8367005E-01
        1   -1    0    0  501    0  0.00000000000E+00  0.00000000000E+00  0.81621023101E+03  0.81621023103E+03  0.50400001928E-02 0. -1.
       -1   -1    0    0    0  501  0.00000000000E+00  0.00000000000E+00 -0.20761636681E+04  0.20761636681E+04  0.50400001928E-02 0.  1.
    10030    2    1    2    0    0  0.00000000000E+00  0.00000000000E+00 -0.12599534371E+04  0.28923738992E+04  0.26035253233E+04 0.  0.
        1    1    3    3  502    0 -0.39595749260E+03  0.16133389091E+03  0.73597772979E+03  0.85116048961E+03  0.50400001928E-02 0. -1.
       -1    1    3    3    0  502  0.39595749260E+03 -0.16133389091E+03 -0.19959311669E+04  0.20412134096E+04  0.50400001928E-02 0.  1.
</event>
<event>
 5   0  0.2820028E-06  0.2602965E+04  0.7818609E-02  0.8367195E-01
       -2   -1    0    0    0  501  0.00000000000E+00  0.00000000000E+00  0.95172130008E+03  0.95172130008E+03  0.25500000920E-02 0. -1.
        2   -1    0    0  501    0  0.00000000000E+00  0.00000000000E+00 -0.17797817726E+04  0.17797817726E+04  0.25500000920E-02 0.  1.
    10030    2    1    2    0    0  0.00000000000E+00  0.00000000000E+00 -0.82806047255E+03  0.27315030727E+04  0.26029646348E+04 0.  0.
        3    1    3    3  502    0  0.58592066172E+03  0.16369348046E+03 -0.16213926862E+04  0.17317658128E+04  0.10100000352E+00 0.  1.
       -3    1    3    3    0  502 -0.58592066172E+03 -0.16369348046E+03  0.79333221366E+03  0.99973725989E+03  0.10100000352E+00 0. -1.
</event>
<event>
 5   0  0.1032076E-06  0.2590021E+04  0.7818609E-02  0.8371599E-01
       -1   -1    0    0    0  501  0.00000000000E+00  0.00000000000E+00  0.10394206254E+04  0.10394206255E+04  0.50400001928E-02 0.  1.
        1   -1    0    0  501    0  0.00000000000E+00  0.00000000000E+00 -0.16134492962E+04  0.16134492962E+04  0.50400001928E-02 0. -1.
    10030    2    1    2    0    0  0.00000000000E+00  0.00000000000E+00 -0.57402867071E+03  0.26528699216E+04  0.25900212173E+04 0.  0.
        1    1    3    3  502    0 -0.28516225555E+03 -0.12144018837E+04  0.69222612640E+02  0.12493523191E+04  0.50400001928E-02 0. -1.
       -1    1    3    3    0  502  0.28516225555E+03  0.12144018837E+04 -0.64325128335E+03  0.14035176025E+04  0.50400001928E-02 0.  1.
</event>
<event>
 5   0  0.2623368E-06  0.2595113E+04  0.7818609E-02  0.8369863E-01
        2   -1    0    0  501    0  0.00000000000E+00  0.00000000000E+00  0.16798915770E+04  0.16798915770E+04  0.25500000920E-02 0. -1.
       -2   -1    0    0    0  501  0.00000000000E+00  0.00000000000E+00 -0.10022387955E+04  0.10022387955E+04  0.25500000920E-02 0.  1.
    10030    2    1    2    0    0  0.00000000000E+00  0.00000000000E+00  0.67765278155E+03  0.26821303725E+04  0.25951127226E+04 0.  0.
        5    1    3    3  502    0  0.10728526951E+04 -0.50207106903E+03 -0.20859620956E+03  0.12027563063E+04  0.46999998093E+01 0.  1.
       -5    1    3    3    0  502 -0.10728526951E+04  0.50207106903E+03  0.88624899111E+03  0.14793740663E+04  0.46999998093E+01 0. -1.
</event>
<event>
 5   0  0.9197000E-07  0.2618775E+04  0.7818609E-02  0.8361852E-01
       -3   -1    0    0    0  501  0.00000000000E+00  0.00000000000E+00  0.16060540308E+04  0.16060540340E+04  0.10100000352E+00 0.  1.
        3   -1    0    0  501    0  0.00000000000E+00  0.00000000000E+00 -0.10675202655E+04  0.10675202703E+04  0.10100000352E+00 0. -1.
    10030    2    1    2    0    0  0.00000000000E+00  0.00000000000E+00  0.53853376525E+03  0.26735743043E+04  0.26187747028E+04 0.  0.
        1    1    3    3  502    0 -0.11408288698E+03 -0.25171169576E+03 -0.10374069192E+04  0.10735859532E+04  0.50400001928E-02 0. -1.
       -1    1    3    3    0  502  0.11408288698E+03  0.25171169576E+03  0.15759406844E+04  0.15999883511E+04  0.50400001928E-02 0.  1.
</event>
<event>
 5   0  0.1100104E-06  0.2600608E+04  0.7818609E-02  0.8367995E-01
       -1   -1    0    0    0  501  0.00000000000E+00  0.00000000000E+00  0.94771635668E+03  0.94771635670E+03  0.50400001928E-02 0. -1.
        1   -1    0    0  501    0  0.00000000000E+00  0.00000000000E+00 -0.17840675848E+04  0.17840675848E+04  0.50400001928E-02 0.  1.
    10030    2    1    2    0    0  0.00000000000E+00  0.00000000000E+00 -0.83635122812E+03  0.27317839415E+04  0.26006076456E+04 0.  0.
        4    1    3    3  502    0 -0.96955805334E+03 -0.41499310961E+03 -0.12171503985E+04  0.16105026561E+04  0.12699999809E+01 0.  1.
       -4    1    3    3    0  502  0.96955805334E+03  0.41499310961E+03  0.38079917043E+03  0.11212812854E+04  0.12699999809E+01 0. -1.
</event>
<event>
 5   0  0.2746631E-06  0.2600720E+04  0.7818609E-02  0.8367957E-01
       -2   -1    0    0    0  501  0.00000000000E+00  0.00000000000E+00  0.89854377772E+03  0.89854377773E+03  0.25500000920E-02 0.  1.
        2   -1    0    0  501    0  0.00000000000E+00  0.00000000000E+00 -0.18818623090E+04  0.18818623090E+04  0.25500000920E-02 0. -1.
    10030    2    1    2    0    0  0.00000000000E+00  0.00000000000E+00 -0.98331853124E+03  0.27804060867E+04  0.26007196452E+04 0.  0.
        2    1    3    3  502    0 -0.31242915737E+03  0.58309060890E+03  0.70521145308E+03  0.96691769563E+03  0.25500000920E-02 0.  1.
       -2    1    3    3    0  502  0.31242915737E+03 -0.58309060890E+03 -0.16885299843E+04  0.18134883911E+04  0.25500000920E-02 0. -1.
</event>
<event>
 5   0  0.2820028E-06  0.2598442E+04  0.7818609E-02  0.8368731E-01
        2   -1    0    0  501    0  0.00000000000E+00  0.00000000000E+00  0.17500443683E+04  0.17500443683E+04  0.25500000920E-02 0. -1.
       -2   -1    0    0    0  501  0.00000000000E+00  0.00000000000E+00 -0.96453256055E+03  0.96453256056E+03  0.25500000920E-02 0.  1.
    10030    2    1    2    0    0  0.00000000000E+00  0.00000000000E+00  0.78551180777E+03  0.27145769289E+04  0.25984416681E+04 0.  0.
        3    1    3    3  502    0  0.86108443788E+02  0.72743230850E+03  0.15137484771E+04  0.16816678892E+04  0.10100000352E+00 0. -1.
       -3    1    3    3    0  502 -0.86108443788E+02 -0.72743230850E+03 -0.72823666930E+03  0.10329090397E+04  0.10100000352E+00 0.  1.
</event>
<event>
 5   0  0.1088757E-06  0.2590615E+04  0.7818609E-02  0.8371396E-01
       -1   -1    0    0    0  501  0.00000000000E+00  0.00000000000E+00  0.10782120502E+04  0.10782120502E+04  0.50400001928E-02 0. -1.
        1   -1    0    0  501    0  0.00000000000E+00  0.00000000000E+00 -0.15561141248E+04  0.15561141248E+04  0.50400001928E-02 0.  1.
    10030    2    1    2    0    0  0.00000000000E+00  0.00000000000E+00 -0.47790207459E+03  0.26343261749E+04  0.25906145995E+04 0.  0.
        5    1    3    3  502    0 -0.10815117737E+04 -0.37624062868E+02 -0.96280154963E+03  0.14484792718E+04  0.46999998093E+01 0. -1.
       -5    1    3    3    0  502  0.10815117737E+04  0.37624062868E+02  0.48489947504E+03  0.11858469032E+04  0.46999998093E+01 0.  1.
</event>
<event>
 5   0  0.2623368E-06  0.2606470E+04  0.7818609E-02  0.8366007E-01
       -2   -1    0    0    0  501  0.00000000000E+00  0.00000000000E+00  0.93626845991E+03  0.93626845991E+03  0.25500000920E-02 0. -1.
        2   -1    0    0  501    0  0.00000000000E+00  0.00000000000E+00 -0.18140330394E+04  0.18140330394E+04  0.25500000920E-02 0.  1.
    10030    2    1    2    0    0  0.00000000000E+00  0.00000000000E+00 -0.87776457946E+03  0.27503014993E+04  0.26064703490E+04 0.  0.
        5    1    3    3  502    0  0.33453098714E+03  0.42591488050E+03 -0.16896563667E+04  0.17743379595E+04  0.46999998093E+01 0.  1.
       -5    1    3    3    0  502 -0.33453098714E+03 -0.42591488050E+03  0.81189178728E+03  0.97596353981E+03  0.46999998093E+01 0. -1.
</event>
<event>
 5   0  0.2705807E-06  0.2595483E+04  0.7818609E-02  0.8369737E-01
        2   -1    0    0  501    0  0.00000000000E+00  0.00000000000E+00  0.21583659060E+04  0.21583659060E+04  0.25500000920E-02 0.  1.
       -2   -1    0    0    0  501  0.00000000000E+00  0.00000000000E+00 -0.78028132885E+03  0.78028132886E+03  0.25500000920E-02 0. -1.
    10030    2    1    2    0    0  0.00000000000E+00  0.00000000000E+00  0.13780845772E+04  0.29386472349E+04  0.25954827045E+04 0.  0.
        4    1    3    3  502    0  0.26531703755E+03 -0.87965266466E+03  0.17267039973E+04  0.19559371790E+04  0.12699999809E+01 0.  1.
       -4    1    3    3    0  502 -0.26531703755E+03  0.87965266466E+03 -0.34861942019E+03  0.98271005586E+03  0.12699999809E+01 0. -1.
</event>
<event>
 5   0  0.2746631E-06  0.2584406E+04  0.7818609E-02  0.8373517E-01
        2   -1    0    0  501    0  0.00000000000E+00  0.00000000000E+00  0.17336096511E+04  0.17336096511E+04  0.25500000920E-02 0.  1.
       -2   -1    0    0    0  501  0.00000000000E+00  0.00000000000E+00 -0.96318615700E+03  0.96318615701E+03  0.25500000920E-02 0. -1.
    10030    2    1    2    0    0  0.00000000000E+00  0.00000000000E+00  0.77042349411E+03  0.26967958081E+04  0.25844061737E+04 0.  0.
        2    1    3    3  502    0  0.16125781423E+03  0.44485150278E+03  0.16399559658E+04  0.17068545667E+04  0.25500000920E-02 0.  1.
       -2    1    3    3    0  502 -0.16125781423E+03 -0.44485150278E+03 -0.86953247167E+03  0.98994124142E+03  0.25500000920E-02 0. -1.
</event>
<event>
 5   0  0.1122628E-06  0.2595704E+04  0.7818609E-02  0.8369662E-01
       -1   -1    0    0    0  501  0.00000000000E+00  0.00000000000E+00  0.96569946071E+03  0.96569946072E+03  0.50400001928E-02 0.  1.
        1   -1    0    0  501    0  0.00000000000E+00  0.00000000000E+00 -0.17442490026E+04  0.17442490026E+04  0.50400001928E-02 0. -1.
    10030    2    1    2    0    0  0.00000000000E+00  0.00000000000E+00 -0.77854954185E+03  0.27099484633E+04  0.25957043908E+04 0.  0.
        2    1    3    3  502    0 -0.94969675554E+03  0.88238537027E+03 -0.45441022300E+03  0.13736871987E+04  0.25500000920E-02 0.  1.
       -2    1    3    3    0  502  0.94969675554E+03 -0.88238537027E+03 -0.32413931885E+03  0.13362612646E+04  0.25500000920E-02 0. -1.
</event>
<event>
 5   0  0.2746631E-06  0.2599981E+04  0.7818609E-02  0.8368208E-01
       -2   -1    0    0    0  501  0.00000000000E+00  0.00000000000E+00  0.11420403216E+04  0.11420403216E+04  0.25500000920E-02 0. -1.
        2   -1    0    0  501    0  0.00000000000E+00  0.00000000000E+00 -0.14797858902E+04  0.14797858902E+04  0.25500000920E-02 0.  1.
    10030    2    1    2    0    0  0.00000000000E+00  0.00000000000E+00 -0.33774556862E+03  0.26218262118E+04  0.25999808876E+04 0.  0.
        2    1    3    3  502    0  0.36640637292E+03 -0.69947127790E+03 -0.12102458176E+04  0.14450635411E+04  0.25500000920E-02 0.  1.
       -2    1    3    3    0  502 -0.36640637292E+03  0.69947127790E+03  0.87250024898E+03  0.11767626707E+04  0.25500000920E-02 0. -1.
</event>
<event>
 5   0  0.2623368E-06  0.2597447E+04  0.7818609E-02  0.8369069E-01
       -2   -1    0    0    0  501  0.00000000000E+00  0.00000000000E+00  0.72149068100E+03  0.72149068100E+03  0.25500000920E-02 0.  1.
        2   -1    0    0  501    0  0.00000000000E+00  0.00000000000E+00 -0.23377755629E+04  0.23377755629E+04  0.25500000920E-02 0. -1.
    10030    2    1    2    0    0  0.00000000000E+00  0.00000000000E+00 -0.16162848819E+04  0.30592662439E+04  0.25974474261E+04 0.  0.
        5    1    3    3  502    0  0.29490840690E+02 -0.45408687874E+03  0.62451437265E+03  0.77272562710E+03  0.46999998093E+01 0.  1.
       -5    1    3    3    0  502 -0.29490840690E+02  0.45408687874E+03 -0.22407992545E+04  0.22865406168E+04  0.46999998093E+01 0. -1.
</event>
<event>
 5   0  0.2705807E-06  0.2598092E+04  0.7818609E-02  0.8368849E-01
        2   -1    0    0  501    0  0.00000000000E+00  0.00000000000E+00  0.20291678918E+04  0.20291678918E+04  0.25500000920E-02 0.  1.
       -2   -1    0    0    0  501  0.00000000000E+00  0.00000000000E+00 -0.83163200947E+03  0.83163200947E+03  0.25500000920E-02 0. -1.
    10030    2    1    2    0    0  0.00000000000E+00  0.00000000000E+00  0.11975358823E+04  0.28607999012E+04  0.25980923551E+04 0.  0.
        4    1    3    3  502    0  0.62454243099E+03  0.28116652208E+03  0.18141977724E+04  0.19391810208E+04  0.12699999809E+01 0.  1.
       -4    1    3    3    0  502 -0.62454243099E+03 -0.28116652208E+03 -0.61666189007E+03  0.92161888045E+03  0.12699999809E+01 0. -1.
</event>
<event>
 5   0  0.2746631E-06  0.2518819E+04  0.7818609E-02  0.8396312E-01
        2   -1    0    0  501    0  0.00000000000E+00  0.00000000000E+00  0.20549446475E+04  0.20549446475E+04  0.25500000920E-02 0.  1.
       -2   -1    0    0    0  501  0.00000000000E+00  0.00000000000E+00 -0.77185137291E+03  0.77185137291E+03  0.25500000920E-02 0. -1.
    10030    2    1    2    0    0  0.00000000000E+00  0.00000000000E+00  0.12830932746E+04  0.28267960205E+04  0.25188186497E+04 0.  0.
        2    1    3    3  502    0  0.45753004150E+03  0.29588934508E+03  0.19158193080E+04  0.19917951362E+04  0.25500000920E-02 0.  1.
       -2    1    3    3    0  502 -0.45753004150E+03 -0.29588934508E+03 -0.63272603341E+03  0.83500088429E+03  0.25500000920E-02 0. -1.
</event>
<event>
 5   0  0.2623368E-06  0.2598387E+04  0.7818609E-02  0.8368749E-01
       -2   -1    0    0    0  501  0.00000000000E+00  0.00000000000E+00  0.13115153835E+04  0.13115153835E+04  0.25500000920E-02 0.  1.
        2   -1    0    0  501    0  0.00000000000E+00  0.00000000000E+00 -0.12869877367E+04  0.12869877367E+04  0.25500000920E-02 0. -1.
    10030    2    1    2    0    0  0.00000000000E+00  0.00000000000E+00  0.24527646720E+02  0.25985031202E+04  0.25983873576E+04 0.  0.
        5    1    3    3  502    0 -0.12400325348E+03  0.62551936331E+03  0.11442289328E+04  0.13099363425E+04  0.46999998093E+01 0.  1.
       -5    1    3    3    0  502  0.12400325348E+03 -0.62551936331E+03 -0.11197012860E+04  0.12885667777E+04  0.46999998093E+01 0. -1.
</event>
<event>
 5   0  0.1032076E-06  0.2599298E+04  0.7818609E-02  0.8368440E-01
       -1   -1    0    0    0  501  0.00000000000E+00  0.00000000000E+00  0.92239906252E+03  0.92239906253E+03  0.50400001928E-02 0.  1.
        1   -1    0    0  501    0  0.00000000000E+00  0.00000000000E+00 -0.18311902490E+04  0.18311902490E+04  0.50400001928E-02 0. -1.
    10030    2    1    2    0    0  0.00000000000E+00  0.00000000000E+00 -0.90879118646E+03  0.27535893115E+04  0.25992984969E+04 0.  0.
        1    1    3    3  502    0 -0.81146967531E+03  0.10145563506E+04 -0.49230444819E+03  0.13893060470E+04  0.50400001928E-02 0. -1.
       -1    1    3    3    0  502  0.81146967531E+03 -0.10145563506E+04 -0.41648673827E+03  0.13642832645E+04  0.50400001928E-02 0.  1.
</event>
<event>
 5   0  0.2820028E-06  0.2603194E+04  0.7818609E-02  0.8367117E-01
        2   -1    0    0  501    0  0.00000000000E+00  0.00000000000E+00  0.13503181146E+04  0.13503181146E+04  0.25500000920E-02 0.  1.
       -2   -1    0    0    0  501  0.00000000000E+00  0.00000000000E+00 -0.12546333551E+04  0.12546333551E+04  0.25500000920E-02 0. -1.
    10030    2    1    2    0    0  0.00000000000E+00  0.00000000000E+00  0.95684759532E+02  0.26049514698E+04  0.26031935361E+04 0.  0.
        3    1    3    3  502    0  0.60287810819E+03 -0.97234069169E+03 -0.57325840919E+03  0.12796615365E+04  0.10100000352E+00 0. -1.
       -3    1    3    3    0  502 -0.60287810819E+03  0.97234069169E+03  0.66894316872E+03  0.13252899333E+04  0.10100000352E+00 0.  1.
</event>
<event>
 5   0  0.1032076E-06  0.2606742E+04  0.7818609E-02  0.8365915E-01
        1   -1    0    0  501    0  0.00000000000E+00  0.00000000000E+00  0.12452276372E+04  0.12452276372E+04  0.50400001928E-02 0.  1.
       -1   -1    0    0    0  501  0.00000000000E+00  0.00000000000E+00 -0.13642296114E+04  0.13642296114E+04  0.50400001928E-02 0. -1.
    10030    2    1    2    0    0  0.00000000000E+00  0.00000000000E+00 -0.11900197421E+03  0.26094572486E+04  0.26067423468E+04 0.  0.
        1    1    3    3  502    0  0.45390352923E+03  0.11976648052E+04 -0.30130383113E+03  0.13157558277E+04  0.50400001928E-02 0. -1.
       -1    1    3    3    0  502 -0.45390352923E+03 -0.11976648052E+04  0.18230185692E+03  0.12937014209E+04  0.50400001928E-02 0.  1.
</event>
<event>
 5   0  0.2746631E-06  0.2600787E+04  0.7818609E-02  0.8367934E-01
        2   -1    0    0  501    0  0.00000000000E+00  0.00000000000E+00  0.13510493376E+04  0.13510493376E+04  0.25500000920E-02 0.  1.
       -2   -1    0    0    0  501  0.00000000000E+00  0.00000000000E+00 -0.12516370855E+04  0.12516370855E+04  0.25500000920E-02 0. -1.
    10030    2    1    2    0    0  0.00000000000E+00  0.00000000000E+00  0.99412252118E+02  0.26026864231E+04  0.26007871542E+04 0.  0.
        2    1    3    3  502    0  0.91432690402E+03 -0.95502897136E+02 -0.87069861882E+03  0.12661874172E+04  0.25500000920E-02 0. -1.
       -2    1    3    3    0  502 -0.91432690402E+03  0.95502897136E+02  0.97011087094E+03  0.13364990059E+04  0.25500000920E-02 0.  1.
</event>
<event>
 5   0  0.2623368E-06  0.2598137E+04  0.7818609E-02  0.8368834E-01
        2   -1    0    0  501    0  0.00000000000E+00  0.00000000000E+00  0.18674954874E+04  0.18674954874E+04  0.25500000920E-02 0. -1.
       -2   -1    0    0    0  501  0.00000000000E+00  0.00000000000E+00 -0.90365912386E+03  0.90365912387E+03  0.25500000920E-02 0.  1.
    10030    2    1    2    0    0  0.00000000000E+00  0.00000000000E+00  0.96383636352E+03  0.27711546113E+04  0.25981372835E+04 0.  0.
        5    1    3    3  502    0 -0.19905866232E+03 -0.54472217981E+03  0.17217426141E+04  0.18168011238E+04  0.46999998093E+01 0. -1.
       -5    1    3    3    0  502  0.19905866232E+03  0.54472217981E+03 -0.75790625062E+03  0.95435348742E+03  0.46999998093E+01 0.  1.
</event>
<event>
 5   0  0.1032076E-06  0.2601581E+04  0.7818609E-02  0.8367664E-01
        1   -1    0    0  501    0  0.00000000000E+00  0.00000000000E+00  0.15007002229E+04  0.15007002229E+04  0.50400001928E-02 0. -1.
       -1   -1    0    0    0  501  0.00000000000E+00  0.00000000000E+00 -0.11275112124E+04  0.11275112125E+04  0.50400001928E-02 0.  1.
    10030    2    1    2    0    0  0.00000000000E+00  0.00000000000E+00  0.37318901047E+03  0.26282114354E+04  0.26015813098E+04 0.  0.
        1    1    3    3  502    0  0.63019290494E+03  0.38441825591E+03 -0.89541311672E+03  0.11604676396E+04  0.50400001928E-02 0.  1.
       -1    1    3    3    0  502 -0.63019290494E+03 -0.38441825591E+03  0.12686021272E+04  0.14677437958E+04  0.50400001928E-02 0. -1.
</event>
<event>
 5   0  0.1100104E-06  0.2605151E+04  0.7818609E-02  0.8366454E-01
        1   -1    0    0  501    0  0.00000000000E+00  0.00000000000E+00  0.10418822400E+04  0.10418822400E+04  0.50400001928E-02 0.  1.
       -1   -1    0    0    0  501  0.00000000000E+00  0.00000000000E+00 -0.16284979553E+04  0.16284979553E+04  0.50400001928E-02 0. -1.
    10030    2    1    2    0    0  0.00000000000E+00  0.00000000000E+00 -0.58661571529E+03  0.26703801953E+04  0.26051511262E+04 0.  0.
        4    1    3    3  502    0  0.12500538542E+04  0.36330921032E+03 -0.33998104700E+03  0.13454430296E+04  0.12699999809E+01 0. -1.
       -4    1    3    3    0  502 -0.12500538542E+04 -0.36330921032E+03 -0.24663466829E+03  0.13249371657E+04  0.12699999809E+01 0.  1.
</event>
<event>
 5   0  0.1055179E-06  0.2645721E+04  0.7818609E-02  0.8352835E-01
       -1   -1    0    0    0  501  0.00000000000E+00  0.00000000000E+00  0.10069916610E+04  0.10069916610E+04  0.50400001928E-02 0.  1.
        1   -1    0    0  501    0  0.00000000000E+00  0.00000000000E+00 -0.17378100286E+04  0.17378100286E+04  0.50400001928E-02 0. -1.
    10030    2    1    2    0    0  0.00000000000E+00  0.00000000000E+00 -0.73081836757E+03  0.27448016896E+04  0.26457212304E+04 0.  0.
        3    1    3    3  502    0 -0.92238345030E+03 -0.22483666793E+03  0.59029363419E+03  0.11179397754E+04  0.10100000352E+00 0.  1.
       -3    1    3    3    0  502  0.92238345030E+03  0.22483666793E+03 -0.13211120018E+04  0.16268619142E+04  0.10100000352E+00 0. -1.
</event>
<event>
 5   0  0.9197000E-07  0.2593776E+04  0.7818609E-02  0.8370319E-01
       -3   -1    0    0    0  501  0.00000000000E+00  0.00000000000E+00  0.12103569735E+04  0.12103569777E+04  0.10100000352E+00 0. -1.
        3   -1    0    0  501    0  0.00000000000E+00  0.00000000000E+00 -0.13896050386E+04  0.13896050423E+04  0.10100000352E+00 0.  1.
    10030    2    1    2    0    0  0.00000000000E+00  0.00000000000E+00 -0.17924806512E+03  0.25999620200E+04  0.25937757491E+04 0.  0.
        1    1    3    3  502    0 -0.36714997425E+03 -0.12402099920E+04  0.54612182318E+01  0.12934255884E+04  0.50400001928E-02 0. -1.
       -1    1    3    3    0  502  0.36714997425E+03  0.12402099920E+04 -0.18470928335E+03  0.13065364316E+04  0.50400001928E-02 0.  1.
</event>
<event>
 5   0  0.9197000E-07  0.2597694E+04  0.7818609E-02  0.8368985E-01
        3   -1    0    0  501    0  0.00000000000E+00  0.00000000000E+00  0.16522229036E+04  0.16522229067E+04  0.10100000352E+00 0.  1.
       -3   -1    0    0    0  501  0.00000000000E+00  0.00000000000E+00 -0.10210507111E+04  0.10210507161E+04  0.10100000352E+00 0. -1.
    10030    2    1    2    0    0  0.00000000000E+00  0.00000000000E+00  0.63117219245E+03  0.26732736228E+04  0.25976938861E+04 0.  0.
        2    1    3    3  502    0 -0.20836015926E+03  0.11203414674E+04  0.95695618923E+03  0.14880672390E+04  0.25500000920E-02 0.  1.
       -2    1    3    3    0  502  0.20836015926E+03 -0.11203414674E+04 -0.32578399678E+03  0.11852063838E+04  0.25500000920E-02 0. -1.
</event>
<event>
 5   0  0.1055179E-06  0.2557573E+04  0.7818609E-02  0.8382757E-01
        1   -1    0    0  501    0  0.00000000000E+00  0.00000000000E+00  0.13621465564E+04  0.13621465564E+04  0.50400001928E-02 0.  1.
       -1   -1    0    0    0  501  0.00000000000E+00  0.00000000000E+00 -0.12005281536E+04  0.12005281536E+04  0.50400001928E-02 0. -1.
    10030    2    1    2    0    0  0.00000000000E+00  0.00000000000E+00  0.16161840273E+03  0.25626747100E+04  0.25575732954E+04 0.  0.
        3    1    3    3  502    0 -0.95711280924E+03 -0.77469208492E+03  0.42658087340E+03  0.13031438937E+04  0.10100000352E+00 0.  1.
       -3    1    3    3    0  502  0.95711280924E+03  0.77469208492E+03 -0.26496247068E+03  0.12595308163E+04  0.10100000352E+00 0. -1.
</event>
<event>
 5   0  0.2623368E-06  0.2558548E+04  0.7818609E-02  0.8382419E-01
        2   -1    0    0  501    0  0.00000000000E+00  0.00000000000E+00  0.14156534262E+04  0.14156534262E+04  0.25500000920E-02 0.  1.
       -2   -1    0    0    0  501  0.00000000000E+00  0.00000000000E+00 -0.11560330180E+04  0.11560330180E+04  0.25500000920E-02 0. -1.
    10030    2    1    2    0    0  0.00000000000E+00  0.00000000000E+00  0.25962040812E+03  0.25716864442E+04  0.25585481061E+04 0.  0.
        5    1    3    3  502    0  0.10246034753E+04  0.74595393052E+03  0.30465883066E+03  0.13034947799E+04  0.46999998093E+01 0. -1.
       -5    1    3    3    0  502 -0.10246034753E+04 -0.74595393052E+03 -0.45038422544E+02  0.12681916643E+04  0.46999998093E+01 0.  1.
</event>
<event>
 5   0  0.1088757E-06  0.2599576E+04  0.7818609E-02  0.8368345E-01
       -1   -1    0    0    0  501  0.00000000000E+00  0.00000000000E+00  0.14269562294E+04  0.14269562294E+04  0.50400001928E-02 0.  1.
        1   -1    0    0  501    0  0.00000000000E+00  0.00000000000E+00 -0.11839528541E+04  0.11839528541E+04  0.50400001928E-02 0. -1.
    10030    2    1    2    0    0  0.00000000000E+00  0.00000000000E+00  0.24300337529E+03  0.26109090835E+04  0.25995760427E+04 0.  0.
        5    1    3    3  502    0 -0.11479934939E+04 -0.13577055751E+03  0.71831789160E+03  0.13610016126E+04  0.46999998093E+01 0.  1.
       -5    1    3    3    0  502  0.11479934939E+04  0.13577055751E+03 -0.47531451631E+03  0.12499074708E+04  0.46999998093E+01 0. -1.
</event>
<event>
 5   0  0.2623368E-06  0.2599054E+04  0.7818609E-02  0.8368523E-01
       -2   -1    0    0    0  501  0.00000000000E+00  0.00000000000E+00  0.14404638387E+04  0.14404638387E+04  0.25500000920E-02 0.  1.
        2   -1    0    0  501    0  0.00000000000E+00  0.00000000000E+00 -0.11723796397E+04  0.11723796397E+04  0.25500000920E-02 0. -1.
    10030    2    1    2    0    0  0.00000000000E+00  0.00000000000E+00  0.26808419904E+03  0.26128434784E+04  0.25990540404E+04 0.  0.
        5    1    3    3  502    0 -0.10597404485E+04  0.69661494823E+03 -0.15105763369E+03  0.12771698019E+04  0.46999998093E+01 0.  1.
       -5    1    3    3    0  502  0.10597404485E+04 -0.69661494823E+03  0.41914183273E+03  0.13356736765E+04  0.46999998093E+01 0. -1.
</event>
<event>
 5   0  0.1032076E-06  0.2598175E+04  0.7818609E-02  0.8368821E-01
       -1   -1    0    0    0  501  0.00000000000E+00  0.00000000000E+00  0.76463902186E+03  0.76463902188E+03  0.50400001928E-02 0.  1.
        1   -1    0    0  501    0  0.00000000000E+00  0.00000000000E+00 -0.22070911589E+04  0.22070911589E+04  0.50400001928E-02 0. -1.
    10030    2    1    2    0    0  0.00000000000E+00  0.00000000000E+00 -0.14424521371E+04  0.29717301808E+04  0.25981747631E+04 0.  0.
        1    1    3    3  502    0 -0.65821808589E+03 -0.11152425659E+04 -0.60340605145E+03  0.14286762728E+04  0.50400001928E-02 0. -1.
       -1    1    3    3    0  502  0.65821808589E+03  0.11152425659E+04 -0.83904608561E+03  0.15430539081E+04  0.50400001928E-02 0.  1.
</event>
<event>
 5   0  0.1088757E-06  0.2596395E+04  0.7818609E-02  0.8369427E-01
        1   -1    0    0  501    0  0.00000000000E+00  0.00000000000E+00  0.12120203491E+04  0.12120203492E+04  0.50400001928E-02 0. -1.
       -1   -1    0    0    0  501  0.00000000000E+00  0.00000000000E+00 -0.13905018441E+04  0.13905018441E+04  0.50400001928E-02 0.  1.
    10030    2    1    2    0    0  0.00000000000E+00  0.00000000000E+00 -0.17848149496E+03  0.26025221933E+04  0.25963948318E+04 0.  0.
        5    1    3    3  502    0  0.35163538633E+02  0.63510614672E+03  0.10451093078E+04  0.12234671419E+04  0.46999998093E+01 0. -1.
       -5    1    3    3    0  502 -0.35163538633E+02 -0.63510614672E+03 -0.12235908028E+04  0.13790550514E+04  0.46999998093E+01 0.  1.
</event>
<event>
 5   0  0.2820028E-06  0.2600895E+04  0.7818609E-02  0.8367897E-01
        2   -1    0    0  501    0  0.00000000000E+00  0.00000000000E+00  0.11294323461E+04  0.11294323461E+04  0.25500000920E-02 0.  1.
       -2   -1    0    0    0  501  0.00000000000E+00  0.00000000000E+00 -0.14973571784E+04  0.14973571784E+04  0.25500000920E-02 0. -1.
    10030    2    1    2    0    0  0.00000000000E+00  0.00000000000E+00 -0.36792483234E+03  0.26267895245E+04  0.26008949467E+04 0.  0.
        3    1    3    3  502    0 -0.14926583216E+03 -0.11643068800E+04  0.38131784914E+03  0.12342180163E+04  0.10100000352E+00 0.  1.
       -3    1    3    3    0  502  0.14926583216E+03  0.11643068800E+04 -0.74924268148E+03  0.13925715082E+04  0.10100000352E+00 0. -1.
</event>
<event>
 5   0  0.2623368E-06  0.2601001E+04  0.7818609E-02  0.8367861E-01
        2   -1    0    0  501    0  0.00000000000E+00  0.00000000000E+00  0.11885179203E+04  0.11885179203E+04  0.25500000920E-02 0.  1.
       -2   -1    0    0    0  501  0.00000000000E+00  0.00000000000E+00 -0.14230339224E+04  0.14230339224E+04  0.25500000920E-02 0. -1.
    10030    2    1    2    0    0  0.00000000000E+00  0.00000000000E+00 -0.23451600218E+03  0.26115518427E+04  0.26010008212E+04 0.  0.
        5    1    3    3  502    0 -0.62075141013E+03 -0.53833088586E+03  0.89487219812E+03  0.12148871539E+04  0.46999998093E+01 0.  1.
       -5    1    3    3    0  502  0.62075141013E+03  0.53833088586E+03 -0.11293882003E+04  0.13966646888E+04  0.46999998093E+01 0. -1.
</event>
<event>
 5   0  0.9197000E-07  0.2598351E+04  0.7818609E-02  0.8368762E-01
       -3   -1    0    0    0  501  0.00000000000E+00  0.00000000000E+00  0.14590604362E+04  0.14590604397E+04  0.10100000352E+00 0.  1.
        3   -1    0    0  501    0  0.00000000000E+00  0.00000000000E+00 -0.11568105129E+04  0.11568105173E+04  0.10100000352E+00 0. -1.
    10030    2    1    2    0    0  0.00000000000E+00  0.00000000000E+00  0.30224992336E+03  0.26158709570E+04  0.25983506014E+04 0.  0.
        4    1    3    3  502    0  0.56726103796E+03  0.77734861678E+03  0.10298211315E+04  0.14094641297E+04  0.12699999809E+01 0.  1.
       -4    1    3    3    0  502 -0.56726103796E+03 -0.77734861678E+03 -0.72757120812E+03  0.12064068273E+04  0.12699999809E+01 0. -1.
</event>
<event>
 5   0  0.2705807E-06  0.2597842E+04  0.7818609E-02  0.8368934E-01
        2   -1    0    0  501    0  0.00000000000E+00  0.00000000000E+00  0.15967580979E+04  0.15967580979E+04  0.25500000920E-02 0. -1.
       -2   -1    0    0    0  501  0.00000000000E+00  0.00000000000E+00 -0.10566385792E+04  0.10566385792E+04  0.25500000920E-02 0.  1.
    10030    2    1    2    0    0  0.00000000000E+00  0.00000000000E+00  0.54011951876E+03  0.26533966771E+04  0.25978423416E+04 0.  0.
        4    1    3    3  502    0 -0.48229324933E+03  0.12054418910E+04  0.23053250929E+03  0.13186522596E+04  0.12699999809E+01 0.  1.
       -4    1    3    3    0  502  0.48229324933E+03 -0.12054418910E+04  0.30958700947E+03  0.13347444176E+04  0.12699999809E+01 0. -1.
</event>
<event>
 5   0  0.1032076E-06  0.2597485E+04  0.7818609E-02  0.8369056E-01
       -1   -1    0    0    0  501  0.00000000000E+00  0.00000000000E+00  0.12058988281E+04  0.12058988281E+04  0.50400001928E-02 0. -1.
        1   -1    0    0  501    0  0.00000000000E+00  0.00000000000E+00 -0.13987338227E+04  0.13987338228E+04  0.50400001928E-02 0.  1.
    10030    2    1    2    0    0  0.00000000000E+00  0.00000000000E+00 -0.19283499464E+03  0.26046326509E+04  0.25974845352E+04 0.  0.
        1    1    3    3  502    0  0.57622370047E+03 -0.59114792714E+03 -0.11017941390E+04  0.13767497774E+04  0.50400001928E-02 0.  1.
       -1    1    3    3    0  502 -0.57622370047E+03  0.59114792714E+03  0.90895914440E+03  0.12278828735E+04  0.50400001928E-02 0. -1.
</event>
<event>
 5   0  0.1100104E-06  0.2600058E+04  0.7818609E-02  0.8368182E-01
       -1   -1    0    0    0  501  0.00000000000E+00  0.00000000000E+00  0.20102309367E+04  0.20102309367E+04  0.50400001928E-02 0.  1.
        1   -1    0    0  501    0  0.00000000000E+00  0.00000000000E+00 -0.84073663914E+03  0.84073663915E+03  0.50400001928E-02 0. -1.
    10030    2    1    2    0    0  0.00000000000E+00  0.00000000000E+00  0.11694942976E+04  0.28509675759E+04  0.26000575391E+04 0.  0.
        4    1    3    3  502    0  0.52483127993E+03 -0.57112966508E+03 -0.55921278049E+03  0.95622043143E+03  0.12699999809E+01 0. -1.
       -4    1    3    3    0  502 -0.52483127993E+03  0.57112966508E+03  0.17287070781E+04  0.18947471444E+04  0.12699999809E+01 0.  1.
</event>
<event>
 5   0  0.1100104E-06  0.2600963E+04  0.7818609E-02  0.8367874E-01
        1   -1    0    0  501    0  0.00000000000E+00  0.00000000000E+00  0.15523572007E+04  0.15523572007E+04  0.50400001928E-02 0.  1.
       -1   -1    0    0    0  501  0.00000000000E+00  0.00000000000E+00 -0.10894733945E+04  0.10894733945E+04  0.50400001928E-02 0. -1.
    10030    2    1    2    0    0  0.00000000000E+00  0.00000000000E+00  0.46288380619E+03  0.26418305952E+04  0.26009627979E+04 0.  0.
        4    1    3    3  502    0 -0.43323492295E+03 -0.38601904715E+03  0.14135790725E+04  0.15280414296E+04  0.12699999809E+01 0.  1.
       -4    1    3    3    0  502  0.43323492295E+03  0.38601904715E+03 -0.95069526635E+03  0.11137891657E+04  0.12699999809E+01 0. -1.
</event>
<event>
 5   0  0.1100104E-06  0.2649090E+04  0.7818609E-02  0.8351715E-01
       -1   -1    0    0    0  501  0.00000000000E+00  0.00000000000E+00  0.80053874043E+03  0.80053874045E+03  0.50400001928E-02 0.  1.
        1   -1    0    0  501    0  0.00000000000E+00  0.00000000000E+00 -0.21915487493E+04  0.21915487493E+04  0.50400001928E-02 0. -1.
    10030    2    1    2    0    0  0.00000000000E+00  0.00000000000E+00 -0.13910100088E+04  0.29920874897E+04  0.26490901648E+04 0.  0.
        4    1    3    3  502    0 -0.75530477529E+03 -0.55063729760E+03  0.36447889771E+03  0.10032612904E+04  0.12699999809E+01 0.  1.
       -4    1    3    3    0  502  0.75530477529E+03  0.55063729760E+03 -0.17554889065E+04  0.19888261993E+04  0.12699999809E+01 0. -1.
</event>
<event>
 5   0  0.1032076E-06  0.2596185E+04  0.7818609E-02  0.8369498E-01
       -1   -1    0    0    0  501  0.00000000000E+00  0.00000000000E+00  0.78177067193E+03  0.78177067195E+03  0.50400001928E-02 0.  1.
        1   -1    0    0  501    0  0.00000000000E+00  0.00000000000E+00 -0.21554198425E+04  0.21554198425E+04  0.50400001928E-02 0. -1.
    10030    2    1    2    0    0  0.00000000000E+00  0.00000000000E+00 -0.13736491706E+04  0.29371905145E+04  0.25961849076E+04 0.  0.
        1    1    3    3  502    0  0.75963502117E+03 -0.70695961713E+03 -0.15691364412E+04  0.18812300329E+04  0.50400001928E-02 0. -1.
       -1    1    3    3    0  502 -0.75963502117E+03  0.70695961713E+03  0.19548727060E+03  0.10559604816E+04  0.50400001928E-02 0.  1.
</event>
<event>
 5   0  0.1088757E-06  0.2587033E+04  0.7818609E-02  0.8372619E-01
        1   -1    0    0  501    0  0.00000000000E+00  0.00000000000E+00  0.88800156991E+03  0.88800156992E+03  0.50400001928E-02 0. -1.
       -1   -1    0    0    0  501  0.00000000000E+00  0.00000000000E+00 -0.18842138314E+04  0.18842138314E+04  0.50400001928E-02 0.  1.
    10030    2    1    2    0    0  0.00000000000E+00  0.00000000000E+00 -0.99621226146E+03  0.27722154013E+04  0.25870329262E+04 0.  0.
        5    1    3    3  502    0  0.12465170312E+04 -0.33857823865E+03 -0.57174813573E+03  0.14125713976E+04  0.46999998093E+01 0. -1.
       -5    1    3    3    0  502 -0.12465170312E+04  0.33857823865E+03 -0.42446412572E+03  0.13596440037E+04  0.46999998093E+01 0.  1.
</event>
<event>
 5   0  0.2705807E-06  0.2603124E+04  0.7818609E-02  0.8367141E-01
        2   -1    0    0  501    0  0.00000000000E+00  0.00000000000E+00  0.21802837783E+04  0.21802837783E+04  0.25500000920E-02 0.  1.
       -2   -1    0    0    0  501  0.00000000000E+00  0.00000000000E+00 -0.77699206494E+03  0.77699206495E+03  0.25500000920E-02 0. -1.
    10030    2    1    2    0    0  0.00000000000E+00  0.00000000000E+00  0.14032917134E+04  0.29572758433E+04  0.26031236583E+04 0.  0.
        4    1    3    3  502    0 -0.10725843575E+04 -0.34279899509E+03  0.14432284790E+04  0.18305350066E+04  0.12699999809E+01 0.  1.
       -4    1    3    3    0  502  0.10725843575E+04  0.34279899509E+03 -0.39936765552E+02  0.11267408367E+04  0.12699999809E+01 0. -1.
</event>
<event>
 5   0  0.1088757E-06  0.2605013E+04  0.7818609E-02  0.8366500E-01
        1   -1    0    0  501    0  0.00000000000E+00  0.00000000000E+00  0.16824214279E+04  0.16824214279E+04  0.50400001928E-02 0.  1.
       -1   -1    0    0    0  501  0.00000000000E+00  0.00000000000E+00 -0.10083816816E+04  0.10083816816E+04  0.50400001928E-02 0. -1.
    10030    2    1    2    0    0  0.00000000000E+00  0.00000000000E+00  0.67403974635E+03  0.26908031095E+04  0.26050128204E+04 0.  0.
        5    1    3    3  502    0 -0.99241836040E+03  0.30705014152E+03  0.11485967134E+04  0.15486996131E+04  0.46999998093E+01 0.  1.
       -5    1    3    3    0  502  0.99241836040E+03 -0.30705014152E+03 -0.47455696710E+03  0.11421034964E+04  0.46999998093E+01 0. -1.
</event>
<event>
 5   0  0.2705807E-06  0.2600505E+04  0.7818609E-02  0.8368030E-01
        2   -1    0    0  501    0  0.00000000000E+00  0.00000000000E+00  0.13188459131E+04  0.13188459131E+04  0.25500000920E-02 0.  1.
       -2   -1    0    0    0  501  0.00000000000E+00  0.00000000000E+00 -0.12819212709E+04  0.12819212709E+04  0.25500000920E-02 0. -1.
    10030    2    1    2    0    0  0.00000000000E+00  0.00000000000E+00  0.36924642203E+02  0.26007671840E+04  0.26005050502E+04 0.  0.
        4    1    3    3  502    0 -0.15524436138E+03 -0.10394550123E+04  0.78410299680E+03  0.13112538491E+04  0.12699999809E+01 0.  1.
       -4    1    3    3    0  502  0.15524436138E+03  0.10394550123E+04 -0.74717835460E+03  0.12895133349E+04  0.12699999809E+01 0. -1.
</event>
<event>
 5   0  0.1032076E-06  0.2600086E+04  0.7818609E-02  0.8368172E-01
        1   -1    0    0  501    0  0.00000000000E+00  0.00000000000E+00  0.27604569069E+04  0.27604569069E+04  0.50400001928E-02 0.  1.
       -1   -1    0    0    0  501  0.00000000000E+00  0.00000000000E+00 -0.61225814089E+03  0.61225814091E+03  0.50400001928E-02 0. -1.
    10030    2    1    2    0    0  0.00000000000E+00  0.00000000000E+00  0.21481987660E+04  0.33727150479E+04  0.26000863170E+04 0.  0.
        1    1    3    3  502    0 -0.13046846512E+03  0.11004740024E+04  0.19558282080E+04  0.22479610828E+04  0.50400001928E-02 0.  1.
       -1    1    3    3    0  502  0.13046846512E+03 -0.11004740024E+04  0.19237055800E+03  0.11247539651E+04  0.50400001928E-02 0. -1.
</event>
<event>
 5   0  0.2586775E-06  0.2526740E+04  0.7818609E-02  0.8393521E-01
       -2   -1    0    0    0  501  0.00000000000E+00  0.00000000000E+00  0.12392212616E+04  0.12392212616E+04  0.25500000920E-02 0. -1.
        2   -1    0    0  501    0  0.00000000000E+00  0.00000000000E+00 -0.12879894002E+04  0.12879894002E+04  0.25500000920E-02 0.  1.
    10030    2    1    2    0    0  0.00000000000E+00  0.00000000000E+00 -0.48768138631E+02  0.25272106618E+04  0.25267400733E+04 0.  0.
        1    1    3    3  502    0  0.47472146215E+03  0.10804099871E+04 -0.47553086911E+03  0.12723112097E+04  0.50400001928E-02 0.  1.
       -1    1    3    3    0  502 -0.47472146215E+03 -0.10804099871E+04  0.42676273048E+03  0.12548994521E+04  0.50400001928E-02 0. -1.
</event>
<event>
 5   0  0.1055179E-06  0.2599582E+04  0.7818609E-02  0.8368343E-01
       -1   -1    0    0    0  501  0.00000000000E+00  0.00000000000E+00  0.10679263140E+04  0.10679263141E+04  0.50400001928E-02 0.  1.
        1   -1    0    0  501    0  0.00000000000E+00  0.00000000000E+00 -0.15819973996E+04  0.15819973996E+04  0.50400001928E-02 0. -1.
    10030    2    1    2    0    0  0.00000000000E+00  0.00000000000E+00 -0.51407108554E+03  0.26499237136E+04  0.25995820062E+04 0.  0.
        3    1    3    3  502    0  0.12226106112E+04  0.43160755242E+03 -0.16363778146E+03  0.13068431886E+04  0.10100000352E+00 0. -1.
       -3    1    3    3    0  502 -0.12226106112E+04 -0.43160755242E+03 -0.35043330408E+03  0.13430805250E+04  0.10100000352E+00 0.  1.
</event>
<event>
 5   0  0.2746631E-06  0.2600968E+04  0.7818609E-02  0.8367872E-01
       -2   -1    0    0    0  501  0.00000000000E+00  0.00000000000E+00  0.11699264287E+04  0.11699264287E+04  0.25500000920E-02 0. -1.
        2   -1    0    0  501    0  0.00000000000E+00  0.00000000000E+00 -0.14456110151E+04  0.14456110151E+04  0.25500000920E-02 0.  1.
    10030    2    1    2    0    0  0.00000000000E+00  0.00000000000E+00 -0.27568458636E+03  0.26155374438E+04  0.26009679215E+04 0.  0.
        2    1    3    3  502    0  0.95220708757E+03  0.79272833070E+03  0.25951921772E+03  0.12658857643E+04  0.25500000920E-02 0. -1.
       -2    1    3    3    0  502 -0.95220708757E+03 -0.79272833070E+03 -0.53520380408E+03  0.13496516794E+04  0.25500000920E-02 0.  1.
</event>
<event>
 5   0  0.1032076E-06  0.2599672E+04  0.7818609E-02  0.8368313E-01
        1   -1    0    0  501    0  0.00000000000E+00  0.00000000000E+00  0.23523290837E+04  0.23523290837E+04  0.50400001928E-02 0.  1.
       -1   -1    0    0    0  501  0.00000000000E+00  0.00000000000E+00 -0.71825563303E+03  0.71825563305E+03  0.50400001928E-02 0. -1.
    10030    2    1    2    0    0  0.00000000000E+00  0.00000000000E+00  0.16340734507E+04  0.30705847168E+04  0.25996719910E+04 0.  0.
        1    1    3    3  502    0 -0.88892332657E+03  0.23243250930E+03 -0.26894975786E+03  0.95736279653E+03  0.50400001928E-02 0. -1.
       -1    1    3    3    0  502  0.88892332657E+03 -0.23243250930E+03  0.19030232086E+04  0.21132219203E+04  0.50400001928E-02 0.  1.
</event>
<event>
 5   0  0.1055179E-06  0.2613787E+04  0.7818609E-02  0.8363533E-01
       -1   -1    0    0    0  501  0.00000000000E+00  0.00000000000E+00  0.78371472181E+03  0.78371472183E+03  0.50400001928E-02 0. -1.
        1   -1    0    0  501    0  0.00000000000E+00  0.00000000000E+00 -0.21793263371E+04  0.21793263371E+04  0.50400001928E-02 0.  1.
    10030    2    1    2    0    0  0.00000000000E+00  0.00000000000E+00 -0.13956116153E+04  0.29630410590E+04  0.26137866279E+04 0.  0.
        3    1    3    3  502    0 -0.55547503027E+03  0.51210821516E+02  0.64197540636E+03  0.85047486151E+03  0.10100000352E+00 0. -1.
       -3    1    3    3    0  502  0.55547503027E+03 -0.51210821516E+02 -0.20375870217E+04  0.21125661974E+04  0.10100000352E+00 0.  1.
</event>
<event>
 5   0  0.1032076E-06  0.2607828E+04  0.7818609E-02  0.8365547E-01
       -1   -1    0    0    0  501  0.00000000000E+00  0.00000000000E+00  0.12168986087E+04  0.12168986087E+04  0.50400001928E-02 0.  1.
        1   -1    0    0  501    0  0.00000000000E+00  0.00000000000E+00 -0.13971514717E+04  0.13971514717E+04  0.50400001928E-02 0. -1.
    10030    2    1    2    0    0  0.00000000000E+00  0.00000000000E+00 -0.18025286301E+03  0.26140500803E+04  0.26078279713E+04 0.  0.
        1    1    3    3  502    0  0.35766706197E+03 -0.72102783320E+03 -0.11184321515E+04  0.13779322701E+04  0.50400001928E-02 0. -1.
       -1    1    3    3    0  502 -0.35766706197E+03  0.72102783320E+03  0.93817928847E+03  0.12361178102E+04  0.50400001928E-02 0.  1.
</event>
<event>
 5   0  0.2623368E-06  0.2597197E+04  0.7818609E-02  0.8369154E-01
        2   -1    0    0  501    0  0.00000000000E+00  0.00000000000E+00  0.14709277732E+04  0.14709277732E+04  0.25500000920E-02 0. -1.
       -2   -1    0    0    0  501  0.00000000000E+00  0.00000000000E+00 -0.11464587633E+04  0.11464587633E+04  0.25500000920E-02 0.  1.
    10030    2    1    2    0    0  0.00000000000E+00  0.00000000000E+00  0.32446900995E+03  0.26173865365E+04  0.25971969781E+04 0.  0.
        5    1    3    3  502    0  0.22091637817E+03  0.45716776462E+03 -0.10422676661E+04  0.11593749993E+04  0.46999998093E+01 0.  1.
       -5    1    3    3    0  502 -0.22091637817E+03 -0.45716776462E+03  0.13667366760E+04  0.14580115372E+04  0.46999998093E+01 0. -1.
</event>
<event>
 5   0  0.2820028E-06  0.2577108E+04  0.7818609E-02  0.8376019E-01
       -2   -1    0    0    0  501  0.00000000000E+00  0.00000000000E+00  0.11238937868E+04  0.11238937868E+04  0.25500000920E-02 0.  1.
        2   -1    0    0  501    0  0.00000000000E+00  0.00000000000E+00 -0.14773381975E+04  0.14773381975E+04  0.25500000920E-02 0. -1.
    10030    2    1    2    0    0  0.00000000000E+00  0.00000000000E+00 -0.35344441072E+03  0.26012319844E+04  0.25771078528E+04 0.  0.
        3    1    3    3  502    0 -0.90271023507E+03  0.38907939084E+03  0.66420489506E+03  0.11863543710E+04  0.10100000352E+00 0.  1.
       -3    1    3    3    0  502  0.90271023507E+03 -0.38907939084E+03 -0.10176493058E+04  0.14148776133E+04  0.10100000352E+00 0. -1.
</event>
<event>
 5   0  0.2586775E-06  0.2594372E+04  0.7818609E-02  0.8370116E-01
       -2   -1    0    0    0  501  0.00000000000E+00  0.00000000000E+00  0.12624902384E+04  0.12624902384E+04  0.25500000920E-02 0. -1.
        2   -1    0    0  501    0  0.00000000000E+00  0.00000000000E+00 -0.13328349549E+04  0.13328349549E+04  0.25500000920E-02 0.  1.
    10030    2    1    2    0    0  0.00000000000E+00  0.00000000000E+00 -0.70344716487E+02  0.25953251933E+04  0.25943716927E+04 0.  0.
        1    1    3    3  502    0  0.32472063110E+03  0.21223854938E+02 -0.12913397127E+04  0.13317102515E+04  0.50400001928E-02 0.  1.
       -1    1    3    3    0  502 -0.32472063110E+03 -0.21223854938E+02  0.12209949963E+04  0.12636149418E+04  0.50400001928E-02 0. -1.
</event>
<event>
 5   0  0.1122628E-06  0.2598248E+04  0.7818609E-02  0.8368796E-01
       -1   -1    0    0    0  501  0.00000000000E+00  0.00000000000E+00  0.13546495412E+04  0.13546495412E+04  0.50400001928E-02 0. -1.
        1   -1    0    0  501    0  0.00000000000E+00  0.00000000000E+00 -0.12458746934E+04  0.12458746934E+04  0.50400001928E-02 0.  1.
    10030    2    1    2    0    0  0.00000000000E+00  0.00000000000E+00  0.10877484779E+03  0.26005242347E+04  0.25982483191E+04 0.  0.
        2    1    3    3  502    0  0.11374630560E+04 -0.62687016563E+03  0.84994819416E+02  0.13015423649E+04  0.25500000920E-02 0.  1.
       -2    1    3    3    0  502 -0.11374630560E+04  0.62687016563E+03  0.23780028372E+02  0.12989818698E+04  0.25500000920E-02 0. -1.
</event>
<event>
 5   0  0.1032076E-06  0.2600380E+04  0.7818609E-02  0.8368072E-01
        1   -1    0    0  501    0  0.00000000000E+00  0.00000000000E+00  0.18578114955E+04  0.18578114955E+04  0.50400001928E-02 0.  1.
       -1   -1    0    0    0  501  0.00000000000E+00  0.00000000000E+00 -0.90993841245E+03  0.90993841246E+03  0.50400001928E-02 0. -1.
    10030    2    1    2    0    0  0.00000000000E+00  0.00000000000E+00  0.94787308305E+03  0.27677499080E+04  0.26003800052E+04 0.  0.
        1    1    3    3  502    0  0.86628948615E+03 -0.67792222017E+03 -0.26382796245E+03  0.11312122720E+04  0.50400001928E-02 0. -1.
       -1    1    3    3    0  502 -0.86628948615E+03  0.67792222017E+03  0.12117010455E+04  0.16365376360E+04  0.50400001928E-02 0.  1.
</event>
<event>
 5   0  0.2623368E-06  0.2574646E+04  0.7818609E-02  0.8376865E-01
       -2   -1    0    0    0  501  0.00000000000E+00  0.00000000000E+00  0.16880375661E+04  0.16880375661E+04  0.25500000920E-02 0.  1.
        2   -1    0    0  501    0  0.00000000000E+00  0.00000000000E+00 -0.98173190917E+03  0.98173190918E+03  0.25500000920E-02 0. -1.
    10030    2    1    2    0    0  0.00000000000E+00  0.00000000000E+00  0.70630565689E+03  0.26697694752E+04  0.25746458727E+04 0.  0.
        5    1    3    3  502    0  0.49650311846E+01  0.10626264556E+04  0.11066201604E+04  0.15342196404E+04  0.46999998093E+01 0.  1.
       -5    1    3    3    0  502 -0.49650311846E+01 -0.10626264556E+04 -0.40031450353E+03  0.11355498348E+04  0.46999998093E+01 0. -1.
</event>
<event>
 5   0  0.1055179E-06  0.2597979E+04  0.7818609E-02  0.8368888E-01
        1   -1    0    0  501    0  0.00000000000E+00  0.00000000000E+00  0.21512417403E+04  0.21512417403E+04  0.50400001928E-02 0.  1.
       -1   -1    0    0    0  501  0.00000000000E+00  0.00000000000E+00 -0.78437225636E+03  0.78437225638E+03  0.50400001928E-02 0. -1.
    10030    2    1    2    0    0  0.00000000000E+00  0.00000000000E+00  0.13668694839E+04  0.29356139967E+04  0.25979794748E+04 0.  0.
        3    1    3    3  502    0  0.98050881704E+03 -0.80498595411E+03  0.99896372505E+03  0.16147224098E+04  0.10100000352E+00 0. -1.
       -3    1    3    3    0  502 -0.98050881704E+03  0.80498595411E+03  0.36790575887E+03  0.13208915868E+04  0.10100000352E+00 0.  1.
</event>
<event>
 5   0  0.1100104E-06  0.2596902E+04  0.7818609E-02  0.8369254E-01
       -1   -1    0    0    0  501  0.00000000000E+00  0.00000000000E+00  0.12727531049E+04  0.12727531049E+04  0.50400001928E-02 0.  1.
        1   -1    0    0  501    0  0.00000000000E+00  0.00000000000E+00 -0.13246672912E+04  0.13246672912E+04  0.50400001928E-02 0. -1.
    10030    2    1    2    0    0  0.00000000000E+00  0.00000000000E+00 -0.51914186288E+02  0.25974203960E+04  0.25969015444E+04 0.  0.
        4    1    3    3  502    0  0.12309261740E+04  0.40761663846E+03 -0.94104582273E+02  0.13000722499E+04  0.12699999809E+01 0. -1.
       -4    1    3    3    0  502 -0.12309261740E+04 -0.40761663846E+03  0.42190395985E+02  0.12973481461E+04  0.12699999809E+01 0.  1.
</event>
<event>
 5   0  0.2623368E-06  0.2594667E+04  0.7818609E-02  0.8370015E-01
       -2   -1    0    0    0  501  0.00000000000E+00  0.00000000000E+00  0.21623827165E+04  0.21623827165E+04  0.25500000920E-02 0. -1.
        2   -1    0    0  501    0  0.00000000000E+00  0.00000000000E+00 -0.77834218529E+03  0.77834218530E+03  0.25500000920E-02 0.  1.
    10030    2    1    2    0    0  0.00000000000E+00  0.00000000000E+00  0.13840405312E+04  0.29407249018E+04  0.25946665982E+04 0.  0.
        5    1    3    3  502    0  0.55914093093E+03  0.11637074549E+04  0.54777444510E+03  0.14024737266E+04  0.46999998093E+01 0.  1.
       -5    1    3    3    0  502 -0.55914093093E+03 -0.11637074549E+04  0.83626608608E+03  0.15382511752E+04  0.46999998093E+01 0. -1.
</event>
<event>
 5   0  0.1088757E-06  0.2613681E+04  0.7818609E-02  0.8363569E-01
        1   -1    0    0  501    0  0.00000000000E+00  0.00000000000E+00  0.19091201118E+04  0.19091201118E+04  0.50400001928E-02 0.  1.
       -1   -1    0    0    0  501  0.00000000000E+00  0.00000000000E+00 -0.89456477935E+03  0.89456477937E+03  0.50400001928E-02 0. -1.
    10030    2    1    2    0    0  0.00000000000E+00  0.00000000000E+00  0.10145553324E+04  0.28036848912E+04  0.26136806321E+04 0.  0.
        5    1    3    3  502    0 -0.55101023491E+03  0.84383437904E+03  0.13997071331E+04  0.17247814026E+04  0.46999998093E+01 0.  1.
       -5    1    3    3    0  502  0.55101023491E+03 -0.84383437904E+03 -0.38515180063E+03  0.10789034886E+04  0.46999998093E+01 0. -1.
</event>
<event>
 5   0  0.2623368E-06  0.2600592E+04  0.7818609E-02  0.8368000E-01
       -2   -1    0    0    0  501  0.00000000000E+00  0.00000000000E+00  0.17833992115E+04  0.17833992115E+04  0.25500000920E-02 0. -1.
        2   -1    0    0  501    0  0.00000000000E+00  0.00000000000E+00 -0.94806031152E+03  0.94806031152E+03  0.25500000920E-02 0.  1.
    10030    2    1    2    0    0  0.00000000000E+00  0.00000000000E+00  0.83533889994E+03  0.27314595230E+04  0.26005922495E+04 0.  0.
        5    1    3    3  502    0 -0.74988041185E+03 -0.62505179201E+03 -0.48446953130E+03  0.10898363141E+04  0.46999998093E+01 0.  1.
       -5    1    3    3    0  502  0.74988041185E+03  0.62505179201E+03  0.13198084312E+04  0.16416232089E+04  0.46999998093E+01 0. -1.
</event>
<event>
 5   0  0.2705807E-06  0.2597843E+04  0.7818609E-02  0.8368934E-01
       -2   -1    0    0    0  501  0.00000000000E+00  0.00000000000E+00  0.10962212271E+04  0.10962212271E+04  0.25500000920E-02 0. -1.
        2   -1    0    0  501    0  0.00000000000E+00  0.00000000000E+00 -0.15391028630E+04  0.15391028630E+04  0.25500000920E-02 0.  1.
    10030    2    1    2    0    0  0.00000000000E+00  0.00000000000E+00 -0.44288163587E+03  0.26353240901E+04  0.25978431278E+04 0.  0.
        4    1    3    3  502    0 -0.23294281463E+03  0.80064626110E+03 -0.12317511578E+04  0.14874506102E+04  0.12699999809E+01 0.  1.
       -4    1    3    3    0  502  0.23294281463E+03 -0.80064626110E+03  0.78886952190E+03  0.11478734799E+04  0.12699999809E+01 0. -1.
</event>
<event>
 5   0  0.2586775E-06  0.2615837E+04  0.7818609E-02  0.8362841E-01
        2   -1    0    0  501    0  0.00000000000E+00  0.00000000000E+00  0.21056489121E+04  0.21056489121E+04  0.25500000920E-02 0. -1.
       -2   -1    0    0    0  501  0.00000000000E+00  0.00000000000E+00 -0.81241047491E+03  0.81241047492E+03  0.25500000920E-02 0.  1.
    10030    2    1    2    0    0  0.00000000000E+00  0.00000000000E+00  0.12932384372E+04  0.29180593870E+04  0.26158373288E+04 0.  0.
        1    1    3    3  502    0  0.41171370924E+02  0.98120944883E+03 -0.31700211985E+03  0.10319677361E+04  0.50400001928E-02 0.  1.
       -1    1    3    3    0  502 -0.41171370924E+02 -0.98120944883E+03  0.16102405570E+04  0.18860916509E+04  0.50400001928E-02 0. -1.
</event>
<event>
 5   0  0.2586775E-06  0.2599057E+04  0.7818609E-02  0.8368522E-01
        2   -1    0    0  501    0  0.00000000000E+00  0.00000000000E+00  0.82760498275E+03  0.82760498275E+03  0.25500000920E-02 0. -1.
       -2   -1    0    0    0  501  0.00000000000E+00  0.00000000000E+00 -0.20405552452E+04  0.20405552452E+04  0.25500000920E-02 0.  1.
    10030    2    1    2    0    0  0.00000000000E+00  0.00000000000E+00 -0.12129502624E+04  0.28681602279E+04  0.25990565122E+04 0.  0.
        1    1    3    3  502    0 -0.44799799851E+03 -0.14625895834E+03 -0.19429332136E+04  0.19992707075E+04  0.50400001928E-02 0.  1.
       -1    1    3    3    0  502  0.44799799851E+03  0.14625895834E+03  0.72998295117E+03  0.86888952036E+03  0.50400001928E-02 0. -1.
</event>
<event>
 5   0  0.1122628E-06  0.2604063E+04  0.7818609E-02  0.8366822E-01
        1   -1    0    0  501    0  0.00000000000E+00  0.00000000000E+00  0.90111480393E+03  0.90111480394E+03  0.50400001928E-02 0.  1.
       -1   -1    0    0    0  501  0.00000000000E+00  0.00000000000E+00 -0.18813209949E+04  0.18813209949E+04  0.50400001928E-02 0. -1.
    10030    2    1    2    0    0  0.00000000000E+00  0.00000000000E+00 -0.98020619092E+03  0.27824357988E+04  0.26040631324E+04 0.  0.
        2    1    3    3  502    0  0.84964113961E+03  0.28629436820E+02 -0.15438480948E+04  0.17624348642E+04  0.25500000920E-02 0. -1.
       -2    1    3    3    0  502 -0.84964113961E+03 -0.28629436820E+02  0.56364190387E+03  0.10200009346E+04  0.25500000920E-02 0.  1.
</event>
<event>
 5   0  0.2586775E-06  0.2598204E+04  0.7818609E-02  0.8368811E-01
       -2   -1    0    0    0  501  0.00000000000E+00  0.00000000000E+00  0.93544497856E+03  0.93544497856E+03  0.25500000920E-02 0.  1.
        2   -1    0    0  501    0  0.00000000000E+00  0.00000000000E+00 -0.18041321069E+04  0.18041321069E+04  0.25500000920E-02 0. -1.
    10030    2    1    2    0    0  0.00000000000E+00  0.00000000000E+00 -0.86868712832E+03  0.27395770854E+04  0.25982042414E+04 0.  0.
        1    1    3    3  502    0  0.51720839980E+03  0.35675199480E+03 -0.16332657397E+04  0.17499524254E+04  0.50400001928E-02 0. -1.
       -1    1    3    3    0  502 -0.51720839980E+03 -0.35675199480E+03  0.76457861143E+03  0.98962466001E+03  0.50400001928E-02 0.  1.
</event>
<event>
 5   0  0.1088757E-06  0.2598827E+04  0.7818609E-02  0.8368600E-01
       -1   -1    0    0    0  501  0.00000000000E+00  0.00000000000E+00  0.15288137074E+04  0.15288137074E+04  0.50400001928E-02 0. -1.
        1   -1    0    0  501    0  0.00000000000E+00  0.00000000000E+00 -0.11044348823E+04  0.11044348823E+04  0.50400001928E-02 0.  1.
    10030    2    1    2    0    0  0.00000000000E+00  0.00000000000E+00  0.42437882510E+03  0.26332485897E+04  0.25988268022E+04 0.  0.
        5    1    3    3  502    0  0.27610743214E+03 -0.63108742316E+03 -0.90419634527E+03  0.11367056658E+04  0.46999998093E+01 0.  1.
       -5    1    3    3    0  502 -0.27610743214E+03  0.63108742316E+03  0.13285751704E+04  0.14965429239E+04  0.46999998093E+01 0. -1.
</event>
<event>
 5   0  0.1055179E-06  0.2601939E+04  0.7818609E-02  0.8367543E-01
        1   -1    0    0  501    0  0.00000000000E+00  0.00000000000E+00  0.33040684559E+04  0.33040684559E+04  0.50400001928E-02 0.  1.
       -1   -1    0    0    0  501  0.00000000000E+00  0.00000000000E+00 -0.51225382656E+03  0.51225382659E+03  0.50400001928E-02 0. -1.
    10030    2    1    2    0    0  0.00000000000E+00  0.00000000000E+00  0.27918146293E+04  0.38163222825E+04  0.26019390537E+04 0.  0.
        3    1    3    3  502    0 -0.12522132755E+04  0.15626384368E+03  0.18598768956E+04  0.22475761507E+04  0.10100000352E+00 0.  1.
       -3    1    3    3    0  502  0.12522132755E+04 -0.15626384368E+03  0.93193773372E+03  0.15687461318E+04  0.10100000352E+00 0. -1.
</event>
<event>
 5   0  0.2705807E-06  0.2594503E+04  0.7818609E-02  0.8370071E-01
       -2   -1    0    0    0  501  0.00000000000E+00  0.00000000000E+00  0.10905892510E+04  0.10905892510E+04  0.25500000920E-02 0.  1.
        2   -1    0    0  501    0  0.00000000000E+00  0.00000000000E+00 -0.15430755690E+04  0.15430755690E+04  0.25500000920E-02 0. -1.
    10030    2    1    2    0    0  0.00000000000E+00  0.00000000000E+00 -0.45248631796E+03  0.26336648200E+04  0.25945031347E+04 0.  0.
        4    1    3    3  502    0  0.51103233512E+03  0.10715095407E+04 -0.75718033536E+03  0.14080519935E+04  0.12699999809E+01 0. -1.
       -4    1    3    3    0  502 -0.51103233512E+03 -0.10715095407E+04  0.30469401740E+03  0.12256128265E+04  0.12699999809E+01 0.  1.
</event>
<event>
 5   0  0.1100104E-06  0.2600012E+04  0.7818609E-02  0.8368197E-01
        1   -1    0    0  501    0  0.00000000000E+00  0.00000000000E+00  0.14319568041E+04  0.14319568041E+04  0.50400001928E-02 0.  1.
       -1   -1    0    0    0  501  0.00000000000E+00  0.00000000000E+00 -0.11802142889E+04  0.11802142889E+04  0.50400001928E-02 0. -1.
    10030    2    1    2    0    0  0.00000000000E+00  0.00000000000E+00  0.25174251516E+03  0.26121710930E+04  0.26000122164E+04 0.  0.
        4    1    3    3  502    0  0.10348927952E+04 -0.77766163841E+03  0.24581779281E+03  0.13176451425E+04  0.12699999809E+01 0.  1.
       -4    1    3    3    0  502 -0.10348927952E+04  0.77766163841E+03  0.59247223551E+01  0.12945259505E+04  0.12699999809E+01 0. -1.
</event>
<event>
 5   0  0.2820028E-06  0.2608490E+04  0.7818609E-02  0.8365323E-01
       -2   -1    0    0    0  501  0.00000000000E+00  0.00000000000E+00  0.11158076320E+04  0.11158076320E+04  0.25500000920E-02 0. -1.
        2   -1    0    0  501    0  0.00000000000E+00  0.00000000000E+00 -0.15245057683E+04  0.15245057683E+04  0.25500000920E-02 0.  1.
    10030    2    1    2    0    0  0.00000000000E+00  0.00000000000E+00 -0.40869813626E+03  0.26403134003E+04  0.26084901160E+04 0.  0.
        3    1    3    3  502    0  0.66365105142E+03  0.65024680992E+03  0.72213266027E+03  0.11767451810E+04  0.10100000352E+00 0. -1.
       -3    1    3    3    0  502 -0.66365105142E+03 -0.65024680992E+03 -0.11308307965E+04  0.14635682193E+04  0.10100000352E+00 0.  1.
</event>
<event>
 5   0  0.2820028E-06  0.2599880E+04  0.7818609E-02  0.8368242E-01
        2   -1    0    0  501    0  0.00000000000E+00  0.00000000000E+00  0.15020002767E+04  0.15020002767E+04  0.25500000920E-02 0. -1.
       -2   -1    0    0    0  501  0.00000000000E+00  0.00000000000E+00 -0.11250620096E+04  0.11250620096E+04  0.25500000920E-02 0.  1.
    10030    2    1    2    0    0  0.00000000000E+00  0.00000000000E+00  0.37693826717E+03  0.26270622863E+04  0.25998795739E+04 0.  0.
        3    1    3    3  502    0  0.12458989921E+04 -0.37079061589E+03  0.19823768648E+03  0.13149327625E+04  0.10100000352E+00 0. -1.
       -3    1    3    3    0  502 -0.12458989921E+04  0.37079061589E+03  0.17870058069E+03  0.13121295238E+04  0.10100000352E+00 0.  1.
</event>
<event>
 5   0  0.2820028E-06  0.2599739E+04  0.7818609E-02  0.8368290E-01
        2   -1    0    0  501    0  0.00000000000E+00  0.00000000000E+00  0.14181081814E+04  0.14181081814E+04  0.25500000920E-02 0. -1.
       -2   -1    0    0    0  501  0.00000000000E+00  0.00000000000E+00 -0.11914891505E+04  0.11914891505E+04  0.25500000920E-02 0.  1.
    10030    2    1    2    0    0  0.00000000000E+00  0.00000000000E+00  0.22661903085E+03  0.26095973319E+04  0.25997388425E+04 0.  0.
        3    1    3    3  502    0 -0.21934172816E+03 -0.49353084554E+03 -0.10735349034E+04  0.12017323696E+04  0.10100000352E+00 0.  1.
       -3    1    3    3    0  502  0.21934172816E+03  0.49353084554E+03  0.13001539342E+04  0.14078649623E+04  0.10100000352E+00 0. -1.
</event>
<event>
 5   0  0.1122628E-06  0.2585893E+04  0.7818609E-02  0.8373009E-01
        1   -1    0    0  501    0  0.00000000000E+00  0.00000000000E+00  0.12607354364E+04  0.12607354365E+04  0.50400001928E-02 0. -1.
       -1   -1    0    0    0  501  0.00000000000E+00  0.00000000000E+00 -0.13259810359E+04  0.13259810359E+04  0.50400001928E-02 0.  1.
    10030    2    1    2    0    0  0.00000000000E+00  0.00000000000E+00 -0.65245599433E+02  0.25867164723E+04  0.25858934858E+04 0.  0.
        2    1    3    3  502    0  0.10663920746E+04 -0.71749454041E+03 -0.17309828635E+03  0.12969014955E+04  0.25500000920E-02 0.  1.
       -2    1    3    3    0  502 -0.10663920746E+04  0.71749454041E+03  0.10785268691E+03  0.12898149768E+04  0.25500000920E-02 0. -1.
</event>
<event>
 5   0  0.2623368E-06  0.2600157E+04  0.7818609E-02  0.8368148E-01
       -2   -1    0    0    0  501  0.00000000000E+00  0.00000000000E+00  0.10756606321E+04  0.10756606321E+04  0.25500000920E-02 0.  1.
        2   -1    0    0  501    0  0.00000000000E+00  0.00000000000E+00 -0.15713171050E+04  0.15713171050E+04  0.25500000920E-02 0. -1.
    10030    2    1    2    0    0  0.00000000000E+00  0.00000000000E+00 -0.49565647288E+03  0.26469777370E+04  0.26001568801E+04 0.  0.
        5    1    3    3  502    0  0.63649549159E+03 -0.61726914419E+03 -0.12157564647E+04  0.15047370464E+04  0.46999998093E+01 0. -1.
       -5    1    3    3    0  502 -0.63649549159E+03  0.61726914419E+03  0.72009999184E+03  0.11422406907E+04  0.46999998093E+01 0.  1.
</event>
<event>
 5   0  0.2623368E-06  0.2596140E+04  0.7818609E-02  0.8369513E-01
       -2   -1    0    0    0  501  0.00000000000E+00  0.00000000000E+00  0.11808744276E+04  0.11808744276E+04  0.25500000920E-02 0.  1.
        2   -1    0    0  501    0  0.00000000000E+00  0.00000000000E+00 -0.14268969485E+04  0.14268969485E+04  0.25500000920E-02 0. -1.
    10030    2    1    2    0    0  0.00000000000E+00  0.00000000000E+00 -0.24602252093E+03  0.26077713760E+04  0.25961403022E+04 0.  0.
        5    1    3    3  502    0 -0.17643805960E+03 -0.74042801328E+03  0.93317464826E+03  0.12042429347E+04  0.46999998093E+01 0.  1.
       -5    1    3    3    0  502  0.17643805960E+03  0.74042801328E+03 -0.11791971692E+04  0.14035284413E+04  0.46999998093E+01 0. -1.
</event>
<event>
 5   0  0.2705807E-06  0.2599261E+04  0.7818609E-02  0.8368452E-01
        2   -1    0    0  501    0  0.00000000000E+00  0.00000000000E+00  0.19784898440E+04  0.19784898440E+04  0.25500000920E-02 0. -1.
       -2   -1    0    0    0  501  0.00000000000E+00  0.00000000000E+00 -0.85370137058E+03  0.85370137058E+03  0.25500000920E-02 0.  1.
    10030    2    1    2    0    0  0.00000000000E+00  0.00000000000E+00  0.11247884734E+04  0.28321912146E+04  0.25992610423E+04 0.  0.
        4    1    3    3  502    0  0.34168592700E+03 -0.10362769455E+04 -0.20685989372E+03  0.11105907478E+04  0.12699999809E+01 0.  1.
       -4    1    3    3    0  502 -0.34168592700E+03  0.10362769455E+04  0.13316483671E+04  0.17216004668E+04  0.12699999809E+01 0. -1.
</event>
<event>
 5   0  0.2705807E-06  0.2603894E+04  0.7818609E-02  0.8366880E-01
        2   -1    0    0  501    0  0.00000000000E+00  0.00000000000E+00  0.19012961299E+04  0.19012961299E+04  0.25500000920E-02 0.  1.
       -2   -1    0    0    0  501  0.00000000000E+00  0.00000000000E+00 -0.89153205761E+03  0.89153205762E+03  0.25500000920E-02 0. -1.
    10030    2    1    2    0    0  0.00000000000E+00  0.00000000000E+00  0.10097640723E+04  0.27928281876E+04  0.26038943534E+04 0.  0.
        4    1    3    3  502    0 -0.12566830088E+04  0.50944954069E+02  0.86577398109E+03  0.15268967785E+04  0.12699999809E+01 0.  1.
       -4    1    3    3    0  502  0.12566830088E+04 -0.50944954069E+02  0.14399009124E+03  0.12659314090E+04  0.12699999809E+01 0. -1.
</event>
<event>
 5   0  0.1122628E-06  0.2606393E+04  0.7818609E-02  0.8366033E-01
       -1   -1    0    0    0  501  0.00000000000E+00  0.00000000000E+00  0.93589410317E+03  0.93589410318E+03  0.50400001928E-02 0.  1.
        1   -1    0    0  501    0  0.00000000000E+00  0.00000000000E+00 -0.18146503800E+04  0.18146503800E+04  0.50400001928E-02 0. -1.
    10030    2    1    2    0    0  0.00000000000E+00  0.00000000000E+00 -0.87875627682E+03  0.27505444832E+04  0.26063925951E+04 0.  0.
        2    1    3    3  502    0  0.36743801018E+03  0.23008501521E+03 -0.17363203576E+04  0.17896251535E+04  0.25500000920E-02 0. -1.
       -2    1    3    3    0  502 -0.36743801018E+03 -0.23008501521E+03  0.85756408081E+03  0.96091932973E+03  0.25500000920E-02 0.  1.
</event>
<event>
 5   0  0.2820028E-06  0.2629292E+04  0.7818609E-02  0.8358319E-01
        2   -1    0    0  501    0  0.00000000000E+00  0.00000000000E+00  0.14324840071E+04  0.14324840071E+04  0.25500000920E-02 0. -1.
       -2   -1    0    0    0  501  0.00000000000E+00  0.00000000000E+00 -0.12065014712E+04  0.12065014712E+04  0.25500000920E-02 0.  1.
    10030    2    1    2    0    0  0.00000000000E+00  0.00000000000E+00  0.22598253595E+03  0.26389854783E+04  0.26292919670E+04 0.  0.
        3    1    3    3  502    0  0.91510853743E+03 -0.43208764618E+03 -0.72925123843E+03  0.12473695315E+04  0.10100000352E+00 0.  1.
       -3    1    3    3    0  502 -0.91510853743E+03  0.43208764618E+03  0.95523377437E+03  0.13916159467E+04  0.10100000352E+00 0. -1.
</event>
<event>
 5   0  0.1100104E-06  0.2602956E+04  0.7818609E-02  0.8367198E-01
        1   -1    0    0  501    0  0.00000000000E+00  0.00000000000E+00  0.16045715356E+04  0.16045715356E+04  0.50400001928E-02 0.  1.
       -1   -1    0    0    0  501  0.00000000000E+00  0.00000000000E+00 -0.10556371498E+04  0.10556371498E+04  0.50400001928E-02 0. -1.
    10030    2    1    2    0    0  0.00000000000E+00  0.00000000000E+00  0.54893438587E+03  0.26602086854E+04  0.26029562597E+04 0.  0.
        4    1    3    3  502    0  0.16226979563E+03  0.12594632376E+04  0.56580676225E+03  0.13902222983E+04  0.12699999809E+01 0.  1.
       -4    1    3    3    0  502 -0.16226979563E+03 -0.12594632376E+04 -0.16872376378E+02  0.12699863871E+04  0.12699999809E+01 0. -1.
</event>
<event>
 5   0  0.2586775E-06  0.2607146E+04  0.7818609E-02  0.8365778E-01
        2   -1    0    0  501    0  0.00000000000E+00  0.00000000000E+00  0.14000012005E+04  0.14000012005E+04  0.25500000920E-02 0. -1.
       -2   -1    0    0    0  501  0.00000000000E+00  0.00000000000E+00 -0.12137862641E+04  0.12137862641E+04  0.25500000920E-02 0.  1.
    10030    2    1    2    0    0  0.00000000000E+00  0.00000000000E+00  0.18621493640E+03  0.26137874647E+04  0.26071457397E+04 0.  0.
        1    1    3    3  502    0  0.12666461850E+04 -0.17256854709E+03 -0.16274800930E+03  0.12886657348E+04  0.50400001928E-02 0. -1.
       -1    1    3    3    0  502 -0.12666461850E+04  0.17256854709E+03  0.34896294570E+03  0.13251217299E+04  0.50400001928E-02 0.  1.
</event>
<event>
 5   0  0.2746631E-06  0.2600421E+04  0.7818609E-02  0.8368058E-01
       -2   -1    0    0    0  501  0.00000000000E+00  0.00000000000E+00  0.12921561820E+04  0.12921561820E+04  0.25500000920E-02 0.  1.
        2   -1    0    0  501    0  0.00000000000E+00  0.00000000000E+00 -0.13083147549E+04  0.13083147549E+04  0.25500000920E-02 0. -1.
    10030    2    1    2    0    0  0.00000000000E+00  0.00000000000E+00 -0.16158572897E+02  0.26004709370E+04  0.26004207342E+04 0.  0.
        2    1    3    3  502    0 -0.80828122264E+03 -0.68051382602E+03  0.74964860962E+03  0.12955271669E+04  0.25500000920E-02 0.  1.
       -2    1    3    3    0  502  0.80828122264E+03  0.68051382602E+03 -0.76580718252E+03  0.13049437701E+04  0.25500000920E-02 0. -1.
</event>
<event>
 5   0  0.1100104E-06  0.2605004E+04  0.7818609E-02  0.8366503E-01
        1   -1    0    0  501    0  0.00000000000E+00  0.00000000000E+00  0.11206350686E+04  0.11206350686E+04  0.50400001928E-02 0.  1.
       -1   -1    0    0    0  501  0.00000000000E+00  0.00000000000E+00 -0.15138841232E+04  0.15138841232E+04  0.50400001928E-02 0. -1.
    10030    2    1    2    0    0  0.00000000000E+00  0.00000000000E+00 -0.39324905462E+03  0.26345191918E+04  0.26050041368E+04 0.  0.
        4    1    3    3  502    0 -0.12928285789E+04 -0.51221605955E+02 -0.44990292093E+02  0.12946254774E+04  0.12699999809E+01 0. -1.
       -4    1    3    3    0  502  0.12928285789E+04  0.51221605955E+02 -0.34825876253E+03  0.13398937144E+04  0.12699999809E+01 0.  1.
</event>
<event>
 5   0  0.1122628E-06  0.2598513E+04  0.7818609E-02  0.8368707E-01
       -1   -1    0    0    0  501  0.00000000000E+00  0.00000000000E+00  0.76518687409E+03  0.76518687411E+03  0.50400001928E-02 0. -1.
        1   -1    0    0  501    0  0.00000000000E+00  0.00000000000E+00 -0.22060844920E+04  0.22060844920E+04  0.50400001928E-02 0.  1.
    10030    2    1    2    0    0  0.00000000000E+00  0.00000000000E+00 -0.14408976179E+04  0.29712713661E+04  0.25985125718E+04 0.  0.
        2    1    3    3  502    0 -0.31549817195E+03 -0.24525280912E+03  0.69317225019E+03  0.80010987078E+03  0.25500000920E-02 0. -1.
       -2    1    3    3    0  502  0.31549817195E+03  0.24525280912E+03 -0.21340698681E+04  0.21711614953E+04  0.25500000920E-02 0.  1.
</event>
<event>
 5   0  0.2705807E-06  0.2599545E+04  0.7818609E-02  0.8368356E-01
        2   -1    0    0  501    0  0.00000000000E+00  0.00000000000E+00  0.17656906239E+04  0.17656906239E+04  0.25500000920E-02 0.  1.
       -2   -1    0    0    0  501  0.00000000000E+00  0.00000000000E+00 -0.95679753345E+03  0.95679753346E+03  0.25500000920E-02 0. -1.
    10030    2    1    2    0    0  0.00000000000E+00  0.00000000000E+00  0.80889309042E+03  0.27224881573E+04  0.25995449092E+04 0.  0.
        4    1    3    3  502    0  0.75571821821E+03  0.99359527429E+03  0.78359772853E+03  0.14738957248E+04  0.12699999809E+01 0.  1.
       -4    1    3    3    0  502 -0.75571821821E+03 -0.99359527429E+03  0.25295361885E+02  0.12485924326E+04  0.12699999809E+01 0. -1.
</event>
<event>
 5   0  0.2705807E-06  0.2599934E+04  0.7818609E-02  0.8368224E-01
        2   -1    0    0  501    0  0.00000000000E+00  0.00000000000E+00  0.14416336173E+04  0.14416336173E+04  0.25500000920E-02 0. -1.
       -2   -1    0    0    0  501  0.00000000000E+00  0.00000000000E+00 -0.11722214234E+04  0.11722214234E+04  0.25500000920E-02 0.  1.
    10030    2    1    2    0    0  0.00000000000E+00  0.00000000000E+00  0.26941219384E+03  0.26138550407E+04  0.25999336998E+04 0.  0.
        4    1    3    3  502    0  0.40623572876E+03 -0.11959278062E+04  0.44399179161E+03  0.13388058519E+04  0.12699999809E+01 0. -1.
       -4    1    3    3    0  502 -0.40623572876E+03  0.11959278062E+04 -0.17457959777E+03  0.12750491888E+04  0.12699999809E+01 0.  1.
</event>
<event>
 5   0  0.1100104E-06  0.2599276E+04  0.7818609E-02  0.8368447E-01
       -1   -1    0    0    0  501  0.00000000000E+00  0.00000000000E+00  0.73226922809E+03  0.73226922811E+03  0.50400001928E-02 0. -1.
        1   -1    0    0  501    0  0.00000000000E+00  0.00000000000E+00 -0.23066098898E+04  0.23066098898E+04  0.50400001928E-02 0.  1.
    10030    2    1    2    0    0  0.00000000000E+00  0.00000000000E+00 -0.15743406618E+04  0.30388791180E+04  0.25992763944E+04 0.  0.
        4    1    3    3  502    0  0.10025228744E+04 -0.42630219843E+03  0.41402163599E+02  0.10901841268E+04  0.12699999809E+01 0. -1.
       -4    1    3    3    0  502 -0.10025228744E+04  0.42630219843E+03 -0.16157428254E+04  0.19486949912E+04  0.12699999809E+01 0.  1.
</event>
<event>
 5   0  0.1122628E-06  0.2595947E+04  0.7818609E-02  0.8369579E-01
        1   -1    0    0  501    0  0.00000000000E+00  0.00000000000E+00  0.18623096474E+04  0.18623096474E+04  0.50400001928E-02 0. -1.
       -1   -1    0    0    0  501  0.00000000000E+00  0.00000000000E+00 -0.90464812367E+03  0.90464812369E+03  0.50400001928E-02 0.  1.
    10030    2    1    2    0    0  0.00000000000E+00  0.00000000000E+00  0.95766152372E+03  0.27669577711E+04  0.25959467855E+04 0.  0.
        2    1    3    3  502    0 -0.91360956588E+03 -0.43745922966E+03  0.13438875415E+04  0.16828804891E+04  0.25500000920E-02 0. -1.
       -2    1    3    3    0  502  0.91360956588E+03  0.43745922966E+03 -0.38622601777E+03  0.10840772820E+04  0.25500000920E-02 0.  1.
</event>
<event>
 5   0  0.2623368E-06  0.2615025E+04  0.7818609E-02  0.8363116E-01
       -2   -1    0    0    0  501  0.00000000000E+00  0.00000000000E+00  0.95600669611E+03  0.95600669611E+03  0.25500000920E-02 0. -1.
        2   -1    0    0  501    0  0.00000000000E+00  0.00000000000E+00 -0.17882598050E+04  0.17882598050E+04  0.25500000920E-02 0.  1.
    10030    2    1    2    0    0  0.00000000000E+00  0.00000000000E+00 -0.83225310894E+03  0.27442665012E+04  0.26150245490E+04 0.  0.
        5    1    3    3  502    0 -0.27646610214E+03 -0.53906757265E+03 -0.16320716178E+04  0.17408926473E+04  0.46999998093E+01 0.  1.
       -5    1    3    3    0  502  0.27646610214E+03  0.53906757265E+03  0.79981850890E+03  0.10033738539E+04  0.46999998093E+01 0. -1.
</event>
<event>
 5   0  0.2623368E-06  0.2575531E+04  0.7818609E-02  0.8376561E-01
        2   -1    0    0  501    0  0.00000000000E+00  0.00000000000E+00  0.10929219507E+04  0.10929219507E+04  0.25500000920E-02 0. -1.
       -2   -1    0    0    0  501  0.00000000000E+00  0.00000000000E+00 -0.15173454289E+04  0.15173454289E+04  0.25500000920E-02 0.  1.
    10030    2    1    2    0    0  0.00000000000E+00  0.00000000000E+00 -0.42442347819E+03  0.26102673795E+04  0.25755311110E+04 0.  0.
        5    1    3    3  502    0  0.88870801109E+03  0.10024024994E+03  0.72681995582E+03  0.11524492938E+04  0.46999998093E+01 0. -1.
       -5    1    3    3    0  502 -0.88870801109E+03 -0.10024024994E+03 -0.11512434340E+04  0.14578180857E+04  0.46999998093E+01 0.  1.
</event>
<event>
 5   0  0.1088757E-06  0.2596045E+04  0.7818609E-02  0.8369546E-01
       -1   -1    0    0    0  501  0.00000000000E+00  0.00000000000E+00  0.11133570528E+04  0.11133570528E+04  0.50400001928E-02 0. -1.
        1   -1    0    0  501    0  0.00000000000E+00  0.00000000000E+00 -0.15133178029E+04  0.15133178029E+04  0.50400001928E-02 0.  1.
    10030    2    1    2    0    0  0.00000000000E+00  0.00000000000E+00 -0.39996075017E+03  0.26266748557E+04  0.25960454919E+04 0.  0.
        5    1    3    3  502    0  0.12377492618E+04 -0.34957120820E+03 -0.37702398647E+03  0.13402956543E+04  0.46999998093E+01 0. -1.
       -5    1    3    3    0  502 -0.12377492618E+04  0.34957120820E+03 -0.22936763694E+02  0.12863792014E+04  0.46999998093E+01 0.  1.
</event>
<event>
 5   0  0.2746631E-06  0.2611369E+04  0.7818609E-02  0.8364350E-01
        2   -1    0    0  501    0  0.00000000000E+00  0.00000000000E+00  0.27263489207E+04  0.27263489207E+04  0.25500000920E-02 0. -1.
       -2   -1    0    0    0  501  0.00000000000E+00  0.00000000000E+00 -0.62530956108E+03  0.62530956109E+03  0.25500000920E-02 0.  1.
    10030    2    1    2    0    0  0.00000000000E+00  0.00000000000E+00  0.21010393597E+04  0.33516584818E+04  0.26113690256E+04 0.  0.
        2    1    3    3  502    0  0.11341484376E+04  0.47814566642E+03  0.16098257369E+04  0.20264389604E+04  0.25500000920E-02 0. -1.
       -2    1    3    3    0  502 -0.11341484376E+04 -0.47814566642E+03  0.49121362273E+03  0.13252195214E+04  0.25500000920E-02 0.  1.
</event>
<event>
 5   0  0.1100104E-06  0.2608807E+04  0.7818609E-02  0.8365216E-01
        1   -1    0    0  501    0  0.00000000000E+00  0.00000000000E+00  0.16128319838E+04  0.16128319838E+04  0.50400001928E-02 0.  1.
       -1   -1    0    0    0  501  0.00000000000E+00  0.00000000000E+00 -0.10549566893E+04  0.10549566894E+04  0.50400001928E-02 0. -1.
    10030    2    1    2    0    0  0.00000000000E+00  0.00000000000E+00  0.55787529445E+03  0.26677886732E+04  0.26088065395E+04 0.  0.
        4    1    3    3  502    0  0.48351881420E+03  0.11930642336E+04  0.63767602041E+02  0.12888989989E+04  0.12699999809E+01 0.  1.
       -4    1    3    3    0  502 -0.48351881420E+03 -0.11930642336E+04  0.49410769241E+03  0.13788896743E+04  0.12699999809E+01 0. -1.
</event>
<event>
 5   0  0.2820028E-06  0.2597514E+04  0.7818609E-02  0.8369046E-01
       -2   -1    0    0    0  501  0.00000000000E+00  0.00000000000E+00  0.55422566442E+03  0.55422566443E+03  0.25500000920E-02 0.  1.
        2   -1    0    0  501    0  0.00000000000E+00  0.00000000000E+00 -0.30434702300E+04  0.30434702300E+04  0.25500000920E-02 0. -1.
    10030    2    1    2    0    0  0.00000000000E+00  0.00000000000E+00 -0.24892445656E+04  0.35976958944E+04  0.25975136653E+04 0.  0.
        3    1    3    3  502    0 -0.15204867704E+03 -0.12552951593E+03  0.53337500034E+03  0.56865223181E+03  0.10100000352E+00 0.  1.
       -3    1    3    3    0  502  0.15204867704E+03  0.12552951593E+03 -0.30226195659E+04  0.30290436626E+04  0.10100000352E+00 0. -1.
</event>
<event>
 5   0  0.2623368E-06  0.2590158E+04  0.7818609E-02  0.8371552E-01
       -2   -1    0    0    0  501  0.00000000000E+00  0.00000000000E+00  0.13655873012E+04  0.13655873012E+04  0.25500000920E-02 0.  1.
        2   -1    0    0  501    0  0.00000000000E+00  0.00000000000E+00 -0.12282113228E+04  0.12282113228E+04  0.25500000920E-02 0. -1.
    10030    2    1    2    0    0  0.00000000000E+00  0.00000000000E+00  0.13737597841E+03  0.25937986240E+04  0.25901581308E+04 0.  0.
        5    1    3    3  502    0  0.67205637604E+03  0.69508533285E+03  0.93152788340E+03  0.13425981082E+04  0.46999998093E+01 0.  1.
       -5    1    3    3    0  502 -0.67205637604E+03 -0.69508533285E+03 -0.79415190499E+03  0.12512005158E+04  0.46999998093E+01 0. -1.
</event>
<event>
 5   0  0.2746631E-06  0.2634123E+04  0.7818609E-02  0.8356702E-01
        2   -1    0    0  501    0  0.00000000000E+00  0.00000000000E+00  0.15248407592E+04  0.15248407592E+04  0.25500000920E-02 0.  1.
       -2   -1    0    0    0  501  0.00000000000E+00  0.00000000000E+00 -0.11375944316E+04  0.11375944316E+04  0.25500000920E-02 0. -1.
    10030    2    1    2    0    0  0.00000000000E+00  0.00000000000E+00  0.38724632768E+03  0.26624351908E+04  0.26341225155E+04 0.  0.
        2    1    3    3  502    0  0.12701045319E+04  0.33357862325E+03  0.91491864391E+02  0.13163627847E+04  0.25500000920E-02 0.  1.
       -2    1    3    3    0  502 -0.12701045319E+04 -0.33357862325E+03  0.29575446329E+03  0.13460724061E+04  0.25500000920E-02 0. -1.
</event>
<event>
 5   0  0.1055179E-06  0.2604415E+04  0.7818609E-02  0.8366703E-01
        1   -1    0    0  501    0  0.00000000000E+00  0.00000000000E+00  0.12325172475E+04  0.12325172475E+04  0.50400001928E-02 0.  1.
       -1   -1    0    0    0  501  0.00000000000E+00  0.00000000000E+00 -0.13758378197E+04  0.13758378197E+04  0.50400001928E-02 0. -1.
    10030    2    1    2    0    0  0.00000000000E+00  0.00000000000E+00 -0.14332057221E+03  0.26083550673E+04  0.26044145927E+04 0.  0.
        3    1    3    3  502    0 -0.10249410349E+04 -0.25842541910E+03  0.69005340041E+03  0.12623238601E+04  0.10100000352E+00 0.  1.
       -3    1    3    3    0  502  0.10249410349E+04  0.25842541910E+03 -0.83337397262E+03  0.13460312072E+04  0.10100000352E+00 0. -1.
</event>
<event>
 5   0  0.2746631E-06  0.2598952E+04  0.7818609E-02  0.8368557E-01
       -2   -1    0    0    0  501  0.00000000000E+00  0.00000000000E+00  0.72179864959E+03  0.72179864960E+03  0.25500000920E-02 0.  1.
        2   -1    0    0  501    0  0.00000000000E+00  0.00000000000E+00 -0.23394864776E+04  0.23394864776E+04  0.25500000920E-02 0. -1.
    10030    2    1    2    0    0  0.00000000000E+00  0.00000000000E+00 -0.16176878280E+04  0.30612851272E+04  0.25989522352E+04 0.  0.
        2    1    3    3  502    0 -0.49220352894E+03 -0.97118264748E+03 -0.16443822150E+04  0.19721695966E+04  0.25500000920E-02 0. -1.
       -2    1    3    3    0  502  0.49220352894E+03  0.97118264748E+03  0.26694387032E+02  0.10891155306E+04  0.25500000920E-02 0.  1.
</event>
<event>
 5   0  0.1088757E-06  0.2594556E+04  0.7818609E-02  0.8370053E-01
        1   -1    0    0  501    0  0.00000000000E+00  0.00000000000E+00  0.18910777099E+04  0.18910777099E+04  0.50400001928E-02 0.  1.
       -1   -1    0    0    0  501  0.00000000000E+00  0.00000000000E+00 -0.88993165895E+03  0.88993165896E+03  0.50400001928E-02 0. -1.
    10030    2    1    2    0    0  0.00000000000E+00  0.00000000000E+00  0.10011460510E+04  0.27810093689E+04  0.25945557798E+04 0.  0.
        5    1    3    3  502    0  0.57663945947E+03  0.93592775316E+03 -0.23771758690E+03  0.11247246625E+04  0.46999998093E+01 0. -1.
       -5    1    3    3    0  502 -0.57663945947E+03 -0.93592775316E+03  0.12388636379E+04  0.16562847064E+04  0.46999998093E+01 0.  1.
</event>
<event>
 5   0  0.1100104E-06  0.2602069E+04  0.7818609E-02  0.8367499E-01
       -1   -1    0    0    0  501  0.00000000000E+00  0.00000000000E+00  0.14793668080E+04  0.14793668080E+04  0.50400001928E-02 0. -1.
        1   -1    0    0  501    0  0.00000000000E+00  0.00000000000E+00 -0.11441991264E+04  0.11441991264E+04  0.50400001928E-02 0.  1.
    10030    2    1    2    0    0  0.00000000000E+00  0.00000000000E+00  0.33516768158E+03  0.26235659344E+04  0.26020685689E+04 0.  0.
        4    1    3    3  502    0  0.21042328663E+03  0.51313704879E+03  0.13542101383E+04  0.14633777031E+04  0.12699999809E+01 0. -1.
       -4    1    3    3    0  502 -0.21042328663E+03 -0.51313704879E+03 -0.10190424567E+04  0.11601882313E+04  0.12699999809E+01 0.  1.
</event>
<event>
 5   0  0.2820028E-06  0.2599067E+04  0.7818609E-02  0.8368518E-01
        2   -1    0    0  501    0  0.00000000000E+00  0.00000000000E+00  0.14966695634E+04  0.14966695634E+04  0.25500000920E-02 0.  1.
       -2   -1    0    0    0  501  0.00000000000E+00  0.00000000000E+00 -0.11283633682E+04  0.11283633682E+04  0.25500000920E-02 0. -1.
    10030    2    1    2    0    0  0.00000000000E+00  0.00000000000E+00  0.36830619520E+03  0.26250329316E+04  0.25990668399E+04 0.  0.
        3    1    3    3  502    0 -0.12929339053E+04  0.91631255325E+02  0.27842763571E+03  0.13257436890E+04  0.10100000352E+00 0. -1.
       -3    1    3    3    0  502  0.12929339053E+04 -0.91631255325E+02  0.89878559494E+02  0.12992892426E+04  0.10100000352E+00 0.  1.
</event>
<event>
 5   0  0.1055179E-06  0.2563235E+04  0.7818609E-02  0.8380798E-01
       -1   -1    0    0    0  501  0.00000000000E+00  0.00000000000E+00  0.65544841535E+03  0.65544841537E+03  0.50400001928E-02 0.  1.
        1   -1    0    0  501    0  0.00000000000E+00  0.00000000000E+00 -0.25059847413E+04  0.25059847413E+04  0.50400001928E-02 0. -1.
    10030    2    1    2    0    0  0.00000000000E+00  0.00000000000E+00 -0.18505363260E+04  0.31614331567E+04  0.25632352429E+04 0.  0.
        3    1    3    3  502    0 -0.60458795120E+03  0.58464614662E+03  0.26748117070E+03  0.88254399005E+03  0.10100000352E+00 0.  1.
       -3    1    3    3    0  502  0.60458795120E+03 -0.58464614662E+03 -0.21180174967E+04  0.22788891667E+04  0.10100000352E+00 0. -1.
</event>
<event>
 5   0  0.1122628E-06  0.2607343E+04  0.7818609E-02  0.8365711E-01
        1   -1    0    0  501    0  0.00000000000E+00  0.00000000000E+00  0.23317314867E+04  0.23317314867E+04  0.50400001928E-02 0. -1.
       -1   -1    0    0    0  501  0.00000000000E+00  0.00000000000E+00 -0.72888311483E+03  0.72888311485E+03  0.50400001928E-02 0.  1.
    10030    2    1    2    0    0  0.00000000000E+00  0.00000000000E+00  0.16028483719E+04  0.30606146016E+04  0.26073432524E+04 0.  0.
        2    1    3    3  502    0 -0.68336363042E+03 -0.75806602551E+03 -0.15070000787E+03  0.10316784590E+04  0.25500000920E-02 0.  1.
       -2    1    3    3    0  502  0.68336363042E+03  0.75806602551E+03  0.17535483798E+04  0.20289361426E+04  0.25500000920E-02 0. -1.
</event>
<event>
 5   0  0.1122628E-06  0.2596427E+04  0.7818609E-02  0.8369416E-01
        1   -1    0    0  501    0  0.00000000000E+00  0.00000000000E+00  0.12839031781E+04  0.12839031781E+04  0.50400001928E-02 0.  1.
       -1   -1    0    0    0  501  0.00000000000E+00  0.00000000000E+00 -0.13126832019E+04  0.13126832019E+04  0.50400001928E-02 0. -1.
    10030    2    1    2    0    0  0.00000000000E+00  0.00000000000E+00 -0.28780023799E+02  0.25965863800E+04  0.25964268792E+04 0.  0.
        2    1    3    3  502    0  0.35988927049E+03 -0.11684657327E+04 -0.45090929932E+03  0.13031314791E+04  0.25500000920E-02 0. -1.
       -2    1    3    3    0  502 -0.35988927049E+03  0.11684657327E+04  0.42212927552E+03  0.12934549010E+04  0.25500000920E-02 0.  1.
</event>
<event>
 5   0  0.2705807E-06  0.2585874E+04  0.7818609E-02  0.8373015E-01
        2   -1    0    0  501    0  0.00000000000E+00  0.00000000000E+00  0.11368919181E+04  0.11368919181E+04  0.25500000920E-02 0.  1.
       -2   -1    0    0    0  501  0.00000000000E+00  0.00000000000E+00 -0.14704003800E+04  0.14704003800E+04  0.25500000920E-02 0. -1.
    10030    2    1    2    0    0  0.00000000000E+00  0.00000000000E+00 -0.33350846187E+03  0.26072922981E+04  0.25858741721E+04 0.  0.
        4    1    3    3  502    0 -0.38821675834E+03 -0.65036457996E+03  0.88977904167E+03  0.11685010459E+04  0.12699999809E+01 0.  1.
       -4    1    3    3    0  502  0.38821675834E+03  0.65036457996E+03 -0.12232875035E+04  0.14387912523E+04  0.12699999809E+01 0. -1.
</event>
<event>
 5   0  0.1032076E-06  0.2606574E+04  0.7818609E-02  0.8365971E-01
       -1   -1    0    0    0  501  0.00000000000E+00  0.00000000000E+00  0.75309773708E+03  0.75309773710E+03  0.50400001928E-02 0.  1.
        1   -1    0    0  501    0  0.00000000000E+00  0.00000000000E+00 -0.22554278324E+04  0.22554278324E+04  0.50400001928E-02 0. -1.
    10030    2    1    2    0    0  0.00000000000E+00  0.00000000000E+00 -0.15023300953E+04  0.30085255695E+04  0.26065744545E+04 0.  0.
        1    1    3    3  502    0  0.52847093612E+02 -0.77926082946E+03  0.45304223210E+03  0.90293273267E+03  0.50400001928E-02 0.  1.
       -1    1    3    3    0  502 -0.52847093612E+02  0.77926082946E+03 -0.19553723274E+04  0.21055928368E+04  0.50400001928E-02 0. -1.
</event>
<event>
 5   0  0.1032076E-06  0.2604600E+04  0.7818609E-02  0.8366640E-01
       -1   -1    0    0    0  501  0.00000000000E+00  0.00000000000E+00  0.18357090959E+04  0.18357090959E+04  0.50400001928E-02 0.  1.
        1   -1    0    0  501    0  0.00000000000E+00  0.00000000000E+00 -0.92388596799E+03  0.92388596801E+03  0.50400001928E-02 0. -1.
    10030    2    1    2    0    0  0.00000000000E+00  0.00000000000E+00  0.91182312789E+03  0.27595950639E+04  0.26046004492E+04 0.  0.
        1    1    3    3  502    0 -0.21696107687E+03 -0.39324912434E+03  0.17510572581E+04  0.18077385054E+04  0.50400001928E-02 0.  1.
       -1    1    3    3    0  502  0.21696107687E+03  0.39324912434E+03 -0.83923413021E+03  0.95185655852E+03  0.50400001928E-02 0. -1.
</event>
<event>
 5   0  0.2623368E-06  0.2621463E+04  0.7818609E-02  0.8360947E-01
       -2   -1    0    0    0  501  0.00000000000E+00  0.00000000000E+00  0.68620315624E+03  0.68620315625E+03  0.25500000920E-02 0. -1.
        2   -1    0    0  501    0  0.00000000000E+00  0.00000000000E+00 -0.25036567698E+04  0.25036567698E+04  0.25500000920E-02 0.  1.
    10030    2    1    2    0    0  0.00000000000E+00  0.00000000000E+00 -0.18174536136E+04  0.31898599261E+04  0.26214630858E+04 0.  0.
        5    1    3    3  502    0 -0.63288860647E+03  0.32972768784E+03 -0.22465290906E+04  0.23571557821E+04  0.46999998093E+01 0.  1.
       -5    1    3    3    0  502  0.63288860647E+03 -0.32972768784E+03  0.42907547703E+03  0.83270414393E+03  0.46999998093E+01 0. -1.
</event>
<event>
 5   0  0.2586775E-06  0.2593989E+04  0.7818609E-02  0.8370246E-01
       -2   -1    0    0    0  501  0.00000000000E+00  0.00000000000E+00  0.18828627099E+04  0.18828627099E+04  0.25500000920E-02 0.  1.
        2   -1    0    0  501    0  0.00000000000E+00  0.00000000000E+00 -0.89342390736E+03  0.89342390737E+03  0.25500000920E-02 0. -1.
    10030    2    1    2    0    0  0.00000000000E+00  0.00000000000E+00  0.98943880256E+03  0.27762866173E+04  0.25939888661E+04 0.  0.
        1    1    3    3  502    0  0.10279449244E+03 -0.12412136436E+04  0.10731971995E+03  0.12500782132E+04  0.50400001928E-02 0.  1.
       -1    1    3    3    0  502 -0.10279449244E+03  0.12412136436E+04  0.88211908261E+03  0.15262084041E+04  0.50400001928E-02 0. -1.
</event>
<event>
 5   0  0.2586775E-06  0.2599058E+04  0.7818609E-02  0.8368521E-01
       -2   -1    0    0    0  501  0.00000000000E+00  0.00000000000E+00  0.11327155628E+04  0.11327155628E+04  0.25500000920E-02 0.  1.
        2   -1    0    0  501    0  0.00000000000E+00  0.00000000000E+00 -0.14909089978E+04  0.14909089978E+04  0.25500000920E-02 0. -1.
    10030    2    1    2    0    0  0.00000000000E+00  0.00000000000E+00 -0.35819343505E+03  0.26236245606E+04  0.25990581560E+04 0.  0.
        1    1    3    3  502    0 -0.41546679140E+02  0.11546680478E+03  0.11268537918E+04  0.11335158480E+04  0.50400001928E-02 0.  1.
       -1    1    3    3    0  502  0.41546679140E+02 -0.11546680478E+03 -0.14850472268E+04  0.14901087126E+04  0.50400001928E-02 0. -1.
</event>
<event>
 5   0  0.1055179E-06  0.2599433E+04  0.7818609E-02  0.8368394E-01
       -1   -1    0    0    0  501  0.00000000000E+00  0.00000000000E+00  0.10703158698E+04  0.10703158698E+04  0.50400001928E-02 0. -1.
        1   -1    0    0  501    0  0.00000000000E+00  0.00000000000E+00 -0.15782843952E+04  0.15782843952E+04  0.50400001928E-02 0.  1.
    10030    2    1    2    0    0  0.00000000000E+00  0.00000000000E+00 -0.50796852542E+03  0.26486002650E+04  0.25994328883E+04 0.  0.
        3    1    3    3  502    0 -0.72454957615E+03 -0.94667676693E+03  0.27358711151E+03  0.12231185172E+04  0.10100000352E+00 0. -1.
       -3    1    3    3    0  502  0.72454957615E+03  0.94667676693E+03 -0.78155563693E+03  0.14254817477E+04  0.10100000352E+00 0.  1.
</event>
<event>
 5   0  0.2623368E-06  0.2597570E+04  0.7818609E-02  0.8369027E-01
       -2   -1    0    0    0  501  0.00000000000E+00  0.00000000000E+00  0.10338712717E+04  0.10338712717E+04  0.25500000920E-02 0.  1.
        2   -1    0    0  501    0  0.00000000000E+00  0.00000000000E+00 -0.16315791320E+04  0.16315791320E+04  0.25500000920E-02 0. -1.
    10030    2    1    2    0    0  0.00000000000E+00  0.00000000000E+00 -0.59770786034E+03  0.26654504037E+04  0.25975702431E+04 0.  0.
        5    1    3    3  502    0  0.10624473131E+04  0.62582999681E+03 -0.71738911122E+03  0.14265786711E+04  0.46999998093E+01 0.  1.
       -5    1    3    3    0  502 -0.10624473131E+04 -0.62582999681E+03  0.11968125088E+03  0.12388717326E+04  0.46999998093E+01 0. -1.
</event>
<event>
 5   0  0.2746631E-06  0.2600798E+04  0.7818609E-02  0.8367930E-01
        2   -1    0    0  501    0  0.00000000000E+00  0.00000000000E+00  0.24232006207E+04  0.24232006207E+04  0.25500000920E-02 0. -1.
       -2   -1    0    0    0  501  0.00000000000E+00  0.00000000000E+00 -0.69785265384E+03  0.69785265384E+03  0.25500000920E-02 0.  1.
    10030    2    1    2    0    0  0.00000000000E+00  0.00000000000E+00  0.17253479669E+04  0.31210532745E+04  0.26007975576E+04 0.  0.
        2    1    3    3  502    0 -0.46273922958E+03  0.67875392245E+03  0.20723937115E+04  0.22292712212E+04  0.25500000920E-02 0. -1.
       -2    1    3    3    0  502  0.46273922958E+03 -0.67875392245E+03 -0.34704574468E+03  0.89178205339E+03  0.25500000920E-02 0.  1.
</event>
<event>
 5   0  0.1088757E-06  0.2589724E+04  0.7818609E-02  0.8371700E-01
        1   -1    0    0  501    0  0.00000000000E+00  0.00000000000E+00  0.11385251236E+04  0.11385251236E+04  0.50400001928E-02 0.  1.
       -1   -1    0    0    0  501  0.00000000000E+00  0.00000000000E+00 -0.14726661473E+04  0.14726661473E+04  0.50400001928E-02 0. -1.
    10030    2    1    2    0    0  0.00000000000E+00  0.00000000000E+00 -0.33414102366E+03  0.26111912709E+04  0.25897238520E+04 0.  0.
        5    1    3    3  502    0 -0.83981925730E+03 -0.30375456347E+03 -0.11124364411E+04  0.14265693622E+04  0.46999998093E+01 0. -1.
       -5    1    3    3    0  502  0.83981925730E+03  0.30375456347E+03  0.77829541741E+03  0.11846219087E+04  0.46999998093E+01 0.  1.
</event>
<event>
 5   0  0.2586775E-06  0.2600723E+04  0.7818609E-02  0.8367956E-01
       -2   -1    0    0    0  501  0.00000000000E+00  0.00000000000E+00  0.89129379967E+03  0.89129379967E+03  0.25500000920E-02 0.  1.
        2   -1    0    0  501    0  0.00000000000E+00  0.00000000000E+00 -0.18971745210E+04  0.18971745210E+04  0.25500000920E-02 0. -1.
    10030    2    1    2    0    0  0.00000000000E+00  0.00000000000E+00 -0.10058807213E+04  0.27884683206E+04  0.26007228898E+04 0.  0.
        1    1    3    3  502    0  0.21434975276E+03  0.42023188255E+03  0.79631258387E+03  0.92555625593E+03  0.50400001928E-02 0.  1.
       -1    1    3    3    0  502 -0.21434975276E+03 -0.42023188255E+03 -0.18021933052E+04  0.18629120647E+04  0.50400001928E-02 0. -1.
</event>
<event>
 5   0  0.2705807E-06  0.2600388E+04  0.7818609E-02  0.8368069E-01
        2   -1    0    0  501    0  0.00000000000E+00  0.00000000000E+00  0.17037060637E+04  0.17037060637E+04  0.25500000920E-02 0.  1.
       -2   -1    0    0    0  501  0.00000000000E+00  0.00000000000E+00 -0.99225131039E+03  0.99225131039E+03  0.25500000920E-02 0. -1.
    10030    2    1    2    0    0  0.00000000000E+00  0.00000000000E+00  0.71145475333E+03  0.26959573741E+04  0.26003881051E+04 0.  0.
        4    1    3    3  502    0 -0.10714981021E+04 -0.63275461982E+03 -0.34973201384E+02  0.12448740215E+04  0.12699999809E+01 0. -1.
       -4    1    3    3    0  502  0.10714981021E+04  0.63275461982E+03  0.74642795472E+03  0.14510833526E+04  0.12699999809E+01 0.  1.
</event>
<event>
 5   0  0.2586775E-06  0.2599037E+04  0.7818609E-02  0.8368528E-01
       -2   -1    0    0    0  501  0.00000000000E+00  0.00000000000E+00  0.12716042675E+04  0.12716042675E+04  0.25500000920E-02 0. -1.
        2   -1    0    0  501    0  0.00000000000E+00  0.00000000000E+00 -0.13280453661E+04  0.13280453661E+04  0.25500000920E-02 0.  1.
    10030    2    1    2    0    0  0.00000000000E+00  0.00000000000E+00 -0.56441098647E+02  0.25996496336E+04  0.25990368639E+04 0.  0.
        1    1    3    3  502    0 -0.11543441930E+04 -0.37317795111E+03 -0.49413704363E+03  0.13099403487E+04  0.50400001928E-02 0. -1.
       -1    1    3    3    0  502  0.11543441930E+04  0.37317795111E+03  0.43769594498E+03  0.12897092849E+04  0.50400001928E-02 0.  1.
</event>
<event>
 5   0  0.2746631E-06  0.2601757E+04  0.7818609E-02  0.8367605E-01
       -2   -1    0    0    0  501  0.00000000000E+00  0.00000000000E+00  0.85432476714E+03  0.85432476715E+03  0.25500000920E-02 0. -1.
        2   -1    0    0  501    0  0.00000000000E+00  0.00000000000E+00 -0.19808454815E+04  0.19808454815E+04  0.25500000920E-02 0.  1.
    10030    2    1    2    0    0  0.00000000000E+00  0.00000000000E+00 -0.11265207143E+04  0.28351702486E+04  0.26017573713E+04 0.  0.
        2    1    3    3  502    0  0.12634691590E+04  0.16064906111E+03 -0.27469623068E+03  0.13029276479E+04  0.25500000920E-02 0. -1.
       -2    1    3    3    0  502 -0.12634691590E+04 -0.16064906111E+03 -0.85182448367E+03  0.15322426007E+04  0.25500000920E-02 0.  1.
</event>
<event>
 5   0  0.1122628E-06  0.2602584E+04  0.7818609E-02  0.8367324E-01
       -1   -1    0    0    0  501  0.00000000000E+00  0.00000000000E+00  0.85688169893E+03  0.85688169895E+03  0.50400001928E-02 0. -1.
        1   -1    0    0  501    0  0.00000000000E+00  0.00000000000E+00 -0.19761899068E+04  0.19761899068E+04  0.50400001928E-02 0.  1.
    10030    2    1    2    0    0  0.00000000000E+00  0.00000000000E+00 -0.11193082079E+04  0.28330716058E+04  0.26025840734E+04 0.  0.
        2    1    3    3  502    0  0.67070669512E+03 -0.37073737803E+03  0.58518263588E+03  0.96422631767E+03  0.25500000920E-02 0. -1.
       -2    1    3    3    0  502 -0.67070669512E+03  0.37073737803E+03 -0.17044908438E+04  0.18688452881E+04  0.25500000920E-02 0.  1.
</event>
<event>
 5   0  0.1122628E-06  0.2599647E+04  0.7818609E-02  0.8368321E-01
        1   -1    0    0  501    0  0.00000000000E+00  0.00000000000E+00  0.10722337393E+04  0.10722337393E+04  0.50400001928E-02 0.  1.
       -1   -1    0    0    0  501  0.00000000000E+00  0.00000000000E+00 -0.15757213732E+04  0.15757213732E+04  0.50400001928E-02 0. -1.
    10030    2    1    2    0    0  0.00000000000E+00  0.00000000000E+00 -0.50348763384E+03  0.26479551125E+04  0.25996473761E+04 0.  0.
        2    1    3    3  502    0  0.18520235222E+03  0.91468514281E+03 -0.11733176512E+04  0.14992075014E+04  0.25500000920E-02 0. -1.
       -2    1    3    3    0  502 -0.18520235222E+03 -0.91468514281E+03  0.66983001735E+03  0.11487476111E+04  0.25500000920E-02 0.  1.
</event>
<event>
 5   0  0.2586775E-06  0.2600220E+04  0.7818609E-02  0.8368126E-01
        2   -1    0    0  501    0  0.00000000000E+00  0.00000000000E+00  0.12707280956E+04  0.12707280956E+04  0.25500000920E-02 0.  1.
       -2   -1    0    0    0  501  0.00000000000E+00  0.00000000000E+00 -0.13301713875E+04  0.13301713875E+04  0.25500000920E-02 0. -1.
    10030    2    1    2    0    0  0.00000000000E+00  0.00000000000E+00 -0.59443291910E+02  0.26008994831E+04  0.26002201092E+04 0.  0.
        1    1    3    3  502    0  0.82025355302E+03  0.55364175894E+03  0.81367779815E+03  0.12811739334E+04  0.50400001928E-02 0.  1.
       -1    1    3    3    0  502 -0.82025355302E+03 -0.55364175894E+03 -0.87312109006E+03  0.13197255497E+04  0.50400001928E-02 0. -1.
</event>
<event>
 5   0  0.1032076E-06  0.2606780E+04  0.7818609E-02  0.8365902E-01
        1   -1    0    0  501    0  0.00000000000E+00  0.00000000000E+00  0.11760039109E+04  0.11760039109E+04  0.50400001928E-02 0.  1.
       -1   -1    0    0    0  501  0.00000000000E+00  0.00000000000E+00 -0.14445749945E+04  0.14445749945E+04  0.50400001928E-02 0. -1.
    10030    2    1    2    0    0  0.00000000000E+00  0.00000000000E+00 -0.26857108364E+03  0.26205789054E+04  0.26067802693E+04 0.  0.
        1    1    3    3  502    0  0.93055344201E+03 -0.48723816270E+03 -0.91005363693E+03  0.13897943581E+04  0.50400001928E-02 0. -1.
       -1    1    3    3    0  502 -0.93055344201E+03  0.48723816270E+03  0.64148255330E+03  0.12307845473E+04  0.50400001928E-02 0.  1.
</event>
<event>
 5   0  0.1088757E-06  0.2596201E+04  0.7818609E-02  0.8369493E-01
       -1   -1    0    0    0  501  0.00000000000E+00  0.00000000000E+00  0.69768531137E+03  0.69768531138E+03  0.50400001928E-02 0. -1.
        1   -1    0    0  501    0  0.00000000000E+00  0.00000000000E+00 -0.24152221688E+04  0.24152221688E+04  0.50400001928E-02 0.  1.
    10030    2    1    2    0    0  0.00000000000E+00  0.00000000000E+00 -0.17175368574E+04  0.31129074802E+04  0.25962010946E+04 0.  0.
        5    1    3    3  502    0 -0.75828659922E+03  0.99726247467E+03 -0.12662812772E+04  0.17812976655E+04  0.46999998093E+01 0. -1.
       -5    1    3    3    0  502  0.75828659922E+03 -0.99726247467E+03 -0.45125558017E+03  0.13316098147E+04  0.46999998093E+01 0.  1.
</event>
<event>
 5   0  0.2586775E-06  0.2602177E+04  0.7818609E-02  0.8367462E-01
       -2   -1    0    0    0  501  0.00000000000E+00  0.00000000000E+00  0.63581594513E+03  0.63581594514E+03  0.25500000920E-02 0.  1.
        2   -1    0    0  501    0  0.00000000000E+00  0.00000000000E+00 -0.26624545127E+04  0.26624545127E+04  0.25500000920E-02 0. -1.
    10030    2    1    2    0    0  0.00000000000E+00  0.00000000000E+00 -0.20266385675E+04  0.32982704578E+04  0.26021768060E+04 0.  0.
        1    1    3    3  502    0 -0.56202519264E+03  0.11342699178E+03  0.46705474951E+03  0.73951209503E+03  0.50400001928E-02 0.  1.
       -1    1    3    3    0  502  0.56202519264E+03 -0.11342699178E+03 -0.24936933171E+04  0.25587583628E+04  0.50400001928E-02 0. -1.
</event>
<event>
 5   0  0.1100104E-06  0.2595368E+04  0.7818609E-02  0.8369776E-01
        1   -1    0    0  501    0  0.00000000000E+00  0.00000000000E+00  0.13821688811E+04  0.13821688811E+04  0.50400001928E-02 0. -1.
       -1   -1    0    0    0  501  0.00000000000E+00  0.00000000000E+00 -0.12183629223E+04  0.12183629223E+04  0.50400001928E-02 0.  1.
    10030    2    1    2    0    0  0.00000000000E+00  0.00000000000E+00  0.16380595874E+03  0.26005318034E+04  0.25953676557E+04 0.  0.
        4    1    3    3  502    0 -0.38734308534E+03  0.39190644106E+03  0.12591264029E+04  0.13744185082E+04  0.12699999809E+01 0. -1.
       -4    1    3    3    0  502  0.38734308534E+03 -0.39190644106E+03 -0.10953204442E+04  0.12261132952E+04  0.12699999809E+01 0.  1.
</event>
<event>
 5   0  0.2746631E-06  0.2630849E+04  0.7818609E-02  0.8357797E-01
        2   -1    0    0  501    0  0.00000000000E+00  0.00000000000E+00  0.80863449335E+03  0.80863449335E+03  0.25500000920E-02 0. -1.
       -2   -1    0    0    0  501  0.00000000000E+00  0.00000000000E+00 -0.21398313150E+04  0.21398313150E+04  0.25500000920E-02 0.  1.
    10030    2    1    2    0    0  0.00000000000E+00  0.00000000000E+00 -0.13311968216E+04  0.29484658083E+04  0.26308488450E+04 0.  0.
        2    1    3    3  502    0 -0.15326622815E+03  0.11662718715E+04 -0.13254595684E+04  0.17721522740E+04  0.25500000920E-02 0. -1.
       -2    1    3    3    0  502  0.15326622815E+03 -0.11662718715E+04 -0.57372532839E+01  0.11763135343E+04  0.25500000920E-02 0.  1.
</event>
<event>
 5   0  0.1100104E-06  0.2606448E+04  0.7818609E-02  0.8366014E-01
       -1   -1    0    0    0  501  0.00000000000E+00  0.00000000000E+00  0.11094810559E+04  0.11094810559E+04  0.50400001928E-02 0.  1.
        1   -1    0    0  501    0  0.00000000000E+00  0.00000000000E+00 -0.15307987303E+04  0.15307987303E+04  0.50400001928E-02 0. -1.
    10030    2    1    2    0    0  0.00000000000E+00  0.00000000000E+00 -0.42131767443E+03  0.26402797863E+04  0.26064475377E+04 0.  0.
        4    1    3    3  502    0 -0.10578549680E+04  0.35744531341E+03 -0.89136819572E+03  0.14287628070E+04  0.12699999809E+01 0.  1.
       -4    1    3    3    0  502  0.10578549680E+04 -0.35744531341E+03  0.47005052129E+03  0.12115169792E+04  0.12699999809E+01 0. -1.
</event>
<event>
 5   0  0.1032076E-06  0.2607682E+04  0.7818609E-02  0.8365597E-01
        1   -1    0    0  501    0  0.00000000000E+00  0.00000000000E+00  0.15998916474E+04  0.15998916474E+04  0.50400001928E-02 0.  1.
       -1   -1    0    0    0  501  0.00000000000E+00  0.00000000000E+00 -0.10625726221E+04  0.10625726221E+04  0.50400001928E-02 0. -1.
    10030    2    1    2    0    0  0.00000000000E+00  0.00000000000E+00  0.53731902526E+03  0.26624642695E+04  0.26076817772E+04 0.  0.
        1    1    3    3  502    0 -0.41843907799E+03 -0.11563616197E+04  0.71104903550E+03  0.14205119459E+04  0.50400001928E-02 0.  1.
       -1    1    3    3    0  502  0.41843907799E+03  0.11563616197E+04 -0.17373001024E+03  0.12419523236E+04  0.50400001928E-02 0. -1.
</event>
<event>
 5   0  0.2623368E-06  0.2595407E+04  0.7818609E-02  0.8369763E-01
        2   -1    0    0  501    0  0.00000000000E+00  0.00000000000E+00  0.18353009249E+04  0.18353009249E+04  0.25500000920E-02 0. -1.
       -2   -1    0    0    0  501  0.00000000000E+00  0.00000000000E+00 -0.91757935693E+03  0.91757935693E+03  0.25500000920E-02 0.  1.
    10030    2    1    2    0    0  0.00000000000E+00  0.00000000000E+00  0.91772156796E+03  0.27528802818E+04  0.25954068987E+04 0.  0.
        5    1    3    3  502    0 -0.75961625840E+03 -0.10174224697E+04  0.17455505100E+03  0.12816617720E+04  0.46999998093E+01 0.  1.
       -5    1    3    3    0  502  0.75961625840E+03  0.10174224697E+04  0.74316651696E+03  0.14712185099E+04  0.46999998093E+01 0. -1.
</event>
<event>
 5   0  0.1055179E-06  0.2598277E+04  0.7818609E-02  0.8368787E-01
       -1   -1    0    0    0  501  0.00000000000E+00  0.00000000000E+00  0.75809528071E+03  0.75809528073E+03  0.50400001928E-02 0. -1.
        1   -1    0    0  501    0  0.00000000000E+00  0.00000000000E+00 -0.22263184087E+04  0.22263184087E+04  0.50400001928E-02 0.  1.
    10030    2    1    2    0    0  0.00000000000E+00  0.00000000000E+00 -0.14682231280E+04  0.29844136895E+04  0.25982774902E+04 0.  0.
        3    1    3    3  502    0  0.20927390984E+03  0.11983220122E+04 -0.21027599290E+03  0.12344987718E+04  0.10100000352E+00 0. -1.
       -3    1    3    3    0  502 -0.20927390984E+03 -0.11983220122E+04 -0.12579471351E+04  0.17499149177E+04  0.10100000352E+00 0.  1.
</event>
<event>
 5   0  0.1055179E-06  0.2602699E+04  0.7818609E-02  0.8367285E-01
       -1   -1    0    0    0  501  0.00000000000E+00  0.00000000000E+00  0.14470738318E+04  0.14470738318E+04  0.50400001928E-02 0.  1.
        1   -1    0    0  501    0  0.00000000000E+00  0.00000000000E+00 -0.11702999879E+04  0.11702999879E+04  0.50400001928E-02 0. -1.
    10030    2    1    2    0    0  0.00000000000E+00  0.00000000000E+00  0.27677384384E+03  0.26173738197E+04  0.26026989744E+04 0.  0.
        3    1    3    3  502    0  0.10803856679E+04  0.72525648958E+03  0.15522379934E+03  0.13104673232E+04  0.10100000352E+00 0.  1.
       -3    1    3    3    0  502 -0.10803856679E+04 -0.72525648958E+03  0.12155004451E+03  0.13069064965E+04  0.10100000352E+00 0. -1.
</event>
<event>
 5   0  0.2746631E-06  0.2598319E+04  0.7818609E-02  0.8368772E-01
       -2   -1    0    0    0  501  0.00000000000E+00  0.00000000000E+00  0.11000530474E+04  0.11000530474E+04  0.25500000920E-02 0. -1.
        2   -1    0    0  501    0  0.00000000000E+00  0.00000000000E+00 -0.15343035521E+04  0.15343035521E+04  0.25500000920E-02 0.  1.
    10030    2    1    2    0    0  0.00000000000E+00  0.00000000000E+00 -0.43425050471E+03  0.26343565995E+04  0.25983189166E+04 0.  0.
        2    1    3    3  502    0 -0.99114814464E+03 -0.20641091131E+03  0.60831356061E+03  0.11811119748E+04  0.25500000920E-02 0.  1.
       -2    1    3    3    0  502  0.99114814464E+03  0.20641091131E+03 -0.10425640653E+04  0.14532446247E+04  0.25500000920E-02 0. -1.
</event>
<event>
 5   0  0.2705807E-06  0.2612410E+04  0.7818609E-02  0.8363998E-01
       -2   -1    0    0    0  501  0.00000000000E+00  0.00000000000E+00  0.16180492157E+04  0.16180492157E+04  0.25500000920E-02 0.  1.
        2   -1    0    0  501    0  0.00000000000E+00  0.00000000000E+00 -0.10544619592E+04  0.10544619592E+04  0.25500000920E-02 0. -1.
    10030    2    1    2    0    0  0.00000000000E+00  0.00000000000E+00  0.56358725655E+03  0.26725111749E+04  0.26124098806E+04 0.  0.
        4    1    3    3  502    0 -0.67097876908E+03 -0.50684073728E+03 -0.74073647919E+03  0.11206213393E+04  0.12699999809E+01 0. -1.
       -4    1    3    3    0  502  0.67097876908E+03  0.50684073728E+03  0.13043237357E+04  0.15518898357E+04  0.12699999809E+01 0.  1.
</event>
<event>
 5   0  0.1055179E-06  0.2601537E+04  0.7818609E-02  0.8367679E-01
        1   -1    0    0  501    0  0.00000000000E+00  0.00000000000E+00  0.27016284497E+04  0.27016284497E+04  0.50400001928E-02 0. -1.
       -1   -1    0    0    0  501  0.00000000000E+00  0.00000000000E+00 -0.62628829405E+03  0.62628829407E+03  0.50400001928E-02 0.  1.
    10030    2    1    2    0    0  0.00000000000E+00  0.00000000000E+00  0.20753401556E+04  0.33279167437E+04  0.26015366789E+04 0.  0.
        3    1    3    3  502    0  0.37962106602E+03 -0.45750346428E+03 -0.44233814475E+03  0.74100244136E+03  0.10100000352E+00 0.  1.
       -3    1    3    3    0  502 -0.37962106602E+03  0.45750346428E+03  0.25176783003E+04  0.25869143024E+04  0.10100000352E+00 0. -1.
</event>
<event>
 5   0  0.2746631E-06  0.2603049E+04  0.7818609E-02  0.8367166E-01
        2   -1    0    0  501    0  0.00000000000E+00  0.00000000000E+00  0.30048767382E+04  0.30048767382E+04  0.25500000920E-02 0.  1.
       -2   -1    0    0    0  501  0.00000000000E+00  0.00000000000E+00 -0.56373887193E+03  0.56373887193E+03  0.25500000920E-02 0. -1.
    10030    2    1    2    0    0  0.00000000000E+00  0.00000000000E+00  0.24411378663E+04  0.35686156102E+04  0.26030488453E+04 0.  0.
        2    1    3    3  502    0  0.11985878433E+04  0.38522960500E+03  0.76805352178E+03  0.14747612956E+04  0.25500000920E-02 0. -1.
       -2    1    3    3    0  502 -0.11985878433E+04 -0.38522960500E+03  0.16730843445E+04  0.20938543146E+04  0.25500000920E-02 0.  1.
</event>
<event>
 5   0  0.2705807E-06  0.2599897E+04  0.7818609E-02  0.8368236E-01
        2   -1    0    0  501    0  0.00000000000E+00  0.00000000000E+00  0.14011491646E+04  0.14011491646E+04  0.25500000920E-02 0. -1.
       -2   -1    0    0    0  501  0.00000000000E+00  0.00000000000E+00 -0.12060569719E+04  0.12060569719E+04  0.25500000920E-02 0.  1.
    10030    2    1    2    0    0  0.00000000000E+00  0.00000000000E+00  0.19509219270E+03  0.26072061365E+04  0.25998967046E+04 0.  0.
        4    1    3    3  502    0 -0.10082484975E+04 -0.80473764413E+03  0.25829772939E+03  0.13156318020E+04  0.12699999809E+01 0. -1.
       -4    1    3    3    0  502  0.10082484975E+04  0.80473764413E+03 -0.63205536691E+02  0.12915743344E+04  0.12699999809E+01 0.  1.
</event>
<event>
 5   0  0.2820028E-06  0.2601932E+04  0.7818609E-02  0.8367545E-01
        2   -1    0    0  501    0  0.00000000000E+00  0.00000000000E+00  0.16485795129E+04  0.16485795129E+04  0.25500000920E-02 0. -1.
       -2   -1    0    0    0  501  0.00000000000E+00  0.00000000000E+00 -0.10266490050E+04  0.10266490050E+04  0.25500000920E-02 0.  1.
    10030    2    1    2    0    0  0.00000000000E+00  0.00000000000E+00  0.62193050796E+03  0.26752285179E+04  0.26019319872E+04 0.  0.
        3    1    3    3  502    0 -0.23416752196E+03  0.11037748925E+04  0.97678698053E+03  0.14924028469E+04  0.10100000352E+00 0. -1.
       -3    1    3    3    0  502  0.23416752196E+03 -0.11037748925E+04 -0.35485647257E+03  0.11828256710E+04  0.10100000352E+00 0.  1.
</event>
<event>
 5   0  0.1055179E-06  0.2587871E+04  0.7818609E-02  0.8372333E-01
       -1   -1    0    0    0  501  0.00000000000E+00  0.00000000000E+00  0.16768218242E+04  0.16768218242E+04  0.50400001928E-02 0. -1.
        1   -1    0    0  501    0  0.00000000000E+00  0.00000000000E+00 -0.99847796483E+03  0.99847796484E+03  0.50400001928E-02 0.  1.
    10030    2    1    2    0    0  0.00000000000E+00  0.00000000000E+00  0.67834385937E+03  0.26752997891E+04  0.25878714361E+04 0.  0.
        3    1    3    3  502    0  0.34727061006E+03  0.11674382470E+04 -0.11234517399E+03  0.12231640878E+04  0.10100000352E+00 0.  1.
       -3    1    3    3    0  502 -0.34727061006E+03 -0.11674382470E+04  0.79068903336E+03  0.14521357013E+04  0.10100000352E+00 0. -1.
</event>
<event>
 5   0  0.2746631E-06  0.2598878E+04  0.7818609E-02  0.8368582E-01
       -2   -1    0    0    0  501  0.00000000000E+00  0.00000000000E+00  0.12644009460E+04  0.12644009460E+04  0.25500000920E-02 0. -1.
        2   -1    0    0  501    0  0.00000000000E+00  0.00000000000E+00 -0.13354478831E+04  0.13354478831E+04  0.25500000920E-02 0.  1.
    10030    2    1    2    0    0  0.00000000000E+00  0.00000000000E+00 -0.71046937114E+02  0.25998488292E+04  0.25988778862E+04 0.  0.
        2    1    3    3  502    0 -0.34361550673E+03  0.98827401204E+03  0.73533850814E+03  0.12788588119E+04  0.25500000920E-02 0. -1.
       -2    1    3    3    0  502  0.34361550673E+03 -0.98827401204E+03 -0.80638544525E+03  0.13209900172E+04  0.25500000920E-02 0.  1.
</event>
<event>
 5   0  0.1088757E-06  0.2602260E+04  0.7818609E-02  0.8367434E-01
        1   -1    0    0  501    0  0.00000000000E+00  0.00000000000E+00  0.15440450815E+04  0.15440450815E+04  0.50400001928E-02 0.  1.
       -1   -1    0    0    0  501  0.00000000000E+00  0.00000000000E+00 -0.10964312366E+04  0.10964312366E+04  0.50400001928E-02 0. -1.
    10030    2    1    2    0    0  0.00000000000E+00  0.00000000000E+00  0.44761384491E+03  0.26404763182E+04  0.26022599856E+04 0.  0.
        5    1    3    3  502    0 -0.14503910337E+03 -0.65877014916E+03 -0.90514344989E+03  0.11288583639E+04  0.46999998093E+01 0. -1.
       -5    1    3    3    0  502  0.14503910337E+03  0.65877014916E+03  0.13527572948E+04  0.15116179542E+04  0.46999998093E+01 0.  1.
</event>
<event>
 5   0  0.1100104E-06  0.2594897E+04  0.7818609E-02  0.8369937E-01
        1   -1    0    0  501    0  0.00000000000E+00  0.00000000000E+00  0.25955010548E+04  0.25955010548E+04  0.50400001928E-02 0. -1.
       -1   -1    0    0    0  501  0.00000000000E+00  0.00000000000E+00 -0.64857313729E+03  0.64857313731E+03  0.50400001928E-02 0.  1.
    10030    2    1    2    0    0  0.00000000000E+00  0.00000000000E+00  0.19469279175E+04  0.32440741921E+04  0.25948967317E+04 0.  0.
        4    1    3    3  502    0 -0.73761202082E+03  0.97132257071E+03  0.42022582627E+03  0.12900117781E+04  0.12699999809E+01 0.  1.
       -4    1    3    3    0  502  0.73761202082E+03 -0.97132257071E+03  0.15267020913E+04  0.19540624140E+04  0.12699999809E+01 0. -1.
</event>
<event>
 5   0  0.2746631E-06  0.2596624E+04  0.7818609E-02  0.8369349E-01
       -2   -1    0    0    0  501  0.00000000000E+00  0.00000000000E+00  0.12718273824E+04  0.12718273824E+04  0.25500000920E-02 0.  1.
        2   -1    0    0  501    0  0.00000000000E+00  0.00000000000E+00 -0.13253485292E+04  0.13253485292E+04  0.25500000920E-02 0. -1.
    10030    2    1    2    0    0  0.00000000000E+00  0.00000000000E+00 -0.53521146775E+02  0.25971759115E+04  0.25966243861E+04 0.  0.
        2    1    3    3  502    0  0.66730887841E+03  0.48158403792E+03 -0.10311602137E+04  0.13192860611E+04  0.25500000920E-02 0. -1.
       -2    1    3    3    0  502 -0.66730887841E+03 -0.48158403792E+03  0.97763906688E+03  0.12778898504E+04  0.25500000920E-02 0.  1.
</event>
<event>
 5   0  0.1088757E-06  0.2573397E+04  0.7818609E-02  0.8377294E-01
        1   -1    0    0  501    0  0.00000000000E+00  0.00000000000E+00  0.92347787107E+03  0.92347787108E+03  0.50400001928E-02 0.  1.
       -1   -1    0    0    0  501  0.00000000000E+00  0.00000000000E+00 -0.17927809550E+04  0.17927809550E+04  0.50400001928E-02 0. -1.
    10030    2    1    2    0    0  0.00000000000E+00  0.00000000000E+00 -0.86930308395E+03  0.27162588261E+04  0.25733973962E+04 0.  0.
        5    1    3    3  502    0  0.99779758765E+03  0.14458681219E+03 -0.12784469856E+04  0.16281751003E+04  0.46999998093E+01 0. -1.
       -5    1    3    3    0  502 -0.99779758765E+03 -0.14458681219E+03  0.40914390165E+03  0.10880837258E+04  0.46999998093E+01 0.  1.
</event>
<event>
 5   0  0.1055179E-06  0.2594211E+04  0.7818609E-02  0.8370170E-01
        1   -1    0    0  501    0  0.00000000000E+00  0.00000000000E+00  0.73300552023E+03  0.73300552025E+03  0.50400001928E-02 0. -1.
       -1   -1    0    0    0  501  0.00000000000E+00  0.00000000000E+00 -0.22953200537E+04  0.22953200538E+04  0.50400001928E-02 0.  1.
    10030    2    1    2    0    0  0.00000000000E+00  0.00000000000E+00 -0.15623145335E+04  0.30283255740E+04  0.25942106855E+04 0.  0.
        3    1    3    3  502    0 -0.16537509158E+03 -0.43998396969E+03  0.63009216287E+03  0.78609856787E+03  0.10100000352E+00 0. -1.
       -3    1    3    3    0  502  0.16537509158E+03  0.43998396969E+03 -0.21924066964E+04  0.22422270061E+04  0.10100000352E+00 0.  1.
</event>
<event>
 5   0  0.1055179E-06  0.2599083E+04  0.7818609E-02  0.8368513E-01
        1   -1    0    0  501    0  0.00000000000E+00  0.00000000000E+00  0.15398586348E+04  0.15398586348E+04  0.50400001928E-02 0.  1.
       -1   -1    0    0    0  501  0.00000000000E+00  0.00000000000E+00 -0.10967289232E+04  0.10967289232E+04  0.50400001928E-02 0. -1.
    10030    2    1    2    0    0  0.00000000000E+00  0.00000000000E+00  0.44312971163E+03  0.26365875581E+04  0.25990825324E+04 0.  0.
        3    1    3    3  502    0  0.11472491297E+04  0.49421525384E+03 -0.14190448646E+03  0.12572057016E+04  0.10100000352E+00 0.  1.
       -3    1    3    3    0  502 -0.11472491297E+04 -0.49421525384E+03  0.58503419809E+03  0.13793818564E+04  0.10100000352E+00 0. -1.
</event>
<event>
 5   0  0.1122628E-06  0.2596038E+04  0.7818609E-02  0.8369548E-01
        1   -1    0    0  501    0  0.00000000000E+00  0.00000000000E+00  0.16647077422E+04  0.16647077422E+04  0.50400001928E-02 0. -1.
       -1   -1    0    0    0  501  0.00000000000E+00  0.00000000000E+00 -0.10121013643E+04  0.10121013643E+04  0.50400001928E-02 0.  1.
    10030    2    1    2    0    0  0.00000000000E+00  0.00000000000E+00  0.65260637797E+03  0.26768091065E+04  0.25960377324E+04 0.  0.
        2    1    3    3  502    0  0.50727391491E+03  0.74078091254E+03  0.12928968893E+04  0.15740602122E+04  0.25500000920E-02 0. -1.
       -2    1    3    3    0  502 -0.50727391491E+03 -0.74078091254E+03 -0.64029051133E+03  0.11027488944E+04  0.25500000920E-02 0.  1.
</event>
<event>
 5   0  0.2623368E-06  0.2591421E+04  0.7818609E-02  0.8371121E-01
       -2   -1    0    0    0  501  0.00000000000E+00  0.00000000000E+00  0.77930580369E+03  0.77930580369E+03  0.25500000920E-02 0. -1.
        2   -1    0    0  501    0  0.00000000000E+00  0.00000000000E+00 -0.21543099877E+04  0.21543099877E+04  0.25500000920E-02 0.  1.
    10030    2    1    2    0    0  0.00000000000E+00  0.00000000000E+00 -0.13750041840E+04  0.29336157914E+04  0.25914214450E+04 0.  0.
        5    1    3    3  502    0  0.48910513198E+03 -0.66773797059E+03 -0.18160057250E+04  0.19957446507E+04  0.46999998093E+01 0.  1.
       -5    1    3    3    0  502 -0.48910513198E+03  0.66773797059E+03  0.44100154096E+03  0.93787114073E+03  0.46999998093E+01 0. -1.
</event>
<event>
 5   0  0.1100104E-06  0.2596724E+04  0.7818609E-02  0.8369315E-01
        1   -1    0    0  501    0  0.00000000000E+00  0.00000000000E+00  0.28740610120E+04  0.28740610120E+04  0.50400001928E-02 0.  1.
       -1   -1    0    0    0  501  0.00000000000E+00  0.00000000000E+00 -0.58653715798E+03  0.58653715800E+03  0.50400001928E-02 0. -1.
    10030    2    1    2    0    0  0.00000000000E+00  0.00000000000E+00  0.22875238540E+04  0.34605981700E+04  0.25967237650E+04 0.  0.
        4    1    3    3  502    0  0.65147073236E+03 -0.11077111290E+04  0.89693235009E+03  0.15671398514E+04  0.12699999809E+01 0. -1.
       -4    1    3    3    0  502 -0.65147073236E+03  0.11077111290E+04  0.13905915039E+04  0.18934583186E+04  0.12699999809E+01 0.  1.
</event>
<event>
 5   0  0.1055179E-06  0.2599114E+04  0.7818609E-02  0.8368502E-01
        1   -1    0    0  501    0  0.00000000000E+00  0.00000000000E+00  0.95876901639E+03  0.95876901640E+03  0.50400001928E-02 0. -1.
       -1   -1    0    0    0  501  0.00000000000E+00  0.00000000000E+00 -0.17614763944E+04  0.17614763944E+04  0.50400001928E-02 0.  1.
    10030    2    1    2    0    0  0.00000000000E+00  0.00000000000E+00 -0.80270737801E+03  0.27202454108E+04  0.25991144570E+04 0.  0.
        3    1    3    3  502    0 -0.24679362605E+03  0.43036594625E+03 -0.16584679898E+04  0.17310800169E+04  0.10100000352E+00 0.  1.
       -3    1    3    3    0  502  0.24679362605E+03 -0.43036594625E+03  0.85576061180E+03  0.98916539389E+03  0.10100000352E+00 0. -1.
</event>
<event>
 5   0  0.2746631E-06  0.2574868E+04  0.7818609E-02  0.8376788E-01
        2   -1    0    0  501    0  0.00000000000E+00  0.00000000000E+00  0.10624377636E+04  0.10624377636E+04  0.25500000920E-02 0. -1.
       -2   -1    0    0    0  501  0.00000000000E+00  0.00000000000E+00 -0.15600783822E+04  0.15600783822E+04  0.25500000920E-02 0.  1.
    10030    2    1    2    0    0  0.00000000000E+00  0.00000000000E+00 -0.49764061866E+03  0.26225161458E+04  0.25748679092E+04 0.  0.
        2    1    3    3  502    0 -0.10319875825E+04  0.27032292023E+03  0.48521975384E+03  0.11719688823E+04  0.25500000920E-02 0. -1.
       -2    1    3    3    0  502  0.10319875825E+04 -0.27032292023E+03 -0.98286037250E+03  0.14505472635E+04  0.25500000920E-02 0.  1.
</event>
<event>
 5   0  0.1122628E-06  0.2597240E+04  0.7818609E-02  0.8369139E-01
       -1   -1    0    0    0  501  0.00000000000E+00  0.00000000000E+00  0.77578934082E+03  0.77578934084E+03  0.50400001928E-02 0. -1.
        1   -1    0    0  501    0  0.00000000000E+00  0.00000000000E+00 -0.21738039345E+04  0.21738039345E+04  0.50400001928E-02 0.  1.
    10030    2    1    2    0    0  0.00000000000E+00  0.00000000000E+00 -0.13980145936E+04  0.29495932753E+04  0.25972400131E+04 0.  0.
        2    1    3    3  502    0 -0.24954614698E+03 -0.28952027968E+02 -0.21459447817E+04  0.21605995709E+04  0.25500000920E-02 0.  1.
       -2    1    3    3    0  502  0.24954614698E+03  0.28952027968E+02  0.74793018809E+03  0.78899370445E+03  0.25500000920E-02 0. -1.
</event>
<event>
 5   0  0.2623368E-06  0.2601280E+04  0.7818609E-02  0.8367766E-01
       -2   -1    0    0    0  501  0.00000000000E+00  0.00000000000E+00  0.10879670656E+04  0.10879670656E+04  0.25500000920E-02 0.  1.
        2   -1    0    0  501    0  0.00000000000E+00  0.00000000000E+00 -0.15548860867E+04  0.15548860867E+04  0.25500000920E-02 0. -1.
    10030    2    1    2    0    0  0.00000000000E+00  0.00000000000E+00 -0.46691902106E+03  0.26428531523E+04  0.26012803409E+04 0.  0.
        5    1    3    3  502    0  0.73437260806E+03  0.12890990632E+03 -0.13161937445E+04  0.15127157547E+04  0.46999998093E+01 0. -1.
       -5    1    3    3    0  502 -0.73437260806E+03 -0.12890990632E+03  0.84927472346E+03  0.11301373975E+04  0.46999998093E+01 0.  1.
</event>
<event>
 5   0  0.1032076E-06  0.2603372E+04  0.7818609E-02  0.8367057E-01
        1   -1    0    0  501    0  0.00000000000E+00  0.00000000000E+00  0.11889813635E+04  0.11889813635E+04  0.50400001928E-02 0.  1.
       -1   -1    0    0    0  501  0.00000000000E+00  0.00000000000E+00 -0.14250744269E+04  0.14250744269E+04  0.50400001928E-02 0. -1.
    10030    2    1    2    0    0  0.00000000000E+00  0.00000000000E+00 -0.23609306347E+03  0.26140557904E+04  0.26033723784E+04 0.  0.
        1    1    3    3  502    0  0.92078322332E+03  0.41244025212E+02  0.80487940870E+03  0.12236722096E+04  0.50400001928E-02 0.  1.
       -1    1    3    3    0  502 -0.92078322332E+03 -0.41244025212E+02 -0.10409724722E+04  0.13903835808E+04  0.50400001928E-02 0. -1.
</event>
<event>
 5   0  0.2820028E-06  0.2598181E+04  0.7818609E-02  0.8368819E-01
        2   -1    0    0  501    0  0.00000000000E+00  0.00000000000E+00  0.13139273813E+04  0.13139273813E+04  0.25500000920E-02 0. -1.
       -2   -1    0    0    0  501  0.00000000000E+00  0.00000000000E+00 -0.12844208138E+04  0.12844208138E+04  0.25500000920E-02 0.  1.
    10030    2    1    2    0    0  0.00000000000E+00  0.00000000000E+00  0.29506567556E+02  0.25983481951E+04  0.25981806530E+04 0.  0.
        3    1    3    3  502    0 -0.96683492563E+03 -0.17469342619E+03  0.86471873190E+03  0.13088262154E+04  0.10100000352E+00 0. -1.
       -3    1    3    3    0  502  0.96683492563E+03  0.17469342619E+03 -0.83521216435E+03  0.12895219797E+04  0.10100000352E+00 0.  1.
</event>
<event>
 5   0  0.2623368E-06  0.2603083E+04  0.7818609E-02  0.8367155E-01
        2   -1    0    0  501    0  0.00000000000E+00  0.00000000000E+00  0.14785655118E+04  0.14785655118E+04  0.25500000920E-02 0. -1.
       -2   -1    0    0    0  501  0.00000000000E+00  0.00000000000E+00 -0.11457122492E+04  0.11457122492E+04  0.25500000920E-02 0.  1.
    10030    2    1    2    0    0  0.00000000000E+00  0.00000000000E+00  0.33285326263E+03  0.26242777609E+04  0.26030832626E+04 0.  0.
        5    1    3    3  502    0 -0.29872042374E+03 -0.11232495788E+04 -0.42405985046E+03  0.12372438541E+04  0.46999998093E+01 0.  1.
       -5    1    3    3    0  502  0.29872042374E+03  0.11232495788E+04  0.75691311308E+03  0.13870339068E+04  0.46999998093E+01 0. -1.
</event>
<event>
 5   0  0.1032076E-06  0.2603045E+04  0.7818609E-02  0.8367167E-01
       -1   -1    0    0    0  501  0.00000000000E+00  0.00000000000E+00  0.11158839671E+04  0.11158839671E+04  0.50400001928E-02 0. -1.
        1   -1    0    0  501    0  0.00000000000E+00  0.00000000000E+00 -0.15180443409E+04  0.15180443409E+04  0.50400001928E-02 0.  1.
    10030    2    1    2    0    0  0.00000000000E+00  0.00000000000E+00 -0.40216037382E+03  0.26339283080E+04  0.26030454021E+04 0.  0.
        1    1    3    3  502    0  0.11188654847E+03  0.65908942509E+03 -0.13310401947E+04  0.14894916817E+04  0.50400001928E-02 0.  1.
       -1    1    3    3    0  502 -0.11188654847E+03 -0.65908942509E+03  0.92887982088E+03  0.11444366263E+04  0.50400001928E-02 0. -1.
</event>
<event>
 5   0  0.2746631E-06  0.2595429E+04  0.7818609E-02  0.8369756E-01
       -2   -1    0    0    0  501  0.00000000000E+00  0.00000000000E+00  0.15001119982E+04  0.15001119983E+04  0.25500000920E-02 0. -1.
        2   -1    0    0  501    0  0.00000000000E+00  0.00000000000E+00 -0.11226248225E+04  0.11226248225E+04  0.25500000920E-02 0.  1.
    10030    2    1    2    0    0  0.00000000000E+00  0.00000000000E+00  0.37748717578E+03  0.26227368207E+04  0.25954290325E+04 0.  0.
        2    1    3    3  502    0 -0.12292087627E+04 -0.30433297220E+03  0.47543661290E+03  0.13526317729E+04  0.25500000920E-02 0. -1.
       -2    1    3    3    0  502  0.12292087627E+04  0.30433297220E+03 -0.97949437125E+02  0.12701050478E+04  0.25500000920E-02 0.  1.
</event>
<event>
 5   0  0.2623368E-06  0.2603531E+04  0.7818609E-02  0.8367003E-01
       -2   -1    0    0    0  501  0.00000000000E+00  0.00000000000E+00  0.10572835015E+04  0.10572835015E+04  0.25500000920E-02 0. -1.
        2   -1    0    0  501    0  0.00000000000E+00  0.00000000000E+00 -0.16027803159E+04  0.16027803159E+04  0.25500000920E-02 0.  1.
    10030    2    1    2    0    0  0.00000000000E+00  0.00000000000E+00 -0.54549681439E+03  0.26600638174E+04  0.26035308215E+04 0.  0.
        5    1    3    3  502    0 -0.28673633914E+02  0.91569398125E+03  0.67213179601E+03  0.11362662038E+04  0.46999998093E+01 0. -1.
       -5    1    3    3    0  502  0.28673633914E+02 -0.91569398125E+03 -0.12176286104E+04  0.15237976137E+04  0.46999998093E+01 0.  1.
</event>
<event>
 5   0  0.1122628E-06  0.2604223E+04  0.7818609E-02  0.8366768E-01
       -1   -1    0    0    0  501  0.00000000000E+00  0.00000000000E+00  0.62933777497E+03  0.62933777499E+03  0.50400001928E-02 0. -1.
        1   -1    0    0  501    0  0.00000000000E+00  0.00000000000E+00 -0.26940922445E+04  0.26940922445E+04  0.50400001928E-02 0.  1.
    10030    2    1    2    0    0  0.00000000000E+00  0.00000000000E+00 -0.20647544695E+04  0.33234300195E+04  0.26042227391E+04 0.  0.
        2    1    3    3  502    0 -0.28670995305E+03 -0.16385691036E+03  0.57501015540E+03  0.66309001129E+03  0.25500000920E-02 0. -1.
       -2    1    3    3    0  502  0.28670995305E+03  0.16385691036E+03 -0.26397646249E+04  0.26603400082E+04  0.25500000920E-02 0.  1.
</event>
<event>
 5   0  0.2623368E-06  0.2600047E+04  0.7818609E-02  0.8368185E-01
        2   -1    0    0  501    0  0.00000000000E+00  0.00000000000E+00  0.24798061185E+04  0.24798061185E+04  0.25500000920E-02 0. -1.
       -2   -1    0    0    0  501  0.00000000000E+00  0.00000000000E+00 -0.68152932463E+03  0.68152932464E+03  0.25500000920E-02 0.  1.
    10030    2    1    2    0    0  0.00000000000E+00  0.00000000000E+00  0.17982767939E+04  0.31613354432E+04  0.26000466067E+04 0.  0.
        5    1    3    3  502    0 -0.27745814686E+03 -0.71888001375E+02 -0.64262343248E+03  0.70366033992E+03  0.46999998093E+01 0.  1.
       -5    1    3    3    0  502  0.27745814686E+03  0.71888001375E+02  0.24409002264E+04  0.24576751033E+04  0.46999998093E+01 0. -1.
</event>
<event>
 5   0  0.1100104E-06  0.2560649E+04  0.7818609E-02  0.8381692E-01
        1   -1    0    0  501    0  0.00000000000E+00  0.00000000000E+00  0.15717628047E+04  0.15717628047E+04  0.50400001928E-02 0. -1.
       -1   -1    0    0    0  501  0.00000000000E+00  0.00000000000E+00 -0.10429253975E+04  0.10429253975E+04  0.50400001928E-02 0.  1.
    10030    2    1    2    0    0  0.00000000000E+00  0.00000000000E+00  0.52883740719E+03  0.26146882022E+04  0.25606494082E+04 0.  0.
        4    1    3    3  502    0 -0.78935946698E+03  0.37222079280E+03  0.12209878602E+04  0.15008163293E+04  0.12699999809E+01 0. -1.
       -4    1    3    3    0  502  0.78935946698E+03 -0.37222079280E+03 -0.69215045301E+03  0.11138718729E+04  0.12699999809E+01 0.  1.
</event>
<event>
 5   0  0.1088757E-06  0.2600615E+04  0.7818609E-02  0.8367992E-01
       -1   -1    0    0    0  501  0.00000000000E+00  0.00000000000E+00  0.10252967868E+04  0.10252967868E+04  0.50400001928E-02 0.  1.
        1   -1    0    0  501    0  0.00000000000E+00  0.00000000000E+00 -0.16490836137E+04  0.16490836137E+04  0.50400001928E-02 0. -1.
    10030    2    1    2    0    0  0.00000000000E+00  0.00000000000E+00 -0.62378682686E+03  0.26743804005E+04  0.26006154120E+04 0.  0.
        5    1    3    3  502    0  0.84020056981E+03  0.38534084138E+03  0.62857016823E+03  0.11178314309E+04  0.46999998093E+01 0.  1.
       -5    1    3    3    0  502 -0.84020056981E+03 -0.38534084138E+03 -0.12523569951E+04  0.15565489696E+04  0.46999998093E+01 0. -1.
</event>
<event>
 5   0  0.1088757E-06  0.2596934E+04  0.7818609E-02  0.8369244E-01
        1   -1    0    0  501    0  0.00000000000E+00  0.00000000000E+00  0.12277159915E+04  0.12277159915E+04  0.50400001928E-02 0.  1.
       -1   -1    0    0    0  501  0.00000000000E+00  0.00000000000E+00 -0.13732947787E+04  0.13732947787E+04  0.50400001928E-02 0. -1.
    10030    2    1    2    0    0  0.00000000000E+00  0.00000000000E+00 -0.14557878722E+03  0.26010107702E+04  0.25969335462E+04 0.  0.
        5    1    3    3  502    0  0.11669929036E+04  0.22779807396E+03  0.44978591293E+03  0.12712568021E+04  0.46999998093E+01 0.  1.
       -5    1    3    3    0  502 -0.11669929036E+04 -0.22779807396E+03 -0.59536470016E+03  0.13297539681E+04  0.46999998093E+01 0. -1.
</event>
<event>
 5   0  0.9197000E-07  0.2607026E+04  0.7818609E-02  0.8365819E-01
        3   -1    0    0  501    0  0.00000000000E+00  0.00000000000E+00  0.16218593873E+04  0.16218593905E+04  0.10100000352E+00 0. -1.
       -3   -1    0    0    0  501  0.00000000000E+00  0.00000000000E+00 -0.10476531908E+04  0.10476531957E+04  0.10100000352E+00 0.  1.
    10030    2    1    2    0    0  0.00000000000E+00  0.00000000000E+00  0.57420619647E+03  0.26695125862E+04  0.26070260243E+04 0.  0.
        2    1    3    3  502    0  0.79357603486E+03  0.69295315597E+03 -0.49888807840E+03  0.11656913460E+04  0.25500000920E-02 0.  1.
       -2    1    3    3    0  502 -0.79357603486E+03 -0.69295315597E+03  0.10730942749E+04  0.15038212401E+04  0.25500000920E-02 0. -1.
</event>
<event>
 5   0  0.2820028E-06  0.2624907E+04  0.7818609E-02  0.8359790E-01
       -2   -1    0    0    0  501  0.00000000000E+00  0.00000000000E+00  0.12117468213E+04  0.12117468213E+04  0.25500000920E-02 0.  1.
        2   -1    0    0  501    0  0.00000000000E+00  0.00000000000E+00 -0.14215301782E+04  0.14215301782E+04  0.25500000920E-02 0. -1.
    10030    2    1    2    0    0  0.00000000000E+00  0.00000000000E+00 -0.20978335687E+03  0.26332769996E+04  0.26249073697E+04 0.  0.
        3    1    3    3  502    0  0.34941173534E+03  0.13223567741E+03 -0.13670606821E+04  0.14171907966E+04  0.10100000352E+00 0. -1.
       -3    1    3    3    0  502 -0.34941173534E+03 -0.13223567741E+03  0.11572773253E+04  0.12160862029E+04  0.10100000352E+00 0.  1.
</event>
<event>
 5   0  0.1088757E-06  0.2602319E+04  0.7818609E-02  0.8367414E-01
        1   -1    0    0  501    0  0.00000000000E+00  0.00000000000E+00  0.18276874336E+04  0.18276874336E+04  0.50400001928E-02 0. -1.
       -1   -1    0    0    0  501  0.00000000000E+00  0.00000000000E+00 -0.92631601297E+03  0.92631601299E+03  0.50400001928E-02 0.  1.
    10030    2    1    2    0    0  0.00000000000E+00  0.00000000000E+00  0.90137142064E+03  0.27540034466E+04  0.26023190707E+04 0.  0.
        5    1    3    3  502    0  0.16720661571E+03 -0.10353063710E+04  0.12657577237E+04  0.16437706773E+04  0.46999998093E+01 0. -1.
       -5    1    3    3    0  502 -0.16720661571E+03  0.10353063710E+04 -0.36438630308E+03  0.11102327693E+04  0.46999998093E+01 0.  1.
</event>
<event>
 5   0  0.1088757E-06  0.2600511E+04  0.7818609E-02  0.8368027E-01
       -1   -1    0    0    0  501  0.00000000000E+00  0.00000000000E+00  0.16066221670E+04  0.16066221670E+04  0.50400001928E-02 0. -1.
        1   -1    0    0  501    0  0.00000000000E+00  0.00000000000E+00 -0.10523102385E+04  0.10523102385E+04  0.50400001928E-02 0.  1.
    10030    2    1    2    0    0  0.00000000000E+00  0.00000000000E+00  0.55431192850E+03  0.26589324056E+04  0.26005114542E+04 0.  0.
        5    1    3    3  502    0 -0.71250954848E+03  0.28209836820E+03 -0.79686742825E+03  0.11055628133E+04  0.46999998093E+01 0.  1.
       -5    1    3    3    0  502  0.71250954848E+03 -0.28209836820E+03  0.13511793568E+04  0.15533695923E+04  0.46999998093E+01 0. -1.
</event>
<event>
 5   0  0.2820028E-06  0.2623488E+04  0.7818609E-02  0.8360266E-01
        2   -1    0    0  501    0  0.00000000000E+00  0.00000000000E+00  0.11717030553E+04  0.11717030553E+04  0.25500000920E-02 0. -1.
       -2   -1    0    0    0  501  0.00000000000E+00  0.00000000000E+00 -0.14685224058E+04  0.14685224058E+04  0.25500000920E-02 0.  1.
    10030    2    1    2    0    0  0.00000000000E+00  0.00000000000E+00 -0.29681935046E+03  0.26402254611E+04  0.26234878995E+04 0.  0.
        3    1    3    3  502    0  0.11162787631E+04  0.59872370701E+03  0.19453385641E+03  0.12815583427E+04  0.10100000352E+00 0. -1.
       -3    1    3    3    0  502 -0.11162787631E+04 -0.59872370701E+03 -0.49135320687E+03  0.13586671183E+04  0.10100000352E+00 0.  1.
</event>
<event>
 5   0  0.2586775E-06  0.2605766E+04  0.7818609E-02  0.8366245E-01
       -2   -1    0    0    0  501  0.00000000000E+00  0.00000000000E+00  0.85665662709E+03  0.85665662710E+03  0.25500000920E-02 0. -1.
        2   -1    0    0  501    0  0.00000000000E+00  0.00000000000E+00 -0.19815455006E+04  0.19815455007E+04  0.25500000920E-02 0.  1.
    10030    2    1    2    0    0  0.00000000000E+00  0.00000000000E+00 -0.11248888736E+04  0.28382021277E+04  0.26057659795E+04 0.  0.
        1    1    3    3  502    0 -0.75234014670E+03 -0.10164971909E+04 -0.22108495911E+03  0.12838071486E+04  0.50400001928E-02 0.  1.
       -1    1    3    3    0  502  0.75234014670E+03  0.10164971909E+04 -0.90380391444E+03  0.15543949792E+04  0.50400001928E-02 0. -1.
</event>
<event>
 5   0  0.2705807E-06  0.2597903E+04  0.7818609E-02  0.8368914E-01
       -2   -1    0    0    0  501  0.00000000000E+00  0.00000000000E+00  0.16483768677E+04  0.16483768677E+04  0.25500000920E-02 0.  1.
        2   -1    0    0  501    0  0.00000000000E+00  0.00000000000E+00 -0.10235979093E+04  0.10235979093E+04  0.25500000920E-02 0. -1.
    10030    2    1    2    0    0  0.00000000000E+00  0.00000000000E+00  0.62477895842E+03  0.26719747770E+04  0.25979030894E+04 0.  0.
        4    1    3    3  502    0  0.10458366839E+04  0.59992534503E+03  0.80947983266E+03  0.14522203694E+04  0.12699999809E+01 0.  1.
       -4    1    3    3    0  502 -0.10458366839E+04 -0.59992534503E+03 -0.18470087425E+03  0.12197544076E+04  0.12699999809E+01 0. -1.
</event>
<event>
 5   0  0.1122628E-06  0.2611174E+04  0.7818609E-02  0.8364416E-01
       -1   -1    0    0    0  501  0.00000000000E+00  0.00000000000E+00  0.16079158954E+04  0.16079158954E+04  0.50400001928E-02 0. -1.
        1   -1    0    0  501    0  0.00000000000E+00  0.00000000000E+00 -0.10601032980E+04  0.10601032980E+04  0.50400001928E-02 0.  1.
    10030    2    1    2    0    0  0.00000000000E+00  0.00000000000E+00  0.54781259744E+03  0.26680191934E+04  0.26111736393E+04 0.  0.
        2    1    3    3  502    0 -0.12304409812E+04 -0.69431847183E+02  0.71427754790E+03  0.14244290804E+04  0.25500000920E-02 0. -1.
       -2    1    3    3    0  502  0.12304409812E+04  0.69431847183E+02 -0.16646495046E+03  0.12435901131E+04  0.25500000920E-02 0.  1.
</event>
<event>
 5   0  0.2623368E-06  0.2597143E+04  0.7818609E-02  0.8369172E-01
       -2   -1    0    0    0  501  0.00000000000E+00  0.00000000000E+00  0.14311377549E+04  0.14311377549E+04  0.25500000920E-02 0.  1.
        2   -1    0    0  501    0  0.00000000000E+00  0.00000000000E+00 -0.11782847444E+04  0.11782847444E+04  0.25500000920E-02 0. -1.
    10030    2    1    2    0    0  0.00000000000E+00  0.00000000000E+00  0.25285301046E+03  0.26094224993E+04  0.25971428792E+04 0.  0.
        5    1    3    3  502    0  0.39972974446E+03  0.11578240630E+04  0.55965574822E+03  0.13466911584E+04  0.46999998093E+01 0.  1.
       -5    1    3    3    0  502 -0.39972974446E+03 -0.11578240630E+04 -0.30680273776E+03  0.12627313409E+04  0.46999998093E+01 0. -1.
</event>
<event>
 5   0  0.1100104E-06  0.2599059E+04  0.7818609E-02  0.8368521E-01
       -1   -1    0    0    0  501  0.00000000000E+00  0.00000000000E+00  0.99546954814E+03  0.99546954815E+03  0.50400001928E-02 0. -1.
        1   -1    0    0  501    0  0.00000000000E+00  0.00000000000E+00 -0.16964626145E+04  0.16964626145E+04  0.50400001928E-02 0.  1.
    10030    2    1    2    0    0  0.00000000000E+00  0.00000000000E+00 -0.70099306637E+03  0.26919321627E+04  0.25990589623E+04 0.  0.
        4    1    3    3  502    0  0.48898277791E+03  0.21986983056E+02  0.89634222875E+03  0.10212828151E+04  0.12699999809E+01 0. -1.
       -4    1    3    3    0  502 -0.48898277791E+03 -0.21986983056E+02 -0.15973352951E+04  0.16706493475E+04  0.12699999809E+01 0.  1.
</event>
<event>
 5   0  0.2586775E-06  0.2598642E+04  0.7818609E-02  0.8368663E-01
       -2   -1    0    0    0  501  0.00000000000E+00  0.00000000000E+00  0.84236358455E+03  0.84236358456E+03  0.25500000920E-02 0.  1.
        2   -1    0    0  501    0  0.00000000000E+00  0.00000000000E+00 -0.20041640682E+04  0.20041640682E+04  0.25500000920E-02 0. -1.
    10030    2    1    2    0    0  0.00000000000E+00  0.00000000000E+00 -0.11618004836E+04  0.28465276527E+04  0.25986418210E+04 0.  0.
        1    1    3    3  502    0 -0.88003412666E+03 -0.13461478204E+03  0.45576617024E+03  0.10001519912E+04  0.50400001928E-02 0.  1.
       -1    1    3    3    0  502  0.88003412666E+03  0.13461478204E+03 -0.16175666539E+04  0.18463756615E+04  0.50400001928E-02 0. -1.
</event>
<event>
 5   0  0.2623368E-06  0.2601364E+04  0.7818609E-02  0.8367738E-01
       -2   -1    0    0    0  501  0.00000000000E+00  0.00000000000E+00  0.21617299566E+04  0.21617299566E+04  0.25500000920E-02 0. -1.
        2   -1    0    0  501    0  0.00000000000E+00  0.00000000000E+00 -0.78260155527E+03  0.78260155527E+03  0.25500000920E-02 0.  1.
    10030    2    1    2    0    0  0.00000000000E+00  0.00000000000E+00  0.13791284014E+04  0.29443315119E+04  0.26013636625E+04 0.  0.
        5    1    3    3  502    0 -0.59659188933E+03 -0.10961214881E+04  0.27470615008E+03  0.12778457489E+04  0.46999998093E+01 0.  1.
       -5    1    3    3    0  502  0.59659188933E+03  0.10961214881E+04  0.11044222513E+04  0.16664857630E+04  0.46999998093E+01 0. -1.
</event>
<event>
 5   0  0.2746631E-06  0.2599333E+04  0.7818609E-02  0.8368428E-01
       -2   -1    0    0    0  501  0.00000000000E+00  0.00000000000E+00  0.15914661572E+04  0.15914661572E+04  0.25500000920E-02 0. -1.
        2   -1    0    0  501    0  0.00000000000E+00  0.00000000000E+00 -0.10613692173E+04  0.10613692173E+04  0.25500000920E-02 0.  1.
    10030    2    1    2    0    0  0.00000000000E+00  0.00000000000E+00  0.53009693989E+03  0.26528353744E+04  0.25993331372E+04 0.  0.
        2    1    3    3  502    0 -0.29145592080E+03  0.40528110534E+03  0.14897200200E+04  0.15711349612E+04  0.25500000920E-02 0. -1.
       -2    1    3    3    0  502  0.29145592080E+03 -0.40528110534E+03 -0.95962308013E+03  0.10817004133E+04  0.25500000920E-02 0.  1.
</event>
<event>
 5   0  0.1032076E-06  0.2603274E+04  0.7818609E-02  0.8367090E-01
       -1   -1    0    0    0  501  0.00000000000E+00  0.00000000000E+00  0.60982418437E+03  0.60982418440E+03  0.50400001928E-02 0.  1.
        1   -1    0    0  501    0  0.00000000000E+00  0.00000000000E+00 -0.27782739460E+04  0.27782739460E+04  0.50400001928E-02 0. -1.
    10030    2    1    2    0    0  0.00000000000E+00  0.00000000000E+00 -0.21684497616E+04  0.33880981304E+04  0.26032738182E+04 0.  0.
        1    1    3    3  502    0 -0.55977160315E+02 -0.47629534612E+03 -0.26591010351E+04  0.27020009278E+04  0.50400001928E-02 0. -1.
       -1    1    3    3    0  502  0.55977160315E+02  0.47629534612E+03  0.49065127345E+03  0.68609720257E+03  0.50400001928E-02 0.  1.
</event>
<event>
 5   0  0.1100104E-06  0.2600881E+04  0.7818609E-02  0.8367902E-01
        1   -1    0    0  501    0  0.00000000000E+00  0.00000000000E+00  0.14960986386E+04  0.14960986386E+04  0.50400001928E-02 0.  1.
       -1   -1    0    0    0  501  0.00000000000E+00  0.00000000000E+00 -0.11303704073E+04  0.11303704073E+04  0.50400001928E-02 0. -1.
    10030    2    1    2    0    0  0.00000000000E+00  0.00000000000E+00  0.36572823133E+03  0.26264690459E+04  0.26008811026E+04 0.  0.
        4    1    3    3  502    0  0.87719334529E+03 -0.21254771808E+03  0.11282901963E+04  0.14448823750E+04  0.12699999809E+01 0.  1.
       -4    1    3    3    0  502 -0.87719334529E+03  0.21254771808E+03 -0.76256196499E+03  0.11815866709E+04  0.12699999809E+01 0. -1.
</event>
<event>
 5   0  0.2746631E-06  0.2598168E+04  0.7818609E-02  0.8368824E-01
       -2   -1    0    0    0  501  0.00000000000E+00  0.00000000000E+00  0.11652830394E+04  0.11652830394E+04  0.25500000920E-02 0. -1.
        2   -1    0    0  501    0  0.00000000000E+00  0.00000000000E+00 -0.14482487913E+04  0.14482487913E+04  0.25500000920E-02 0.  1.
    10030    2    1    2    0    0  0.00000000000E+00  0.00000000000E+00 -0.28296575192E+03  0.26135318307E+04  0.25981683958E+04 0.  0.
        2    1    3    3  502    0  0.12738699459E+04 -0.23782454861E+02 -0.39657561382E+03  0.13343846753E+04  0.25500000920E-02 0. -1.
       -2    1    3    3    0  502 -0.12738699459E+04  0.23782454861E+02  0.11360986191E+03  0.12791471553E+04  0.25500000920E-02 0.  1.
</event>
<event>
 5   0  0.2623368E-06  0.2637681E+04  0.7818609E-02  0.8355513E-01
        2   -1    0    0  501    0  0.00000000000E+00  0.00000000000E+00  0.25814774340E+04  0.25814774340E+04  0.25500000920E-02 0.  1.
       -2   -1    0    0    0  501  0.00000000000E+00  0.00000000000E+00 -0.67377691644E+03  0.67377691645E+03  0.25500000920E-02 0. -1.
    10030    2    1    2    0    0  0.00000000000E+00  0.00000000000E+00  0.19077005175E+04  0.32552543504E+04  0.26376807277E+04 0.  0.
        5    1    3    3  502    0 -0.21882543905E+03 -0.43510858449E+03  0.24664154940E+04  0.25140468437E+04  0.46999998093E+01 0.  1.
       -5    1    3    3    0  502  0.21882543905E+03  0.43510858449E+03 -0.55871497650E+03  0.74120750673E+03  0.46999998093E+01 0. -1.
</event>
<event>
 5   0  0.1100104E-06  0.2598899E+04  0.7818609E-02  0.8368575E-01
       -1   -1    0    0    0  501  0.00000000000E+00  0.00000000000E+00  0.10763878707E+04  0.10763878708E+04  0.50400001928E-02 0.  1.
        1   -1    0    0  501    0  0.00000000000E+00  0.00000000000E+00 -0.15687360792E+04  0.15687360792E+04  0.50400001928E-02 0. -1.
    10030    2    1    2    0    0  0.00000000000E+00  0.00000000000E+00 -0.49234820845E+03  0.26451239500E+04  0.25988986037E+04 0.  0.
        4    1    3    3  502    0 -0.86397062288E+03 -0.55737534306E+03  0.56260081849E+03  0.11720212473E+04  0.12699999809E+01 0.  1.
       -4    1    3    3    0  502  0.86397062288E+03  0.55737534306E+03 -0.10549490269E+04  0.14731027027E+04  0.12699999809E+01 0. -1.
</event>
<event>
 5   0  0.1122628E-06  0.2602756E+04  0.7818609E-02  0.8367266E-01
       -1   -1    0    0    0  501  0.00000000000E+00  0.00000000000E+00  0.13866234535E+04  0.13866234536E+04  0.50400001928E-02 0.  1.
        1   -1    0    0  501    0  0.00000000000E+00  0.00000000000E+00 -0.12213730113E+04  0.12213730113E+04  0.50400001928E-02 0. -1.
    10030    2    1    2    0    0  0.00000000000E+00  0.00000000000E+00  0.16525044228E+03  0.26079964648E+04  0.26027558187E+04 0.  0.
        2    1    3    3  502    0 -0.54978288620E+03  0.41152932411E+03 -0.10250266504E+04  0.12338141029E+04  0.25500000920E-02 0. -1.
       -2    1    3    3    0  502  0.54978288620E+03 -0.41152932411E+03  0.11902770926E+04  0.13741823619E+04  0.25500000920E-02 0.  1.
</event>
<event>
 5   0  0.2705807E-06  0.2598261E+04  0.7818609E-02  0.8368792E-01
        2   -1    0    0  501    0  0.00000000000E+00  0.00000000000E+00  0.10264150602E+04  0.10264150602E+04  0.25500000920E-02 0. -1.
       -2   -1    0    0    0  501  0.00000000000E+00  0.00000000000E+00 -0.16443054809E+04  0.16443054809E+04  0.25500000920E-02 0.  1.
    10030    2    1    2    0    0  0.00000000000E+00  0.00000000000E+00 -0.61789042063E+03  0.26707205411E+04  0.25982608870E+04 0.  0.
        4    1    3    3  502    0  0.49534116067E+03  0.10335755497E+04  0.31974661260E+03  0.11899078921E+04  0.12699999809E+01 0. -1.
       -4    1    3    3    0  502 -0.49534116067E+03 -0.10335755497E+04 -0.93763703323E+03  0.14808126490E+04  0.12699999809E+01 0.  1.
</event>
<event>
 5   0  0.1088757E-06  0.2601153E+04  0.7818609E-02  0.8367810E-01
        1   -1    0    0  501    0  0.00000000000E+00  0.00000000000E+00  0.21252401004E+04  0.21252401004E+04  0.50400001928E-02 0. -1.
       -1   -1    0    0    0  501  0.00000000000E+00  0.00000000000E+00 -0.79590962887E+03  0.79590962889E+03  0.50400001928E-02 0.  1.
    10030    2    1    2    0    0  0.00000000000E+00  0.00000000000E+00  0.13293304715E+04  0.29211497293E+04  0.26011528672E+04 0.  0.
        5    1    3    3  502    0  0.57057110289E+02 -0.60874804809E+03 -0.62443748611E+03  0.87394162502E+03  0.46999998093E+01 0.  1.
       -5    1    3    3    0  502 -0.57057110289E+02  0.60874804809E+03  0.19537679576E+04  0.20472081043E+04  0.46999998093E+01 0. -1.
</event>
<event>
 5   0  0.2705807E-06  0.2600201E+04  0.7818609E-02  0.8368133E-01
        2   -1    0    0  501    0  0.00000000000E+00  0.00000000000E+00  0.19074808267E+04  0.19074808267E+04  0.25500000920E-02 0. -1.
       -2   -1    0    0    0  501  0.00000000000E+00  0.00000000000E+00 -0.88612211371E+03  0.88612211371E+03  0.25500000920E-02 0.  1.
    10030    2    1    2    0    0  0.00000000000E+00  0.00000000000E+00  0.10213587129E+04  0.27936029404E+04  0.26002007168E+04 0.  0.
        4    1    3    3  502    0  0.38839757020E+03  0.88313023966E+03  0.14469861180E+04  0.17391210801E+04  0.12699999809E+01 0. -1.
       -4    1    3    3    0  502 -0.38839757020E+03 -0.88313023966E+03 -0.42562740505E+03  0.10544818602E+04  0.12699999809E+01 0.  1.
</event>
<event>
 5   0  0.2705807E-06  0.2598151E+04  0.7818609E-02  0.8368829E-01
       -2   -1    0    0    0  501  0.00000000000E+00  0.00000000000E+00  0.12319252697E+04  0.12319252697E+04  0.25500000920E-02 0. -1.
        2   -1    0    0  501    0  0.00000000000E+00  0.00000000000E+00 -0.13698861616E+04  0.13698861616E+04  0.25500000920E-02 0.  1.
    10030    2    1    2    0    0  0.00000000000E+00  0.00000000000E+00 -0.13796089187E+03  0.26018114313E+04  0.25981511727E+04 0.  0.
        4    1    3    3  502    0  0.57430741304E+03 -0.53793415599E+03 -0.11040678905E+04  0.13557911640E+04  0.12699999809E+01 0.  1.
       -4    1    3    3    0  502 -0.57430741304E+03  0.53793415599E+03  0.96610699858E+03  0.12460202673E+04  0.12699999809E+01 0. -1.
</event>
<event>
 5   0  0.2820028E-06  0.2599623E+04  0.7818609E-02  0.8368329E-01
       -2   -1    0    0    0  501  0.00000000000E+00  0.00000000000E+00  0.11938567859E+04  0.11938567859E+04  0.25500000920E-02 0. -1.
        2   -1    0    0  501    0  0.00000000000E+00  0.00000000000E+00 -0.14151697602E+04  0.14151697602E+04  0.25500000920E-02 0.  1.
    10030    2    1    2    0    0  0.00000000000E+00  0.00000000000E+00 -0.22131297432E+03  0.26090265460E+04  0.25996230660E+04 0.  0.
        3    1    3    3  502    0  0.16310273635E+03  0.32842305278E+03 -0.13621820063E+04  0.14106750273E+04  0.10100000352E+00 0.  1.
       -3    1    3    3    0  502 -0.16310273635E+03 -0.32842305278E+03  0.11408690320E+04  0.11983515187E+04  0.10100000352E+00 0. -1.
</event>
<event>
 5   0  0.1122628E-06  0.2596205E+04  0.7818609E-02  0.8369491E-01
        1   -1    0    0  501    0  0.00000000000E+00  0.00000000000E+00  0.19463353870E+04  0.19463353871E+04  0.50400001928E-02 0.  1.
       -1   -1    0    0    0  501  0.00000000000E+00  0.00000000000E+00 -0.86576538673E+03  0.86576538674E+03  0.50400001928E-02 0. -1.
    10030    2    1    2    0    0  0.00000000000E+00  0.00000000000E+00  0.10805700003E+04  0.28121007738E+04  0.25962047755E+04 0.  0.
        2    1    3    3  502    0  0.30887133689E+03 -0.19695959834E+03  0.18891868937E+04  0.19243756664E+04  0.25500000920E-02 0.  1.
       -2    1    3    3    0  502 -0.30887133689E+03  0.19695959834E+03 -0.80861689335E+03  0.88772510742E+03  0.25500000920E-02 0. -1.
</event>
<event>
 5   0  0.1032076E-06  0.2592771E+04  0.7818609E-02  0.8370661E-01
       -1   -1    0    0    0  501  0.00000000000E+00  0.00000000000E+00  0.11675388225E+04  0.11675388225E+04  0.50400001928E-02 0. -1.
        1   -1    0    0  501    0  0.00000000000E+00  0.00000000000E+00 -0.14394511019E+04  0.14394511019E+04  0.50400001928E-02 0.  1.
    10030    2    1    2    0    0  0.00000000000E+00  0.00000000000E+00 -0.27191227941E+03  0.26069899244E+04  0.25927707531E+04 0.  0.
        1    1    3    3  502    0 -0.78404558317E+03  0.98768104135E+03  0.16631475657E+03  0.12719677332E+04  0.50400001928E-02 0. -1.
       -1    1    3    3    0  502  0.78404558317E+03 -0.98768104135E+03 -0.43822703598E+03  0.13350221912E+04  0.50400001928E-02 0.  1.
</event>
<event>
 5   0  0.1088757E-06  0.2600162E+04  0.7818609E-02  0.8368146E-01
       -1   -1    0    0    0  501  0.00000000000E+00  0.00000000000E+00  0.81395884811E+03  0.81395884813E+03  0.50400001928E-02 0.  1.
        1   -1    0    0  501    0  0.00000000000E+00  0.00000000000E+00 -0.20765314283E+04  0.20765314283E+04  0.50400001928E-02 0. -1.
    10030    2    1    2    0    0  0.00000000000E+00  0.00000000000E+00 -0.12625725802E+04  0.28904902764E+04  0.26001624022E+04 0.  0.
        5    1    3    3  502    0  0.45195223307E+03  0.63190975004E+02 -0.19845599650E+04  0.20363580886E+04  0.46999998093E+01 0. -1.
       -5    1    3    3    0  502 -0.45195223307E+03 -0.63190975004E+02  0.72198738487E+03  0.85413218778E+03  0.46999998093E+01 0.  1.
</event>
<event>
 5   0  0.2586775E-06  0.2604340E+04  0.7818609E-02  0.8366729E-01
        2   -1    0    0  501    0  0.00000000000E+00  0.00000000000E+00  0.17164286184E+04  0.17164286184E+04  0.25500000920E-02 0.  1.
       -2   -1    0    0    0  501  0.00000000000E+00  0.00000000000E+00 -0.98789201835E+03  0.98789201836E+03  0.25500000920E-02 0. -1.
    10030    2    1    2    0    0  0.00000000000E+00  0.00000000000E+00  0.72853660003E+03  0.27043206367E+04  0.26043395571E+04 0.  0.
        1    1    3    3  502    0 -0.96659017099E+02  0.26912462309E+03  0.16834224129E+04  0.17075368367E+04  0.50400001928E-02 0.  1.
       -1    1    3    3    0  502  0.96659017099E+02 -0.26912462309E+03 -0.95488581289E+03  0.99678380004E+03  0.50400001928E-02 0. -1.
</event>
<event>
 5   0  0.2623368E-06  0.2600551E+04  0.7818609E-02  0.8368014E-01
       -2   -1    0    0    0  501  0.00000000000E+00  0.00000000000E+00  0.76970628489E+03  0.76970628490E+03  0.25500000920E-02 0. -1.
        2   -1    0    0  501    0  0.00000000000E+00  0.00000000000E+00 -0.21965742013E+04  0.21965742013E+04  0.25500000920E-02 0.  1.
    10030    2    1    2    0    0  0.00000000000E+00  0.00000000000E+00 -0.14268679164E+04  0.29662804862E+04  0.26005514553E+04 0.  0.
        5    1    3    3  502    0  0.50096509868E+03  0.30965526654E+03  0.60883847407E+03  0.84708842024E+03  0.46999998093E+01 0. -1.
       -5    1    3    3    0  502 -0.50096509868E+03 -0.30965526654E+03 -0.20357063905E+04  0.21191920660E+04  0.46999998093E+01 0.  1.
</event>
<event>
 5   0  0.2705807E-06  0.2604632E+04  0.7818609E-02  0.8366630E-01
        2   -1    0    0  501    0  0.00000000000E+00  0.00000000000E+00  0.17064386827E+04  0.17064386827E+04  0.25500000920E-02 0.  1.
       -2   -1    0    0    0  501  0.00000000000E+00  0.00000000000E+00 -0.99389857466E+03  0.99389857466E+03  0.25500000920E-02 0. -1.
    10030    2    1    2    0    0  0.00000000000E+00  0.00000000000E+00  0.71254010805E+03  0.27003372574E+04  0.26046320082E+04 0.  0.
        4    1    3    3  502    0 -0.29719553417E+03 -0.80121854498E+02  0.16681840493E+04  0.16963444026E+04  0.12699999809E+01 0.  1.
       -4    1    3    3    0  502  0.29719553417E+03  0.80121854498E+02 -0.95564394123E+03  0.10039928548E+04  0.12699999809E+01 0. -1.
</event>
<event>
 5   0  0.1088757E-06  0.2584346E+04  0.7818609E-02  0.8373538E-01
        1   -1    0    0  501    0  0.00000000000E+00  0.00000000000E+00  0.16877902736E+04  0.16877902736E+04  0.50400001928E-02 0. -1.
       -1   -1    0    0    0  501  0.00000000000E+00  0.00000000000E+00 -0.98928815501E+03  0.98928815502E+03  0.50400001928E-02 0.  1.
    10030    2    1    2    0    0  0.00000000000E+00  0.00000000000E+00  0.69850211855E+03  0.26770784286E+04  0.25843458946E+04 0.  0.
        5    1    3    3  502    0  0.77894236909E+02 -0.12336174822E+04 -0.40837044188E+02  0.12367575990E+04  0.46999998093E+01 0.  1.
       -5    1    3    3    0  502 -0.77894236909E+02  0.12336174822E+04  0.73933916274E+03  0.14403208296E+04  0.46999998093E+01 0. -1.
</event>
<event>
 5   0  0.1032076E-06  0.2601235E+04  0.7818609E-02  0.8367782E-01
        1   -1    0    0  501    0  0.00000000000E+00  0.00000000000E+00  0.19098001848E+04  0.19098001848E+04  0.50400001928E-02 0.  1.
       -1   -1    0    0    0  501  0.00000000000E+00  0.00000000000E+00 -0.88574987666E+03  0.88574987668E+03  0.50400001928E-02 0. -1.
    10030    2    1    2    0    0  0.00000000000E+00  0.00000000000E+00  0.10240503081E+04  0.27955500615E+04  0.26012345363E+04 0.  0.
        1    1    3    3  502    0 -0.81603536319E+03 -0.22889581945E+03  0.15722811512E+04  0.17861620947E+04  0.50400001928E-02 0.  1.
       -1    1    3    3    0  502  0.81603536319E+03  0.22889581945E+03 -0.54823084307E+03  0.10093879668E+04  0.50400001928E-02 0. -1.
</event>
<event>
 5   0  0.1122628E-06  0.2592924E+04  0.7818609E-02  0.8370609E-01
       -1   -1    0    0    0  501  0.00000000000E+00  0.00000000000E+00  0.11309139659E+04  0.11309139659E+04  0.50400001928E-02 0.  1.
        1   -1    0    0  501    0  0.00000000000E+00  0.00000000000E+00 -0.14862442103E+04  0.14862442103E+04  0.50400001928E-02 0. -1.
    10030    2    1    2    0    0  0.00000000000E+00  0.00000000000E+00 -0.35533024439E+03  0.26171581762E+04  0.25929244757E+04 0.  0.
        2    1    3    3  502    0  0.72256106547E+03  0.59068179513E+03 -0.10859727774E+04  0.14318995599E+04  0.25500000920E-02 0. -1.
       -2    1    3    3    0  502 -0.72256106547E+03 -0.59068179513E+03  0.73064253301E+03  0.11852586163E+04  0.25500000920E-02 0.  1.
</event>
<event>
 5   0  0.1122628E-06  0.2598717E+04  0.7818609E-02  0.8368637E-01
       -1   -1    0    0    0  501  0.00000000000E+00  0.00000000000E+00  0.82726051436E+03  0.82726051438E+03  0.50400001928E-02 0.  1.
        1   -1    0    0  501    0  0.00000000000E+00  0.00000000000E+00 -0.20408718381E+04  0.20408718382E+04  0.50400001928E-02 0. -1.
    10030    2    1    2    0    0  0.00000000000E+00  0.00000000000E+00 -0.12136113238E+04  0.28681323525E+04  0.25987171347E+04 0.  0.
        2    1    3    3  502    0  0.56198743498E+03  0.92000088816E+03 -0.14073305054E+04  0.17727974117E+04  0.25500000920E-02 0. -1.
       -2    1    3    3    0  502 -0.56198743498E+03 -0.92000088816E+03  0.19371918167E+03  0.10953349408E+04  0.25500000920E-02 0.  1.
</event>
<event>
 5   0  0.1088757E-06  0.2601143E+04  0.7818609E-02  0.8367813E-01
       -1   -1    0    0    0  501  0.00000000000E+00  0.00000000000E+00  0.90270638511E+03  0.90270638513E+03  0.50400001928E-02 0.  1.
        1   -1    0    0  501    0  0.00000000000E+00  0.00000000000E+00 -0.18737949849E+04  0.18737949849E+04  0.50400001928E-02 0. -1.
    10030    2    1    2    0    0  0.00000000000E+00  0.00000000000E+00 -0.97108859981E+03  0.27765013701E+04  0.26011433619E+04 0.  0.
        5    1    3    3  502    0  0.35012163534E+02 -0.23334558125E+03  0.87965856547E+03  0.91076742020E+03  0.46999998093E+01 0.  1.
       -5    1    3    3    0  502 -0.35012163534E+02  0.23334558125E+03 -0.18507471653E+04  0.18657339499E+04  0.46999998093E+01 0. -1.
</event>
<event>
 5   0  0.2586775E-06  0.2599943E+04  0.7818609E-02  0.8368221E-01
        2   -1    0    0  501    0  0.00000000000E+00  0.00000000000E+00  0.14181250159E+04  0.14181250159E+04  0.25500000920E-02 0.  1.
       -2   -1    0    0    0  501  0.00000000000E+00  0.00000000000E+00 -0.11916622561E+04  0.11916622561E+04  0.25500000920E-02 0. -1.
    10030    2    1    2    0    0  0.00000000000E+00  0.00000000000E+00  0.22646275971E+03  0.26097872720E+04  0.25999431193E+04 0.  0.
        1    1    3    3  502    0 -0.24283294811E+02 -0.71430059389E+03 -0.97674883476E+03  0.12103112422E+04  0.50400001928E-02 0. -1.
       -1    1    3    3    0  502  0.24283294811E+02  0.71430059389E+03  0.12032115945E+04  0.13994760298E+04  0.50400001928E-02 0.  1.
</event>
<event>
 5   0  0.1100104E-06  0.2612297E+04  0.7818609E-02  0.8364036E-01
       -1   -1    0    0    0  501  0.00000000000E+00  0.00000000000E+00  0.24404507219E+04  0.24404507219E+04  0.50400001928E-02 0. -1.
        1   -1    0    0  501    0  0.00000000000E+00  0.00000000000E+00 -0.69906076856E+03  0.69906076857E+03  0.50400001928E-02 0.  1.
    10030    2    1    2    0    0  0.00000000000E+00  0.00000000000E+00  0.17413899533E+04  0.31395114905E+04  0.26122965814E+04 0.  0.
        4    1    3    3  502    0  0.22609160306E+03  0.13436011695E+03 -0.66690817473E+03  0.71689481824E+03  0.12699999809E+01 0.  1.
       -4    1    3    3    0  502 -0.22609160306E+03 -0.13436011695E+03  0.24082981281E+04  0.24226166722E+04  0.12699999809E+01 0. -1.
</event>
<event>
 5   0  0.1032076E-06  0.2601821E+04  0.7818609E-02  0.8367583E-01
        1   -1    0    0  501    0  0.00000000000E+00  0.00000000000E+00  0.11526461708E+04  0.11526461708E+04  0.50400001928E-02 0. -1.
       -1   -1    0    0    0  501  0.00000000000E+00  0.00000000000E+00 -0.14682462613E+04  0.14682462613E+04  0.50400001928E-02 0.  1.
    10030    2    1    2    0    0  0.00000000000E+00  0.00000000000E+00 -0.31560009045E+03  0.26208924321E+04  0.26018212320E+04 0.  0.
        1    1    3    3  502    0  0.79500107106E+03  0.78509911560E+03  0.51338798991E+03  0.12296237443E+04  0.50400001928E-02 0. -1.
       -1    1    3    3    0  502 -0.79500107106E+03 -0.78509911560E+03 -0.82898808036E+03  0.13912686878E+04  0.50400001928E-02 0.  1.
</event>
<event>
 5   0  0.2705807E-06  0.2579626E+04  0.7818609E-02  0.8375155E-01
        2   -1    0    0  501    0  0.00000000000E+00  0.00000000000E+00  0.20725203487E+04  0.20725203487E+04  0.25500000920E-02 0. -1.
       -2   -1    0    0    0  501  0.00000000000E+00  0.00000000000E+00 -0.80270248214E+03  0.80270248214E+03  0.25500000920E-02 0.  1.
    10030    2    1    2    0    0  0.00000000000E+00  0.00000000000E+00  0.12698178666E+04  0.28752228309E+04  0.25796257312E+04 0.  0.
        4    1    3    3  502    0 -0.80581162931E+03 -0.22350167367E+03 -0.45962114290E+03  0.95422145646E+03  0.12699999809E+01 0.  1.
       -4    1    3    3    0  502  0.80581162931E+03  0.22350167367E+03  0.17294390095E+04  0.19210013744E+04  0.12699999809E+01 0. -1.
</event>
<event>
 5   0  0.1088757E-06  0.2603935E+04  0.7818609E-02  0.8366866E-01
       -1   -1    0    0    0  501  0.00000000000E+00  0.00000000000E+00  0.67708112512E+03  0.67708112514E+03  0.50400001928E-02 0.  1.
        1   -1    0    0  501    0  0.00000000000E+00  0.00000000000E+00 -0.25035691475E+04  0.25035691475E+04  0.50400001928E-02 0. -1.
    10030    2    1    2    0    0  0.00000000000E+00  0.00000000000E+00 -0.18264880224E+04  0.31806502727E+04  0.26039350340E+04 0.  0.
        5    1    3    3  502    0  0.43272805450E+03  0.24514766402E+03  0.55646723693E+03  0.74634363539E+03  0.46999998093E+01 0.  1.
       -5    1    3    3    0  502 -0.43272805450E+03 -0.24514766402E+03 -0.23829552593E+04  0.24343066373E+04  0.46999998093E+01 0. -1.
</event>
<event>
 5   0  0.1088757E-06  0.2578061E+04  0.7818609E-02  0.8375692E-01
        1   -1    0    0  501    0  0.00000000000E+00  0.00000000000E+00  0.15765721969E+04  0.15765721969E+04  0.50400001928E-02 0.  1.
       -1   -1    0    0    0  501  0.00000000000E+00  0.00000000000E+00 -0.10539317737E+04  0.10539317737E+04  0.50400001928E-02 0. -1.
    10030    2    1    2    0    0  0.00000000000E+00  0.00000000000E+00  0.52264042320E+03  0.26305039705E+04  0.25780609238E+04 0.  0.
        5    1    3    3  502    0  0.91193269135E+03  0.56871388560E+03  0.98750039800E+03  0.14595327483E+04  0.46999998093E+01 0.  1.
       -5    1    3    3    0  502 -0.91193269135E+03 -0.56871388560E+03 -0.46485997479E+03  0.11709712223E+04  0.46999998093E+01 0. -1.
</event>
<event>
 5   0  0.1122628E-06  0.2603147E+04  0.7818609E-02  0.8367133E-01
       -1   -1    0    0    0  501  0.00000000000E+00  0.00000000000E+00  0.88542603444E+03  0.88542603446E+03  0.50400001928E-02 0.  1.
        1   -1    0    0  501    0  0.00000000000E+00  0.00000000000E+00 -0.19133086014E+04  0.19133086014E+04  0.50400001928E-02 0. -1.
    10030    2    1    2    0    0  0.00000000000E+00  0.00000000000E+00 -0.10278825670E+04  0.27987346359E+04  0.26031467478E+04 0.  0.
        2    1    3    3  502    0  0.99069717061E+02  0.24670963936E+03  0.85592303342E+03  0.89626150990E+03  0.25500000920E-02 0.  1.
       -2    1    3    3    0  502 -0.99069717061E+02 -0.24670963936E+03 -0.18838056004E+04  0.19024731260E+04  0.25500000920E-02 0. -1.
</event>
<event>
 5   0  0.2586775E-06  0.2599482E+04  0.7818609E-02  0.8368377E-01
       -2   -1    0    0    0  501  0.00000000000E+00  0.00000000000E+00  0.17059647057E+04  0.17059647057E+04  0.25500000920E-02 0.  1.
        2   -1    0    0  501    0  0.00000000000E+00  0.00000000000E+00 -0.99024677150E+03  0.99024677150E+03  0.25500000920E-02 0. -1.
    10030    2    1    2    0    0  0.00000000000E+00  0.00000000000E+00  0.71571793425E+03  0.26962114772E+04  0.25994815192E+04 0.  0.
        1    1    3    3  502    0  0.50820782789E+02  0.61364905545E+03  0.15450822122E+04  0.16632579348E+04  0.50400001928E-02 0.  1.
       -1    1    3    3    0  502 -0.50820782789E+02 -0.61364905545E+03 -0.82936427797E+03  0.10329535424E+04  0.50400001928E-02 0. -1.
</event>
<event>
 5   0  0.1100104E-06  0.2596163E+04  0.7818609E-02  0.8369506E-01
        1   -1    0    0  501    0  0.00000000000E+00  0.00000000000E+00  0.15691829687E+04  0.15691829687E+04  0.50400001928E-02 0.  1.
       -1   -1    0    0    0  501  0.00000000000E+00  0.00000000000E+00 -0.10738174461E+04  0.10738174461E+04  0.50400001928E-02 0. -1.
    10030    2    1    2    0    0  0.00000000000E+00  0.00000000000E+00  0.49536552264E+03  0.26430004148E+04  0.25961633600E+04 0.  0.
        4    1    3    3  502    0  0.90032241020E+03 -0.88829795663E+03 -0.49753752900E+02  0.12657530371E+04  0.12699999809E+01 0. -1.
       -4    1    3    3    0  502 -0.90032241020E+03  0.88829795663E+03  0.54511927554E+03  0.13772473778E+04  0.12699999809E+01 0.  1.
</event>
<event>
 5   0  0.2586775E-06  0.2598743E+04  0.7818609E-02  0.8368628E-01
       -2   -1    0    0    0  501  0.00000000000E+00  0.00000000000E+00  0.93402746938E+03  0.93402746938E+03  0.25500000920E-02 0. -1.
        2   -1    0    0  501    0  0.00000000000E+00  0.00000000000E+00 -0.18076193009E+04  0.18076193009E+04  0.25500000920E-02 0.  1.
    10030    2    1    2    0    0  0.00000000000E+00  0.00000000000E+00 -0.87359183156E+03  0.27416467703E+04  0.25987428355E+04 0.  0.
        1    1    3    3  502    0 -0.42305929721E+03 -0.94082773645E+03 -0.12703245855E+04  0.16364169858E+04  0.50400001928E-02 0.  1.
       -1    1    3    3    0  502  0.42305929721E+03  0.94082773645E+03  0.39673275396E+03  0.11052297846E+04  0.50400001928E-02 0. -1.
</event>
<event>
 5   0  0.2820028E-06  0.2601203E+04  0.7818609E-02  0.8367793E-01
        2   -1    0    0  501    0  0.00000000000E+00  0.00000000000E+00  0.13457918215E+04  0.13457918215E+04  0.25500000920E-02 0.  1.
       -2   -1    0    0    0  501  0.00000000000E+00  0.00000000000E+00 -0.12569290865E+04  0.12569290865E+04  0.25500000920E-02 0. -1.
    10030    2    1    2    0    0  0.00000000000E+00  0.00000000000E+00  0.88862734982E+02  0.26027209080E+04  0.26012034790E+04 0.  0.
        3    1    3    3  502    0 -0.75658827583E+03  0.81650997044E+03 -0.62860544991E+03  0.12783814661E+04  0.10100000352E+00 0. -1.
       -3    1    3    3    0  502  0.75658827583E+03 -0.81650997044E+03  0.71746818490E+03  0.13243394419E+04  0.10100000352E+00 0.  1.
</event>
<event>
 5   0  0.2820028E-06  0.2608598E+04  0.7818609E-02  0.8365286E-01
       -2   -1    0    0    0  501  0.00000000000E+00  0.00000000000E+00  0.78134650438E+03  0.78134650438E+03  0.25500000920E-02 0.  1.
        2   -1    0    0  501    0  0.00000000000E+00  0.00000000000E+00 -0.21772623517E+04  0.21772623517E+04  0.25500000920E-02 0. -1.
    10030    2    1    2    0    0  0.00000000000E+00  0.00000000000E+00 -0.13959158474E+04  0.29586088561E+04  0.26085983421E+04 0.  0.
        3    1    3    3  502    0 -0.91833609907E+03  0.14725615893E+03  0.33915924750E+03  0.98997705658E+03  0.10100000352E+00 0.  1.
       -3    1    3    3    0  502  0.91833609907E+03 -0.14725615893E+03 -0.17350750949E+04  0.19686317995E+04  0.10100000352E+00 0. -1.
</event>
<event>
 5   0  0.1032076E-06  0.2600413E+04  0.7818609E-02  0.8368061E-01
        1   -1    0    0  501    0  0.00000000000E+00  0.00000000000E+00  0.99684644777E+03  0.99684644778E+03  0.50400001928E-02 0. -1.
       -1   -1    0    0    0  501  0.00000000000E+00  0.00000000000E+00 -0.16958851575E+04  0.16958851575E+04  0.50400001928E-02 0.  1.
    10030    2    1    2    0    0  0.00000000000E+00  0.00000000000E+00 -0.69903870969E+03  0.26927316053E+04  0.26004131172E+04 0.  0.
        1    1    3    3  502    0  0.21000984504E+02  0.12880510181E+04 -0.53189885310E+03  0.13937118986E+04  0.50400001928E-02 0. -1.
       -1    1    3    3    0  502 -0.21000984504E+02 -0.12880510181E+04 -0.16713985659E+03  0.12990197066E+04  0.50400001928E-02 0.  1.
</event>
<event>
 5   0  0.1088757E-06  0.2600384E+04  0.7818609E-02  0.8368071E-01
        1   -1    0    0  501    0  0.00000000000E+00  0.00000000000E+00  0.16898949201E+04  0.16898949201E+04  0.50400001928E-02 0. -1.
       -1   -1    0    0    0  501  0.00000000000E+00  0.00000000000E+00 -0.10003575555E+04  0.10003575555E+04  0.50400001928E-02 0.  1.
    10030    2    1    2    0    0  0.00000000000E+00  0.00000000000E+00  0.68953736461E+03  0.26902524756E+04  0.26003839342E+04 0.  0.
        5    1    3    3  502    0 -0.95402793226E+03 -0.18950489091E+03  0.12373699151E+04  0.15739084459E+04  0.46999998093E+01 0. -1.
       -5    1    3    3    0  502  0.95402793226E+03  0.18950489091E+03 -0.54783255052E+03  0.11163440297E+04  0.46999998093E+01 0.  1.
</event>
<event>
 5   0  0.2820028E-06  0.2598130E+04  0.7818609E-02  0.8368837E-01
       -2   -1    0    0    0  501  0.00000000000E+00  0.00000000000E+00  0.68783602876E+03  0.68783602876E+03  0.25500000920E-02 0. -1.
        2   -1    0    0  501    0  0.00000000000E+00  0.00000000000E+00 -0.24534487217E+04  0.24534487217E+04  0.25500000920E-02 0.  1.
    10030    2    1    2    0    0  0.00000000000E+00  0.00000000000E+00 -0.17656126930E+04  0.31412847505E+04  0.25981304244E+04 0.  0.
        3    1    3    3  502    0  0.24382195066E+03  0.91666445988E+03  0.19036099799E+03  0.96745035810E+03  0.10100000352E+00 0. -1.
       -3    1    3    3    0  502 -0.24382195066E+03 -0.91666445988E+03 -0.19559736910E+04  0.21738343924E+04  0.10100000352E+00 0.  1.
</event>
<event>
 5   0  0.1088757E-06  0.2604411E+04  0.7818609E-02  0.8366705E-01
       -1   -1    0    0    0  501  0.00000000000E+00  0.00000000000E+00  0.63232660920E+03  0.63232660922E+03  0.50400001928E-02 0. -1.
        1   -1    0    0  501    0  0.00000000000E+00  0.00000000000E+00 -0.26817450834E+04  0.26817450834E+04  0.50400001928E-02 0.  1.
    10030    2    1    2    0    0  0.00000000000E+00  0.00000000000E+00 -0.20494184742E+04  0.33140716926E+04  0.26044107014E+04 0.  0.
        5    1    3    3  502    0  0.44416087738E+03  0.47843630724E+03  0.40904602185E+03  0.77040309129E+03  0.46999998093E+01 0. -1.
       -5    1    3    3    0  502 -0.44416087738E+03 -0.47843630724E+03 -0.24584644960E+04  0.25436686013E+04  0.46999998093E+01 0.  1.
</event>
<event>
 5   0  0.2746631E-06  0.2599090E+04  0.7818609E-02  0.8368510E-01
       -2   -1    0    0    0  501  0.00000000000E+00  0.00000000000E+00  0.57268825584E+03  0.57268825584E+03  0.25500000920E-02 0.  1.
        2   -1    0    0  501    0  0.00000000000E+00  0.00000000000E+00 -0.29489287775E+04  0.29489287775E+04  0.25500000920E-02 0. -1.
    10030    2    1    2    0    0  0.00000000000E+00  0.00000000000E+00 -0.23762405216E+04  0.35216170333E+04  0.25990897469E+04 0.  0.
        2    1    3    3  502    0 -0.22995484849E+03 -0.90574238587E+03  0.35512338257E+02  0.93515219514E+03  0.25500000920E-02 0.  1.
       -2    1    3    3    0  502  0.22995484849E+03  0.90574238587E+03 -0.24117528599E+04  0.25864648382E+04  0.25500000920E-02 0. -1.
</event>
<event>
 5   0  0.1032076E-06  0.2589628E+04  0.7818609E-02  0.8371733E-01
        1   -1    0    0  501    0  0.00000000000E+00  0.00000000000E+00  0.12786165980E+04  0.12786165980E+04  0.50400001928E-02 0.  1.
       -1   -1    0    0    0  501  0.00000000000E+00  0.00000000000E+00 -0.13112160846E+04  0.13112160846E+04  0.50400001928E-02 0. -1.
    10030    2    1    2    0    0  0.00000000000E+00  0.00000000000E+00 -0.32599486544E+02  0.25898326826E+04  0.25896275016E+04 0.  0.
        1    1    3    3  502    0  0.97832286804E+03  0.79064518332E+03  0.29081937712E+03  0.12910504832E+04  0.50400001928E-02 0.  1.
       -1    1    3    3    0  502 -0.97832286804E+03 -0.79064518332E+03 -0.32341886366E+03  0.12987821994E+04  0.50400001928E-02 0. -1.
</event>
<event>
 5   0  0.1032076E-06  0.2602417E+04  0.7818609E-02  0.8367381E-01
        1   -1    0    0  501    0  0.00000000000E+00  0.00000000000E+00  0.20190365400E+04  0.20190365400E+04  0.50400001928E-02 0. -1.
       -1   -1    0    0    0  501  0.00000000000E+00  0.00000000000E+00 -0.83859011470E+03  0.83859011471E+03  0.50400001928E-02 0.  1.
    10030    2    1    2    0    0  0.00000000000E+00  0.00000000000E+00  0.11804464253E+04  0.28576266547E+04  0.26024174021E+04 0.  0.
        1    1    3    3  502    0 -0.82422529636E+03  0.11289793209E+03 -0.50841978646E+03  0.97497895440E+03  0.50400001928E-02 0.  1.
       -1    1    3    3    0  502  0.82422529636E+03 -0.11289793209E+03  0.16888662117E+04  0.18826477003E+04  0.50400001928E-02 0. -1.
</event>
<event>
 5   0  0.1100104E-06  0.2602207E+04  0.7818609E-02  0.8367452E-01
        1   -1    0    0  501    0  0.00000000000E+00  0.00000000000E+00  0.73005183449E+03  0.73005183451E+03  0.50400001928E-02 0. -1.
       -1   -1    0    0    0  501  0.00000000000E+00  0.00000000000E+00 -0.23188358701E+04  0.23188358701E+04  0.50400001928E-02 0.  1.
    10030    2    1    2    0    0  0.00000000000E+00  0.00000000000E+00 -0.15887840357E+04  0.30488877047E+04  0.26022070486E+04 0.  0.
        4    1    3    3  502    0 -0.29573625110E+03 -0.12410893160E+04 -0.10933502931E+04  0.16802318580E+04  0.12699999809E+01 0.  1.
       -4    1    3    3    0  502  0.29573625110E+03  0.12410893160E+04 -0.49543374258E+03  0.13686558466E+04  0.12699999809E+01 0. -1.
</event>
<event>
 5   0  0.2705807E-06  0.2608099E+04  0.7818609E-02  0.8365455E-01
       -2   -1    0    0    0  501  0.00000000000E+00  0.00000000000E+00  0.18509340892E+04  0.18509340892E+04  0.25500000920E-02 0. -1.
        2   -1    0    0  501    0  0.00000000000E+00  0.00000000000E+00 -0.91874972325E+03  0.91874972326E+03  0.25500000920E-02 0.  1.
    10030    2    1    2    0    0  0.00000000000E+00  0.00000000000E+00  0.93218436592E+03  0.27696838124E+04  0.26080990642E+04 0.  0.
        4    1    3    3  502    0 -0.85984398448E+03  0.70510778552E+03  0.11894970612E+04  0.16283161666E+04  0.12699999809E+01 0. -1.
       -4    1    3    3    0  502  0.85984398448E+03 -0.70510778552E+03 -0.25731269532E+03  0.11413676458E+04  0.12699999809E+01 0.  1.
</event>
<event>
 5   0  0.1055179E-06  0.2603359E+04  0.7818609E-02  0.8367061E-01
       -1   -1    0    0    0  501  0.00000000000E+00  0.00000000000E+00  0.85528026423E+03  0.85528026424E+03  0.50400001928E-02 0. -1.
        1   -1    0    0  501    0  0.00000000000E+00  0.00000000000E+00 -0.19810690221E+04  0.19810690221E+04  0.50400001928E-02 0.  1.
    10030    2    1    2    0    0  0.00000000000E+00  0.00000000000E+00 -0.11257887579E+04  0.28363492863E+04  0.26033587818E+04 0.  0.
        3    1    3    3  502    0  0.38277730468E+03 -0.38684998092E+03  0.72538484413E+03  0.90683766740E+03  0.10100000352E+00 0. -1.
       -3    1    3    3    0  502 -0.38277730468E+03  0.38684998092E+03 -0.18511736020E+04  0.19295116189E+04  0.10100000352E+00 0.  1.
</event>
<event>
 5   0  0.1088757E-06  0.2605837E+04  0.7818609E-02  0.8366221E-01
       -1   -1    0    0    0  501  0.00000000000E+00  0.00000000000E+00  0.63221296794E+03  0.63221296796E+03  0.50400001928E-02 0.  1.
        1   -1    0    0  501    0  0.00000000000E+00  0.00000000000E+00 -0.26851652568E+04  0.26851652568E+04  0.50400001928E-02 0. -1.
    10030    2    1    2    0    0  0.00000000000E+00  0.00000000000E+00 -0.20529522889E+04  0.33173782248E+04  0.26058367535E+04 0.  0.
        5    1    3    3  502    0  0.66623268077E+03  0.99509716063E+03 -0.37299999731E+03  0.12542868221E+04  0.46999998093E+01 0.  1.
       -5    1    3    3    0  502 -0.66623268077E+03 -0.99509716063E+03 -0.16799522916E+04  0.20630914027E+04  0.46999998093E+01 0. -1.
</event>
<event>
 5   0  0.1100104E-06  0.2607884E+04  0.7818609E-02  0.8365528E-01
        1   -1    0    0  501    0  0.00000000000E+00  0.00000000000E+00  0.15544599813E+04  0.15544599813E+04  0.50400001928E-02 0. -1.
       -1   -1    0    0    0  501  0.00000000000E+00  0.00000000000E+00 -0.10937976720E+04  0.10937976720E+04  0.50400001928E-02 0.  1.
    10030    2    1    2    0    0  0.00000000000E+00  0.00000000000E+00  0.46066230934E+03  0.26482576533E+04  0.26078839765E+04 0.  0.
        4    1    3    3  502    0  0.18897193391E+03 -0.72792563352E+03  0.13120342972E+04  0.15122902267E+04  0.12699999809E+01 0. -1.
       -4    1    3    3    0  502 -0.18897193391E+03  0.72792563352E+03 -0.85137198786E+03  0.11359674266E+04  0.12699999809E+01 0.  1.
</event>
<event>
 5   0  0.2746631E-06  0.2597743E+04  0.7818609E-02  0.8368968E-01
       -2   -1    0    0    0  501  0.00000000000E+00  0.00000000000E+00  0.10833932163E+04  0.10833932163E+04  0.25500000920E-02 0. -1.
        2   -1    0    0  501    0  0.00000000000E+00  0.00000000000E+00 -0.15572066335E+04  0.15572066336E+04  0.25500000920E-02 0.  1.
    10030    2    1    2    0    0  0.00000000000E+00  0.00000000000E+00 -0.47381341729E+03  0.26405998498E+04  0.25977429458E+04 0.  0.
        2    1    3    3  502    0  0.82964457939E+02  0.32289666220E+03 -0.15129744926E+04  0.15492698832E+04  0.25500000920E-02 0.  1.
       -2    1    3    3    0  502 -0.82964457939E+02 -0.32289666220E+03  0.10391610753E+04  0.10913299666E+04  0.25500000920E-02 0. -1.
</event>
<event>
 5   0  0.2705807E-06  0.2586368E+04  0.7818609E-02  0.8372846E-01
        2   -1    0    0  501    0  0.00000000000E+00  0.00000000000E+00  0.84189733929E+03  0.84189733929E+03  0.25500000920E-02 0. -1.
       -2   -1    0    0    0  501  0.00000000000E+00  0.00000000000E+00 -0.19863763566E+04  0.19863763566E+04  0.25500000920E-02 0.  1.
    10030    2    1    2    0    0  0.00000000000E+00  0.00000000000E+00 -0.11444790173E+04  0.28282736959E+04  0.25863680863E+04 0.  0.
        4    1    3    3  502    0  0.50125453250E+03 -0.93290524130E+03  0.23930127488E+03  0.10857416860E+04  0.12699999809E+01 0. -1.
       -4    1    3    3    0  502 -0.50125453250E+03  0.93290524130E+03 -0.13837802921E+04  0.17425320099E+04  0.12699999809E+01 0.  1.
</event>
<event>
 5   0  0.2705807E-06  0.2600278E+04  0.7818609E-02  0.8368107E-01
        2   -1    0    0  501    0  0.00000000000E+00  0.00000000000E+00  0.16372138385E+04  0.16372138385E+04  0.25500000920E-02 0. -1.
       -2   -1    0    0    0  501  0.00000000000E+00  0.00000000000E+00 -0.10324621329E+04  0.10324621329E+04  0.25500000920E-02 0.  1.
    10030    2    1    2    0    0  0.00000000000E+00  0.00000000000E+00  0.60475170558E+03  0.26696759714E+04  0.26002779018E+04 0.  0.
        4    1    3    3  502    0  0.12156295877E+04 -0.25840205568E+03 -0.89696607472E+02  0.12460232787E+04  0.12699999809E+01 0. -1.
       -4    1    3    3    0  502 -0.12156295877E+04  0.25840205568E+03  0.69444831305E+03  0.14236526926E+04  0.12699999809E+01 0.  1.
</event>
<event>
 5   0  0.1100104E-06  0.2597861E+04  0.7818609E-02  0.8368928E-01
       -1   -1    0    0    0  501  0.00000000000E+00  0.00000000000E+00  0.19118767775E+04  0.19118767775E+04  0.50400001928E-02 0.  1.
        1   -1    0    0  501    0  0.00000000000E+00  0.00000000000E+00 -0.88249429310E+03  0.88249429312E+03  0.50400001928E-02 0. -1.
    10030    2    1    2    0    0  0.00000000000E+00  0.00000000000E+00  0.10293824844E+04  0.27943710706E+04  0.25978609241E+04 0.  0.
        4    1    3    3  502    0  0.22782929163E+03 -0.21851354544E+03 -0.84060380620E+03  0.89792579180E+03  0.12699999809E+01 0. -1.
       -4    1    3    3    0  502 -0.22782929163E+03  0.21851354544E+03  0.18699862906E+04  0.18964452788E+04  0.12699999809E+01 0.  1.
</event>
<event>
 5   0  0.2746631E-06  0.2607357E+04  0.7818609E-02  0.8365706E-01
        2   -1    0    0  501    0  0.00000000000E+00  0.00000000000E+00  0.18722160364E+04  0.18722160364E+04  0.25500000920E-02 0.  1.
       -2   -1    0    0    0  501  0.00000000000E+00  0.00000000000E+00 -0.90778951780E+03  0.90778951780E+03  0.25500000920E-02 0. -1.
    10030    2    1    2    0    0  0.00000000000E+00  0.00000000000E+00  0.96442651862E+03  0.27800055542E+04  0.26073573540E+04 0.  0.
        2    1    3    3  502    0  0.12121533259E+03 -0.11492147163E+04 -0.16122872548E+03  0.11667828946E+04  0.25500000920E-02 0. -1.
       -2    1    3    3    0  502 -0.12121533259E+03  0.11492147163E+04  0.11256552441E+04  0.16132226597E+04  0.25500000920E-02 0.  1.
</event>
<event>
 5   0  0.2705807E-06  0.2587617E+04  0.7818609E-02  0.8372420E-01
       -2   -1    0    0    0  501  0.00000000000E+00  0.00000000000E+00  0.10402828995E+04  0.10402828995E+04  0.25500000920E-02 0. -1.
        2   -1    0    0  501    0  0.00000000000E+00  0.00000000000E+00 -0.16091204206E+04  0.16091204206E+04  0.25500000920E-02 0.  1.
    10030    2    1    2    0    0  0.00000000000E+00  0.00000000000E+00 -0.56883752107E+03  0.26494033201E+04  0.25876170171E+04 0.  0.
        4    1    3    3  502    0 -0.19461242397E+03  0.93083357256E+03 -0.11826423885E+04  0.15175538763E+04  0.12699999809E+01 0.  1.
       -4    1    3    3    0  502  0.19461242397E+03 -0.93083357256E+03  0.61380486742E+03  0.11318494438E+04  0.12699999809E+01 0. -1.
</event>
<event>
 5   0  0.2623368E-06  0.2601113E+04  0.7818609E-02  0.8367823E-01
       -2   -1    0    0    0  501  0.00000000000E+00  0.00000000000E+00  0.96730927279E+03  0.96730927280E+03  0.25500000920E-02 0.  1.
        2   -1    0    0  501    0  0.00000000000E+00  0.00000000000E+00 -0.17486111787E+04  0.17486111787E+04  0.25500000920E-02 0. -1.
    10030    2    1    2    0    0  0.00000000000E+00  0.00000000000E+00 -0.78130190594E+03  0.27159204515E+04  0.26011134598E+04 0.  0.
        5    1    3    3  502    0 -0.12030891346E+04  0.43663838395E+03 -0.14948188952E+03  0.12885819607E+04  0.46999998093E+01 0. -1.
       -5    1    3    3    0  502  0.12030891346E+04 -0.43663838395E+03 -0.63182001642E+03  0.14273384908E+04  0.46999998093E+01 0.  1.
</event>
<event>
 5   0  0.9197000E-07  0.2625657E+04  0.7818609E-02  0.8359538E-01
       -4   -1    0    0    0  501  0.00000000000E+00  0.00000000000E+00  0.13391159871E+04  0.13391165893E+04  0.12699999809E+01 0. -1.
        4   -1    0    0  501    0  0.00000000000E+00  0.00000000000E+00 -0.12870560739E+04  0.12870567005E+04  0.12699999809E+01 0.  1.
    10030    2    1    2    0    0  0.00000000000E+00  0.00000000000E+00  0.52059913204E+02  0.26261732898E+04  0.26256572346E+04 0.  0.
        1    1    3    3  502    0  0.10498311489E+04 -0.26982306856E+03 -0.71477008734E+03  0.12984014046E+04  0.50400001928E-02 0.  1.
       -1    1    3    3    0  502 -0.10498311489E+04  0.26982306856E+03  0.76683000055E+03  0.13277718853E+04  0.50400001928E-02 0. -1.
</event>
<event>
 5   0  0.2623368E-06  0.2595797E+04  0.7818609E-02  0.8369630E-01
       -2   -1    0    0    0  501  0.00000000000E+00  0.00000000000E+00  0.13862217054E+04  0.13862217054E+04  0.25500000920E-02 0. -1.
        2   -1    0    0  501    0  0.00000000000E+00  0.00000000000E+00 -0.12152028364E+04  0.12152028364E+04  0.25500000920E-02 0.  1.
    10030    2    1    2    0    0  0.00000000000E+00  0.00000000000E+00  0.17101886904E+03  0.26014245418E+04  0.25957970246E+04 0.  0.
        5    1    3    3  502    0  0.60866544124E+03  0.32921483285E+03 -0.10148976233E+04  0.12283709950E+04  0.46999998093E+01 0.  1.
       -5    1    3    3    0  502 -0.60866544124E+03 -0.32921483285E+03  0.11859164924E+04  0.13730535468E+04  0.46999998093E+01 0. -1.
</event>
<event>
 5   0  0.1088757E-06  0.2600450E+04  0.7818609E-02  0.8368048E-01
        1   -1    0    0  501    0  0.00000000000E+00  0.00000000000E+00  0.22032888133E+04  0.22032888133E+04  0.50400001928E-02 0. -1.
       -1   -1    0    0    0  501  0.00000000000E+00  0.00000000000E+00 -0.76730058582E+03  0.76730058584E+03  0.50400001928E-02 0.  1.
    10030    2    1    2    0    0  0.00000000000E+00  0.00000000000E+00  0.14359882275E+04  0.29705893991E+04  0.26004498051E+04 0.  0.
        5    1    3    3  502    0  0.76176974112E+03 -0.72101056177E+03 -0.15975870308E+03  0.10609874183E+04  0.46999998093E+01 0.  1.
       -5    1    3    3    0  502 -0.76176974112E+03  0.72101056177E+03  0.15957469305E+04  0.19096019808E+04  0.46999998093E+01 0. -1.
</event>
<event>
 5   0  0.1122628E-06  0.2600049E+04  0.7818609E-02  0.8368184E-01
       -1   -1    0    0    0  501  0.00000000000E+00  0.00000000000E+00  0.15533650876E+04  0.15533650876E+04  0.50400001928E-02 0. -1.
        1   -1    0    0  501    0  0.00000000000E+00  0.00000000000E+00 -0.10880017961E+04  0.10880017961E+04  0.50400001928E-02 0.  1.
    10030    2    1    2    0    0  0.00000000000E+00  0.00000000000E+00  0.46536329147E+03  0.26413668837E+04  0.26000492344E+04 0.  0.
        2    1    3    3  502    0 -0.82475055394E+03 -0.38378014744E+03 -0.71081997746E+03  0.11544547276E+04  0.25500000920E-02 0.  1.
       -2    1    3    3    0  502  0.82475055394E+03  0.38378014744E+03  0.11761832689E+04  0.14869121561E+04  0.25500000920E-02 0. -1.
</event>
<event>
 5   0  0.2586775E-06  0.2597319E+04  0.7818609E-02  0.8369113E-01
        2   -1    0    0  501    0  0.00000000000E+00  0.00000000000E+00  0.11509317810E+04  0.11509317810E+04  0.25500000920E-02 0.  1.
       -2   -1    0    0    0  501  0.00000000000E+00  0.00000000000E+00 -0.14653485508E+04  0.14653485508E+04  0.25500000920E-02 0. -1.
    10030    2    1    2    0    0  0.00000000000E+00  0.00000000000E+00 -0.31441676988E+03  0.26162803318E+04  0.25973187847E+04 0.  0.
        1    1    3    3  502    0  0.14472690374E+03 -0.86532840549E+03  0.80726644018E+03  0.11922324570E+04  0.50400001928E-02 0.  1.
       -1    1    3    3    0  502 -0.14472690374E+03  0.86532840549E+03 -0.11216832101E+04  0.14240478748E+04  0.50400001928E-02 0. -1.
</event>
<event>
 5   0  0.1100104E-06  0.2597472E+04  0.7818609E-02  0.8369060E-01
        1   -1    0    0  501    0  0.00000000000E+00  0.00000000000E+00  0.88488249614E+03  0.88488249615E+03  0.50400001928E-02 0. -1.
       -1   -1    0    0    0  501  0.00000000000E+00  0.00000000000E+00 -0.19061455663E+04  0.19061455663E+04  0.50400001928E-02 0.  1.
    10030    2    1    2    0    0  0.00000000000E+00  0.00000000000E+00 -0.10212630702E+04  0.27910280625E+04  0.25974717298E+04 0.  0.
        4    1    3    3  502    0 -0.10781627150E+04 -0.47242605307E+03  0.78975959129E+02  0.11797711773E+04  0.12699999809E+01 0.  1.
       -4    1    3    3    0  502  0.10781627150E+04  0.47242605307E+03 -0.11002390293E+04  0.16112568852E+04  0.12699999809E+01 0. -1.
</event>
<event>
 5   0  0.2820028E-06  0.2596063E+04  0.7818609E-02  0.8369540E-01
       -2   -1    0    0    0  501  0.00000000000E+00  0.00000000000E+00  0.10870151612E+04  0.10870151612E+04  0.25500000920E-02 0. -1.
        2   -1    0    0  501    0  0.00000000000E+00  0.00000000000E+00 -0.15500113831E+04  0.15500113831E+04  0.25500000920E-02 0.  1.
    10030    2    1    2    0    0  0.00000000000E+00  0.00000000000E+00 -0.46299622191E+03  0.26370265444E+04  0.25960630759E+04 0.  0.
        3    1    3    3  502    0  0.23576456063E+03 -0.66798165374E+03  0.87336952863E+03  0.11245260164E+04  0.10100000352E+00 0. -1.
       -3    1    3    3    0  502 -0.23576456063E+03  0.66798165374E+03 -0.13363657505E+04  0.15125005280E+04  0.10100000352E+00 0.  1.
</event>
<event>
 5   0  0.1088757E-06  0.2601539E+04  0.7818609E-02  0.8367679E-01
       -1   -1    0    0    0  501  0.00000000000E+00  0.00000000000E+00  0.12316722253E+04  0.12316722253E+04  0.50400001928E-02 0.  1.
        1   -1    0    0  501    0  0.00000000000E+00  0.00000000000E+00 -0.13737429403E+04  0.13737429403E+04  0.50400001928E-02 0. -1.
    10030    2    1    2    0    0  0.00000000000E+00  0.00000000000E+00 -0.14207071498E+03  0.26054151657E+04  0.26015387941E+04 0.  0.
        5    1    3    3  502    0  0.70940304933E+03 -0.68431372247E+03  0.77901730819E+03  0.12563550508E+04  0.46999998093E+01 0.  1.
       -5    1    3    3    0  502 -0.70940304933E+03  0.68431372247E+03 -0.92108802317E+03  0.13490601149E+04  0.46999998093E+01 0. -1.
</event>
<event>
 5   0  0.1055179E-06  0.2594400E+04  0.7818609E-02  0.8370106E-01
       -1   -1    0    0    0  501  0.00000000000E+00  0.00000000000E+00  0.16759327700E+04  0.16759327701E+04  0.50400001928E-02 0. -1.
        1   -1    0    0  501    0  0.00000000000E+00  0.00000000000E+00 -0.10040546309E+04  0.10040546309E+04  0.50400001928E-02 0.  1.
    10030    2    1    2    0    0  0.00000000000E+00  0.00000000000E+00  0.67187813918E+03  0.26799874009E+04  0.25944001687E+04 0.  0.
        3    1    3    3  502    0  0.12334270811E+04 -0.17406553660E+03  0.70994233197E+03  0.14337570577E+04  0.10100000352E+00 0. -1.
       -3    1    3    3    0  502 -0.12334270811E+04  0.17406553660E+03 -0.38064192786E+02  0.12462303433E+04  0.10100000352E+00 0.  1.
</event>
<event>
 5   0  0.9197000E-07  0.2585615E+04  0.7818609E-02  0.8373104E-01
        3   -1    0    0  501    0  0.00000000000E+00  0.00000000000E+00  0.14189711152E+04  0.14189711188E+04  0.10100000352E+00 0. -1.
       -3   -1    0    0    0  501  0.00000000000E+00  0.00000000000E+00 -0.11778617474E+04  0.11778617517E+04  0.10100000352E+00 0.  1.
    10030    2    1    2    0    0  0.00000000000E+00  0.00000000000E+00  0.24110936778E+03  0.25968328705E+04  0.25856154452E+04 0.  0.
        2    1    3    3  502    0 -0.16902862986E+03  0.12619410472E+04 -0.10466341099E+03  0.12775055045E+04  0.25500000920E-02 0.  1.
       -2    1    3    3    0  502  0.16902862986E+03 -0.12619410472E+04  0.34577277876E+03  0.13193273661E+04  0.25500000920E-02 0. -1.
</event>
<event>
 5   0  0.2746631E-06  0.2600809E+04  0.7818609E-02  0.8367926E-01
       -2   -1    0    0    0  501  0.00000000000E+00  0.00000000000E+00  0.12021429604E+04  0.12021429604E+04  0.25500000920E-02 0.  1.
        2   -1    0    0  501    0  0.00000000000E+00  0.00000000000E+00 -0.14066980340E+04  0.14066980340E+04  0.25500000920E-02 0. -1.
    10030    2    1    2    0    0  0.00000000000E+00  0.00000000000E+00 -0.20455507355E+03  0.26088409944E+04  0.26008092118E+04 0.  0.
        2    1    3    3  502    0  0.51603513427E+02  0.12196792121E+04  0.34718190773E+03  0.12691790969E+04  0.25500000920E-02 0.  1.
       -2    1    3    3    0  502 -0.51603513427E+02 -0.12196792121E+04 -0.55173698128E+03  0.13396618975E+04  0.25500000920E-02 0. -1.
</event>
<event>
 5   0  0.2623368E-06  0.2591444E+04  0.7818609E-02  0.8371113E-01
        2   -1    0    0  501    0  0.00000000000E+00  0.00000000000E+00  0.11946379935E+04  0.11946379935E+04  0.25500000920E-02 0.  1.
       -2   -1    0    0    0  501  0.00000000000E+00  0.00000000000E+00 -0.14053590249E+04  0.14053590249E+04  0.25500000920E-02 0. -1.
    10030    2    1    2    0    0  0.00000000000E+00  0.00000000000E+00 -0.21072103147E+03  0.25999970184E+04  0.25914438336E+04 0.  0.
        5    1    3    3  502    0  0.77492171967E+03  0.10034500351E+03  0.93163707131E+03  0.12159533354E+04  0.46999998093E+01 0.  1.
       -5    1    3    3    0  502 -0.77492171967E+03 -0.10034500351E+03 -0.11423581028E+04  0.13840436830E+04  0.46999998093E+01 0. -1.
</event>
<event>
 5   0  0.1100104E-06  0.2611689E+04  0.7818609E-02  0.8364242E-01
       -1   -1    0    0    0  501  0.00000000000E+00  0.00000000000E+00  0.11200971461E+04  0.11200971461E+04  0.50400001928E-02 0.  1.
        1   -1    0    0  501    0  0.00000000000E+00  0.00000000000E+00 -0.15223941713E+04  0.15223941713E+04  0.50400001928E-02 0. -1.
    10030    2    1    2    0    0  0.00000000000E+00  0.00000000000E+00 -0.40229702521E+03  0.26424913175E+04  0.26116886235E+04 0.  0.
        4    1    3    3  502    0 -0.43413419011E+03  0.41469788498E+03  0.97217545325E+03  0.11426169768E+04  0.12699999809E+01 0.  1.
       -4    1    3    3    0  502  0.43413419011E+03 -0.41469788498E+03 -0.13744724785E+04  0.14998743407E+04  0.12699999809E+01 0. -1.
</event>
<event>
 5   0  0.2705807E-06  0.2601979E+04  0.7818609E-02  0.8367529E-01
       -2   -1    0    0    0  501  0.00000000000E+00  0.00000000000E+00  0.66086037252E+03  0.66086037253E+03  0.25500000920E-02 0. -1.
        2   -1    0    0  501    0  0.00000000000E+00  0.00000000000E+00 -0.25611667939E+04  0.25611667939E+04  0.25500000920E-02 0.  1.
    10030    2    1    2    0    0  0.00000000000E+00  0.00000000000E+00 -0.19003064214E+04  0.32220271664E+04  0.26019789711E+04 0.  0.
        4    1    3    3  502    0 -0.11603352365E+04  0.33518865005E+03 -0.15489608851E+04  0.19641819490E+04  0.12699999809E+01 0. -1.
       -4    1    3    3    0  502  0.11603352365E+04 -0.33518865005E+03 -0.35134553630E+03  0.12578452175E+04  0.12699999809E+01 0.  1.
</event>
<event>
 5   0  0.1088757E-06  0.2598995E+04  0.7818609E-02  0.8368543E-01
       -1   -1    0    0    0  501  0.00000000000E+00  0.00000000000E+00  0.18096097466E+04  0.18096097466E+04  0.50400001928E-02 0.  1.
        1   -1    0    0  501    0  0.00000000000E+00  0.00000000000E+00 -0.93318128245E+03  0.93318128246E+03  0.50400001928E-02 0. -1.
    10030    2    1    2    0    0  0.00000000000E+00  0.00000000000E+00  0.87642846419E+03  0.27427910291E+04  0.25989951475E+04 0.  0.
        5    1    3    3  502    0 -0.45933344573E+02 -0.97568899815E+03 -0.46629006189E+03  0.10823711956E+04  0.46999998093E+01 0. -1.
       -5    1    3    3    0  502  0.45933344573E+02  0.97568899815E+03  0.13427185261E+04  0.16604198335E+04  0.46999998093E+01 0.  1.
</event>
<event>
 5   0  0.2746631E-06  0.2589009E+04  0.7818609E-02  0.8371944E-01
        2   -1    0    0  501    0  0.00000000000E+00  0.00000000000E+00  0.25111679105E+04  0.25111679105E+04  0.25500000920E-02 0. -1.
       -2   -1    0    0    0  501  0.00000000000E+00  0.00000000000E+00 -0.66731553272E+03  0.66731553272E+03  0.25500000920E-02 0.  1.
    10030    2    1    2    0    0  0.00000000000E+00  0.00000000000E+00  0.18438523778E+04  0.31784834433E+04  0.25890085763E+04 0.  0.
        2    1    3    3  502    0 -0.83533885961E+03 -0.82965985401E+03  0.15826149078E+04  0.19725101851E+04  0.25500000920E-02 0. -1.
       -2    1    3    3    0  502  0.83533885961E+03  0.82965985401E+03  0.26123746999E+03  0.12059732582E+04  0.25500000920E-02 0.  1.
</event>
<event>
 5   0  0.2820028E-06  0.2598752E+04  0.7818609E-02  0.8368625E-01
        2   -1    0    0  501    0  0.00000000000E+00  0.00000000000E+00  0.22678331432E+04  0.22678331432E+04  0.25500000920E-02 0.  1.
       -2   -1    0    0    0  501  0.00000000000E+00  0.00000000000E+00 -0.74448945613E+03  0.74448945614E+03  0.25500000920E-02 0. -1.
    10030    2    1    2    0    0  0.00000000000E+00  0.00000000000E+00  0.15233436871E+04  0.30123225994E+04  0.25987519031E+04 0.  0.
        3    1    3    3  502    0  0.82090410181E+03  0.53150310467E+03  0.17533981465E+04  0.20076812907E+04  0.10100000352E+00 0.  1.
       -3    1    3    3    0  502 -0.82090410181E+03 -0.53150310467E+03 -0.23005445940E+03  0.10046413087E+04  0.10100000352E+00 0. -1.
</event>
<event>
 5   0  0.1122628E-06  0.2597966E+04  0.7818609E-02  0.8368892E-01
        1   -1    0    0  501    0  0.00000000000E+00  0.00000000000E+00  0.29302717178E+04  0.29302717178E+04  0.50400001928E-02 0. -1.
       -1   -1    0    0    0  501  0.00000000000E+00  0.00000000000E+00 -0.57583646609E+03  0.57583646611E+03  0.50400001928E-02 0.  1.
    10030    2    1    2    0    0  0.00000000000E+00  0.00000000000E+00  0.23544352517E+04  0.35061081839E+04  0.25979663668E+04 0.  0.
        2    1    3    3  502    0  0.43805195276E+03 -0.66836413173E+03 -0.20484990021E+03  0.82496279160E+03  0.25500000920E-02 0. -1.
       -2    1    3    3    0  502 -0.43805195276E+03  0.66836413173E+03  0.25592851519E+04  0.26811453923E+04  0.25500000920E-02 0.  1.
</event>
<event>
 5   0  0.1088757E-06  0.2598328E+04  0.7818609E-02  0.8368769E-01
        1   -1    0    0  501    0  0.00000000000E+00  0.00000000000E+00  0.14838527367E+04  0.14838527367E+04  0.50400001928E-02 0.  1.
       -1   -1    0    0    0  501  0.00000000000E+00  0.00000000000E+00 -0.11374623111E+04  0.11374623111E+04  0.50400001928E-02 0. -1.
    10030    2    1    2    0    0  0.00000000000E+00  0.00000000000E+00  0.34639042567E+03  0.26213150478E+04  0.25983275877E+04 0.  0.
        5    1    3    3  502    0  0.67689655402E+03 -0.99902235138E+03 -0.31227919636E+03  0.12465051103E+04  0.46999998093E+01 0. -1.
       -5    1    3    3    0  502 -0.67689655402E+03  0.99902235138E+03  0.65866962203E+03  0.13748099376E+04  0.46999998093E+01 0.  1.
</event>
<event>
 5   0  0.2820028E-06  0.2598502E+04  0.7818609E-02  0.8368710E-01
        2   -1    0    0  501    0  0.00000000000E+00  0.00000000000E+00  0.19981685246E+04  0.19981685246E+04  0.25500000920E-02 0.  1.
       -2   -1    0    0    0  501  0.00000000000E+00  0.00000000000E+00 -0.84480026728E+03  0.84480026728E+03  0.25500000920E-02 0. -1.
    10030    2    1    2    0    0  0.00000000000E+00  0.00000000000E+00  0.11533682573E+04  0.28429687919E+04  0.25985021098E+04 0.  0.
        3    1    3    3  502    0  0.98437424524E+02 -0.11425491424E+04 -0.91461775874E+02  0.11504232855E+04  0.10100000352E+00 0. -1.
       -3    1    3    3    0  502 -0.98437424524E+02  0.11425491424E+04  0.12448300332E+04  0.16925455063E+04  0.10100000352E+00 0.  1.
</event>
<event>
 5   0  0.2820028E-06  0.2597379E+04  0.7818609E-02  0.8369092E-01
       -2   -1    0    0    0  501  0.00000000000E+00  0.00000000000E+00  0.16254036585E+04  0.16254036585E+04  0.25500000920E-02 0.  1.
        2   -1    0    0  501    0  0.00000000000E+00  0.00000000000E+00 -0.10376465277E+04  0.10376465277E+04  0.25500000920E-02 0. -1.
    10030    2    1    2    0    0  0.00000000000E+00  0.00000000000E+00  0.58775713079E+03  0.26630501862E+04  0.25973790346E+04 0.  0.
        3    1    3    3  502    0  0.32658296905E+03  0.93196969919E+03  0.11586313015E+04  0.15223831511E+04  0.10100000352E+00 0.  1.
       -3    1    3    3    0  502 -0.32658296905E+03 -0.93196969919E+03 -0.57087417071E+03  0.11406670351E+04  0.10100000352E+00 0. -1.
</event>
<event>
 5   0  0.2746631E-06  0.2598379E+04  0.7818609E-02  0.8368752E-01
        2   -1    0    0  501    0  0.00000000000E+00  0.00000000000E+00  0.11144598329E+04  0.11144598329E+04  0.25500000920E-02 0. -1.
       -2   -1    0    0    0  501  0.00000000000E+00  0.00000000000E+00 -0.15145398603E+04  0.15145398603E+04  0.25500000920E-02 0.  1.
    10030    2    1    2    0    0  0.00000000000E+00  0.00000000000E+00 -0.40008002738E+03  0.26289996931E+04  0.25983793715E+04 0.  0.
        2    1    3    3  502    0 -0.16538505130E+03  0.18548040091E+03 -0.14902689009E+04  0.15108463162E+04  0.25500000920E-02 0.  1.
       -2    1    3    3    0  502  0.16538505130E+03 -0.18548040091E+03  0.10901888735E+04  0.11181533769E+04  0.25500000920E-02 0. -1.
</event>
<event>
 5   0  0.1032076E-06  0.2598691E+04  0.7818609E-02  0.8368646E-01
        1   -1    0    0  501    0  0.00000000000E+00  0.00000000000E+00  0.19394935135E+04  0.19394935135E+04  0.50400001928E-02 0.  1.
       -1   -1    0    0    0  501  0.00000000000E+00  0.00000000000E+00 -0.87048414708E+03  0.87048414709E+03  0.50400001928E-02 0. -1.
    10030    2    1    2    0    0  0.00000000000E+00  0.00000000000E+00  0.10690093664E+04  0.28099776606E+04  0.25986907141E+04 0.  0.
        1    1    3    3  502    0 -0.74761821327E+02 -0.12637417938E+04  0.21802067448E+03  0.12845877416E+04  0.50400001928E-02 0. -1.
       -1    1    3    3    0  502  0.74761821327E+02  0.12637417938E+04  0.85098869194E+03  0.15253899190E+04  0.50400001928E-02 0.  1.
</event>
<event>
 5   0  0.2705807E-06  0.2597731E+04  0.7818609E-02  0.8368972E-01
       -2   -1    0    0    0  501  0.00000000000E+00  0.00000000000E+00  0.68962333283E+03  0.68962333283E+03  0.25500000920E-02 0.  1.
        2   -1    0    0  501    0  0.00000000000E+00  0.00000000000E+00 -0.24463369047E+04  0.24463369047E+04  0.25500000920E-02 0. -1.
    10030    2    1    2    0    0  0.00000000000E+00  0.00000000000E+00 -0.17567135719E+04  0.31359602375E+04  0.25977305553E+04 0.  0.
        4    1    3    3  502    0 -0.11672079724E+03 -0.19780575278E+03  0.66491401949E+03  0.70346508553E+03  0.12699999809E+01 0.  1.
       -4    1    3    3    0  502  0.11672079724E+03  0.19780575278E+03 -0.24216275914E+04  0.24324951520E+04  0.12699999809E+01 0. -1.
</event>
<event>
 5   0  0.2820028E-06  0.2602450E+04  0.7818609E-02  0.8367369E-01
        2   -1    0    0  501    0  0.00000000000E+00  0.00000000000E+00  0.72919070033E+03  0.72919070034E+03  0.25500000920E-02 0.  1.
       -2   -1    0    0    0  501  0.00000000000E+00  0.00000000000E+00 -0.23220077182E+04  0.23220077182E+04  0.25500000920E-02 0. -1.
    10030    2    1    2    0    0  0.00000000000E+00  0.00000000000E+00 -0.15928170179E+04  0.30511984186E+04  0.26024499490E+04 0.  0.
        3    1    3    3  502    0 -0.33273660408E+03  0.58856163054E+03 -0.20999031306E+04  0.22060624671E+04  0.10100000352E+00 0. -1.
       -3    1    3    3    0  502  0.33273660408E+03 -0.58856163054E+03  0.50708611268E+03  0.84513595149E+03  0.10100000352E+00 0.  1.
</event>
<event>
 5   0  0.1122628E-06  0.2600364E+04  0.7818609E-02  0.8368078E-01
        1   -1    0    0  501    0  0.00000000000E+00  0.00000000000E+00  0.90967327233E+03  0.90967327235E+03  0.50400001928E-02 0.  1.
       -1   -1    0    0    0  501  0.00000000000E+00  0.00000000000E+00 -0.18583299437E+04  0.18583299437E+04  0.50400001928E-02 0. -1.
    10030    2    1    2    0    0  0.00000000000E+00  0.00000000000E+00 -0.94865667138E+03  0.27680032161E+04  0.26003638830E+04 0.  0.
        2    1    3    3  502    0 -0.15407049357E+03  0.12669855378E+04 -0.21038540824E+03  0.12935424577E+04  0.25500000920E-02 0.  1.
       -2    1    3    3    0  502  0.15407049357E+03 -0.12669855378E+04 -0.73827126314E+03  0.14744607583E+04  0.25500000920E-02 0. -1.
</event>
<event>
 5   0  0.1032076E-06  0.2597390E+04  0.7818609E-02  0.8369088E-01
        1   -1    0    0  501    0  0.00000000000E+00  0.00000000000E+00  0.16653396381E+04  0.16653396381E+04  0.50400001928E-02 0. -1.
       -1   -1    0    0    0  501  0.00000000000E+00  0.00000000000E+00 -0.10127716672E+04  0.10127716673E+04  0.50400001928E-02 0.  1.
    10030    2    1    2    0    0  0.00000000000E+00  0.00000000000E+00  0.65256797085E+03  0.26781113054E+04  0.25973900761E+04 0.  0.
        1    1    3    3  502    0  0.60413535458E+03  0.46600974380E+03 -0.75731169808E+03  0.10750188910E+04  0.50400001928E-02 0.  1.
       -1    1    3    3    0  502 -0.60413535458E+03 -0.46600974380E+03  0.14098796689E+04  0.16030924143E+04  0.50400001928E-02 0. -1.
</event>
<event>
 5   0  0.2586775E-06  0.2606286E+04  0.7818609E-02  0.8366069E-01
        2   -1    0    0  501    0  0.00000000000E+00  0.00000000000E+00  0.21366275343E+04  0.21366275343E+04  0.25500000920E-02 0.  1.
       -2   -1    0    0    0  501  0.00000000000E+00  0.00000000000E+00 -0.79479518114E+03  0.79479518115E+03  0.25500000920E-02 0. -1.
    10030    2    1    2    0    0  0.00000000000E+00  0.00000000000E+00  0.13418323531E+04  0.29314227154E+04  0.26062856851E+04 0.  0.
        1    1    3    3  502    0 -0.19643698171E+03  0.12788571357E+04  0.49624190670E+03  0.13857557835E+04  0.50400001928E-02 0. -1.
       -1    1    3    3    0  502  0.19643698171E+03 -0.12788571357E+04  0.84559044643E+03  0.15456669320E+04  0.50400001928E-02 0.  1.
</event>
<event>
 5   0  0.1088757E-06  0.2597196E+04  0.7818609E-02  0.8369154E-01
        1   -1    0    0  501    0  0.00000000000E+00  0.00000000000E+00  0.14195049777E+04  0.14195049777E+04  0.50400001928E-02 0.  1.
       -1   -1    0    0    0  501  0.00000000000E+00  0.00000000000E+00 -0.11879896207E+04  0.11879896207E+04  0.50400001928E-02 0. -1.
    10030    2    1    2    0    0  0.00000000000E+00  0.00000000000E+00  0.23151535700E+03  0.26074945983E+04  0.25971963191E+04 0.  0.
        5    1    3    3  502    0  0.93411803487E+03 -0.49457602881E+03 -0.64165610867E+03  0.12364977166E+04  0.46999998093E+01 0. -1.
       -5    1    3    3    0  502 -0.93411803487E+03  0.49457602881E+03  0.87317146567E+03  0.13709968818E+04  0.46999998093E+01 0.  1.
</event>
<event>
 5   0  0.1032076E-06  0.2600243E+04  0.7818609E-02  0.8368119E-01
       -1   -1    0    0    0  501  0.00000000000E+00  0.00000000000E+00  0.11077181486E+04  0.11077181486E+04  0.50400001928E-02 0.  1.
        1   -1    0    0  501    0  0.00000000000E+00  0.00000000000E+00 -0.15259445347E+04  0.15259445347E+04  0.50400001928E-02 0. -1.
    10030    2    1    2    0    0  0.00000000000E+00  0.00000000000E+00 -0.41822638615E+03  0.26336626833E+04  0.26002434154E+04 0.  0.
        1    1    3    3  502    0 -0.83310488587E+03 -0.69067225518E+03  0.52072023302E+03  0.12009335852E+04  0.50400001928E-02 0.  1.
       -1    1    3    3    0  502  0.83310488587E+03  0.69067225518E+03 -0.93894661917E+03  0.14327290981E+04  0.50400001928E-02 0. -1.
</event>
<event>
 5   0  0.2820028E-06  0.2608609E+04  0.7818609E-02  0.8365283E-01
        2   -1    0    0  501    0  0.00000000000E+00  0.00000000000E+00  0.98214726186E+03  0.98214726187E+03  0.25500000920E-02 0. -1.
       -2   -1    0    0    0  501  0.00000000000E+00  0.00000000000E+00 -0.17321337212E+04  0.17321337212E+04  0.25500000920E-02 0.  1.
    10030    2    1    2    0    0  0.00000000000E+00  0.00000000000E+00 -0.74998645931E+03  0.27142809830E+04  0.26086091248E+04 0.  0.
        3    1    3    3  502    0  0.52701950145E+02  0.57313784037E+03 -0.15928536140E+04  0.16936490561E+04  0.10100000352E+00 0.  1.
       -3    1    3    3    0  502 -0.52701950145E+02 -0.57313784037E+03  0.84286715466E+03  0.10206319269E+04  0.10100000352E+00 0. -1.
</event>
<event>
 5   0  0.1032076E-06  0.2602731E+04  0.7818609E-02  0.8367274E-01
       -1   -1    0    0    0  501  0.00000000000E+00  0.00000000000E+00  0.28976379563E+04  0.28976379563E+04  0.50400001928E-02 0. -1.
        1   -1    0    0  501    0  0.00000000000E+00  0.00000000000E+00 -0.58445954344E+03  0.58445954346E+03  0.50400001928E-02 0.  1.
    10030    2    1    2    0    0  0.00000000000E+00  0.00000000000E+00  0.23131784128E+04  0.34820974997E+04  0.26027309942E+04 0.  0.
        1    1    3    3  502    0 -0.10426410832E+04  0.20093814545E+03  0.21631705056E+04  0.24097267901E+04  0.50400001928E-02 0. -1.
       -1    1    3    3    0  502  0.10426410832E+04 -0.20093814545E+03  0.15000790726E+03  0.10723707096E+04  0.50400001928E-02 0.  1.
</event>
<event>
 5   0  0.1032076E-06  0.2597269E+04  0.7818609E-02  0.8369129E-01
        1   -1    0    0  501    0  0.00000000000E+00  0.00000000000E+00  0.13196791505E+04  0.13196791505E+04  0.50400001928E-02 0. -1.
       -1   -1    0    0    0  501  0.00000000000E+00  0.00000000000E+00 -0.12779257745E+04  0.12779257746E+04  0.50400001928E-02 0.  1.
    10030    2    1    2    0    0  0.00000000000E+00  0.00000000000E+00  0.41753375906E+02  0.25976049250E+04  0.25972693357E+04 0.  0.
        1    1    3    3  502    0 -0.58568246579E+03 -0.11461732619E+04  0.19327907438E+03  0.13015736236E+04  0.50400001928E-02 0.  1.
       -1    1    3    3    0  502  0.58568246579E+03  0.11461732619E+04 -0.15152569847E+03  0.12960313014E+04  0.50400001928E-02 0. -1.
</event>
<event>
 5   0  0.1122628E-06  0.2596294E+04  0.7818609E-02  0.8369461E-01
        1   -1    0    0  501    0  0.00000000000E+00  0.00000000000E+00  0.11849070766E+04  0.11849070766E+04  0.50400001928E-02 0.  1.
       -1   -1    0    0    0  501  0.00000000000E+00  0.00000000000E+00 -0.14222088659E+04  0.14222088659E+04  0.50400001928E-02 0. -1.
    10030    2    1    2    0    0  0.00000000000E+00  0.00000000000E+00 -0.23730178929E+03  0.26071159425E+04  0.25962937812E+04 0.  0.
        2    1    3    3  502    0 -0.13649321104E+03 -0.95461475431E+03  0.75403181472E+03  0.12241256894E+04  0.25500000920E-02 0.  1.
       -2    1    3    3    0  502  0.13649321104E+03  0.95461475431E+03 -0.99133360401E+03  0.13829902531E+04  0.25500000920E-02 0. -1.
</event>
<event>
 5   0  0.2586775E-06  0.2607090E+04  0.7818609E-02  0.8365797E-01
       -2   -1    0    0    0  501  0.00000000000E+00  0.00000000000E+00  0.95059072575E+03  0.95059072576E+03  0.25500000920E-02 0. -1.
        2   -1    0    0  501    0  0.00000000000E+00  0.00000000000E+00 -0.17875518085E+04  0.17875518085E+04  0.25500000920E-02 0.  1.
    10030    2    1    2    0    0  0.00000000000E+00  0.00000000000E+00 -0.83696108279E+03  0.27381425343E+04  0.26070904633E+04 0.  0.
        1    1    3    3  502    0  0.35024712606E+03  0.56361238532E+03  0.75992630506E+03  0.10088706356E+04  0.50400001928E-02 0. -1.
       -1    1    3    3    0  502 -0.35024712606E+03 -0.56361238532E+03 -0.15968873878E+04  0.17292718987E+04  0.50400001928E-02 0.  1.
</event>
<event>
 5   0  0.9197000E-07  0.2595976E+04  0.7818609E-02  0.8369569E-01
        3   -1    0    0  501    0  0.00000000000E+00  0.00000000000E+00  0.19412747387E+04  0.19412747414E+04  0.10100000352E+00 0.  1.
       -3   -1    0    0    0  501  0.00000000000E+00  0.00000000000E+00 -0.86786919095E+03  0.86786919682E+03  0.10100000352E+00 0. -1.
    10030    2    1    2    0    0  0.00000000000E+00  0.00000000000E+00  0.10734055478E+04  0.28091439382E+04  0.25959757694E+04 0.  0.
        2    1    3    3  502    0 -0.15371561701E+03  0.22170673903E+03  0.19106009724E+04  0.19295539497E+04  0.25500000920E-02 0.  1.
       -2    1    3    3    0  502  0.15371561701E+03 -0.22170673903E+03 -0.83719542456E+03  0.87958998855E+03  0.25500000920E-02 0. -1.
</event>
<event>
 5   0  0.2820028E-06  0.2600611E+04  0.7818609E-02  0.8367994E-01
       -2   -1    0    0    0  501  0.00000000000E+00  0.00000000000E+00  0.10310899482E+04  0.10310899482E+04  0.25500000920E-02 0.  1.
        2   -1    0    0  501    0  0.00000000000E+00  0.00000000000E+00 -0.16398125624E+04  0.16398125624E+04  0.25500000920E-02 0. -1.
    10030    2    1    2    0    0  0.00000000000E+00  0.00000000000E+00 -0.60872261416E+03  0.26709025106E+04  0.26006108898E+04 0.  0.
        3    1    3    3  502    0 -0.12871947309E+04 -0.16287614052E+03 -0.39268177480E+03  0.13555802813E+04  0.10100000352E+00 0.  1.
       -3    1    3    3    0  502  0.12871947309E+04  0.16287614052E+03 -0.21604083936E+03  0.13153222293E+04  0.10100000352E+00 0. -1.
</event>
<event>
 5   0  0.2746631E-06  0.2600784E+04  0.7818609E-02  0.8367935E-01
        2   -1    0    0  501    0  0.00000000000E+00  0.00000000000E+00  0.25829355338E+04  0.25829355338E+04  0.25500000920E-02 0.  1.
       -2   -1    0    0    0  501  0.00000000000E+00  0.00000000000E+00 -0.65468904213E+03  0.65468904213E+03  0.25500000920E-02 0. -1.
    10030    2    1    2    0    0  0.00000000000E+00  0.00000000000E+00  0.19282464917E+04  0.32376245759E+04  0.26007841821E+04 0.  0.
        2    1    3    3  502    0 -0.99542920701E+03 -0.22733362414E+03 -0.38328948789E+02  0.10217773687E+04  0.25500000920E-02 0. -1.
       -2    1    3    3    0  502  0.99542920701E+03  0.22733362414E+03  0.19665754405E+04  0.22158472072E+04  0.25500000920E-02 0.  1.
</event>
<event>
 5   0  0.2705807E-06  0.2597877E+04  0.7818609E-02  0.8368923E-01
       -2   -1    0    0    0  501  0.00000000000E+00  0.00000000000E+00  0.87385247249E+03  0.87385247250E+03  0.25500000920E-02 0.  1.
        2   -1    0    0  501    0  0.00000000000E+00  0.00000000000E+00 -0.19308082794E+04  0.19308082794E+04  0.25500000920E-02 0. -1.
    10030    2    1    2    0    0  0.00000000000E+00  0.00000000000E+00 -0.10569558069E+04  0.28046607519E+04  0.25978772787E+04 0.  0.
        4    1    3    3  502    0 -0.51658444848E+03 -0.49297859126E+03  0.64294841651E+03  0.96087026338E+03  0.12699999809E+01 0.  1.
       -4    1    3    3    0  502  0.51658444848E+03  0.49297859126E+03 -0.16999042234E+04  0.18437904885E+04  0.12699999809E+01 0. -1.
</event>
<event>
 5   0  0.2820028E-06  0.2597074E+04  0.7818609E-02  0.8369196E-01
       -2   -1    0    0    0  501  0.00000000000E+00  0.00000000000E+00  0.83527636129E+03  0.83527636130E+03  0.25500000920E-02 0. -1.
        2   -1    0    0  501    0  0.00000000000E+00  0.00000000000E+00 -0.20187312567E+04  0.20187312567E+04  0.25500000920E-02 0.  1.
    10030    2    1    2    0    0  0.00000000000E+00  0.00000000000E+00 -0.11834548954E+04  0.28540076180E+04  0.25970741218E+04 0.  0.
        3    1    3    3  502    0  0.37666811643E+02  0.58837089084E+03 -0.18631681063E+04  0.19542247814E+04  0.10100000352E+00 0.  1.
       -3    1    3    3    0  502 -0.37666811643E+02 -0.58837089084E+03  0.67971321083E+03  0.89978283661E+03  0.10100000352E+00 0. -1.
</event>
<event>
 5   0  0.1032076E-06  0.2601159E+04  0.7818609E-02  0.8367808E-01
       -1   -1    0    0    0  501  0.00000000000E+00  0.00000000000E+00  0.67041688664E+03  0.67041688666E+03  0.50400001928E-02 0.  1.
        1   -1    0    0  501    0  0.00000000000E+00  0.00000000000E+00 -0.25230675081E+04  0.25230675081E+04  0.50400001928E-02 0. -1.
    10030    2    1    2    0    0  0.00000000000E+00  0.00000000000E+00 -0.18526506215E+04  0.31934843948E+04  0.26011590214E+04 0.  0.
        1    1    3    3  502    0 -0.84074369516E+03  0.98806263496E+03 -0.81387476010E+03  0.15315057482E+04  0.50400001928E-02 0. -1.
       -1    1    3    3    0  502  0.84074369516E+03 -0.98806263496E+03 -0.10387758614E+04  0.16619786466E+04  0.50400001928E-02 0.  1.
</event>
<event>
 5   0  0.1088757E-06  0.2602001E+04  0.7818609E-02  0.8367522E-01
       -1   -1    0    0    0  501  0.00000000000E+00  0.00000000000E+00  0.72533354903E+03  0.72533354904E+03  0.50400001928E-02 0. -1.
        1   -1    0    0  501    0  0.00000000000E+00  0.00000000000E+00 -0.23335505551E+04  0.23335505551E+04  0.50400001928E-02 0.  1.
    10030    2    1    2    0    0  0.00000000000E+00  0.00000000000E+00 -0.16082170061E+04  0.30588841041E+04  0.26020011576E+04 0.  0.
        5    1    3    3  502    0  0.56799885647E+03  0.56523740099E+02  0.57025656809E+03  0.80686571224E+03  0.46999998093E+01 0. -1.
       -5    1    3    3    0  502 -0.56799885647E+03 -0.56523740099E+02 -0.21784735741E+04  0.22520183919E+04  0.46999998093E+01 0.  1.
</event>
<event>
 5   0  0.9197000E-07  0.2603302E+04  0.7818609E-02  0.8367080E-01
       -3   -1    0    0    0  501  0.00000000000E+00  0.00000000000E+00  0.14593438632E+04  0.14593438667E+04  0.10100000352E+00 0. -1.
        3   -1    0    0  501    0  0.00000000000E+00  0.00000000000E+00 -0.11609981486E+04  0.11609981530E+04  0.10100000352E+00 0.  1.
    10030    2    1    2    0    0  0.00000000000E+00  0.00000000000E+00  0.29834571461E+03  0.26203420197E+04  0.26033021597E+04 0.  0.
        3    1    3    3  502    0 -0.11269788507E+04  0.51968841246E+03 -0.24600124037E+03  0.12651774565E+04  0.10100000352E+00 0.  1.
       -3    1    3    3    0  502  0.11269788507E+04 -0.51968841246E+03  0.54434695498E+03  0.13551645632E+04  0.10100000352E+00 0. -1.
</event>
<event>
 5   0  0.2705807E-06  0.2603793E+04  0.7818609E-02  0.8366914E-01
       -2   -1    0    0    0  501  0.00000000000E+00  0.00000000000E+00  0.81989851430E+03  0.81989851430E+03  0.25500000920E-02 0. -1.
        2   -1    0    0  501    0  0.00000000000E+00  0.00000000000E+00 -0.20672485913E+04  0.20672485913E+04  0.25500000920E-02 0.  1.
    10030    2    1    2    0    0  0.00000000000E+00  0.00000000000E+00 -0.12473500770E+04  0.28871471056E+04  0.26037926559E+04 0.  0.
        4    1    3    3  502    0  0.72477808180E+03 -0.37359262401E+03  0.50168967997E+03  0.95737603086E+03  0.12699999809E+01 0. -1.
       -4    1    3    3    0  502 -0.72477808180E+03  0.37359262401E+03 -0.17490397570E+04  0.19297710748E+04  0.12699999809E+01 0.  1.
</event>
<event>
 5   0  0.2746631E-06  0.2600716E+04  0.7818609E-02  0.8367958E-01
        2   -1    0    0  501    0  0.00000000000E+00  0.00000000000E+00  0.13929673000E+04  0.13929673000E+04  0.25500000920E-02 0. -1.
       -2   -1    0    0    0  501  0.00000000000E+00  0.00000000000E+00 -0.12139055723E+04  0.12139055723E+04  0.25500000920E-02 0.  1.
    10030    2    1    2    0    0  0.00000000000E+00  0.00000000000E+00  0.17906172763E+03  0.26068728723E+04  0.26007158764E+04 0.  0.
        2    1    3    3  502    0  0.64947820840E+03  0.68719763764E+03  0.98431896524E+03  0.13648979309E+04  0.25500000920E-02 0. -1.
       -2    1    3    3    0  502 -0.64947820840E+03 -0.68719763764E+03 -0.80525723761E+03  0.12419749414E+04  0.25500000920E-02 0.  1.
</event>
<event>
 5   0  0.1122628E-06  0.2589190E+04  0.7818609E-02  0.8371882E-01
       -1   -1    0    0    0  501  0.00000000000E+00  0.00000000000E+00  0.76331004284E+03  0.76331004286E+03  0.50400001928E-02 0. -1.
        1   -1    0    0  501    0  0.00000000000E+00  0.00000000000E+00 -0.21956695659E+04  0.21956695659E+04  0.50400001928E-02 0.  1.
    10030    2    1    2    0    0  0.00000000000E+00  0.00000000000E+00 -0.14323595230E+04  0.29589796088E+04  0.25891903217E+04 0.  0.
        2    1    3    3  502    0  0.29844746753E+03  0.10194697156E+03  0.71873701802E+03  0.78488660134E+03  0.25500000920E-02 0. -1.
       -2    1    3    3    0  502 -0.29844746753E+03 -0.10194697156E+03 -0.21510965411E+04  0.21740930074E+04  0.25500000920E-02 0.  1.
</event>
<event>
 5   0  0.9197000E-07  0.2554248E+04  0.7818609E-02  0.8383910E-01
        4   -1    0    0  501    0  0.00000000000E+00  0.00000000000E+00  0.13215603779E+04  0.13215609882E+04  0.12699999809E+01 0.  1.
       -4   -1    0    0    0  501  0.00000000000E+00  0.00000000000E+00 -0.12341808918E+04  0.12341815453E+04  0.12699999809E+01 0. -1.
    10030    2    1    2    0    0  0.00000000000E+00  0.00000000000E+00  0.87379486093E+02  0.25557425334E+04  0.25542483674E+04 0.  0.
        5    1    3    3  502    0  0.40710988260E+03  0.34542362575E+03  0.12045270801E+04  0.13175596816E+04  0.46999998093E+01 0.  1.
       -5    1    3    3    0  502 -0.40710988260E+03 -0.34542362575E+03 -0.11171475940E+04  0.12381828518E+04  0.46999998093E+01 0. -1.
</event>
<event>
 5   0  0.2586775E-06  0.2558609E+04  0.7818609E-02  0.8382398E-01
       -2   -1    0    0    0  501  0.00000000000E+00  0.00000000000E+00  0.12216246083E+04  0.12216246083E+04  0.25500000920E-02 0.  1.
        2   -1    0    0  501    0  0.00000000000E+00  0.00000000000E+00 -0.13397076893E+04  0.13397076893E+04  0.25500000920E-02 0. -1.
    10030    2    1    2    0    0  0.00000000000E+00  0.00000000000E+00 -0.11808308093E+03  0.25613322976E+04  0.25586089042E+04 0.  0.
        1    1    3    3  502    0 -0.77882688930E+03  0.13085133073E+03  0.94847221151E+03  0.12342175377E+04  0.50400001928E-02 0.  1.
       -1    1    3    3    0  502  0.77882688930E+03 -0.13085133073E+03 -0.10665552924E+04  0.13271147600E+04  0.50400001928E-02 0. -1.
</event>
<event>
 5   0  0.1032076E-06  0.2596619E+04  0.7818609E-02  0.8369351E-01
        1   -1    0    0  501    0  0.00000000000E+00  0.00000000000E+00  0.17275303828E+04  0.17275303828E+04  0.50400001928E-02 0.  1.
       -1   -1    0    0    0  501  0.00000000000E+00  0.00000000000E+00 -0.97573226980E+03  0.97573226981E+03  0.50400001928E-02 0. -1.
    10030    2    1    2    0    0  0.00000000000E+00  0.00000000000E+00  0.75179811295E+03  0.27032626526E+04  0.25966186794E+04 0.  0.
        1    1    3    3  502    0 -0.20173705657E+02  0.85598239013E+03  0.13919401251E+04  0.16342001538E+04  0.50400001928E-02 0.  1.
       -1    1    3    3    0  502  0.20173705657E+02 -0.85598239013E+03 -0.64014201217E+03  0.10690624988E+04  0.50400001928E-02 0. -1.
</event>
<event>
 5   0  0.1088757E-06  0.2587013E+04  0.7818609E-02  0.8372626E-01
       -1   -1    0    0    0  501  0.00000000000E+00  0.00000000000E+00  0.15733722375E+04  0.15733722375E+04  0.50400001928E-02 0.  1.
        1   -1    0    0  501    0  0.00000000000E+00  0.00000000000E+00 -0.10634222255E+04  0.10634222255E+04  0.50400001928E-02 0. -1.
    10030    2    1    2    0    0  0.00000000000E+00  0.00000000000E+00  0.50995001200E+03  0.26367944631E+04  0.25870129543E+04 0.  0.
        5    1    3    3  502    0 -0.22420991702E+03  0.89668871408E+03 -0.66732217761E+03  0.11400270679E+04  0.46999998093E+01 0. -1.
       -5    1    3    3    0  502  0.22420991702E+03 -0.89668871408E+03  0.11772721896E+04  0.14967673952E+04  0.46999998093E+01 0.  1.
</event>
<event>
 5   0  0.1032076E-06  0.2601609E+04  0.7818609E-02  0.8367655E-01
       -1   -1    0    0    0  501  0.00000000000E+00  0.00000000000E+00  0.16639795336E+04  0.16639795336E+04  0.50400001928E-02 0.  1.
        1   -1    0    0  501    0  0.00000000000E+00  0.00000000000E+00 -0.10168952939E+04  0.10168952939E+04  0.50400001928E-02 0. -1.
    10030    2    1    2    0    0  0.00000000000E+00  0.00000000000E+00  0.64708423973E+03  0.26808748275E+04  0.26016094687E+04 0.  0.
        1    1    3    3  502    0 -0.12704213351E+04  0.24851616867E+03  0.19172960785E+03  0.13086217548E+04  0.50400001928E-02 0.  1.
       -1    1    3    3    0  502  0.12704213351E+04 -0.24851616867E+03  0.45535463188E+03  0.13722530727E+04  0.50400001928E-02 0. -1.
</event>
<event>
 5   0  0.1055179E-06  0.2599688E+04  0.7818609E-02  0.8368307E-01
        1   -1    0    0  501    0  0.00000000000E+00  0.00000000000E+00  0.13934307727E+04  0.13934307727E+04  0.50400001928E-02 0.  1.
       -1   -1    0    0    0  501  0.00000000000E+00  0.00000000000E+00 -0.12125423632E+04  0.12125423632E+04  0.50400001928E-02 0. -1.
    10030    2    1    2    0    0  0.00000000000E+00  0.00000000000E+00  0.18088840950E+03  0.26059731359E+04  0.25996875520E+04 0.  0.
        3    1    3    3  502    0  0.11995959860E+04  0.48556824619E+02 -0.40896266536E+03  0.12683212396E+04  0.10100000352E+00 0. -1.
       -3    1    3    3    0  502 -0.11995959860E+04 -0.48556824619E+02  0.58985107485E+03  0.13376518963E+04  0.10100000352E+00 0.  1.
</event>
<event>
 5   0  0.2586775E-06  0.2600941E+04  0.7818609E-02  0.8367882E-01
       -2   -1    0    0    0  501  0.00000000000E+00  0.00000000000E+00  0.10303272950E+04  0.10303272950E+04  0.25500000920E-02 0.  1.
        2   -1    0    0  501    0  0.00000000000E+00  0.00000000000E+00 -0.16414428279E+04  0.16414428279E+04  0.25500000920E-02 0. -1.
    10030    2    1    2    0    0  0.00000000000E+00  0.00000000000E+00 -0.61111553290E+03  0.26717701228E+04  0.26009408672E+04 0.  0.
        1    1    3    3  502    0  0.46916394953E+03  0.52663893109E+03 -0.14279046809E+04  0.15926001234E+04  0.50400001928E-02 0. -1.
       -1    1    3    3    0  502 -0.46916394953E+03 -0.52663893109E+03  0.81678914802E+03  0.10791699994E+04  0.50400001928E-02 0.  1.
</event>
<event>
 5   0  0.2586775E-06  0.2597579E+04  0.7818609E-02  0.8369024E-01
       -2   -1    0    0    0  501  0.00000000000E+00  0.00000000000E+00  0.16112266291E+04  0.16112266291E+04  0.25500000920E-02 0.  1.
        2   -1    0    0  501    0  0.00000000000E+00  0.00000000000E+00 -0.10469379191E+04  0.10469379191E+04  0.25500000920E-02 0. -1.
    10030    2    1    2    0    0  0.00000000000E+00  0.00000000000E+00  0.56428871003E+03  0.26581645482E+04  0.25975790685E+04 0.  0.
        1    1    3    3  502    0 -0.16424342182E+03  0.16994396314E+03  0.15890364171E+04  0.16065159779E+04  0.50400001928E-02 0.  1.
       -1    1    3    3    0  502  0.16424342182E+03 -0.16994396314E+03 -0.10247477071E+04  0.10516485703E+04  0.50400001928E-02 0. -1.
</event>
<event>
 5   0  0.9197000E-07  0.2600941E+04  0.7818609E-02  0.8367882E-01
        3   -1    0    0  501    0  0.00000000000E+00  0.00000000000E+00  0.19861773379E+04  0.19861773405E+04  0.10100000352E+00 0.  1.
       -3   -1    0    0    0  501  0.00000000000E+00  0.00000000000E+00 -0.85149676769E+03  0.85149677368E+03  0.10100000352E+00 0. -1.
    10030    2    1    2    0    0  0.00000000000E+00  0.00000000000E+00  0.11346805702E+04  0.28376741141E+04  0.26009410569E+04 0.  0.
        4    1    3    3  502    0 -0.12376294439E+04 -0.39855097525E+03  0.53947203246E+03  0.14076935770E+04  0.12699999809E+01 0. -1.
       -4    1    3    3    0  502  0.12376294439E+04  0.39855097525E+03  0.59520853774E+03  0.14299805371E+04  0.12699999809E+01 0.  1.
</event>
<event>
 5   0  0.2705807E-06  0.2598310E+04  0.7818609E-02  0.8368776E-01
        2   -1    0    0  501    0  0.00000000000E+00  0.00000000000E+00  0.15625669086E+04  0.15625669086E+04  0.25500000920E-02 0.  1.
       -2   -1    0    0    0  501  0.00000000000E+00  0.00000000000E+00 -0.10801479116E+04  0.10801479116E+04  0.25500000920E-02 0. -1.
    10030    2    1    2    0    0  0.00000000000E+00  0.00000000000E+00  0.48241899708E+03  0.26427148202E+04  0.25983097452E+04 0.  0.
        4    1    3    3  502    0  0.12312767701E+03  0.57280257674E+03 -0.93814945332E+03  0.11060692684E+04  0.12699999809E+01 0. -1.
       -4    1    3    3    0  502 -0.12312767701E+03 -0.57280257674E+03  0.14205684504E+04  0.15366455518E+04  0.12699999809E+01 0.  1.
</event>
<event>
 5   0  0.1122628E-06  0.2601359E+04  0.7818609E-02  0.8367740E-01
        1   -1    0    0  501    0  0.00000000000E+00  0.00000000000E+00  0.12977681103E+04  0.12977681103E+04  0.50400001928E-02 0. -1.
       -1   -1    0    0    0  501  0.00000000000E+00  0.00000000000E+00 -0.13035970816E+04  0.13035970816E+04  0.50400001928E-02 0.  1.
    10030    2    1    2    0    0  0.00000000000E+00  0.00000000000E+00 -0.58289713298E+01  0.26013651919E+04  0.26013586613E+04 0.  0.
        2    1    3    3  502    0 -0.10981655396E+04  0.36236812118E+03  0.59247638881E+03  0.12993484825E+04  0.25500000920E-02 0.  1.
       -2    1    3    3    0  502  0.10981655396E+04 -0.36236812118E+03 -0.59830536014E+03  0.13020167094E+04  0.25500000920E-02 0. -1.
</event>
<event>
 5   0  0.2623368E-06  0.2600368E+04  0.7818609E-02  0.8368076E-01
       -2   -1    0    0    0  501  0.00000000000E+00  0.00000000000E+00  0.11893170703E+04  0.11893170703E+04  0.25500000920E-02 0. -1.
        2   -1    0    0  501    0  0.00000000000E+00  0.00000000000E+00 -0.14213859251E+04  0.14213859251E+04  0.25500000920E-02 0.  1.
    10030    2    1    2    0    0  0.00000000000E+00  0.00000000000E+00 -0.23206885483E+03  0.26107029954E+04  0.26003680848E+04 0.  0.
        5    1    3    3  502    0  0.28220371871E+03 -0.48004753739E+03 -0.12955962060E+04  0.14102043100E+04  0.46999998093E+01 0.  1.
       -5    1    3    3    0  502 -0.28220371871E+03  0.48004753739E+03  0.10635273511E+04  0.12004986854E+04  0.46999998093E+01 0. -1.
</event>
<event>
 5   0  0.2623368E-06  0.2597604E+04  0.7818609E-02  0.8369016E-01
       -2   -1    0    0    0  501  0.00000000000E+00  0.00000000000E+00  0.11650658264E+04  0.11650658264E+04  0.25500000920E-02 0. -1.
        2   -1    0    0  501    0  0.00000000000E+00  0.00000000000E+00 -0.14478896026E+04  0.14478896026E+04  0.25500000920E-02 0.  1.
    10030    2    1    2    0    0  0.00000000000E+00  0.00000000000E+00 -0.28282377626E+03  0.26129554290E+04  0.25976040471E+04 0.  0.
        5    1    3    3  502    0 -0.10286163745E+04 -0.55059478681E+03 -0.71544924053E+03  0.13686109640E+04  0.46999998093E+01 0.  1.
       -5    1    3    3    0  502  0.10286163745E+04  0.55059478681E+03  0.43262546427E+03  0.12443444649E+04  0.46999998093E+01 0. -1.
</event>
<event>
 5   0  0.2820028E-06  0.2603845E+04  0.7818609E-02  0.8366896E-01
        2   -1    0    0  501    0  0.00000000000E+00  0.00000000000E+00  0.12583741175E+04  0.12583741175E+04  0.25500000920E-02 0. -1.
       -2   -1    0    0    0  501  0.00000000000E+00  0.00000000000E+00 -0.13469784267E+04  0.13469784267E+04  0.25500000920E-02 0.  1.
    10030    2    1    2    0    0  0.00000000000E+00  0.00000000000E+00 -0.88604309237E+02  0.26053525442E+04  0.26038454555E+04 0.  0.
        3    1    3    3  502    0  0.12445821486E+04 -0.38149081135E+03 -0.66287927366E+02  0.13034239768E+04  0.10100000352E+00 0.  1.
       -3    1    3    3    0  502 -0.12445821486E+04  0.38149081135E+03 -0.22316381870E+02  0.13019285675E+04  0.10100000352E+00 0. -1.
</event>
<event>
 5   0  0.2623368E-06  0.2628327E+04  0.7818609E-02  0.8358642E-01
       -2   -1    0    0    0  501  0.00000000000E+00  0.00000000000E+00  0.54006043424E+03  0.54006043425E+03  0.25500000920E-02 0. -1.
        2   -1    0    0  501    0  0.00000000000E+00  0.00000000000E+00 -0.31978375563E+04  0.31978375563E+04  0.25500000920E-02 0.  1.
    10030    2    1    2    0    0  0.00000000000E+00  0.00000000000E+00 -0.26577771221E+04  0.37378979905E+04  0.26283268741E+04 0.  0.
        5    1    3    3  502    0 -0.73171622316E+03 -0.10889986006E+04 -0.14360410813E+04  0.19451382112E+04  0.46999998093E+01 0.  1.
       -5    1    3    3    0  502  0.73171622316E+03  0.10889986006E+04 -0.12217360407E+04  0.17927597794E+04  0.46999998093E+01 0. -1.
</event>
<event>
 5   0  0.2746631E-06  0.2589948E+04  0.7818609E-02  0.8371624E-01
        2   -1    0    0  501    0  0.00000000000E+00  0.00000000000E+00  0.15570604786E+04  0.15570604786E+04  0.25500000920E-02 0.  1.
       -2   -1    0    0    0  501  0.00000000000E+00  0.00000000000E+00 -0.10770018542E+04  0.10770018542E+04  0.25500000920E-02 0. -1.
    10030    2    1    2    0    0  0.00000000000E+00  0.00000000000E+00  0.48005862449E+03  0.26340623328E+04  0.25899475072E+04 0.  0.
        2    1    3    3  502    0 -0.15811138949E+03 -0.82470363583E+03 -0.76257227436E+03  0.11343067363E+04  0.25500000920E-02 0. -1.
       -2    1    3    3    0  502  0.15811138949E+03  0.82470363583E+03  0.12426308988E+04  0.14997555965E+04  0.25500000920E-02 0.  1.
</event>
<event>
 5   0  0.2623368E-06  0.2591429E+04  0.7818609E-02  0.8371118E-01
        2   -1    0    0  501    0  0.00000000000E+00  0.00000000000E+00  0.16148408729E+04  0.16148408729E+04  0.25500000920E-02 0. -1.
       -2   -1    0    0    0  501  0.00000000000E+00  0.00000000000E+00 -0.10396539607E+04  0.10396539607E+04  0.25500000920E-02 0.  1.
    10030    2    1    2    0    0  0.00000000000E+00  0.00000000000E+00  0.57518691221E+03  0.26544948336E+04  0.25914287252E+04 0.  0.
        5    1    3    3  502    0  0.28618111304E+03  0.47093881213E+03 -0.91362199374E+03  0.10669630882E+04  0.46999998093E+01 0.  1.
       -5    1    3    3    0  502 -0.28618111304E+03 -0.47093881213E+03  0.14888089060E+04  0.15875317454E+04  0.46999998093E+01 0. -1.
</event>
<event>
 5   0  0.2746631E-06  0.2590682E+04  0.7818609E-02  0.8371373E-01
        2   -1    0    0  501    0  0.00000000000E+00  0.00000000000E+00  0.20718536476E+04  0.20718536476E+04  0.25500000920E-02 0. -1.
       -2   -1    0    0    0  501  0.00000000000E+00  0.00000000000E+00 -0.80985838790E+03  0.80985838790E+03  0.25500000920E-02 0.  1.
    10030    2    1    2    0    0  0.00000000000E+00  0.00000000000E+00  0.12619952597E+04  0.28817120355E+04  0.25906818060E+04 0.  0.
        2    1    3    3  502    0 -0.12088920364E+04 -0.36101514860E+03  0.30450026777E+03  0.12978722226E+04  0.25500000920E-02 0.  1.
       -2    1    3    3    0  502  0.12088920364E+04  0.36101514860E+03  0.95749499190E+03  0.15838398128E+04  0.25500000920E-02 0. -1.
</event>
<event>
 5   0  0.2705807E-06  0.2599664E+04  0.7818609E-02  0.8368315E-01
       -2   -1    0    0    0  501  0.00000000000E+00  0.00000000000E+00  0.65797871563E+03  0.65797871563E+03  0.25500000920E-02 0. -1.
        2   -1    0    0  501    0  0.00000000000E+00  0.00000000000E+00 -0.25678090343E+04  0.25678090343E+04  0.25500000920E-02 0.  1.
    10030    2    1    2    0    0  0.00000000000E+00  0.00000000000E+00 -0.19098303187E+04  0.32257877499E+04  0.25996643555E+04 0.  0.
        4    1    3    3  502    0  0.64994122101E+03 -0.13515503339E+03 -0.23415988391E+04  0.24338811002E+04  0.12699999809E+01 0.  1.
       -4    1    3    3    0  502 -0.64994122101E+03  0.13515503339E+03  0.43176852039E+03  0.79190664975E+03  0.12699999809E+01 0. -1.
</event>
<event>
 5   0  0.2586775E-06  0.2598733E+04  0.7818609E-02  0.8368632E-01
       -2   -1    0    0    0  501  0.00000000000E+00  0.00000000000E+00  0.93301968682E+03  0.93301968682E+03  0.25500000920E-02 0. -1.
        2   -1    0    0  501    0  0.00000000000E+00  0.00000000000E+00 -0.18095587018E+04  0.18095587018E+04  0.25500000920E-02 0.  1.
    10030    2    1    2    0    0  0.00000000000E+00  0.00000000000E+00 -0.87653901497E+03  0.27425783886E+04  0.25987334555E+04 0.  0.
        1    1    3    3  502    0 -0.37733327513E+03 -0.97755995070E+03  0.37260212778E+03  0.11121313787E+04  0.50400001928E-02 0. -1.
       -1    1    3    3    0  502  0.37733327513E+03  0.97755995070E+03 -0.12491411427E+04  0.16304470100E+04  0.50400001928E-02 0.  1.
</event>
<event>
 5   0  0.1032076E-06  0.2604132E+04  0.7818609E-02  0.8366799E-01
        1   -1    0    0  501    0  0.00000000000E+00  0.00000000000E+00  0.21887710601E+04  0.21887710601E+04  0.50400001928E-02 0.  1.
       -1   -1    0    0    0  501  0.00000000000E+00  0.00000000000E+00 -0.77457908248E+03  0.77457908249E+03  0.50400001928E-02 0. -1.
    10030    2    1    2    0    0  0.00000000000E+00  0.00000000000E+00  0.14141919776E+04  0.29633501426E+04  0.26041323158E+04 0.  0.
        1    1    3    3  502    0 -0.89772334081E+03 -0.19477381440E+03 -0.34297938019E+03  0.98055029991E+03  0.50400001928E-02 0. -1.
       -1    1    3    3    0  502  0.89772334081E+03  0.19477381440E+03  0.17571713578E+04  0.19827998427E+04  0.50400001928E-02 0.  1.
</event>
<event>
 5   0  0.1088757E-06  0.2584398E+04  0.7818609E-02  0.8373520E-01
        1   -1    0    0  501    0  0.00000000000E+00  0.00000000000E+00  0.11628260659E+04  0.11628260659E+04  0.50400001928E-02 0.  1.
       -1   -1    0    0    0  501  0.00000000000E+00  0.00000000000E+00 -0.14359650759E+04  0.14359650759E+04  0.50400001928E-02 0. -1.
    10030    2    1    2    0    0  0.00000000000E+00  0.00000000000E+00 -0.27313901003E+03  0.25987911418E+04  0.25843975081E+04 0.  0.
        5    1    3    3  502    0 -0.30736644539E+03 -0.69839454117E+03  0.91208392314E+03  0.11891796499E+04  0.46999998093E+01 0.  1.
       -5    1    3    3    0  502  0.30736644539E+03  0.69839454117E+03 -0.11852229332E+04  0.14096114919E+04  0.46999998093E+01 0. -1.
</event>
<event>
 5   0  0.1122628E-06  0.2596576E+04  0.7818609E-02  0.8369365E-01
       -1   -1    0    0    0  501  0.00000000000E+00  0.00000000000E+00  0.71463607136E+03  0.71463607138E+03  0.50400001928E-02 0.  1.
        1   -1    0    0  501    0  0.00000000000E+00  0.00000000000E+00 -0.23586148775E+04  0.23586148775E+04  0.50400001928E-02 0. -1.
    10030    2    1    2    0    0  0.00000000000E+00  0.00000000000E+00 -0.16439788061E+04  0.30732509489E+04  0.25965756449E+04 0.  0.
        2    1    3    3  502    0  0.42233000827E+03  0.24103950984E+03 -0.22467585874E+04  0.22987794220E+04  0.25500000920E-02 0. -1.
       -2    1    3    3    0  502 -0.42233000827E+03 -0.24103950984E+03  0.60277978126E+03  0.77447152684E+03  0.25500000920E-02 0.  1.
</event>
<event>
 5   0  0.1088757E-06  0.2620790E+04  0.7818609E-02  0.8361173E-01
       -1   -1    0    0    0  501  0.00000000000E+00  0.00000000000E+00  0.13787778786E+04  0.13787778786E+04  0.50400001928E-02 0. -1.
        1   -1    0    0  501    0  0.00000000000E+00  0.00000000000E+00 -0.12454041042E+04  0.12454041042E+04  0.50400001928E-02 0.  1.
    10030    2    1    2    0    0  0.00000000000E+00  0.00000000000E+00  0.13337377442E+03  0.26241819827E+04  0.26207904370E+04 0.  0.
        5    1    3    3  502    0 -0.12799383111E+04  0.22343881342E+03 -0.10367015765E+03  0.13034326124E+04  0.46999998093E+01 0. -1.
       -5    1    3    3    0  502  0.12799383111E+04 -0.22343881342E+03  0.23704393207E+03  0.13207493703E+04  0.46999998093E+01 0.  1.
</event>
<event>
 5   0  0.2586775E-06  0.2645296E+04  0.7818609E-02  0.8352976E-01
       -2   -1    0    0    0  501  0.00000000000E+00  0.00000000000E+00  0.74959938317E+03  0.74959938317E+03  0.25500000920E-02 0. -1.
        2   -1    0    0  501    0  0.00000000000E+00  0.00000000000E+00 -0.23337770798E+04  0.23337770798E+04  0.25500000920E-02 0.  1.
    10030    2    1    2    0    0  0.00000000000E+00  0.00000000000E+00 -0.15841776966E+04  0.30833764630E+04  0.26452960964E+04 0.  0.
        1    1    3    3  502    0  0.69110586618E+03  0.10363888642E+04 -0.13103172066E+04  0.18079436877E+04  0.50400001928E-02 0.  1.
       -1    1    3    3    0  502 -0.69110586618E+03 -0.10363888642E+04 -0.27386049001E+03  0.12754327752E+04  0.50400001928E-02 0. -1.
</event>
<event>
 5   0  0.2705807E-06  0.2599094E+04  0.7818609E-02  0.8368509E-01
       -2   -1    0    0    0  501  0.00000000000E+00  0.00000000000E+00  0.16596763945E+04  0.16596763945E+04  0.25500000920E-02 0. -1.
        2   -1    0    0  501    0  0.00000000000E+00  0.00000000000E+00 -0.10175609898E+04  0.10175609898E+04  0.25500000920E-02 0.  1.
    10030    2    1    2    0    0  0.00000000000E+00  0.00000000000E+00  0.64211540470E+03  0.26772373842E+04  0.25990936533E+04 0.  0.
        4    1    3    3  502    0  0.89830397256E+03 -0.91604761780E+03  0.10813766132E+03  0.12875514094E+04  0.12699999809E+01 0.  1.
       -4    1    3    3    0  502 -0.89830397256E+03  0.91604761780E+03  0.53397774339E+03  0.13896859748E+04  0.12699999809E+01 0. -1.
</event>
<event>
 5   0  0.1100104E-06  0.2598029E+04  0.7818609E-02  0.8368871E-01
        1   -1    0    0  501    0  0.00000000000E+00  0.00000000000E+00  0.21711294625E+04  0.21711294625E+04  0.50400001928E-02 0.  1.
       -1   -1    0    0    0  501  0.00000000000E+00  0.00000000000E+00 -0.77721698458E+03  0.77721698460E+03  0.50400001928E-02 0. -1.
    10030    2    1    2    0    0  0.00000000000E+00  0.00000000000E+00  0.13939124780E+04  0.29483464471E+04  0.25980290176E+04 0.  0.
        4    1    3    3  502    0 -0.77220896584E+03 -0.53168626243E+03 -0.32341555208E+03  0.99176418609E+03  0.12699999809E+01 0. -1.
       -4    1    3    3    0  502  0.77220896584E+03  0.53168626243E+03  0.17173280300E+04  0.19565822610E+04  0.12699999809E+01 0.  1.
</event>
<event>
 5   0  0.1122628E-06  0.2596354E+04  0.7818609E-02  0.8369441E-01
       -1   -1    0    0    0  501  0.00000000000E+00  0.00000000000E+00  0.12936782680E+04  0.12936782681E+04  0.50400001928E-02 0.  1.
        1   -1    0    0  501    0  0.00000000000E+00  0.00000000000E+00 -0.13026916090E+04  0.13026916090E+04  0.50400001928E-02 0. -1.
    10030    2    1    2    0    0  0.00000000000E+00  0.00000000000E+00 -0.90133409512E+01  0.25963698771E+04  0.25963542320E+04 0.  0.
        2    1    3    3  502    0  0.39391413283E+02  0.12784920616E+04 -0.22625152839E+03  0.12989547295E+04  0.25500000920E-02 0. -1.
       -2    1    3    3    0  502 -0.39391413283E+02 -0.12784920616E+04  0.21723818744E+03  0.12974151476E+04  0.25500000920E-02 0.  1.
</event>
<event>
 5   0  0.1122628E-06  0.2594828E+04  0.7818609E-02  0.8369960E-01
        1   -1    0    0  501    0  0.00000000000E+00  0.00000000000E+00  0.21798728032E+04  0.21798728033E+04  0.50400001928E-02 0.  1.
       -1   -1    0    0    0  501  0.00000000000E+00  0.00000000000E+00 -0.77219334093E+03  0.77219334095E+03  0.50400001928E-02 0. -1.
    10030    2    1    2    0    0  0.00000000000E+00  0.00000000000E+00  0.14076794623E+04  0.29520661442E+04  0.25948281352E+04 0.  0.
        2    1    3    3  502    0  0.29688627291E+03  0.11412862206E+04  0.13192436562E+04  0.17694856656E+04  0.25500000920E-02 0.  1.
       -2    1    3    3    0  502 -0.29688627291E+03 -0.11412862206E+04  0.88435806129E+02  0.11825804786E+04  0.25500000920E-02 0. -1.
</event>
<event>
 5   0  0.2746631E-06  0.2669444E+04  0.7818609E-02  0.8344988E-01
       -2   -1    0    0    0  501  0.00000000000E+00  0.00000000000E+00  0.60272370871E+03  0.60272370872E+03  0.25500000920E-02 0.  1.
        2   -1    0    0  501    0  0.00000000000E+00  0.00000000000E+00 -0.29557202006E+04  0.29557202006E+04  0.25500000920E-02 0. -1.
    10030    2    1    2    0    0  0.00000000000E+00  0.00000000000E+00 -0.23529964919E+04  0.35584439093E+04  0.26694438681E+04 0.  0.
        2    1    3    3  502    0 -0.87458135198E+03  0.82884855728E+03 -0.41119590046E+03  0.12731710571E+04  0.25500000920E-02 0.  1.
       -2    1    3    3    0  502  0.87458135198E+03 -0.82884855728E+03 -0.19418005914E+04  0.22852728522E+04  0.25500000920E-02 0. -1.
</event>
<event>
 5   0  0.1032076E-06  0.2595017E+04  0.7818609E-02  0.8369896E-01
       -1   -1    0    0    0  501  0.00000000000E+00  0.00000000000E+00  0.16365979121E+04  0.16365979121E+04  0.50400001928E-02 0. -1.
        1   -1    0    0  501    0  0.00000000000E+00  0.00000000000E+00 -0.10286756580E+04  0.10286756580E+04  0.50400001928E-02 0.  1.
    10030    2    1    2    0    0  0.00000000000E+00  0.00000000000E+00  0.60792225410E+03  0.26652735701E+04  0.25950170975E+04 0.  0.
        1    1    3    3  502    0  0.76982545475E+03  0.94567581816E+03 -0.15143275935E+03  0.12287659926E+04  0.50400001928E-02 0.  1.
       -1    1    3    3    0  502 -0.76982545475E+03 -0.94567581816E+03  0.75935501346E+03  0.14365075775E+04  0.50400001928E-02 0. -1.
</event>
<event>
 5   0  0.1100104E-06  0.2602017E+04  0.7818609E-02  0.8367517E-01
       -1   -1    0    0    0  501  0.00000000000E+00  0.00000000000E+00  0.96005728148E+03  0.96005728150E+03  0.50400001928E-02 0.  1.
        1   -1    0    0  501    0  0.00000000000E+00  0.00000000000E+00 -0.17630433256E+04  0.17630433256E+04  0.50400001928E-02 0. -1.
    10030    2    1    2    0    0  0.00000000000E+00  0.00000000000E+00 -0.80298604407E+03  0.27231006071E+04  0.26020165890E+04 0.  0.
        4    1    3    3  502    0 -0.10521117772E+04  0.38653975813E+03 -0.10927359485E+04  0.15653835448E+04  0.12699999809E+01 0. -1.
       -4    1    3    3    0  502  0.10521117772E+04 -0.38653975813E+03  0.28974990443E+03  0.11577170623E+04  0.12699999809E+01 0.  1.
</event>
<event>
 5   0  0.1055179E-06  0.2597161E+04  0.7818609E-02  0.8369166E-01
        1   -1    0    0  501    0  0.00000000000E+00  0.00000000000E+00  0.18929074809E+04  0.18929074810E+04  0.50400001928E-02 0.  1.
       -1   -1    0    0    0  501  0.00000000000E+00  0.00000000000E+00 -0.89085809561E+03  0.89085809563E+03  0.50400001928E-02 0. -1.
    10030    2    1    2    0    0  0.00000000000E+00  0.00000000000E+00  0.10020493853E+04  0.27837655766E+04  0.25971614918E+04 0.  0.
        3    1    3    3  502    0  0.94591377311E+03 -0.88951614325E+03  0.48184762895E+03  0.13849797771E+04  0.10100000352E+00 0. -1.
       -3    1    3    3    0  502 -0.94591377311E+03  0.88951614325E+03  0.52020175638E+03  0.13987857995E+04  0.10100000352E+00 0.  1.
</event>
<event>
 5   0  0.1100104E-06  0.2595659E+04  0.7818609E-02  0.8369677E-01
       -1   -1    0    0    0  501  0.00000000000E+00  0.00000000000E+00  0.13237148964E+04  0.13237148964E+04  0.50400001928E-02 0. -1.
        1   -1    0    0  501    0  0.00000000000E+00  0.00000000000E+00 -0.12724502708E+04  0.12724502708E+04  0.50400001928E-02 0.  1.
    10030    2    1    2    0    0  0.00000000000E+00  0.00000000000E+00  0.51264625567E+02  0.25961651672E+04  0.25956589748E+04 0.  0.
        4    1    3    3  502    0 -0.37187187749E+03 -0.86432895001E+03  0.91967828769E+03  0.13157366731E+04  0.12699999809E+01 0. -1.
       -4    1    3    3    0  502  0.37187187749E+03  0.86432895001E+03 -0.86841366212E+03  0.12804284941E+04  0.12699999809E+01 0.  1.
</event>
<event>
 5   0  0.2705807E-06  0.2611456E+04  0.7818609E-02  0.8364320E-01
       -2   -1    0    0    0  501  0.00000000000E+00  0.00000000000E+00  0.10745426170E+04  0.10745426170E+04  0.25500000920E-02 0. -1.
        2   -1    0    0  501    0  0.00000000000E+00  0.00000000000E+00 -0.15866524544E+04  0.15866524544E+04  0.25500000920E-02 0.  1.
    10030    2    1    2    0    0  0.00000000000E+00  0.00000000000E+00 -0.51210983741E+03  0.26611950713E+04  0.26114560540E+04 0.  0.
        4    1    3    3  502    0  0.70936834442E+03 -0.53381021943E+03 -0.12317711695E+04  0.15183605058E+04  0.12699999809E+01 0.  1.
       -4    1    3    3    0  502 -0.70936834442E+03  0.53381021943E+03  0.71966133212E+03  0.11428345656E+04  0.12699999809E+01 0. -1.
</event>
<event>
 5   0  0.2746631E-06  0.2572277E+04  0.7818609E-02  0.8377680E-01
        2   -1    0    0  501    0  0.00000000000E+00  0.00000000000E+00  0.19792986614E+04  0.19792986614E+04  0.25500000920E-02 0.  1.
       -2   -1    0    0    0  501  0.00000000000E+00  0.00000000000E+00 -0.83572640288E+03  0.83572640289E+03  0.25500000920E-02 0. -1.
    10030    2    1    2    0    0  0.00000000000E+00  0.00000000000E+00  0.11435722585E+04  0.28150250643E+04  0.25722769295E+04 0.  0.
        2    1    3    3  502    0  0.11523880982E+04 -0.56517758061E+03  0.48202019904E+03  0.13710461330E+04  0.25500000920E-02 0. -1.
       -2    1    3    3    0  502 -0.11523880982E+04  0.56517758061E+03  0.66155205945E+03  0.14439789313E+04  0.25500000920E-02 0.  1.
</event>
<event>
 5   0  0.2623368E-06  0.2598698E+04  0.7818609E-02  0.8368644E-01
       -2   -1    0    0    0  501  0.00000000000E+00  0.00000000000E+00  0.10617511405E+04  0.10617511405E+04  0.25500000920E-02 0. -1.
        2   -1    0    0  501    0  0.00000000000E+00  0.00000000000E+00 -0.15901163782E+04  0.15901163782E+04  0.25500000920E-02 0.  1.
    10030    2    1    2    0    0  0.00000000000E+00  0.00000000000E+00 -0.52836523767E+03  0.26518675188E+04  0.25986980418E+04 0.  0.
        5    1    3    3  502    0 -0.12415780995E+04 -0.38204019158E+03 -0.23505205157E+03  0.13201297066E+04  0.46999998093E+01 0.  1.
       -5    1    3    3    0  502  0.12415780995E+04  0.38204019158E+03 -0.29331318610E+03  0.13317378122E+04  0.46999998093E+01 0. -1.
</event>
<event>
 5   0  0.2820028E-06  0.2611255E+04  0.7818609E-02  0.8364388E-01
        2   -1    0    0  501    0  0.00000000000E+00  0.00000000000E+00  0.10438409042E+04  0.10438409042E+04  0.25500000920E-02 0.  1.
       -2   -1    0    0    0  501  0.00000000000E+00  0.00000000000E+00 -0.16330684691E+04  0.16330684691E+04  0.25500000920E-02 0. -1.
    10030    2    1    2    0    0  0.00000000000E+00  0.00000000000E+00 -0.58922756490E+03  0.26769093732E+04  0.26112553818E+04 0.  0.
        3    1    3    3  502    0  0.39953617102E+03 -0.12417800707E+04 -0.35091979570E+03  0.13508484775E+04  0.10100000352E+00 0.  1.
       -3    1    3    3    0  502 -0.39953617102E+03  0.12417800707E+04 -0.23830776919E+03  0.13260608957E+04  0.10100000352E+00 0. -1.
</event>
<event>
 5   0  0.2586775E-06  0.2601047E+04  0.7818609E-02  0.8367846E-01
       -2   -1    0    0    0  501  0.00000000000E+00  0.00000000000E+00  0.10048430664E+04  0.10048430664E+04  0.25500000920E-02 0. -1.
        2   -1    0    0  501    0  0.00000000000E+00  0.00000000000E+00 -0.16832099001E+04  0.16832099001E+04  0.25500000920E-02 0.  1.
    10030    2    1    2    0    0  0.00000000000E+00  0.00000000000E+00 -0.67836683371E+03  0.26880529665E+04  0.26010473255E+04 0.  0.
        1    1    3    3  502    0 -0.41610101271E+03 -0.63578719306E+03 -0.14299490836E+04  0.16192960783E+04  0.50400001928E-02 0.  1.
       -1    1    3    3    0  502  0.41610101271E+03  0.63578719306E+03  0.75158224988E+03  0.10687568882E+04  0.50400001928E-02 0. -1.
</event>
<event>
 5   0  0.1055179E-06  0.2596836E+04  0.7818609E-02  0.8369277E-01
       -1   -1    0    0    0  501  0.00000000000E+00  0.00000000000E+00  0.12392895117E+04  0.12392895117E+04  0.50400001928E-02 0.  1.
        1   -1    0    0  501    0  0.00000000000E+00  0.00000000000E+00 -0.13603675207E+04  0.13603675207E+04  0.50400001928E-02 0. -1.
    10030    2    1    2    0    0  0.00000000000E+00  0.00000000000E+00 -0.12107800902E+03  0.25996570325E+04  0.25968359213E+04 0.  0.
        3    1    3    3  502    0  0.67685477582E+03  0.10593075178E+04  0.26481311778E+03  0.12846753684E+04  0.10100000352E+00 0.  1.
       -3    1    3    3    0  502 -0.67685477582E+03 -0.10593075178E+04 -0.38589112680E+03  0.13149816640E+04  0.10100000352E+00 0. -1.
</event>
<event>
 5   0  0.1055179E-06  0.2595997E+04  0.7818609E-02  0.8369562E-01
       -1   -1    0    0    0  501  0.00000000000E+00  0.00000000000E+00  0.89427209043E+03  0.89427209044E+03  0.50400001928E-02 0.  1.
        1   -1    0    0  501    0  0.00000000000E+00  0.00000000000E+00 -0.18839908053E+04  0.18839908053E+04  0.50400001928E-02 0. -1.
    10030    2    1    2    0    0  0.00000000000E+00  0.00000000000E+00 -0.98971871486E+03  0.27782628957E+04  0.25959972233E+04 0.  0.
        3    1    3    3  502    0  0.33321080797E+03  0.54174232501E+03  0.71608070303E+03  0.95775037077E+03  0.10100000352E+00 0.  1.
       -3    1    3    3    0  502 -0.33321080797E+03 -0.54174232501E+03 -0.17057994179E+04  0.18205125250E+04  0.10100000352E+00 0. -1.
</event>
<event>
 5   0  0.2623368E-06  0.2603081E+04  0.7818609E-02  0.8367155E-01
        2   -1    0    0  501    0  0.00000000000E+00  0.00000000000E+00  0.82583581270E+03  0.82583581270E+03  0.25500000920E-02 0.  1.
       -2   -1    0    0    0  501  0.00000000000E+00  0.00000000000E+00 -0.20512642631E+04  0.20512642631E+04  0.25500000920E-02 0. -1.
    10030    2    1    2    0    0  0.00000000000E+00  0.00000000000E+00 -0.12254284504E+04  0.28771000758E+04  0.26030808591E+04 0.  0.
        5    1    3    3  502    0  0.71386632547E+03  0.59838399922E+03 -0.16174239743E+04  0.18664808983E+04  0.46999998093E+01 0. -1.
       -5    1    3    3    0  502 -0.71386632547E+03 -0.59838399922E+03  0.39199552388E+03  0.10106191775E+04  0.46999998093E+01 0.  1.
</event>
<event>
 5   0  0.1100104E-06  0.2603635E+04  0.7818609E-02  0.8366967E-01
       -1   -1    0    0    0  501  0.00000000000E+00  0.00000000000E+00  0.10656786269E+04  0.10656786270E+04  0.50400001928E-02 0.  1.
        1   -1    0    0  501    0  0.00000000000E+00  0.00000000000E+00 -0.15902814509E+04  0.15902814509E+04  0.50400001928E-02 0. -1.
    10030    2    1    2    0    0  0.00000000000E+00  0.00000000000E+00 -0.52460282398E+03  0.26559600779E+04  0.26036351151E+04 0.  0.
        4    1    3    3  502    0 -0.63412904213E+03 -0.92768937825E+03 -0.93277759325E+03  0.14604118857E+04  0.12699999809E+01 0. -1.
       -4    1    3    3    0  502  0.63412904213E+03  0.92768937825E+03  0.40817476927E+03  0.11955481922E+04  0.12699999809E+01 0.  1.
</event>
<event>
 5   0  0.2586775E-06  0.2600071E+04  0.7818609E-02  0.8368177E-01
        2   -1    0    0  501    0  0.00000000000E+00  0.00000000000E+00  0.16811634842E+04  0.16811634842E+04  0.25500000920E-02 0.  1.
       -2   -1    0    0    0  501  0.00000000000E+00  0.00000000000E+00 -0.10053112424E+04  0.10053112424E+04  0.25500000920E-02 0. -1.
    10030    2    1    2    0    0  0.00000000000E+00  0.00000000000E+00  0.67585224183E+03  0.26864747266E+04  0.26000711921E+04 0.  0.
        1    1    3    3  502    0 -0.34174856285E+02  0.92864248582E+03 -0.60143265556E+03  0.11069173530E+04  0.50400001928E-02 0. -1.
       -1    1    3    3    0  502  0.34174856285E+02 -0.92864248582E+03  0.12772848974E+04  0.15795573736E+04  0.50400001928E-02 0.  1.
</event>
<event>
 5   0  0.2820028E-06  0.2606627E+04  0.7818609E-02  0.8365954E-01
        2   -1    0    0  501    0  0.00000000000E+00  0.00000000000E+00  0.29789400157E+04  0.29789400157E+04  0.25500000920E-02 0. -1.
       -2   -1    0    0    0  501  0.00000000000E+00  0.00000000000E+00 -0.57021141118E+03  0.57021141118E+03  0.25500000920E-02 0.  1.
    10030    2    1    2    0    0  0.00000000000E+00  0.00000000000E+00  0.24087286046E+04  0.35491514269E+04  0.26066266247E+04 0.  0.
        3    1    3    3  502    0 -0.37532756253E+03  0.41852523027E+03 -0.39664049386E+03  0.68801005744E+03  0.10100000352E+00 0.  1.
       -3    1    3    3    0  502  0.37532756253E+03 -0.41852523027E+03  0.28053690984E+04  0.28611413695E+04  0.10100000352E+00 0. -1.
</event>
<event>
 5   0  0.1032076E-06  0.2597376E+04  0.7818609E-02  0.8369093E-01
       -1   -1    0    0    0  501  0.00000000000E+00  0.00000000000E+00  0.95039870482E+03  0.95039870483E+03  0.50400001928E-02 0.  1.
        1   -1    0    0  501    0  0.00000000000E+00  0.00000000000E+00 -0.17746135107E+04  0.17746135107E+04  0.50400001928E-02 0. -1.
    10030    2    1    2    0    0  0.00000000000E+00  0.00000000000E+00 -0.82421480587E+03  0.27250122155E+04  0.25973758928E+04 0.  0.
        1    1    3    3  502    0 -0.10595347884E+04  0.57668279285E+03 -0.91680108965E+03  0.15151571699E+04  0.50400001928E-02 0. -1.
       -1    1    3    3    0  502  0.10595347884E+04 -0.57668279285E+03  0.92586283778E+02  0.12098550456E+04  0.50400001928E-02 0.  1.
</event>
<event>
 5   0  0.2820028E-06  0.2599120E+04  0.7818609E-02  0.8368500E-01
        2   -1    0    0  501    0  0.00000000000E+00  0.00000000000E+00  0.80200752842E+03  0.80200752843E+03  0.25500000920E-02 0.  1.
       -2   -1    0    0    0  501  0.00000000000E+00  0.00000000000E+00 -0.21057859756E+04  0.21057859756E+04  0.25500000920E-02 0. -1.
    10030    2    1    2    0    0  0.00000000000E+00  0.00000000000E+00 -0.13037784472E+04  0.29077935041E+04  0.25991200093E+04 0.  0.
        3    1    3    3  502    0  0.38738327357E+03  0.12254956453E+04 -0.43683436486E+03  0.13574717860E+04  0.10100000352E+00 0.  1.
       -3    1    3    3    0  502 -0.38738327357E+03 -0.12254956453E+04 -0.86694408236E+03  0.15503217181E+04  0.10100000352E+00 0. -1.
</event>
<event>
 5   0  0.2586775E-06  0.2599761E+04  0.7818609E-02  0.8368282E-01
       -2   -1    0    0    0  501  0.00000000000E+00  0.00000000000E+00  0.13477420424E+04  0.13477420424E+04  0.25500000920E-02 0.  1.
        2   -1    0    0  501    0  0.00000000000E+00  0.00000000000E+00 -0.12537186998E+04  0.12537186998E+04  0.25500000920E-02 0. -1.
    10030    2    1    2    0    0  0.00000000000E+00  0.00000000000E+00  0.94023342643E+02  0.26014607422E+04  0.25997610667E+04 0.  0.
        1    1    3    3  502    0  0.12519768039E+04  0.10107705862E+03 -0.28791136724E+03  0.12886254090E+04  0.50400001928E-02 0. -1.
       -1    1    3    3    0  502 -0.12519768039E+04 -0.10107705862E+03  0.38193470988E+03  0.13128353332E+04  0.50400001928E-02 0.  1.
</event>
<event>
 5   0  0.1122628E-06  0.2614051E+04  0.7818609E-02  0.8363444E-01
        1   -1    0    0  501    0  0.00000000000E+00  0.00000000000E+00  0.98062558914E+03  0.98062558915E+03  0.50400001928E-02 0. -1.
       -1   -1    0    0    0  501  0.00000000000E+00  0.00000000000E+00 -0.17420672469E+04  0.17420672469E+04  0.50400001928E-02 0.  1.
    10030    2    1    2    0    0  0.00000000000E+00  0.00000000000E+00 -0.76144165778E+03  0.27226928361E+04  0.26140510480E+04 0.  0.
        2    1    3    3  502    0  0.64694333063E+03  0.11327643172E+04 -0.46549804079E+03  0.13850556297E+04  0.25500000920E-02 0. -1.
       -2    1    3    3    0  502 -0.64694333063E+03 -0.11327643172E+04 -0.29594361699E+03  0.13376372064E+04  0.25500000920E-02 0.  1.
</event>
<event>
 5   0  0.2705807E-06  0.2598077E+04  0.7818609E-02  0.8368855E-01
        2   -1    0    0  501    0  0.00000000000E+00  0.00000000000E+00  0.12468208603E+04  0.12468208603E+04  0.25500000920E-02 0.  1.
       -2   -1    0    0    0  501  0.00000000000E+00  0.00000000000E+00 -0.13534427065E+04  0.13534427065E+04  0.25500000920E-02 0. -1.
    10030    2    1    2    0    0  0.00000000000E+00  0.00000000000E+00 -0.10662184625E+03  0.26002635668E+04  0.25980766730E+04 0.  0.
        4    1    3    3  502    0  0.68718682052E+03 -0.26879335397E+03  0.10167117170E+04  0.12562563121E+04  0.12699999809E+01 0.  1.
       -4    1    3    3    0  502 -0.68718682052E+03  0.26879335397E+03 -0.11233335632E+04  0.13440072547E+04  0.12699999809E+01 0. -1.
</event>
<event>
 5   0  0.2746631E-06  0.2595555E+04  0.7818609E-02  0.8369713E-01
        2   -1    0    0  501    0  0.00000000000E+00  0.00000000000E+00  0.14360358079E+04  0.14360358079E+04  0.25500000920E-02 0.  1.
       -2   -1    0    0    0  501  0.00000000000E+00  0.00000000000E+00 -0.11728300662E+04  0.11728300662E+04  0.25500000920E-02 0. -1.
    10030    2    1    2    0    0  0.00000000000E+00  0.00000000000E+00  0.26320574172E+03  0.26088658741E+04  0.25955546395E+04 0.  0.
        2    1    3    3  502    0  0.32656273014E+02 -0.12631665046E+04 -0.16583691212E+03  0.12744245493E+04  0.25500000920E-02 0. -1.
       -2    1    3    3    0  502 -0.32656273014E+02  0.12631665046E+04  0.42904265384E+03  0.13344413248E+04  0.25500000920E-02 0.  1.
</event>
<event>
 5   0  0.1055179E-06  0.2547048E+04  0.7818609E-02  0.8386413E-01
       -1   -1    0    0    0  501  0.00000000000E+00  0.00000000000E+00  0.20428201622E+04  0.20428201622E+04  0.50400001928E-02 0.  1.
        1   -1    0    0  501    0  0.00000000000E+00  0.00000000000E+00 -0.79393378334E+03  0.79393378336E+03  0.50400001928E-02 0. -1.
    10030    2    1    2    0    0  0.00000000000E+00  0.00000000000E+00  0.12488863788E+04  0.28367539455E+04  0.25470484409E+04 0.  0.
        3    1    3    3  502    0 -0.91151011400E+02 -0.30639351454E+03  0.19974108682E+04  0.20228286332E+04  0.10100000352E+00 0.  1.
       -3    1    3    3    0  502  0.91151011400E+02  0.30639351454E+03 -0.74852448939E+03  0.81392531233E+03  0.10100000352E+00 0. -1.
</event>
<event>
 5   0  0.1100104E-06  0.2619972E+04  0.7818609E-02  0.8361449E-01
       -1   -1    0    0    0  501  0.00000000000E+00  0.00000000000E+00  0.16743163515E+04  0.16743163515E+04  0.50400001928E-02 0. -1.
        1   -1    0    0  501    0  0.00000000000E+00  0.00000000000E+00 -0.10249340403E+04  0.10249340403E+04  0.50400001928E-02 0.  1.
    10030    2    1    2    0    0  0.00000000000E+00  0.00000000000E+00  0.64938231120E+03  0.26992503918E+04  0.26199723837E+04 0.  0.
        4    1    3    3  502    0 -0.69297975336E+03  0.34217786059E+03  0.14144090118E+04  0.16117881661E+04  0.12699999809E+01 0. -1.
       -4    1    3    3    0  502  0.69297975336E+03 -0.34217786059E+03 -0.76502670055E+03  0.10874622257E+04  0.12699999809E+01 0.  1.
</event>
<event>
 5   0  0.1088757E-06  0.2598736E+04  0.7818609E-02  0.8368631E-01
        1   -1    0    0  501    0  0.00000000000E+00  0.00000000000E+00  0.20373951440E+04  0.20373951440E+04  0.50400001928E-02 0. -1.
       -1   -1    0    0    0  501  0.00000000000E+00  0.00000000000E+00 -0.82868435101E+03  0.82868435103E+03  0.50400001928E-02 0.  1.
    10030    2    1    2    0    0  0.00000000000E+00  0.00000000000E+00  0.12087107930E+04  0.28660794951E+04  0.25987362103E+04 0.  0.
        5    1    3    3  502    0  0.11786829554E+04 -0.23737788722E+03  0.61036003329E+02  0.12039058328E+04  0.46999998093E+01 0.  1.
       -5    1    3    3    0  502 -0.11786829554E+04  0.23737788722E+03  0.11476747897E+04  0.16621736622E+04  0.46999998093E+01 0. -1.
</event>
<event>
 5   0  0.1100104E-06  0.2606095E+04  0.7818609E-02  0.8366134E-01
       -1   -1    0    0    0  501  0.00000000000E+00  0.00000000000E+00  0.89441500141E+03  0.89441500143E+03  0.50400001928E-02 0. -1.
        1   -1    0    0  501    0  0.00000000000E+00  0.00000000000E+00 -0.18983727842E+04  0.18983727842E+04  0.50400001928E-02 0.  1.
    10030    2    1    2    0    0  0.00000000000E+00  0.00000000000E+00 -0.10039577828E+04  0.27927877856E+04  0.26060952373E+04 0.  0.
        4    1    3    3  502    0 -0.91447007946E+03  0.41105974632E+03 -0.13938910394E+04  0.17170205252E+04  0.12699999809E+01 0.  1.
       -4    1    3    3    0  502  0.91447007946E+03 -0.41105974632E+03  0.38993325657E+03  0.10757672605E+04  0.12699999809E+01 0. -1.
</event>
<event>
 5   0  0.1032076E-06  0.2576657E+04  0.7818609E-02  0.8376174E-01
        1   -1    0    0  501    0  0.00000000000E+00  0.00000000000E+00  0.14932018101E+04  0.14932018101E+04  0.50400001928E-02 0.  1.
       -1   -1    0    0    0  501  0.00000000000E+00  0.00000000000E+00 -0.11115648090E+04  0.11115648090E+04  0.50400001928E-02 0. -1.
    10030    2    1    2    0    0  0.00000000000E+00  0.00000000000E+00  0.38163700115E+03  0.26047666191E+04  0.25766572026E+04 0.  0.
        1    1    3    3  502    0  0.78268649838E+03 -0.80801132981E+03  0.82561004888E+03  0.13953897007E+04  0.50400001928E-02 0.  1.
       -1    1    3    3    0  502 -0.78268649838E+03  0.80801132981E+03 -0.44397304774E+03  0.12093769185E+04  0.50400001928E-02 0. -1.
</event>
<event>
 5   0  0.2623368E-06  0.2595981E+04  0.7818609E-02  0.8369568E-01
        2   -1    0    0  501    0  0.00000000000E+00  0.00000000000E+00  0.18578422326E+04  0.18578422326E+04  0.25500000920E-02 0. -1.
       -2   -1    0    0    0  501  0.00000000000E+00  0.00000000000E+00 -0.90684711562E+03  0.90684711562E+03  0.25500000920E-02 0.  1.
    10030    2    1    2    0    0  0.00000000000E+00  0.00000000000E+00  0.95099511695E+03  0.27646893482E+04  0.25959806393E+04 0.  0.
        5    1    3    3  502    0  0.36061543206E+03 -0.11441628223E+04 -0.52294984552E+02  0.12007951154E+04  0.46999998093E+01 0.  1.
       -5    1    3    3    0  502 -0.36061543206E+03  0.11441628223E+04  0.10032901015E+04  0.15638942328E+04  0.46999998093E+01 0. -1.
</event>
<event>
 5   0  0.1100104E-06  0.2603037E+04  0.7818609E-02  0.8367170E-01
       -1   -1    0    0    0  501  0.00000000000E+00  0.00000000000E+00  0.87043617865E+03  0.87043617867E+03  0.50400001928E-02 0.  1.
        1   -1    0    0  501    0  0.00000000000E+00  0.00000000000E+00 -0.19460937016E+04  0.19460937016E+04  0.50400001928E-02 0. -1.
    10030    2    1    2    0    0  0.00000000000E+00  0.00000000000E+00 -0.10756575230E+04  0.28165298803E+04  0.26030369686E+04 0.  0.
        4    1    3    3  502    0  0.10025147275E+04  0.68797437533E+02 -0.14328208124E+04  0.17500702728E+04  0.12699999809E+01 0.  1.
       -4    1    3    3    0  502 -0.10025147275E+04 -0.68797437533E+02  0.35716328940E+03  0.10664596075E+04  0.12699999809E+01 0. -1.
</event>
<event>
 5   0  0.2623368E-06  0.2601889E+04  0.7818609E-02  0.8367560E-01
        2   -1    0    0  501    0  0.00000000000E+00  0.00000000000E+00  0.14381400945E+04  0.14381400945E+04  0.25500000920E-02 0.  1.
       -2   -1    0    0    0  501  0.00000000000E+00  0.00000000000E+00 -0.11768374894E+04  0.11768374894E+04  0.25500000920E-02 0. -1.
    10030    2    1    2    0    0  0.00000000000E+00  0.00000000000E+00  0.26130260504E+03  0.26149775839E+04  0.26018894506E+04 0.  0.
        5    1    3    3  502    0 -0.71996992697E+03 -0.10665019550E+04 -0.61758771208E+02  0.12882621440E+04  0.46999998093E+01 0.  1.
       -5    1    3    3    0  502  0.71996992697E+03  0.10665019550E+04  0.32306137625E+03  0.13267154399E+04  0.46999998093E+01 0. -1.
</event>
<event>
 5   0  0.2820028E-06  0.2609931E+04  0.7818609E-02  0.8364836E-01
        2   -1    0    0  501    0  0.00000000000E+00  0.00000000000E+00  0.25162111859E+04  0.25162111859E+04  0.25500000920E-02 0.  1.
       -2   -1    0    0    0  501  0.00000000000E+00  0.00000000000E+00 -0.67678527848E+03  0.67678527849E+03  0.25500000920E-02 0. -1.
    10030    2    1    2    0    0  0.00000000000E+00  0.00000000000E+00  0.18394259074E+04  0.31929964643E+04  0.26099307946E+04 0.  0.
        3    1    3    3  502    0  0.76113425475E+03  0.19025921178E+03 -0.35603904768E+03  0.86156121959E+03  0.10100000352E+00 0. -1.
       -3    1    3    3    0  502 -0.76113425475E+03 -0.19025921178E+03  0.21954649551E+04  0.23314352448E+04  0.10100000352E+00 0.  1.
</event>
<event>
 5   0  0.2820028E-06  0.2597948E+04  0.7818609E-02  0.8368898E-01
       -2   -1    0    0    0  501  0.00000000000E+00  0.00000000000E+00  0.10927644780E+04  0.10927644780E+04  0.25500000920E-02 0. -1.
        2   -1    0    0  501    0  0.00000000000E+00  0.00000000000E+00 -0.15440967074E+04  0.15440967074E+04  0.25500000920E-02 0.  1.
    10030    2    1    2    0    0  0.00000000000E+00  0.00000000000E+00 -0.45133222944E+03  0.26368611854E+04  0.25979484463E+04 0.  0.
        3    1    3    3  502    0  0.10755694815E+04  0.71249444869E+03 -0.37904532695E+03  0.13446833899E+04  0.10100000352E+00 0.  1.
       -3    1    3    3    0  502 -0.10755694815E+04 -0.71249444869E+03 -0.72286902491E+02  0.12921777956E+04  0.10100000352E+00 0. -1.
</event>
<event>
 5   0  0.1088757E-06  0.2594719E+04  0.7818609E-02  0.8369997E-01
       -1   -1    0    0    0  501  0.00000000000E+00  0.00000000000E+00  0.15107791777E+04  0.15107791777E+04  0.50400001928E-02 0.  1.
        1   -1    0    0  501    0  0.00000000000E+00  0.00000000000E+00 -0.11140883970E+04  0.11140883970E+04  0.50400001928E-02 0. -1.
    10030    2    1    2    0    0  0.00000000000E+00  0.00000000000E+00  0.39669078067E+03  0.26248675747E+04  0.25947189076E+04 0.  0.
        5    1    3    3  502    0  0.71417627550E+03  0.27596224758E+03 -0.86116171997E+03  0.11523126800E+04  0.46999998093E+01 0. -1.
       -5    1    3    3    0  502 -0.71417627550E+03 -0.27596224758E+03  0.12578525006E+04  0.14725548947E+04  0.46999998093E+01 0.  1.
</event>
<event>
 5   0  0.2623368E-06  0.2603729E+04  0.7818609E-02  0.8366936E-01
       -2   -1    0    0    0  501  0.00000000000E+00  0.00000000000E+00  0.13284284099E+04  0.13284284099E+04  0.25500000920E-02 0. -1.
        2   -1    0    0  501    0  0.00000000000E+00  0.00000000000E+00 -0.12758314090E+04  0.12758314090E+04  0.25500000920E-02 0.  1.
    10030    2    1    2    0    0  0.00000000000E+00  0.00000000000E+00  0.52597000940E+02  0.26042598189E+04  0.26037286264E+04 0.  0.
        5    1    3    3  502    0 -0.99284056269E+03  0.84207611789E+03  0.28306084003E+02  0.13021704557E+04  0.46999998093E+01 0.  1.
       -5    1    3    3    0  502  0.99284056269E+03 -0.84207611789E+03  0.24290916937E+02  0.13020893633E+04  0.46999998093E+01 0. -1.
</event>
<event>
 5   0  0.2820028E-06  0.2589480E+04  0.7818609E-02  0.8371783E-01
       -2   -1    0    0    0  501  0.00000000000E+00  0.00000000000E+00  0.84410259357E+03  0.84410259357E+03  0.25500000920E-02 0. -1.
        2   -1    0    0  501    0  0.00000000000E+00  0.00000000000E+00 -0.19859577027E+04  0.19859577027E+04  0.25500000920E-02 0.  1.
    10030    2    1    2    0    0  0.00000000000E+00  0.00000000000E+00 -0.11418551091E+04  0.28300602963E+04  0.25894802935E+04 0.  0.
        3    1    3    3  502    0 -0.11811750975E+04 -0.51200672707E+03 -0.42017559599E+03  0.13542056864E+04  0.10100000352E+00 0. -1.
       -3    1    3    3    0  502  0.11811750975E+04  0.51200672707E+03 -0.72167951314E+03  0.14758546098E+04  0.10100000352E+00 0.  1.
</event>
<event>
 5   0  0.1055179E-06  0.2598956E+04  0.7818609E-02  0.8368556E-01
       -1   -1    0    0    0  501  0.00000000000E+00  0.00000000000E+00  0.18100871456E+04  0.18100871456E+04  0.50400001928E-02 0. -1.
        1   -1    0    0  501    0  0.00000000000E+00  0.00000000000E+00 -0.93290687311E+03  0.93290687312E+03  0.50400001928E-02 0.  1.
    10030    2    1    2    0    0  0.00000000000E+00  0.00000000000E+00  0.87718027248E+03  0.27429940187E+04  0.25989557434E+04 0.  0.
        3    1    3    3  502    0  0.12969636000E+03  0.38857094741E+02  0.18026227027E+04  0.18077000963E+04  0.10100000352E+00 0. -1.
       -3    1    3    3    0  502 -0.12969636000E+03 -0.38857094741E+02 -0.92544243019E+03  0.93529392247E+03  0.10100000352E+00 0.  1.
</event>
<event>
 5   0  0.1055179E-06  0.2597564E+04  0.7818609E-02  0.8369029E-01
       -1   -1    0    0    0  501  0.00000000000E+00  0.00000000000E+00  0.97441359204E+03  0.97441359205E+03  0.50400001928E-02 0.  1.
        1   -1    0    0  501    0  0.00000000000E+00  0.00000000000E+00 -0.17311285744E+04  0.17311285744E+04  0.50400001928E-02 0. -1.
    10030    2    1    2    0    0  0.00000000000E+00  0.00000000000E+00 -0.75671498235E+03  0.27055421664E+04  0.25975644073E+04 0.  0.
        3    1    3    3  502    0  0.78175387729E+03  0.75368802818E+03 -0.11204710439E+04  0.15603333422E+04  0.10100000352E+00 0. -1.
       -3    1    3    3    0  502 -0.78175387729E+03 -0.75368802818E+03  0.36375606157E+03  0.11452088242E+04  0.10100000352E+00 0.  1.
</event>
<event>
 5   0  0.1100104E-06  0.2600235E+04  0.7818609E-02  0.8368121E-01
        1   -1    0    0  501    0  0.00000000000E+00  0.00000000000E+00  0.13664698955E+04  0.13664698956E+04  0.50400001928E-02 0. -1.
       -1   -1    0    0    0  501  0.00000000000E+00  0.00000000000E+00 -0.12369869274E+04  0.12369869274E+04  0.50400001928E-02 0.  1.
    10030    2    1    2    0    0  0.00000000000E+00  0.00000000000E+00  0.12948296819E+03  0.26034568229E+04  0.26002349105E+04 0.  0.
        4    1    3    3  502    0  0.74316885075E+03 -0.98718883111E+03 -0.34006389301E+03  0.12815954093E+04  0.12699999809E+01 0.  1.
       -4    1    3    3    0  502 -0.74316885075E+03  0.98718883111E+03  0.46954686120E+03  0.13218614136E+04  0.12699999809E+01 0. -1.
</event>
<event>
 5   0  0.2586775E-06  0.2602287E+04  0.7818609E-02  0.8367425E-01
        2   -1    0    0  501    0  0.00000000000E+00  0.00000000000E+00  0.21748109407E+04  0.21748109407E+04  0.25500000920E-02 0. -1.
       -2   -1    0    0    0  501  0.00000000000E+00  0.00000000000E+00 -0.77844658885E+03  0.77844658885E+03  0.25500000920E-02 0.  1.
    10030    2    1    2    0    0  0.00000000000E+00  0.00000000000E+00  0.13963643518E+04  0.29532575295E+04  0.26022868083E+04 0.  0.
        1    1    3    3  502    0 -0.10802945916E+04 -0.37935473722E+02  0.15200809798E+04  0.18652403840E+04  0.50400001928E-02 0. -1.
       -1    1    3    3    0  502  0.10802945916E+04  0.37935473722E+02 -0.12371662797E+03  0.10880171455E+04  0.50400001928E-02 0.  1.
</event>
<event>
 5   0  0.2623368E-06  0.2600021E+04  0.7818609E-02  0.8368194E-01
        2   -1    0    0  501    0  0.00000000000E+00  0.00000000000E+00  0.59457350451E+03  0.59457350452E+03  0.25500000920E-02 0. -1.
       -2   -1    0    0    0  501  0.00000000000E+00  0.00000000000E+00 -0.28424204563E+04  0.28424204563E+04  0.25500000920E-02 0.  1.
    10030    2    1    2    0    0  0.00000000000E+00  0.00000000000E+00 -0.22478469518E+04  0.34369939609E+04  0.26000214553E+04 0.  0.
        5    1    3    3  502    0  0.74343579051E+03  0.81762687642E+03 -0.20290170265E+04  0.23104420935E+04  0.46999998093E+01 0.  1.
       -5    1    3    3    0  502 -0.74343579051E+03 -0.81762687642E+03 -0.21882992537E+03  0.11265518674E+04  0.46999998093E+01 0. -1.
</event>
<event>
 5   0  0.2746631E-06  0.2599504E+04  0.7818609E-02  0.8368370E-01
       -2   -1    0    0    0  501  0.00000000000E+00  0.00000000000E+00  0.13789265865E+04  0.13789265865E+04  0.25500000920E-02 0. -1.
        2   -1    0    0  501    0  0.00000000000E+00  0.00000000000E+00 -0.12251235936E+04  0.12251235936E+04  0.25500000920E-02 0.  1.
    10030    2    1    2    0    0  0.00000000000E+00  0.00000000000E+00  0.15380299286E+03  0.26040501801E+04  0.25995041796E+04 0.  0.
        2    1    3    3  502    0  0.24142590232E+03 -0.10045275660E+04  0.86694629143E+03  0.13486874988E+04  0.25500000920E-02 0. -1.
       -2    1    3    3    0  502 -0.24142590232E+03  0.10045275660E+04 -0.71314329857E+03  0.12553626813E+04  0.25500000920E-02 0.  1.
</event>
<event>
 5   0  0.2820028E-06  0.2614414E+04  0.7818609E-02  0.8363322E-01
        2   -1    0    0  501    0  0.00000000000E+00  0.00000000000E+00  0.13481257393E+04  0.13481257393E+04  0.25500000920E-02 0.  1.
       -2   -1    0    0    0  501  0.00000000000E+00  0.00000000000E+00 -0.12675298031E+04  0.12675298031E+04  0.25500000920E-02 0. -1.
    10030    2    1    2    0    0  0.00000000000E+00  0.00000000000E+00  0.80595936129E+02  0.26156555424E+04  0.26144135502E+04 0.  0.
        3    1    3    3  502    0 -0.25156481705E+03 -0.73311341600E+03 -0.10128413510E+04  0.12753774933E+04  0.10100000352E+00 0. -1.
       -3    1    3    3    0  502  0.25156481705E+03  0.73311341600E+03  0.10934372871E+04  0.13402780491E+04  0.10100000352E+00 0.  1.
</event>
<event>
 5   0  0.1122628E-06  0.2585601E+04  0.7818609E-02  0.8373109E-01
        1   -1    0    0  501    0  0.00000000000E+00  0.00000000000E+00  0.19070939118E+04  0.19070939118E+04  0.50400001928E-02 0. -1.
       -1   -1    0    0    0  501  0.00000000000E+00  0.00000000000E+00 -0.87637716572E+03  0.87637716573E+03  0.50400001928E-02 0.  1.
    10030    2    1    2    0    0  0.00000000000E+00  0.00000000000E+00  0.10307167461E+04  0.27834710775E+04  0.25856013283E+04 0.  0.
        2    1    3    3  502    0 -0.70550419235E+03  0.41294634425E+03  0.15935385877E+04  0.17909846675E+04  0.25500000920E-02 0. -1.
       -2    1    3    3    0  502  0.70550419235E+03 -0.41294634425E+03 -0.56282184165E+03  0.99248641003E+03  0.25500000920E-02 0.  1.
</event>
<event>
 5   0  0.1032076E-06  0.2592144E+04  0.7818609E-02  0.8370875E-01
       -1   -1    0    0    0  501  0.00000000000E+00  0.00000000000E+00  0.19821503605E+04  0.19821503605E+04  0.50400001928E-02 0.  1.
        1   -1    0    0  501    0  0.00000000000E+00  0.00000000000E+00 -0.84746493382E+03  0.84746493384E+03  0.50400001928E-02 0. -1.
    10030    2    1    2    0    0  0.00000000000E+00  0.00000000000E+00  0.11346854267E+04  0.28296152944E+04  0.25921442276E+04 0.  0.
        1    1    3    3  502    0  0.54831224772E+03 -0.11637183954E+04  0.73965183110E+03  0.14839041937E+04  0.50400001928E-02 0.  1.
       -1    1    3    3    0  502 -0.54831224772E+03  0.11637183954E+04  0.39503359560E+03  0.13457111007E+04  0.50400001928E-02 0. -1.
</event>
<event>
 5   0  0.2820028E-06  0.2599604E+04  0.7818609E-02  0.8368336E-01
        2   -1    0    0  501    0  0.00000000000E+00  0.00000000000E+00  0.11900359282E+04  0.11900359282E+04  0.25500000920E-02 0.  1.
       -2   -1    0    0    0  501  0.00000000000E+00  0.00000000000E+00 -0.14196920897E+04  0.14196920897E+04  0.25500000920E-02 0. -1.
    10030    2    1    2    0    0  0.00000000000E+00  0.00000000000E+00 -0.22965616156E+03  0.26097280179E+04  0.25996035034E+04 0.  0.
        3    1    3    3  502    0 -0.35638991348E+03  0.92625559361E+03  0.72779863743E+03  0.12307128268E+04  0.10100000352E+00 0.  1.
       -3    1    3    3    0  502  0.35638991348E+03 -0.92625559361E+03 -0.95745479899E+03  0.13790151912E+04  0.10100000352E+00 0. -1.
</event>
<event>
 5   0  0.2623368E-06  0.2599920E+04  0.7818609E-02  0.8368228E-01
        2   -1    0    0  501    0  0.00000000000E+00  0.00000000000E+00  0.23094538028E+04  0.23094538028E+04  0.25500000920E-02 0. -1.
       -2   -1    0    0    0  501  0.00000000000E+00  0.00000000000E+00 -0.73172996911E+03  0.73172996911E+03  0.25500000920E-02 0.  1.
    10030    2    1    2    0    0  0.00000000000E+00  0.00000000000E+00  0.15777238337E+04  0.30411837720E+04  0.25999204294E+04 0.  0.
        5    1    3    3  502    0 -0.29920677137E+03  0.44592204058E+03 -0.59591454194E+03  0.80218912334E+03  0.46999998093E+01 0.  1.
       -5    1    3    3    0  502  0.29920677137E+03 -0.44592204058E+03  0.21736383757E+04  0.22389946486E+04  0.46999998093E+01 0. -1.
</event>
<event>
 5   0  0.1055179E-06  0.2602953E+04  0.7818609E-02  0.8367199E-01
       -1   -1    0    0    0  501  0.00000000000E+00  0.00000000000E+00  0.17541341736E+04  0.17541341736E+04  0.50400001928E-02 0.  1.
        1   -1    0    0  501    0  0.00000000000E+00  0.00000000000E+00 -0.96562768854E+03  0.96562768855E+03  0.50400001928E-02 0. -1.
    10030    2    1    2    0    0  0.00000000000E+00  0.00000000000E+00  0.78850648507E+03  0.27197618622E+04  0.26029525754E+04 0.  0.
        3    1    3    3  502    0 -0.82751968924E+03 -0.23837392232E+03  0.14138664498E+04  0.16554846151E+04  0.10100000352E+00 0.  1.
       -3    1    3    3    0  502  0.82751968924E+03  0.23837392232E+03 -0.62535996470E+03  0.10642772470E+04  0.10100000352E+00 0. -1.
</event>
<event>
 5   0  0.1100104E-06  0.2600610E+04  0.7818609E-02  0.8367994E-01
       -1   -1    0    0    0  501  0.00000000000E+00  0.00000000000E+00  0.96553329382E+03  0.96553329384E+03  0.50400001928E-02 0. -1.
        1   -1    0    0  501    0  0.00000000000E+00  0.00000000000E+00 -0.17511492118E+04  0.17511492119E+04  0.50400001928E-02 0.  1.
    10030    2    1    2    0    0  0.00000000000E+00  0.00000000000E+00 -0.78561591803E+03  0.27166825057E+04  0.26006098258E+04 0.  0.
        4    1    3    3  502    0  0.11049070226E+04 -0.24005115812E+03 -0.10636112649E+04  0.15523255531E+04  0.12699999809E+01 0.  1.
       -4    1    3    3    0  502 -0.11049070226E+04  0.24005115812E+03  0.27799534688E+03  0.11643569526E+04  0.12699999809E+01 0. -1.
</event>
<event>
 5   0  0.1122628E-06  0.2605535E+04  0.7818609E-02  0.8366324E-01
       -1   -1    0    0    0  501  0.00000000000E+00  0.00000000000E+00  0.74957198055E+03  0.74957198057E+03  0.50400001928E-02 0. -1.
        1   -1    0    0  501    0  0.00000000000E+00  0.00000000000E+00 -0.22642292214E+04  0.22642292214E+04  0.50400001928E-02 0.  1.
    10030    2    1    2    0    0  0.00000000000E+00  0.00000000000E+00 -0.15146572409E+04  0.30138012020E+04  0.26055347105E+04 0.  0.
        2    1    3    3  502    0  0.51758484021E+03  0.63777818792E+02 -0.21382275985E+04  0.22009041188E+04  0.25500000920E-02 0.  1.
       -2    1    3    3    0  502 -0.51758484021E+03 -0.63777818792E+02  0.62357035764E+03  0.81289708322E+03  0.25500000920E-02 0. -1.
</event>
<event>
 5   0  0.2705807E-06  0.2606249E+04  0.7818609E-02  0.8366082E-01
        2   -1    0    0  501    0  0.00000000000E+00  0.00000000000E+00  0.73781305783E+03  0.73781305784E+03  0.25500000920E-02 0. -1.
       -2   -1    0    0    0  501  0.00000000000E+00  0.00000000000E+00 -0.23015769754E+04  0.23015769754E+04  0.25500000920E-02 0.  1.
    10030    2    1    2    0    0  0.00000000000E+00  0.00000000000E+00 -0.15637639176E+04  0.30393900332E+04  0.26062490641E+04 0.  0.
        4    1    3    3  502    0  0.12802959036E+04  0.10205887312E+03 -0.10388637431E+04  0.16519119540E+04  0.12699999809E+01 0. -1.
       -4    1    3    3    0  502 -0.12802959036E+04 -0.10205887312E+03 -0.52490017451E+03  0.13874780792E+04  0.12699999809E+01 0.  1.
</event>
<event>
 5   0  0.1088757E-06  0.2601794E+04  0.7818609E-02  0.8367592E-01
        1   -1    0    0  501    0  0.00000000000E+00  0.00000000000E+00  0.17243125679E+04  0.17243125679E+04  0.50400001928E-02 0.  1.
       -1   -1    0    0    0  501  0.00000000000E+00  0.00000000000E+00 -0.98145345808E+03  0.98145345809E+03  0.50400001928E-02 0. -1.
    10030    2    1    2    0    0  0.00000000000E+00  0.00000000000E+00  0.74285910984E+03  0.27057660260E+04  0.26017936372E+04 0.  0.
        5    1    3    3  502    0 -0.14418334868E+03 -0.35929679995E+03 -0.92014583102E+03  0.99828526425E+03  0.46999998093E+01 0. -1.
       -5    1    3    3    0  502  0.14418334868E+03  0.35929679995E+03  0.16630049409E+04  0.17074807618E+04  0.46999998093E+01 0.  1.
</event>
<event>
 5   0  0.2623368E-06  0.2596122E+04  0.7818609E-02  0.8369520E-01
       -2   -1    0    0    0  501  0.00000000000E+00  0.00000000000E+00  0.11139128037E+04  0.11139128037E+04  0.25500000920E-02 0. -1.
        2   -1    0    0  501    0  0.00000000000E+00  0.00000000000E+00 -0.15126517134E+04  0.15126517134E+04  0.25500000920E-02 0.  1.
    10030    2    1    2    0    0  0.00000000000E+00  0.00000000000E+00 -0.39873890975E+03  0.26265645171E+04  0.25961218085E+04 0.  0.
        5    1    3    3  502    0 -0.99757084771E+03 -0.18076740373E+03  0.62076278877E+03  0.11887779357E+04  0.46999998093E+01 0. -1.
       -5    1    3    3    0  502  0.99757084771E+03  0.18076740373E+03 -0.10195016985E+04  0.14377865814E+04  0.46999998093E+01 0.  1.
</event>
<event>
 5   0  0.1122628E-06  0.2597902E+04  0.7818609E-02  0.8368914E-01
        1   -1    0    0  501    0  0.00000000000E+00  0.00000000000E+00  0.20755766090E+04  0.20755766090E+04  0.50400001928E-02 0.  1.
       -1   -1    0    0    0  501  0.00000000000E+00  0.00000000000E+00 -0.81291784556E+03  0.81291784558E+03  0.50400001928E-02 0. -1.
    10030    2    1    2    0    0  0.00000000000E+00  0.00000000000E+00  0.12626587635E+04  0.28884944546E+04  0.25979016651E+04 0.  0.
        2    1    3    3  502    0 -0.29998661298E+03 -0.56003881537E+03 -0.62837918388E+03  0.89358594518E+03  0.25500000920E-02 0. -1.
       -2    1    3    3    0  502  0.29998661298E+03  0.56003881537E+03  0.18910379474E+04  0.19949085094E+04  0.25500000920E-02 0.  1.
</event>
<event>
 5   0  0.2586775E-06  0.2606263E+04  0.7818609E-02  0.8366077E-01
       -2   -1    0    0    0  501  0.00000000000E+00  0.00000000000E+00  0.92705251582E+03  0.92705251582E+03  0.25500000920E-02 0.  1.
        2   -1    0    0  501    0  0.00000000000E+00  0.00000000000E+00 -0.18317755075E+04  0.18317755075E+04  0.25500000920E-02 0. -1.
    10030    2    1    2    0    0  0.00000000000E+00  0.00000000000E+00 -0.90472299167E+03  0.27588280233E+04  0.26062632965E+04 0.  0.
        1    1    3    3  502    0 -0.57166913220E+02  0.26884393705E+03  0.89602070159E+03  0.93722900945E+03  0.50400001928E-02 0.  1.
       -1    1    3    3    0  502  0.57166913220E+02 -0.26884393705E+03 -0.18007436933E+04  0.18215990139E+04  0.50400001928E-02 0. -1.
</event>
<event>
 5   0  0.1088757E-06  0.2595847E+04  0.7818609E-02  0.8369613E-01
       -1   -1    0    0    0  501  0.00000000000E+00  0.00000000000E+00  0.92243491551E+03  0.92243491552E+03  0.50400001928E-02 0. -1.
        1   -1    0    0  501    0  0.00000000000E+00  0.00000000000E+00 -0.18262594650E+04  0.18262594650E+04  0.50400001928E-02 0.  1.
    10030    2    1    2    0    0  0.00000000000E+00  0.00000000000E+00 -0.90382454948E+03  0.27486943805E+04  0.25958470643E+04 0.  0.
        5    1    3    3  502    0  0.87107097992E+03  0.82733962677E+03  0.68264688491E+02  0.12033028163E+04  0.46999998093E+01 0. -1.
       -5    1    3    3    0  502 -0.87107097992E+03 -0.82733962677E+03 -0.97208923797E+03  0.15453915642E+04  0.46999998093E+01 0.  1.
</event>
<event>
 5   0  0.1122628E-06  0.2608549E+04  0.7818609E-02  0.8365303E-01
       -1   -1    0    0    0  501  0.00000000000E+00  0.00000000000E+00  0.80442856372E+03  0.80442856373E+03  0.50400001928E-02 0.  1.
        1   -1    0    0  501    0  0.00000000000E+00  0.00000000000E+00 -0.21147079712E+04  0.21147079712E+04  0.50400001928E-02 0. -1.
    10030    2    1    2    0    0  0.00000000000E+00  0.00000000000E+00 -0.13102794075E+04  0.29191365349E+04  0.26085486355E+04 0.  0.
        2    1    3    3  502    0 -0.38502651442E+03  0.91803602391E+02 -0.20458720197E+04  0.20838103655E+04  0.25500000920E-02 0. -1.
       -2    1    3    3    0  502  0.38502651442E+03 -0.91803602391E+02  0.73559261223E+03  0.83532616946E+03  0.25500000920E-02 0.  1.
</event>
<event>
 5   0  0.2746631E-06  0.2598972E+04  0.7818609E-02  0.8368551E-01
       -2   -1    0    0    0  501  0.00000000000E+00  0.00000000000E+00  0.11090026892E+04  0.11090026892E+04  0.25500000920E-02 0.  1.
        2   -1    0    0  501    0  0.00000000000E+00  0.00000000000E+00 -0.15226865261E+04  0.15226865261E+04  0.25500000920E-02 0. -1.
    10030    2    1    2    0    0  0.00000000000E+00  0.00000000000E+00 -0.41368383686E+03  0.26316892153E+04  0.25989716830E+04 0.  0.
        2    1    3    3  502    0  0.38320038520E+03  0.39426931223E+03  0.98542375521E+03  0.11284284661E+04  0.25500000920E-02 0.  1.
       -2    1    3    3    0  502 -0.38320038520E+03 -0.39426931223E+03 -0.13991075921E+04  0.15032607492E+04  0.25500000920E-02 0. -1.
</event>
<event>
 5   0  0.2746631E-06  0.2599175E+04  0.7818609E-02  0.8368482E-01
       -2   -1    0    0    0  501  0.00000000000E+00  0.00000000000E+00  0.91012233978E+03  0.91012233978E+03  0.25500000920E-02 0. -1.
        2   -1    0    0  501    0  0.00000000000E+00  0.00000000000E+00 -0.18557144214E+04  0.18557144214E+04  0.25500000920E-02 0.  1.
    10030    2    1    2    0    0  0.00000000000E+00  0.00000000000E+00 -0.94559208166E+03  0.27658367612E+04  0.25991746007E+04 0.  0.
        2    1    3    3  502    0  0.27196260473E+03  0.11216044696E+04 -0.11085734147E+04  0.16002797444E+04  0.25500000920E-02 0.  1.
       -2    1    3    3    0  502 -0.27196260473E+03 -0.11216044696E+04  0.16298133307E+03  0.11655570168E+04  0.25500000920E-02 0. -1.
</event>
<event>
 5   0  0.2705807E-06  0.2597384E+04  0.7818609E-02  0.8369090E-01
       -2   -1    0    0    0  501  0.00000000000E+00  0.00000000000E+00  0.68090749269E+03  0.68090749269E+03  0.25500000920E-02 0. -1.
        2   -1    0    0  501    0  0.00000000000E+00  0.00000000000E+00 -0.24769903500E+04  0.24769903500E+04  0.25500000920E-02 0.  1.
    10030    2    1    2    0    0  0.00000000000E+00  0.00000000000E+00 -0.17960828573E+04  0.31578978427E+04  0.25973842909E+04 0.  0.
        4    1    3    3  502    0  0.67084601951E+03  0.43054895247E+03  0.34848954732E+03  0.86997319490E+03  0.12699999809E+01 0. -1.
       -4    1    3    3    0  502 -0.67084601951E+03 -0.43054895247E+03 -0.21445724046E+04  0.22879246478E+04  0.12699999809E+01 0.  1.
</event>
<event>
 5   0  0.2746631E-06  0.2607958E+04  0.7818609E-02  0.8365503E-01
       -2   -1    0    0    0  501  0.00000000000E+00  0.00000000000E+00  0.84178145413E+03  0.84178145413E+03  0.25500000920E-02 0.  1.
        2   -1    0    0  501    0  0.00000000000E+00  0.00000000000E+00 -0.20199551371E+04  0.20199551371E+04  0.25500000920E-02 0. -1.
    10030    2    1    2    0    0  0.00000000000E+00  0.00000000000E+00 -0.11781736829E+04  0.28617365912E+04  0.26079576473E+04 0.  0.
        2    1    3    3  502    0  0.41199553145E+03  0.97871911323E+02  0.76423054164E+03  0.87370907614E+03  0.25500000920E-02 0.  1.
       -2    1    3    3    0  502 -0.41199553145E+03 -0.97871911323E+02 -0.19424042246E+04  0.19880275151E+04  0.25500000920E-02 0. -1.
</event>
<event>
 5   0  0.2746631E-06  0.2600432E+04  0.7818609E-02  0.8368055E-01
        2   -1    0    0  501    0  0.00000000000E+00  0.00000000000E+00  0.21187596036E+04  0.21187596036E+04  0.25500000920E-02 0.  1.
       -2   -1    0    0    0  501  0.00000000000E+00  0.00000000000E+00 -0.79790135791E+03  0.79790135791E+03  0.25500000920E-02 0. -1.
    10030    2    1    2    0    0  0.00000000000E+00  0.00000000000E+00  0.13208582457E+04  0.29166609615E+04  0.26004316294E+04 0.  0.
        2    1    3    3  502    0  0.40170782416E+03  0.13421104731E+03 -0.71836212839E+03  0.83392201597E+03  0.25500000920E-02 0. -1.
       -2    1    3    3    0  502 -0.40170782416E+03 -0.13421104731E+03  0.20392203740E+04  0.20827389455E+04  0.25500000920E-02 0.  1.
</event>
<event>
 5   0  0.2820028E-06  0.2598657E+04  0.7818609E-02  0.8368658E-01
       -2   -1    0    0    0  501  0.00000000000E+00  0.00000000000E+00  0.20449978660E+04  0.20449978660E+04  0.25500000920E-02 0. -1.
        2   -1    0    0  501    0  0.00000000000E+00  0.00000000000E+00 -0.82555323261E+03  0.82555323261E+03  0.25500000920E-02 0.  1.
    10030    2    1    2    0    0  0.00000000000E+00  0.00000000000E+00  0.12194446334E+04  0.28705510986E+04  0.25986570370E+04 0.  0.
        3    1    3    3  502    0  0.10716198132E+04  0.40515178804E+03 -0.67386767553E+02  0.11476314661E+04  0.10100000352E+00 0.  1.
       -3    1    3    3    0  502 -0.10716198132E+04 -0.40515178804E+03  0.12868314009E+04  0.17229196325E+04  0.10100000352E+00 0. -1.
</event>
<event>
 5   0  0.1100104E-06  0.2598192E+04  0.7818609E-02  0.8368816E-01
       -1   -1    0    0    0  501  0.00000000000E+00  0.00000000000E+00  0.21736024877E+04  0.21736024877E+04  0.50400001928E-02 0. -1.
        1   -1    0    0  501    0  0.00000000000E+00  0.00000000000E+00 -0.77643014434E+03  0.77643014435E+03  0.50400001928E-02 0.  1.
    10030    2    1    2    0    0  0.00000000000E+00  0.00000000000E+00  0.13971723433E+04  0.29500326320E+04  0.25981920585E+04 0.  0.
        4    1    3    3  502    0  0.33665158077E+03  0.10954015061E+04  0.13933374691E+04  0.18040592180E+04  0.12699999809E+01 0. -1.
       -4    1    3    3    0  502 -0.33665158077E+03 -0.10954015061E+04  0.38348742540E+01  0.11459734140E+04  0.12699999809E+01 0.  1.
</event>
<event>
 5   0  0.1032076E-06  0.2591864E+04  0.7818609E-02  0.8370970E-01
        1   -1    0    0  501    0  0.00000000000E+00  0.00000000000E+00  0.12571047130E+04  0.12571047130E+04  0.50400001928E-02 0. -1.
       -1   -1    0    0    0  501  0.00000000000E+00  0.00000000000E+00 -0.13359590324E+04  0.13359590324E+04  0.50400001928E-02 0.  1.
    10030    2    1    2    0    0  0.00000000000E+00  0.00000000000E+00 -0.78854319474E+02  0.25930637454E+04  0.25918644996E+04 0.  0.
        1    1    3    3  502    0 -0.43279527548E+03  0.49302695342E+02  0.11816693818E+04  0.12593986796E+04  0.50400001928E-02 0. -1.
       -1    1    3    3    0  502  0.43279527548E+03 -0.49302695342E+02 -0.12605237013E+04  0.13336650658E+04  0.50400001928E-02 0.  1.
</event>
<event>
 5   0  0.1055179E-06  0.2600124E+04  0.7818609E-02  0.8368159E-01
       -1   -1    0    0    0  501  0.00000000000E+00  0.00000000000E+00  0.11705554009E+04  0.11705554009E+04  0.50400001928E-02 0. -1.
        1   -1    0    0  501    0  0.00000000000E+00  0.00000000000E+00 -0.14438966688E+04  0.14438966689E+04  0.50400001928E-02 0.  1.
    10030    2    1    2    0    0  0.00000000000E+00  0.00000000000E+00 -0.27334126793E+03  0.26144520698E+04  0.26001238771E+04 0.  0.
        3    1    3    3  502    0 -0.30188233248E+03  0.78571330951E+02 -0.14057088977E+04  0.14399041329E+04  0.10100000352E+00 0.  1.
       -3    1    3    3    0  502  0.30188233248E+03 -0.78571330951E+02  0.11323676298E+04  0.11745479368E+04  0.10100000352E+00 0. -1.
</event>
<event>
 5   0  0.1122628E-06  0.2598106E+04  0.7818609E-02  0.8368845E-01
       -1   -1    0    0    0  501  0.00000000000E+00  0.00000000000E+00  0.10551494962E+04  0.10551494962E+04  0.50400001928E-02 0. -1.
        1   -1    0    0  501    0  0.00000000000E+00  0.00000000000E+00 -0.15993359988E+04  0.15993359988E+04  0.50400001928E-02 0.  1.
    10030    2    1    2    0    0  0.00000000000E+00  0.00000000000E+00 -0.54418650257E+03  0.26544854950E+04  0.25981059050E+04 0.  0.
        2    1    3    3  502    0  0.11234927648E+04  0.22540465142E+03  0.35314667935E+03  0.11990645631E+04  0.25500000920E-02 0. -1.
       -2    1    3    3    0  502 -0.11234927648E+04 -0.22540465142E+03 -0.89733318192E+03  0.14554209318E+04  0.25500000920E-02 0.  1.
</event>
<event>
 5   0  0.1032076E-06  0.2596878E+04  0.7818609E-02  0.8369262E-01
       -1   -1    0    0    0  501  0.00000000000E+00  0.00000000000E+00  0.10526086226E+04  0.10526086226E+04  0.50400001928E-02 0.  1.
        1   -1    0    0  501    0  0.00000000000E+00  0.00000000000E+00 -0.16016814018E+04  0.16016814018E+04  0.50400001928E-02 0. -1.
    10030    2    1    2    0    0  0.00000000000E+00  0.00000000000E+00 -0.54907277919E+03  0.26542900245E+04  0.25968778595E+04 0.  0.
        1    1    3    3  502    0  0.61643259851E+03 -0.11298556734E+04 -0.99338993670E+02  0.12909032601E+04  0.50400001928E-02 0. -1.
       -1    1    3    3    0  502 -0.61643259851E+03  0.11298556734E+04 -0.44973378552E+03  0.13633867643E+04  0.50400001928E-02 0.  1.
</event>
<event>
 5   0  0.2705807E-06  0.2599831E+04  0.7818609E-02  0.8368259E-01
        2   -1    0    0  501    0  0.00000000000E+00  0.00000000000E+00  0.22046492727E+04  0.22046492727E+04  0.25500000920E-02 0. -1.
       -2   -1    0    0    0  501  0.00000000000E+00  0.00000000000E+00 -0.76646194056E+03  0.76646194056E+03  0.25500000920E-02 0.  1.
    10030    2    1    2    0    0  0.00000000000E+00  0.00000000000E+00  0.14381873321E+04  0.29711112133E+04  0.25998305789E+04 0.  0.
        4    1    3    3  502    0 -0.11242962924E+04 -0.54979078510E+03  0.11206511293E+04  0.16799323281E+04  0.12699999809E+01 0. -1.
       -4    1    3    3    0  502  0.11242962924E+04  0.54979078510E+03  0.31753620280E+03  0.12911788851E+04  0.12699999809E+01 0.  1.
</event>
<event>
 5   0  0.2705807E-06  0.2597132E+04  0.7818609E-02  0.8369176E-01
        2   -1    0    0  501    0  0.00000000000E+00  0.00000000000E+00  0.17910761224E+04  0.17910761224E+04  0.25500000920E-02 0. -1.
       -2   -1    0    0    0  501  0.00000000000E+00  0.00000000000E+00 -0.94148631442E+03  0.94148631443E+03  0.25500000920E-02 0.  1.
    10030    2    1    2    0    0  0.00000000000E+00  0.00000000000E+00  0.84958980800E+03  0.27325624368E+04  0.25971320008E+04 0.  0.
        4    1    3    3  502    0  0.10973031765E+04  0.73522767709E+02 -0.30171348789E+03  0.11404001491E+04  0.12699999809E+01 0.  1.
       -4    1    3    3    0  502 -0.10973031765E+04 -0.73522767709E+02  0.11513032959E+04  0.15921622877E+04  0.12699999809E+01 0. -1.
</event>
<event>
 5   0  0.2746631E-06  0.2592038E+04  0.7818609E-02  0.8370911E-01
        2   -1    0    0  501    0  0.00000000000E+00  0.00000000000E+00  0.12003831092E+04  0.12003831092E+04  0.25500000920E-02 0. -1.
       -2   -1    0    0    0  501  0.00000000000E+00  0.00000000000E+00 -0.13992746841E+04  0.13992746841E+04  0.25500000920E-02 0.  1.
    10030    2    1    2    0    0  0.00000000000E+00  0.00000000000E+00 -0.19889157488E+03  0.25996577934E+04  0.25920383454E+04 0.  0.
        2    1    3    3  502    0 -0.14255157891E+03  0.77611942900E+03 -0.11305649063E+04  0.13787165510E+04  0.25500000920E-02 0.  1.
       -2    1    3    3    0  502  0.14255157891E+03 -0.77611942900E+03  0.93167333142E+03  0.12209412423E+04  0.25500000920E-02 0. -1.
</event>
<event>
 5   0  0.1088757E-06  0.2568249E+04  0.7818609E-02  0.8379067E-01
       -1   -1    0    0    0  501  0.00000000000E+00  0.00000000000E+00  0.13866377397E+04  0.13866377398E+04  0.50400001928E-02 0. -1.
        1   -1    0    0  501    0  0.00000000000E+00  0.00000000000E+00 -0.11891899770E+04  0.11891899771E+04  0.50400001928E-02 0.  1.
    10030    2    1    2    0    0  0.00000000000E+00  0.00000000000E+00  0.19744776270E+03  0.25758277168E+04  0.25682489770E+04 0.  0.
        5    1    3    3  502    0 -0.20470742341E+03  0.12456904638E+04 -0.13713757908E+03  0.12698341098E+04  0.46999998093E+01 0.  1.
       -5    1    3    3    0  502  0.20470742341E+03 -0.12456904638E+04  0.33458534178E+03  0.13059936071E+04  0.46999998093E+01 0. -1.
</event>
<event>
 5   0  0.1100104E-06  0.2602060E+04  0.7818609E-02  0.8367502E-01
        1   -1    0    0  501    0  0.00000000000E+00  0.00000000000E+00  0.15581225807E+04  0.15581225807E+04  0.50400001928E-02 0. -1.
       -1   -1    0    0    0  501  0.00000000000E+00  0.00000000000E+00 -0.10863581730E+04  0.10863581730E+04  0.50400001928E-02 0.  1.
    10030    2    1    2    0    0  0.00000000000E+00  0.00000000000E+00  0.47176440770E+03  0.26444807536E+04  0.26020601069E+04 0.  0.
        4    1    3    3  502    0  0.11940477758E+04  0.40183268867E+03 -0.94154943013E+02  0.12633631175E+04  0.12699999809E+01 0.  1.
       -4    1    3    3    0  502 -0.11940477758E+04 -0.40183268867E+03  0.56591935072E+03  0.13811176361E+04  0.12699999809E+01 0. -1.
</event>
<event>
 5   0  0.1055179E-06  0.2597431E+04  0.7818609E-02  0.8369074E-01
       -1   -1    0    0    0  501  0.00000000000E+00  0.00000000000E+00  0.84938944933E+03  0.84938944935E+03  0.50400001928E-02 0.  1.
        1   -1    0    0  501    0  0.00000000000E+00  0.00000000000E+00 -0.19857350134E+04  0.19857350134E+04  0.50400001928E-02 0. -1.
    10030    2    1    2    0    0  0.00000000000E+00  0.00000000000E+00 -0.11363455640E+04  0.28351244627E+04  0.25974313231E+04 0.  0.
        3    1    3    3  502    0 -0.10603785945E+04 -0.67548269790E+03 -0.92351400066E+03  0.15599864610E+04  0.10100000352E+00 0. -1.
       -3    1    3    3    0  502  0.10603785945E+04  0.67548269790E+03 -0.21283156337E+03  0.12751380017E+04  0.10100000352E+00 0.  1.
</event>
<event>
 5   0  0.1100104E-06  0.2591332E+04  0.7818609E-02  0.8371152E-01
       -1   -1    0    0    0  501  0.00000000000E+00  0.00000000000E+00  0.11691054429E+04  0.11691054429E+04  0.50400001928E-02 0.  1.
        1   -1    0    0  501    0  0.00000000000E+00  0.00000000000E+00 -0.14359270149E+04  0.14359270149E+04  0.50400001928E-02 0. -1.
    10030    2    1    2    0    0  0.00000000000E+00  0.00000000000E+00 -0.26682157205E+03  0.26050324578E+04  0.25913317724E+04 0.  0.
        4    1    3    3  502    0 -0.82821068343E+03  0.94519474079E+03  0.18356955699E+03  0.12700493807E+04  0.12699999809E+01 0.  1.
       -4    1    3    3    0  502  0.82821068343E+03 -0.94519474079E+03 -0.45039112904E+03  0.13349830771E+04  0.12699999809E+01 0. -1.
</event>
<event>
 5   0  0.1100104E-06  0.2599975E+04  0.7818609E-02  0.8368210E-01
       -1   -1    0    0    0  501  0.00000000000E+00  0.00000000000E+00  0.12741527751E+04  0.12741527751E+04  0.50400001928E-02 0.  1.
        1   -1    0    0  501    0  0.00000000000E+00  0.00000000000E+00 -0.13263460420E+04  0.13263460420E+04  0.50400001928E-02 0. -1.
    10030    2    1    2    0    0  0.00000000000E+00  0.00000000000E+00 -0.52193266898E+02  0.26004988171E+04  0.25999749923E+04 0.  0.
        4    1    3    3  502    0 -0.22730646986E+03 -0.70738781988E+03  0.10408422949E+04  0.12788354291E+04  0.12699999809E+01 0.  1.
       -4    1    3    3    0  502  0.22730646986E+03  0.70738781988E+03 -0.10930355618E+04  0.13216633880E+04  0.12699999809E+01 0. -1.
</event>
<event>
 5   0  0.2586775E-06  0.2596175E+04  0.7818609E-02  0.8369502E-01
        2   -1    0    0  501    0  0.00000000000E+00  0.00000000000E+00  0.18611575727E+04  0.18611575727E+04  0.25500000920E-02 0.  1.
       -2   -1    0    0    0  501  0.00000000000E+00  0.00000000000E+00 -0.90536694363E+03  0.90536694363E+03  0.25500000920E-02 0. -1.
    10030    2    1    2    0    0  0.00000000000E+00  0.00000000000E+00  0.95579062909E+03  0.27665245164E+04  0.25961745267E+04 0.  0.
        1    1    3    3  502    0 -0.65413256063E+03 -0.88168587505E+03 -0.26020893409E+03  0.11282588704E+04  0.50400001928E-02 0. -1.
       -1    1    3    3    0  502  0.65413256063E+03  0.88168587505E+03  0.12159995632E+04  0.16382656460E+04  0.50400001928E-02 0.  1.
</event>
<event>
 5   0  0.2746631E-06  0.2602672E+04  0.7818609E-02  0.8367294E-01
       -2   -1    0    0    0  501  0.00000000000E+00  0.00000000000E+00  0.91374892864E+03  0.91374892864E+03  0.25500000920E-02 0. -1.
        2   -1    0    0  501    0  0.00000000000E+00  0.00000000000E+00 -0.18533265383E+04  0.18533265383E+04  0.25500000920E-02 0.  1.
    10030    2    1    2    0    0  0.00000000000E+00  0.00000000000E+00 -0.93957760970E+03  0.27670754670E+04  0.26026718109E+04 0.  0.
        2    1    3    3  502    0  0.74549864416E+03 -0.16911619989E+03  0.64987656103E+03  0.10033484251E+04  0.25500000920E-02 0. -1.
       -2    1    3    3    0  502 -0.74549864416E+03  0.16911619989E+03 -0.15894541707E+04  0.17637270419E+04  0.25500000920E-02 0.  1.
</event>
<event>
 5   0  0.2820028E-06  0.2599632E+04  0.7818609E-02  0.8368326E-01
        2   -1    0    0  501    0  0.00000000000E+00  0.00000000000E+00  0.10495133161E+04  0.10495133161E+04  0.25500000920E-02 0.  1.
       -2   -1    0    0    0  501  0.00000000000E+00  0.00000000000E+00 -0.16098141863E+04  0.16098141863E+04  0.25500000920E-02 0. -1.
    10030    2    1    2    0    0  0.00000000000E+00  0.00000000000E+00 -0.56030087026E+03  0.26593275024E+04  0.25996318392E+04 0.  0.
        3    1    3    3  502    0 -0.77772575519E+03  0.94778955242E+03 -0.72175667039E+03  0.14227069577E+04  0.10100000352E+00 0. -1.
       -3    1    3    3    0  502  0.77772575519E+03 -0.94778955242E+03  0.16145580013E+03  0.12366205447E+04  0.10100000352E+00 0.  1.
</event>
<event>
 5   0  0.2623368E-06  0.2599142E+04  0.7818609E-02  0.8368493E-01
       -2   -1    0    0    0  501  0.00000000000E+00  0.00000000000E+00  0.78919063953E+03  0.78919063954E+03  0.25500000920E-02 0.  1.
        2   -1    0    0  501    0  0.00000000000E+00  0.00000000000E+00 -0.21400207192E+04  0.21400207192E+04  0.25500000920E-02 0. -1.
    10030    2    1    2    0    0  0.00000000000E+00  0.00000000000E+00 -0.13508300796E+04  0.29292113587E+04  0.25991416429E+04 0.  0.
        5    1    3    3  502    0 -0.25862344952E+02  0.52642238057E+03  0.66332261627E+03  0.84723572098E+03  0.46999998093E+01 0.  1.
       -5    1    3    3    0  502  0.25862344952E+02 -0.52642238057E+03 -0.20141526959E+04  0.20819756377E+04  0.46999998093E+01 0. -1.
</event>
<event>
 5   0  0.1088757E-06  0.2600195E+04  0.7818609E-02  0.8368135E-01
        1   -1    0    0  501    0  0.00000000000E+00  0.00000000000E+00  0.70067995741E+03  0.70067995743E+03  0.50400001928E-02 0.  1.
       -1   -1    0    0    0  501  0.00000000000E+00  0.00000000000E+00 -0.24123045907E+04  0.24123045907E+04  0.50400001928E-02 0. -1.
    10030    2    1    2    0    0  0.00000000000E+00  0.00000000000E+00 -0.17116246333E+04  0.31129845481E+04  0.26001949757E+04 0.  0.
        5    1    3    3  502    0 -0.92783933729E+03 -0.36032369073E+02  0.23361585628E+03  0.95748766349E+03  0.46999998093E+01 0.  1.
       -5    1    3    3    0  502  0.92783933729E+03  0.36032369073E+02 -0.19452404895E+04  0.21554968846E+04  0.46999998093E+01 0. -1.
</event>
<event>
 5   0  0.1122628E-06  0.2613319E+04  0.7818609E-02  0.8363691E-01
        1   -1    0    0  501    0  0.00000000000E+00  0.00000000000E+00  0.12000325756E+04  0.12000325756E+04  0.50400001928E-02 0. -1.
       -1   -1    0    0    0  501  0.00000000000E+00  0.00000000000E+00 -0.14227604679E+04  0.14227604679E+04  0.50400001928E-02 0.  1.
    10030    2    1    2    0    0  0.00000000000E+00  0.00000000000E+00 -0.22272789230E+03  0.26227930435E+04  0.26133188927E+04 0.  0.
        2    1    3    3  502    0 -0.81996031977E+03 -0.85339556738E+03 -0.66721292648E+03  0.13585992822E+04  0.25500000920E-02 0.  1.
       -2    1    3    3    0  502  0.81996031977E+03  0.85339556738E+03  0.44448503419E+03  0.12641937613E+04  0.25500000920E-02 0. -1.
</event>
<event>
 5   0  0.1088757E-06  0.2578440E+04  0.7818609E-02  0.8375562E-01
        1   -1    0    0  501    0  0.00000000000E+00  0.00000000000E+00  0.18703455215E+04  0.18703455215E+04  0.50400001928E-02 0. -1.
       -1   -1    0    0    0  501  0.00000000000E+00  0.00000000000E+00 -0.88865329844E+03  0.88865329845E+03  0.50400001928E-02 0.  1.
    10030    2    1    2    0    0  0.00000000000E+00  0.00000000000E+00  0.98169222303E+03  0.27589988199E+04  0.25784403944E+04 0.  0.
        5    1    3    3  502    0  0.27682039372E+02  0.11666301483E+04  0.10771916069E+04  0.15881297322E+04  0.46999998093E+01 0. -1.
       -5    1    3    3    0  502 -0.27682039372E+02 -0.11666301483E+04 -0.95499383911E+02  0.11708690877E+04  0.46999998093E+01 0.  1.
</event>
<event>
 5   0  0.2746631E-06  0.2597285E+04  0.7818609E-02  0.8369124E-01
        2   -1    0    0  501    0  0.00000000000E+00  0.00000000000E+00  0.17045336949E+04  0.17045336949E+04  0.25500000920E-02 0.  1.
       -2   -1    0    0    0  501  0.00000000000E+00  0.00000000000E+00 -0.98940393093E+03  0.98940393093E+03  0.25500000920E-02 0. -1.
    10030    2    1    2    0    0  0.00000000000E+00  0.00000000000E+00  0.71512976395E+03  0.26939376258E+04  0.25972849964E+04 0.  0.
        2    1    3    3  502    0  0.28781300706E+03  0.95228013961E+01  0.16709997748E+04  0.16956318168E+04  0.25500000920E-02 0.  1.
       -2    1    3    3    0  502 -0.28781300706E+03 -0.95228013961E+01 -0.95587001081E+03  0.99830580904E+03  0.25500000920E-02 0. -1.
</event>
<event>
 5   0  0.2586775E-06  0.2610092E+04  0.7818609E-02  0.8364781E-01
        2   -1    0    0  501    0  0.00000000000E+00  0.00000000000E+00  0.19206220968E+04  0.19206220968E+04  0.25500000920E-02 0. -1.
       -2   -1    0    0    0  501  0.00000000000E+00  0.00000000000E+00 -0.88676721033E+03  0.88676721033E+03  0.25500000920E-02 0.  1.
    10030    2    1    2    0    0  0.00000000000E+00  0.00000000000E+00  0.10338548865E+04  0.28073893072E+04  0.26100917217E+04 0.  0.
        1    1    3    3  502    0  0.55457557517E+03  0.11538769676E+04  0.78936954585E+03  0.15040247355E+04  0.50400001928E-02 0. -1.
       -1    1    3    3    0  502 -0.55457557517E+03 -0.11538769676E+04  0.24448534066E+03  0.13033645717E+04  0.50400001928E-02 0.  1.
</event>
<event>
 5   0  0.2586775E-06  0.2599515E+04  0.7818609E-02  0.8368366E-01
       -2   -1    0    0    0  501  0.00000000000E+00  0.00000000000E+00  0.91939769988E+03  0.91939769988E+03  0.25500000920E-02 0.  1.
        2   -1    0    0  501    0  0.00000000000E+00  0.00000000000E+00 -0.18374741589E+04  0.18374741589E+04  0.25500000920E-02 0. -1.
    10030    2    1    2    0    0  0.00000000000E+00  0.00000000000E+00 -0.91807645903E+03  0.27568718588E+04  0.25995149665E+04 0.  0.
        1    1    3    3  502    0  0.22783021774E+03  0.39392920557E+03  0.83215064795E+03  0.94845217488E+03  0.50400001928E-02 0.  1.
       -1    1    3    3    0  502 -0.22783021774E+03 -0.39392920557E+03 -0.17502271070E+04  0.18084196839E+04  0.50400001928E-02 0. -1.
</event>
<event>
 5   0  0.2820028E-06  0.2616428E+04  0.7818609E-02  0.8362642E-01
       -2   -1    0    0    0  501  0.00000000000E+00  0.00000000000E+00  0.13777812069E+04  0.13777812069E+04  0.25500000920E-02 0.  1.
        2   -1    0    0  501    0  0.00000000000E+00  0.00000000000E+00 -0.12421596354E+04  0.12421596354E+04  0.25500000920E-02 0. -1.
    10030    2    1    2    0    0  0.00000000000E+00  0.00000000000E+00  0.13562157150E+03  0.26199408423E+04  0.26164282537E+04 0.  0.
        3    1    3    3  502    0  0.27588567423E+03 -0.12457571287E+04 -0.22136830280E+03  0.12950010288E+04  0.10100000352E+00 0. -1.
       -3    1    3    3    0  502 -0.27588567423E+03  0.12457571287E+04  0.35698987430E+03  0.13249398135E+04  0.10100000352E+00 0.  1.
</event>
<event>
 5   0  0.1100104E-06  0.2600371E+04  0.7818609E-02  0.8368075E-01
        1   -1    0    0  501    0  0.00000000000E+00  0.00000000000E+00  0.95268680823E+03  0.95268680824E+03  0.50400001928E-02 0. -1.
       -1   -1    0    0    0  501  0.00000000000E+00  0.00000000000E+00 -0.17744363376E+04  0.17744363376E+04  0.50400001928E-02 0.  1.
    10030    2    1    2    0    0  0.00000000000E+00  0.00000000000E+00 -0.82174952939E+03  0.27271231459E+04  0.26003708127E+04 0.  0.
        4    1    3    3  502    0  0.99463592345E+03  0.72170390744E+03  0.34469048469E+02  0.12293684876E+04  0.12699999809E+01 0. -1.
       -4    1    3    3    0  502 -0.99463592345E+03 -0.72170390744E+03 -0.85621857786E+03  0.14977546582E+04  0.12699999809E+01 0.  1.
</event>
<event>
 5   0  0.2820028E-06  0.2599808E+04  0.7818609E-02  0.8368266E-01
        2   -1    0    0  501    0  0.00000000000E+00  0.00000000000E+00  0.19679539786E+04  0.19679539786E+04  0.25500000920E-02 0. -1.
       -2   -1    0    0    0  501  0.00000000000E+00  0.00000000000E+00 -0.85863308891E+03  0.85863308891E+03  0.25500000920E-02 0.  1.
    10030    2    1    2    0    0  0.00000000000E+00  0.00000000000E+00  0.11093208896E+04  0.28265870675E+04  0.25998079956E+04 0.  0.
        3    1    3    3  502    0 -0.12795806572E+04  0.22825993031E+03  0.57414397833E+03  0.14209400312E+04  0.10100000352E+00 0.  1.
       -3    1    3    3    0  502  0.12795806572E+04 -0.22825993031E+03  0.53517691132E+03  0.14056470363E+04  0.10100000352E+00 0. -1.
</event>
<event>
 5   0  0.1122628E-06  0.2594875E+04  0.7818609E-02  0.8369944E-01
        1   -1    0    0  501    0  0.00000000000E+00  0.00000000000E+00  0.12911738502E+04  0.12911738502E+04  0.50400001928E-02 0.  1.
       -1   -1    0    0    0  501  0.00000000000E+00  0.00000000000E+00 -0.13037314794E+04  0.13037314795E+04  0.50400001928E-02 0. -1.
    10030    2    1    2    0    0  0.00000000000E+00  0.00000000000E+00 -0.12557629209E+02  0.25949053297E+04  0.25948749442E+04 0.  0.
        2    1    3    3  502    0 -0.10667783968E+04  0.69925636715E+03  0.23114422403E+03  0.12963036940E+04  0.25500000920E-02 0. -1.
       -2    1    3    3    0  502  0.10667783968E+04 -0.69925636715E+03 -0.24370185324E+03  0.12986016357E+04  0.25500000920E-02 0.  1.
</event>
<event>
 5   0  0.2623368E-06  0.2602863E+04  0.7818609E-02  0.8367229E-01
        2   -1    0    0  501    0  0.00000000000E+00  0.00000000000E+00  0.20508374132E+04  0.20508374132E+04  0.25500000920E-02 0.  1.
       -2   -1    0    0    0  501  0.00000000000E+00  0.00000000000E+00 -0.82586975404E+03  0.82586975405E+03  0.25500000920E-02 0. -1.
    10030    2    1    2    0    0  0.00000000000E+00  0.00000000000E+00  0.12249676592E+04  0.28767071673E+04  0.26028634924E+04 0.  0.
        5    1    3    3  502    0 -0.11507575048E+04 -0.57730941607E+03  0.40228052015E+03  0.13488442103E+04  0.46999998093E+01 0. -1.
       -5    1    3    3    0  502  0.11507575048E+04  0.57730941607E+03  0.82268713903E+03  0.15278629570E+04  0.46999998093E+01 0.  1.
</event>
<event>
 5   0  0.2820028E-06  0.2594597E+04  0.7818609E-02  0.8370039E-01
        2   -1    0    0  501    0  0.00000000000E+00  0.00000000000E+00  0.82889503455E+03  0.82889503455E+03  0.25500000920E-02 0.  1.
       -2   -1    0    0    0  501  0.00000000000E+00  0.00000000000E+00 -0.20303944378E+04  0.20303944378E+04  0.25500000920E-02 0. -1.
    10030    2    1    2    0    0  0.00000000000E+00  0.00000000000E+00 -0.12014994032E+04  0.28592894724E+04  0.25945973620E+04 0.  0.
        3    1    3    3  502    0  0.81530293794E+03 -0.33537353544E+03 -0.16495717547E+04  0.18703692879E+04  0.10100000352E+00 0. -1.
       -3    1    3    3    0  502 -0.81530293794E+03  0.33537353544E+03  0.44807235147E+03  0.98892018447E+03  0.10100000352E+00 0.  1.
</event>
<event>
 5   0  0.1122628E-06  0.2602029E+04  0.7818609E-02  0.8367512E-01
        1   -1    0    0  501    0  0.00000000000E+00  0.00000000000E+00  0.10912463538E+04  0.10912463538E+04  0.50400001928E-02 0. -1.
       -1   -1    0    0    0  501  0.00000000000E+00  0.00000000000E+00 -0.15511062295E+04  0.15511062296E+04  0.50400001928E-02 0.  1.
    10030    2    1    2    0    0  0.00000000000E+00  0.00000000000E+00 -0.45985987572E+03  0.26423525834E+04  0.26020292215E+04 0.  0.
        2    1    3    3  502    0 -0.77314608952E+03 -0.11905758651E+03  0.82575194627E+03  0.11374514765E+04  0.25500000920E-02 0. -1.
       -2    1    3    3    0  502  0.77314608952E+03  0.11905758651E+03 -0.12856118220E+04  0.15049011069E+04  0.25500000920E-02 0.  1.
</event>
<event>
 5   0  0.1122628E-06  0.2595461E+04  0.7818609E-02  0.8369745E-01
        1   -1    0    0  501    0  0.00000000000E+00  0.00000000000E+00  0.22120945635E+04  0.22120945635E+04  0.50400001928E-02 0.  1.
       -1   -1    0    0    0  501  0.00000000000E+00  0.00000000000E+00 -0.76131671363E+03  0.76131671365E+03  0.50400001928E-02 0. -1.
    10030    2    1    2    0    0  0.00000000000E+00  0.00000000000E+00  0.14507778498E+04  0.29734112771E+04  0.25954610868E+04 0.  0.
        2    1    3    3  502    0  0.96154082266E+03 -0.83080820576E+03  0.42380243058E+03  0.13395564671E+04  0.25500000920E-02 0.  1.
       -2    1    3    3    0  502 -0.96154082266E+03  0.83080820576E+03  0.10269754193E+04  0.16338548100E+04  0.25500000920E-02 0. -1.
</event>
<event>
 5   0  0.1088757E-06  0.2593900E+04  0.7818609E-02  0.8370276E-01
        1   -1    0    0  501    0  0.00000000000E+00  0.00000000000E+00  0.15082182147E+04  0.15082182148E+04  0.50400001928E-02 0. -1.
       -1   -1    0    0    0  501  0.00000000000E+00  0.00000000000E+00 -0.11152755049E+04  0.11152755049E+04  0.50400001928E-02 0.  1.
    10030    2    1    2    0    0  0.00000000000E+00  0.00000000000E+00  0.39294270987E+03  0.26234937196E+04  0.25938996364E+04 0.  0.
        5    1    3    3  502    0 -0.39267700272E+02 -0.30218629931E+03  0.14714881245E+04  0.15027168404E+04  0.46999998093E+01 0. -1.
       -5    1    3    3    0  502  0.39267700272E+02  0.30218629931E+03 -0.10785454146E+04  0.11207768793E+04  0.46999998093E+01 0.  1.
</event>
<event>
 5   0  0.2746631E-06  0.2585254E+04  0.7818609E-02  0.8373227E-01
        2   -1    0    0  501    0  0.00000000000E+00  0.00000000000E+00  0.15730354191E+04  0.15730354191E+04  0.25500000920E-02 0. -1.
       -2   -1    0    0    0  501  0.00000000000E+00  0.00000000000E+00 -0.10622040770E+04  0.10622040770E+04  0.25500000920E-02 0.  1.
    10030    2    1    2    0    0  0.00000000000E+00  0.00000000000E+00  0.51083134211E+03  0.26352394961E+04  0.25852540575E+04 0.  0.
        2    1    3    3  502    0 -0.44112595025E+03 -0.95302176679E+03 -0.51284234971E+03  0.11686957977E+04  0.25500000920E-02 0.  1.
       -2    1    3    3    0  502  0.44112595025E+03  0.95302176679E+03  0.10236736918E+04  0.14665436984E+04  0.25500000920E-02 0. -1.
</event>
<event>
 5   0  0.2746631E-06  0.2603380E+04  0.7818609E-02  0.8367054E-01
       -2   -1    0    0    0  501  0.00000000000E+00  0.00000000000E+00  0.19204941371E+04  0.19204941371E+04  0.25500000920E-02 0. -1.
        2   -1    0    0  501    0  0.00000000000E+00  0.00000000000E+00 -0.88227160653E+03  0.88227160654E+03  0.25500000920E-02 0.  1.
    10030    2    1    2    0    0  0.00000000000E+00  0.00000000000E+00  0.10382225305E+04  0.28027657436E+04  0.26033804545E+04 0.  0.
        2    1    3    3  502    0  0.19337662643E+03 -0.35675652491E+03 -0.81243489830E+03  0.90814106927E+03  0.25500000920E-02 0.  1.
       -2    1    3    3    0  502 -0.19337662643E+03  0.35675652491E+03  0.18506574288E+04  0.18946246743E+04  0.25500000920E-02 0. -1.
</event>
<event>
 5   0  0.1055179E-06  0.2594337E+04  0.7818609E-02  0.8370127E-01
        1   -1    0    0  501    0  0.00000000000E+00  0.00000000000E+00  0.79568704599E+03  0.79568704600E+03  0.50400001928E-02 0.  1.
       -1   -1    0    0    0  501  0.00000000000E+00  0.00000000000E+00 -0.21147090434E+04  0.21147090434E+04  0.50400001928E-02 0. -1.
    10030    2    1    2    0    0  0.00000000000E+00  0.00000000000E+00 -0.13190219974E+04  0.29103960894E+04  0.25943373658E+04 0.  0.
        3    1    3    3  502    0 -0.57914129273E+03 -0.10170377815E+04 -0.12870082666E+04  0.17395863802E+04  0.10100000352E+00 0.  1.
       -3    1    3    3    0  502  0.57914129273E+03  0.10170377815E+04 -0.32013730823E+02  0.11708097092E+04  0.10100000352E+00 0. -1.
</event>
<event>
 5   0  0.2705807E-06  0.2595369E+04  0.7818609E-02  0.8369776E-01
        2   -1    0    0  501    0  0.00000000000E+00  0.00000000000E+00  0.10674802375E+04  0.10674802375E+04  0.25500000920E-02 0. -1.
       -2   -1    0    0    0  501  0.00000000000E+00  0.00000000000E+00 -0.15775329089E+04  0.15775329089E+04  0.25500000920E-02 0.  1.
    10030    2    1    2    0    0  0.00000000000E+00  0.00000000000E+00 -0.51005267132E+03  0.26450131464E+04  0.25953691100E+04 0.  0.
        4    1    3    3  502    0  0.58776178262E+02 -0.98726542378E+03 -0.11112369081E+04  0.14876144443E+04  0.12699999809E+01 0.  1.
       -4    1    3    3    0  502 -0.58776178262E+02  0.98726542378E+03  0.60118423679E+03  0.11573987021E+04  0.12699999809E+01 0. -1.
</event>
<event>
 5   0  0.1032076E-06  0.2599768E+04  0.7818609E-02  0.8368280E-01
       -1   -1    0    0    0  501  0.00000000000E+00  0.00000000000E+00  0.81479234073E+03  0.81479234074E+03  0.50400001928E-02 0.  1.
        1   -1    0    0  501    0  0.00000000000E+00  0.00000000000E+00 -0.20737783513E+04  0.20737783513E+04  0.50400001928E-02 0. -1.
    10030    2    1    2    0    0  0.00000000000E+00  0.00000000000E+00 -0.12589860105E+04  0.28885706920E+04  0.25997682335E+04 0.  0.
        1    1    3    3  502    0 -0.84330809744E+03  0.46251956411E+03  0.34206149579E+03  0.10208324845E+04  0.50400001928E-02 0.  1.
       -1    1    3    3    0  502  0.84330809744E+03 -0.46251956411E+03 -0.16010475063E+04  0.18677382075E+04  0.50400001928E-02 0. -1.
</event>
<event>
 5   0  0.2746631E-06  0.2602120E+04  0.7818609E-02  0.8367481E-01
        2   -1    0    0  501    0  0.00000000000E+00  0.00000000000E+00  0.17824600587E+04  0.17824600587E+04  0.25500000920E-02 0. -1.
       -2   -1    0    0    0  501  0.00000000000E+00  0.00000000000E+00 -0.94967482943E+03  0.94967482943E+03  0.25500000920E-02 0.  1.
    10030    2    1    2    0    0  0.00000000000E+00  0.00000000000E+00  0.83278522924E+03  0.27321348881E+04  0.26021202526E+04 0.  0.
        2    1    3    3  502    0 -0.71354787032E+03  0.71692282013E+03 -0.44280241892E+03  0.11041752014E+04  0.25500000920E-02 0.  1.
       -2    1    3    3    0  502  0.71354787032E+03 -0.71692282013E+03  0.12755876482E+04  0.16279596867E+04  0.25500000920E-02 0. -1.
</event>
<event>
 5   0  0.1055179E-06  0.2602179E+04  0.7818609E-02  0.8367461E-01
       -1   -1    0    0    0  501  0.00000000000E+00  0.00000000000E+00  0.83118153689E+03  0.83118153690E+03  0.50400001928E-02 0.  1.
        1   -1    0    0  501    0  0.00000000000E+00  0.00000000000E+00 -0.20366600840E+04  0.20366600840E+04  0.50400001928E-02 0. -1.
    10030    2    1    2    0    0  0.00000000000E+00  0.00000000000E+00 -0.12054785471E+04  0.28678416209E+04  0.26021792857E+04 0.  0.
        3    1    3    3  502    0  0.44038879788E+03  0.83084933474E+03 -0.15937533079E+04  0.18504871053E+04  0.10100000352E+00 0. -1.
       -3    1    3    3    0  502 -0.44038879788E+03 -0.83084933474E+03  0.38827476077E+03  0.10173545156E+04  0.10100000352E+00 0.  1.
</event>
<event>
 5   0  0.2586775E-06  0.2593125E+04  0.7818609E-02  0.8370540E-01
       -2   -1    0    0    0  501  0.00000000000E+00  0.00000000000E+00  0.65998658809E+03  0.65998658810E+03  0.25500000920E-02 0. -1.
        2   -1    0    0  501    0  0.00000000000E+00  0.00000000000E+00 -0.25471331683E+04  0.25471331683E+04  0.25500000920E-02 0.  1.
    10030    2    1    2    0    0  0.00000000000E+00  0.00000000000E+00 -0.18871465802E+04  0.32071197564E+04  0.25931245471E+04 0.  0.
        1    1    3    3  502    0  0.12491433438E+04  0.34347410553E+03 -0.87883206447E+03  0.15654645803E+04  0.50400001928E-02 0.  1.
       -1    1    3    3    0  502 -0.12491433438E+04 -0.34347410553E+03 -0.10083145157E+04  0.16416551761E+04  0.50400001928E-02 0. -1.
</event>
<event>
 5   0  0.2623368E-06  0.2598403E+04  0.7818609E-02  0.8368744E-01
       -2   -1    0    0    0  501  0.00000000000E+00  0.00000000000E+00  0.76209962419E+03  0.76209962420E+03  0.25500000920E-02 0. -1.
        2   -1    0    0  501    0  0.00000000000E+00  0.00000000000E+00 -0.22148345283E+04  0.22148345283E+04  0.25500000920E-02 0.  1.
    10030    2    1    2    0    0  0.00000000000E+00  0.00000000000E+00 -0.14527349041E+04  0.29769341525E+04  0.25984030185E+04 0.  0.
        5    1    3    3  502    0 -0.24133660506E+03  0.18563093392E+03 -0.21733734250E+04  0.21946016347E+04  0.46999998093E+01 0.  1.
       -5    1    3    3    0  502  0.24133660506E+03 -0.18563093392E+03  0.72063852090E+03  0.78233251778E+03  0.46999998093E+01 0. -1.
</event>
<event>
 5   0  0.1032076E-06  0.2600160E+04  0.7818609E-02  0.8368147E-01
        1   -1    0    0  501    0  0.00000000000E+00  0.00000000000E+00  0.10576321782E+04  0.10576321783E+04  0.50400001928E-02 0.  1.
       -1   -1    0    0    0  501  0.00000000000E+00  0.00000000000E+00 -0.15981062034E+04  0.15981062034E+04  0.50400001928E-02 0. -1.
    10030    2    1    2    0    0  0.00000000000E+00  0.00000000000E+00 -0.54047402512E+03  0.26557383816E+04  0.26001604143E+04 0.  0.
        1    1    3    3  502    0  0.10424843388E+04  0.63530184441E+03  0.18633754293E+03  0.12349508938E+04  0.50400001928E-02 0.  1.
       -1    1    3    3    0  502 -0.10424843388E+04 -0.63530184441E+03 -0.72681156805E+03  0.14207874879E+04  0.50400001928E-02 0. -1.
</event>
<event>
 5   0  0.1100104E-06  0.2598933E+04  0.7818609E-02  0.8368564E-01
       -1   -1    0    0    0  501  0.00000000000E+00  0.00000000000E+00  0.10148765533E+04  0.10148765533E+04  0.50400001928E-02 0. -1.
        1   -1    0    0  501    0  0.00000000000E+00  0.00000000000E+00 -0.16638601336E+04  0.16638601336E+04  0.50400001928E-02 0.  1.
    10030    2    1    2    0    0  0.00000000000E+00  0.00000000000E+00 -0.64898358032E+03  0.26787366870E+04  0.25989325791E+04 0.  0.
        4    1    3    3  502    0  0.58039082227E+03 -0.13630811532E+03  0.86559605335E+03  0.10510430768E+04  0.12699999809E+01 0. -1.
       -4    1    3    3    0  502 -0.58039082227E+03  0.13630811532E+03 -0.15145796337E+04  0.16276936101E+04  0.12699999809E+01 0.  1.
</event>
<event>
 5   0  0.1100104E-06  0.2598545E+04  0.7818609E-02  0.8368696E-01
        1   -1    0    0  501    0  0.00000000000E+00  0.00000000000E+00  0.11808390860E+04  0.11808390860E+04  0.50400001928E-02 0. -1.
       -1   -1    0    0    0  501  0.00000000000E+00  0.00000000000E+00 -0.14295845151E+04  0.14295845151E+04  0.50400001928E-02 0.  1.
    10030    2    1    2    0    0  0.00000000000E+00  0.00000000000E+00 -0.24874542907E+03  0.26104236011E+04  0.25985451870E+04 0.  0.
        4    1    3    3  502    0 -0.25616568937E+03  0.13562659326E+03 -0.13966898640E+04  0.14264500069E+04  0.12699999809E+01 0.  1.
       -4    1    3    3    0  502  0.25616568937E+03 -0.13562659326E+03  0.11479444349E+04  0.11839735942E+04  0.12699999809E+01 0. -1.
</event>
<event>
 5   0  0.2746631E-06  0.2597870E+04  0.7818609E-02  0.8368925E-01
        2   -1    0    0  501    0  0.00000000000E+00  0.00000000000E+00  0.14442450849E+04  0.14442450849E+04  0.25500000920E-02 0.  1.
       -2   -1    0    0    0  501  0.00000000000E+00  0.00000000000E+00 -0.11682446059E+04  0.11682446059E+04  0.25500000920E-02 0. -1.
    10030    2    1    2    0    0  0.00000000000E+00  0.00000000000E+00  0.27600047909E+03  0.26124896908E+04  0.25978695348E+04 0.  0.
        2    1    3    3  502    0  0.32760567022E+03 -0.22069095189E+03  0.13823814063E+04  0.14377094018E+04  0.25500000920E-02 0.  1.
       -2    1    3    3    0  502 -0.32760567022E+03  0.22069095189E+03 -0.11063809272E+04  0.11747802890E+04  0.25500000920E-02 0. -1.
</event>
<event>
 5   0  0.2746631E-06  0.2597544E+04  0.7818609E-02  0.8369036E-01
        2   -1    0    0  501    0  0.00000000000E+00  0.00000000000E+00  0.10660731919E+04  0.10660731919E+04  0.25500000920E-02 0. -1.
       -2   -1    0    0    0  501  0.00000000000E+00  0.00000000000E+00 -0.15822638428E+04  0.15822638428E+04  0.25500000920E-02 0.  1.
    10030    2    1    2    0    0  0.00000000000E+00  0.00000000000E+00 -0.51619065088E+03  0.26483370346E+04  0.25975442751E+04 0.  0.
        2    1    3    3  502    0 -0.11698938591E+04 -0.43416184631E+03  0.10903041527E+03  0.12526115846E+04  0.25500000920E-02 0. -1.
       -2    1    3    3    0  502  0.11698938591E+04  0.43416184631E+03 -0.62522106615E+03  0.13957254501E+04  0.25500000920E-02 0.  1.
</event>
<event>
 5   0  0.2705807E-06  0.2601540E+04  0.7818609E-02  0.8367678E-01
        2   -1    0    0  501    0  0.00000000000E+00  0.00000000000E+00  0.25036947475E+04  0.25036947475E+04  0.25500000920E-02 0.  1.
       -2   -1    0    0    0  501  0.00000000000E+00  0.00000000000E+00 -0.67580226412E+03  0.67580226413E+03  0.25500000920E-02 0. -1.
    10030    2    1    2    0    0  0.00000000000E+00  0.00000000000E+00  0.18278924834E+04  0.31794970116E+04  0.26015399893E+04 0.  0.
        4    1    3    3  502    0  0.34760882160E+03 -0.47487509131E+03  0.23316843910E+04  0.24048060124E+04  0.12699999809E+01 0.  1.
       -4    1    3    3    0  502 -0.34760882160E+03  0.47487509131E+03 -0.50379190761E+03  0.77469099922E+03  0.12699999809E+01 0. -1.
</event>
<event>
 5   0  0.2623368E-06  0.2568185E+04  0.7818609E-02  0.8379089E-01
        2   -1    0    0  501    0  0.00000000000E+00  0.00000000000E+00  0.15690168688E+04  0.15690168688E+04  0.25500000920E-02 0. -1.
       -2   -1    0    0    0  501  0.00000000000E+00  0.00000000000E+00 -0.10509089725E+04  0.10509089725E+04  0.25500000920E-02 0.  1.
    10030    2    1    2    0    0  0.00000000000E+00  0.00000000000E+00  0.51810789628E+03  0.26199258412E+04  0.25681852779E+04 0.  0.
        5    1    3    3  502    0  0.19512039779E+03 -0.12393047946E+04 -0.20182170707E+02  0.12547421064E+04  0.46999998093E+01 0.  1.
       -5    1    3    3    0  502 -0.19512039779E+03  0.12393047946E+04  0.53829006698E+03  0.13651837348E+04  0.46999998093E+01 0. -1.
</event>
<event>
 5   0  0.2746631E-06  0.2599253E+04  0.7818609E-02  0.8368455E-01
       -2   -1    0    0    0  501  0.00000000000E+00  0.00000000000E+00  0.12247657293E+04  0.12247657293E+04  0.25500000920E-02 0. -1.
        2   -1    0    0  501    0  0.00000000000E+00  0.00000000000E+00 -0.13790632229E+04  0.13790632229E+04  0.25500000920E-02 0.  1.
    10030    2    1    2    0    0  0.00000000000E+00  0.00000000000E+00 -0.15429749361E+03  0.26038289522E+04  0.25992532573E+04 0.  0.
        2    1    3    3  502    0 -0.68037673023E+03 -0.16623280641E+03 -0.11738286635E+04  0.13669014493E+04  0.25500000920E-02 0.  1.
       -2    1    3    3    0  502  0.68037673023E+03  0.16623280641E+03  0.10195311699E+04  0.12369275028E+04  0.25500000920E-02 0. -1.
</event>
<event>
 5   0  0.2586775E-06  0.2605371E+04  0.7818609E-02  0.8366379E-01
        2   -1    0    0  501    0  0.00000000000E+00  0.00000000000E+00  0.20374215732E+04  0.20374215732E+04  0.25500000920E-02 0.  1.
       -2   -1    0    0    0  501  0.00000000000E+00  0.00000000000E+00 -0.83291045026E+03  0.83291045027E+03  0.25500000920E-02 0. -1.
    10030    2    1    2    0    0  0.00000000000E+00  0.00000000000E+00  0.12045111229E+04  0.28703320235E+04  0.26053711597E+04 0.  0.
        1    1    3    3  502    0  0.58997287546E+03 -0.99468634561E+03 -0.58323107587E+02  0.11579596301E+04  0.50400001928E-02 0. -1.
       -1    1    3    3    0  502 -0.58997287546E+03  0.99468634561E+03  0.12628342305E+04  0.17123723934E+04  0.50400001928E-02 0.  1.
</event>
<event>
 5   0  0.2705807E-06  0.2600013E+04  0.7818609E-02  0.8368197E-01
        2   -1    0    0  501    0  0.00000000000E+00  0.00000000000E+00  0.12407125887E+04  0.12407125887E+04  0.25500000920E-02 0.  1.
       -2   -1    0    0    0  501  0.00000000000E+00  0.00000000000E+00 -0.13621340241E+04  0.13621340241E+04  0.25500000920E-02 0. -1.
    10030    2    1    2    0    0  0.00000000000E+00  0.00000000000E+00 -0.12142143543E+03  0.26028466127E+04  0.26000129470E+04 0.  0.
        4    1    3    3  502    0 -0.77755659736E+03  0.42801803652E+03  0.89017791370E+03  0.12570648482E+04  0.12699999809E+01 0.  1.
       -4    1    3    3    0  502  0.77755659736E+03 -0.42801803652E+03 -0.10115993491E+04  0.13457817645E+04  0.12699999809E+01 0. -1.
</event>
<event>
 5   0  0.2705807E-06  0.2598620E+04  0.7818609E-02  0.8368670E-01
       -2   -1    0    0    0  501  0.00000000000E+00  0.00000000000E+00  0.91682279862E+03  0.91682279862E+03  0.25500000920E-02 0. -1.
        2   -1    0    0  501    0  0.00000000000E+00  0.00000000000E+00 -0.18413667545E+04  0.18413667545E+04  0.25500000920E-02 0.  1.
    10030    2    1    2    0    0  0.00000000000E+00  0.00000000000E+00 -0.92454395591E+03  0.27581895532E+04  0.25986204195E+04 0.  0.
        4    1    3    3  502    0  0.13055474791E+03 -0.34066411480E+03  0.86134294742E+03  0.93541962096E+03  0.12699999809E+01 0. -1.
       -4    1    3    3    0  502 -0.13055474791E+03  0.34066411480E+03 -0.17858869033E+04  0.18227699322E+04  0.12699999809E+01 0.  1.
</event>
<event>
 5   0  0.2623368E-06  0.2596169E+04  0.7818609E-02  0.8369504E-01
       -2   -1    0    0    0  501  0.00000000000E+00  0.00000000000E+00  0.82455362329E+03  0.82455362330E+03  0.25500000920E-02 0. -1.
        2   -1    0    0  501    0  0.00000000000E+00  0.00000000000E+00 -0.20435577411E+04  0.20435577411E+04  0.25500000920E-02 0.  1.
    10030    2    1    2    0    0  0.00000000000E+00  0.00000000000E+00 -0.12190041178E+04  0.28681113644E+04  0.25961686693E+04 0.  0.
        5    1    3    3  502    0 -0.11675117763E+04 -0.55366655643E+03 -0.74646603167E+03  0.14922680825E+04  0.46999998093E+01 0.  1.
       -5    1    3    3    0  502  0.11675117763E+04  0.55366655643E+03 -0.47253808617E+03  0.13758432819E+04  0.46999998093E+01 0. -1.
</event>
<event>
 5   0  0.1100104E-06  0.2614990E+04  0.7818609E-02  0.8363127E-01
        1   -1    0    0  501    0  0.00000000000E+00  0.00000000000E+00  0.15718213198E+04  0.15718213198E+04  0.50400001928E-02 0.  1.
       -1   -1    0    0    0  501  0.00000000000E+00  0.00000000000E+00 -0.10876195126E+04  0.10876195126E+04  0.50400001928E-02 0. -1.
    10030    2    1    2    0    0  0.00000000000E+00  0.00000000000E+00  0.48420180727E+03  0.26594408324E+04  0.26149902774E+04 0.  0.
        4    1    3    3  502    0 -0.11935911765E+04 -0.15779115645E+03  0.76065437669E+03  0.14241329430E+04  0.12699999809E+01 0.  1.
       -4    1    3    3    0  502  0.11935911765E+04  0.15779115645E+03 -0.27645256942E+03  0.12353078894E+04  0.12699999809E+01 0. -1.
</event>
<event>
 5   0  0.2623368E-06  0.2606491E+04  0.7818609E-02  0.8366000E-01
       -2   -1    0    0    0  501  0.00000000000E+00  0.00000000000E+00  0.14075408197E+04  0.14075408197E+04  0.25500000920E-02 0.  1.
        2   -1    0    0  501    0  0.00000000000E+00  0.00000000000E+00 -0.12066785837E+04  0.12066785837E+04  0.25500000920E-02 0. -1.
    10030    2    1    2    0    0  0.00000000000E+00  0.00000000000E+00  0.20086223600E+03  0.26142194034E+04  0.26064914063E+04 0.  0.
        5    1    3    3  502    0  0.10291916177E+04 -0.39560038291E+03  0.79725156786E+03  0.13606495513E+04  0.46999998093E+01 0.  1.
       -5    1    3    3    0  502 -0.10291916177E+04  0.39560038291E+03 -0.59638933186E+03  0.12535698521E+04  0.46999998093E+01 0. -1.
</event>
<event>
 5   0  0.2820028E-06  0.2595499E+04  0.7818609E-02  0.8369732E-01
        2   -1    0    0  501    0  0.00000000000E+00  0.00000000000E+00  0.11419292809E+04  0.11419292809E+04  0.25500000920E-02 0. -1.
       -2   -1    0    0    0  501  0.00000000000E+00  0.00000000000E+00 -0.14748322552E+04  0.14748322552E+04  0.25500000920E-02 0.  1.
    10030    2    1    2    0    0  0.00000000000E+00  0.00000000000E+00 -0.33290297431E+03  0.26167615360E+04  0.25954992865E+04 0.  0.
        3    1    3    3  502    0 -0.35694922217E+03  0.10863122077E+04 -0.78521132387E+03  0.13870990567E+04  0.10100000352E+00 0.  1.
       -3    1    3    3    0  502  0.35694922217E+03 -0.10863122077E+04  0.45230834956E+03  0.12296624793E+04  0.10100000352E+00 0. -1.
</event>
<event>
 5   0  0.2623368E-06  0.2600508E+04  0.7818609E-02  0.8368029E-01
        2   -1    0    0  501    0  0.00000000000E+00  0.00000000000E+00  0.12530471913E+04  0.12530471913E+04  0.25500000920E-02 0.  1.
       -2   -1    0    0    0  501  0.00000000000E+00  0.00000000000E+00 -0.13492396671E+04  0.13492396671E+04  0.25500000920E-02 0. -1.
    10030    2    1    2    0    0  0.00000000000E+00  0.00000000000E+00 -0.96192475830E+02  0.26022868584E+04  0.26005083928E+04 0.  0.
        5    1    3    3  502    0 -0.79404898675E+03  0.32723761648E+03 -0.10250018796E+04  0.13372543491E+04  0.46999998093E+01 0. -1.
       -5    1    3    3    0  502  0.79404898675E+03 -0.32723761648E+03  0.92880940380E+03  0.12650325093E+04  0.46999998093E+01 0.  1.
</event>
<event>
 5   0  0.1032076E-06  0.2603555E+04  0.7818609E-02  0.8366995E-01
        1   -1    0    0  501    0  0.00000000000E+00  0.00000000000E+00  0.18687596682E+04  0.18687596682E+04  0.50400001928E-02 0. -1.
       -1   -1    0    0    0  501  0.00000000000E+00  0.00000000000E+00 -0.90681769693E+03  0.90681769695E+03  0.50400001928E-02 0.  1.
    10030    2    1    2    0    0  0.00000000000E+00  0.00000000000E+00  0.96194197130E+03  0.27755773652E+04  0.26035547534E+04 0.  0.
        1    1    3    3  502    0 -0.29994663773E+03  0.39653325323E+03  0.17635483357E+04  0.18322961930E+04  0.50400001928E-02 0. -1.
       -1    1    3    3    0  502  0.29994663773E+03 -0.39653325323E+03 -0.80160636439E+03  0.94328117222E+03  0.50400001928E-02 0.  1.
</event>
<event>
 5   0  0.1088757E-06  0.2586311E+04  0.7818609E-02  0.8372866E-01
       -1   -1    0    0    0  501  0.00000000000E+00  0.00000000000E+00  0.54967118164E+03  0.54967118167E+03  0.50400001928E-02 0.  1.
        1   -1    0    0  501    0  0.00000000000E+00  0.00000000000E+00 -0.30422747445E+04  0.30422747446E+04  0.50400001928E-02 0. -1.
    10030    2    1    2    0    0  0.00000000000E+00  0.00000000000E+00 -0.24926035629E+04  0.35919459262E+04  0.25863106958E+04 0.  0.
        5    1    3    3  502    0 -0.98044229971E+03  0.37952222349E+03 -0.20059076063E+03  0.10703097516E+04  0.46999998093E+01 0.  1.
       -5    1    3    3    0  502  0.98044229971E+03 -0.37952222349E+03 -0.22920128023E+04  0.25216361746E+04  0.46999998093E+01 0. -1.
</event>
<event>
 5   0  0.1088757E-06  0.2599330E+04  0.7818609E-02  0.8368429E-01
        1   -1    0    0  501    0  0.00000000000E+00  0.00000000000E+00  0.13951348315E+04  0.13951348315E+04  0.50400001928E-02 0.  1.
       -1   -1    0    0    0  501  0.00000000000E+00  0.00000000000E+00 -0.12107279897E+04  0.12107279897E+04  0.50400001928E-02 0. -1.
    10030    2    1    2    0    0  0.00000000000E+00  0.00000000000E+00  0.18440684180E+03  0.26058628212E+04  0.25993297520E+04 0.  0.
        5    1    3    3  502    0 -0.65363368521E+03 -0.14334713084E+03  0.12091496768E+04  0.13819733808E+04  0.46999998093E+01 0.  1.
       -5    1    3    3    0  502  0.65363368521E+03  0.14334713084E+03 -0.10247428350E+04  0.12238894404E+04  0.46999998093E+01 0. -1.
</event>
<event>
 5   0  0.2586775E-06  0.2598799E+04  0.7818609E-02  0.8368609E-01
        2   -1    0    0  501    0  0.00000000000E+00  0.00000000000E+00  0.16140335973E+04  0.16140335973E+04  0.25500000920E-02 0.  1.
       -2   -1    0    0    0  501  0.00000000000E+00  0.00000000000E+00 -0.10460992196E+04  0.10460992196E+04  0.25500000920E-02 0. -1.
    10030    2    1    2    0    0  0.00000000000E+00  0.00000000000E+00  0.56793437776E+03  0.26601328169E+04  0.25987991738E+04 0.  0.
        1    1    3    3  502    0 -0.66344758243E+03  0.10935835379E+04  0.51817195907E+03  0.13800687766E+04  0.50400001928E-02 0.  1.
       -1    1    3    3    0  502  0.66344758243E+03 -0.10935835379E+04  0.49762418693E+02  0.12800640403E+04  0.50400001928E-02 0. -1.
</event>
<event>
 5   0  0.2586775E-06  0.2597988E+04  0.7818609E-02  0.8368885E-01
        2   -1    0    0  501    0  0.00000000000E+00  0.00000000000E+00  0.93968684526E+03  0.93968684526E+03  0.25500000920E-02 0. -1.
       -2   -1    0    0    0  501  0.00000000000E+00  0.00000000000E+00 -0.17956887150E+04  0.17956887150E+04  0.25500000920E-02 0.  1.
    10030    2    1    2    0    0  0.00000000000E+00  0.00000000000E+00 -0.85600186972E+03  0.27353755602E+04  0.25979877318E+04 0.  0.
        1    1    3    3  502    0 -0.84081348714E+03 -0.83909801780E+03  0.12547107271E+03  0.11944855770E+04  0.50400001928E-02 0. -1.
       -1    1    3    3    0  502  0.84081348714E+03  0.83909801780E+03 -0.98147294242E+03  0.15408899832E+04  0.50400001928E-02 0.  1.
</event>
<event>
 5   0  0.1100104E-06  0.2601781E+04  0.7818609E-02  0.8367596E-01
        1   -1    0    0  501    0  0.00000000000E+00  0.00000000000E+00  0.13667067482E+04  0.13667067482E+04  0.50400001928E-02 0. -1.
       -1   -1    0    0    0  501  0.00000000000E+00  0.00000000000E+00 -0.12382439565E+04  0.12382439565E+04  0.50400001928E-02 0.  1.
    10030    2    1    2    0    0  0.00000000000E+00  0.00000000000E+00  0.12846279168E+03  0.26049507047E+04  0.26017812140E+04 0.  0.
        4    1    3    3  502    0 -0.19986587789E+01  0.49631639250E+03 -0.11397228960E+04  0.12431025093E+04  0.12699999809E+01 0.  1.
       -4    1    3    3    0  502  0.19986587789E+01 -0.49631639250E+03  0.12681856877E+04  0.13618481954E+04  0.12699999809E+01 0. -1.
</event>
<event>
 5   0  0.2746631E-06  0.2601309E+04  0.7818609E-02  0.8367757E-01
        2   -1    0    0  501    0  0.00000000000E+00  0.00000000000E+00  0.19992550026E+04  0.19992550026E+04  0.25500000920E-02 0.  1.
       -2   -1    0    0    0  501  0.00000000000E+00  0.00000000000E+00 -0.84616642346E+03  0.84616642346E+03  0.25500000920E-02 0. -1.
    10030    2    1    2    0    0  0.00000000000E+00  0.00000000000E+00  0.11530885791E+04  0.28454214260E+04  0.26013092512E+04 0.  0.
        2    1    3    3  502    0 -0.40733544338E+03  0.79819348017E+03  0.16076999995E+04  0.18405798770E+04  0.25500000920E-02 0.  1.
       -2    1    3    3    0  502  0.40733544338E+03 -0.79819348017E+03 -0.45461142035E+03  0.10048415491E+04  0.25500000920E-02 0. -1.
</event>
<event>
 5   0  0.9197000E-07  0.2598473E+04  0.7818609E-02  0.8368720E-01
        3   -1    0    0  501    0  0.00000000000E+00  0.00000000000E+00  0.17473563885E+04  0.17473563914E+04  0.10100000352E+00 0. -1.
       -3   -1    0    0    0  501  0.00000000000E+00  0.00000000000E+00 -0.96603993769E+03  0.96603994297E+03  0.10100000352E+00 0.  1.
    10030    2    1    2    0    0  0.00000000000E+00  0.00000000000E+00  0.78131645081E+03  0.27133963344E+04  0.25984734501E+04 0.  0.
        4    1    3    3  502    0  0.49011083836E+03 -0.34438533462E+03 -0.81324301470E+03  0.10100374777E+04  0.12699999809E+01 0.  1.
       -4    1    3    3    0  502 -0.49011083836E+03  0.34438533462E+03  0.15945594655E+04  0.17033588566E+04  0.12699999809E+01 0. -1.
</event>
<event>
 5   0  0.2623368E-06  0.2572440E+04  0.7818609E-02  0.8377623E-01
        2   -1    0    0  501    0  0.00000000000E+00  0.00000000000E+00  0.15579558629E+04  0.15579558629E+04  0.25500000920E-02 0.  1.
       -2   -1    0    0    0  501  0.00000000000E+00  0.00000000000E+00 -0.10618795725E+04  0.10618795725E+04  0.25500000920E-02 0. -1.
    10030    2    1    2    0    0  0.00000000000E+00  0.00000000000E+00  0.49607629039E+03  0.26198354354E+04  0.25724397025E+04 0.  0.
        5    1    3    3  502    0 -0.42453336196E+03 -0.48189225022E+03 -0.88689556455E+03  0.10950134925E+04  0.46999998093E+01 0. -1.
       -5    1    3    3    0  502  0.42453336196E+03  0.48189225022E+03  0.13829718549E+04  0.15248219430E+04  0.46999998093E+01 0.  1.
</event>
<event>
 5   0  0.2623368E-06  0.2597832E+04  0.7818609E-02  0.8368938E-01
       -2   -1    0    0    0  501  0.00000000000E+00  0.00000000000E+00  0.99966382300E+03  0.99966382301E+03  0.25500000920E-02 0. -1.
        2   -1    0    0  501    0  0.00000000000E+00  0.00000000000E+00 -0.16877501201E+04  0.16877501201E+04  0.25500000920E-02 0.  1.
    10030    2    1    2    0    0  0.00000000000E+00  0.00000000000E+00 -0.68808629706E+03  0.26874139431E+04  0.25978319709E+04 0.  0.
        5    1    3    3  502    0  0.26823748923E+03 -0.23240603927E+03  0.94852165294E+03  0.10127582800E+04  0.46999998093E+01 0. -1.
       -5    1    3    3    0  502 -0.26823748923E+03  0.23240603927E+03 -0.16366079500E+04  0.16746556630E+04  0.46999998093E+01 0.  1.
</event>
<event>
 5   0  0.1032076E-06  0.2593620E+04  0.7818609E-02  0.8370372E-01
        1   -1    0    0  501    0  0.00000000000E+00  0.00000000000E+00  0.13184228195E+04  0.13184228195E+04  0.50400001928E-02 0. -1.
       -1   -1    0    0    0  501  0.00000000000E+00  0.00000000000E+00 -0.12755510015E+04  0.12755510015E+04  0.50400001928E-02 0.  1.
    10030    2    1    2    0    0  0.00000000000E+00  0.00000000000E+00  0.42871817956E+02  0.25939738210E+04  0.25936195155E+04 0.  0.
        1    1    3    3  502    0  0.80701064300E+03  0.84968556339E+03  0.57692497351E+03  0.13061677379E+04  0.50400001928E-02 0. -1.
       -1    1    3    3    0  502 -0.80701064300E+03 -0.84968556339E+03 -0.53405315555E+03  0.12878060830E+04  0.50400001928E-02 0.  1.
</event>
<event>
 5   0  0.1100104E-06  0.2531045E+04  0.7818609E-02  0.8392008E-01
       -1   -1    0    0    0  501  0.00000000000E+00  0.00000000000E+00  0.19102649779E+04  0.19102649779E+04  0.50400001928E-02 0. -1.
        1   -1    0    0  501    0  0.00000000000E+00  0.00000000000E+00 -0.83838979234E+03  0.83838979236E+03  0.50400001928E-02 0.  1.
    10030    2    1    2    0    0  0.00000000000E+00  0.00000000000E+00  0.10718751856E+04  0.27486547703E+04  0.25310445734E+04 0.  0.
        4    1    3    3  502    0  0.61833799139E+03  0.85794261398E+03 -0.21890403341E+03  0.10799666612E+04  0.12699999809E+01 0.  1.
       -4    1    3    3    0  502 -0.61833799139E+03 -0.85794261398E+03  0.12907792190E+04  0.16686881091E+04  0.12699999809E+01 0. -1.
</event>
<event>
 5   0  0.2820028E-06  0.2601641E+04  0.7818609E-02  0.8367644E-01
       -2   -1    0    0    0  501  0.00000000000E+00  0.00000000000E+00  0.14143048595E+04  0.14143048596E+04  0.25500000920E-02 0. -1.
        2   -1    0    0  501    0  0.00000000000E+00  0.00000000000E+00 -0.11964419640E+04  0.11964419640E+04  0.25500000920E-02 0.  1.
    10030    2    1    2    0    0  0.00000000000E+00  0.00000000000E+00  0.21786289557E+03  0.26107468235E+04  0.26016407775E+04 0.  0.
        3    1    3    3  502    0  0.19614263622E+02  0.19846709414E+03 -0.11810092149E+04  0.11977298037E+04  0.10100000352E+00 0.  1.
       -3    1    3    3    0  502 -0.19614263622E+02 -0.19846709414E+03  0.13988721104E+04  0.14130170199E+04  0.10100000352E+00 0. -1.
</event>
<event>
 5   0  0.2586775E-06  0.2601131E+04  0.7818609E-02  0.8367817E-01
        2   -1    0    0  501    0  0.00000000000E+00  0.00000000000E+00  0.12315307677E+04  0.12315307677E+04  0.25500000920E-02 0. -1.
       -2   -1    0    0    0  501  0.00000000000E+00  0.00000000000E+00 -0.13734699910E+04  0.13734699910E+04  0.25500000920E-02 0.  1.
    10030    2    1    2    0    0  0.00000000000E+00  0.00000000000E+00 -0.14193922330E+03  0.26050007588E+04  0.26011309483E+04 0.  0.
        1    1    3    3  502    0  0.48084637668E+02  0.19712705265E+03 -0.13575205961E+04  0.13726009530E+04  0.50400001928E-02 0.  1.
       -1    1    3    3    0  502 -0.48084637668E+02 -0.19712705265E+03  0.12155813728E+04  0.12323998058E+04  0.50400001928E-02 0. -1.
</event>
<event>
 5   0  0.2623368E-06  0.2604353E+04  0.7818609E-02  0.8366724E-01
        2   -1    0    0  501    0  0.00000000000E+00  0.00000000000E+00  0.21229316422E+04  0.21229316422E+04  0.25500000920E-02 0. -1.
       -2   -1    0    0    0  501  0.00000000000E+00  0.00000000000E+00 -0.79873661769E+03  0.79873661770E+03  0.25500000920E-02 0.  1.
    10030    2    1    2    0    0  0.00000000000E+00  0.00000000000E+00  0.13241950245E+04  0.29216682599E+04  0.26043526946E+04 0.  0.
        5    1    3    3  502    0 -0.13133811232E+03 -0.12796745508E+04  0.88876618833E+03  0.15635677418E+04  0.46999998093E+01 0. -1.
       -5    1    3    3    0  502  0.13133811232E+03  0.12796745508E+04  0.43542883620E+03  0.13581005181E+04  0.46999998093E+01 0.  1.
</event>
<event>
 5   0  0.9197000E-07  0.2593661E+04  0.7818609E-02  0.8370358E-01
        4   -1    0    0  501    0  0.00000000000E+00  0.00000000000E+00  0.13025084433E+04  0.13025090625E+04  0.12699999809E+01 0. -1.
       -4   -1    0    0    0  501  0.00000000000E+00  0.00000000000E+00 -0.12911761595E+04  0.12911767841E+04  0.12699999809E+01 0.  1.
    10030    2    1    2    0    0  0.00000000000E+00  0.00000000000E+00  0.11332283779E+02  0.25936858466E+04  0.25936610901E+04 0.  0.
        4    1    3    3  502    0 -0.12775426992E+04 -0.11698157443E+03 -0.18398748737E+03  0.12960142922E+04  0.12699999809E+01 0.  1.
       -4    1    3    3    0  502  0.12775426992E+04  0.11698157443E+03  0.19531977115E+03  0.12976715544E+04  0.12699999809E+01 0. -1.
</event>
<event>
 5   0  0.2820028E-06  0.2564484E+04  0.7818609E-02  0.8380366E-01
        2   -1    0    0  501    0  0.00000000000E+00  0.00000000000E+00  0.72478782127E+03  0.72478782128E+03  0.25500000920E-02 0. -1.
       -2   -1    0    0    0  501  0.00000000000E+00  0.00000000000E+00 -0.22684493663E+04  0.22684493663E+04  0.25500000920E-02 0.  1.
    10030    2    1    2    0    0  0.00000000000E+00  0.00000000000E+00 -0.15436615450E+04  0.29932371875E+04  0.25644839433E+04 0.  0.
        3    1    3    3  502    0 -0.11611638781E+04  0.49192277958E+03 -0.10426962909E+04  0.16363083873E+04  0.10100000352E+00 0.  1.
       -3    1    3    3    0  502  0.11611638781E+04 -0.49192277958E+03 -0.50096525406E+03  0.13569288003E+04  0.10100000352E+00 0. -1.
</event>
<event>
 5   0  0.2705807E-06  0.2594834E+04  0.7818609E-02  0.8369958E-01
        2   -1    0    0  501    0  0.00000000000E+00  0.00000000000E+00  0.12924630609E+04  0.12924630609E+04  0.25500000920E-02 0. -1.
       -2   -1    0    0    0  501  0.00000000000E+00  0.00000000000E+00 -0.13023894997E+04  0.13023894997E+04  0.25500000920E-02 0.  1.
    10030    2    1    2    0    0  0.00000000000E+00  0.00000000000E+00 -0.99264387108E+01  0.25948525606E+04  0.25948335741E+04 0.  0.
        4    1    3    3  502    0  0.35075193263E+03  0.12469884431E+04  0.67712004308E+02  0.12971482660E+04  0.12699999809E+01 0.  1.
       -4    1    3    3    0  502 -0.35075193263E+03 -0.12469884431E+04 -0.77638443019E+02  0.12977042946E+04  0.12699999809E+01 0. -1.
</event>
<event>
 5   0  0.1088757E-06  0.2603126E+04  0.7818609E-02  0.8367140E-01
        1   -1    0    0  501    0  0.00000000000E+00  0.00000000000E+00  0.22620429887E+04  0.22620429887E+04  0.50400001928E-02 0.  1.
       -1   -1    0    0    0  501  0.00000000000E+00  0.00000000000E+00 -0.74891005580E+03  0.74891005582E+03  0.50400001928E-02 0. -1.
    10030    2    1    2    0    0  0.00000000000E+00  0.00000000000E+00  0.15131329329E+04  0.30109530445E+04  0.26031263826E+04 0.  0.
        5    1    3    3  502    0 -0.41554664342E+03  0.64563584224E+03  0.19721799836E+04  0.21163744071E+04  0.46999998093E+01 0.  1.
       -5    1    3    3    0  502  0.41554664342E+03 -0.64563584224E+03 -0.45904705070E+03  0.89457863735E+03  0.46999998093E+01 0. -1.
</event>
<event>
 5   0  0.2820028E-06  0.2601796E+04  0.7818609E-02  0.8367591E-01
       -2   -1    0    0    0  501  0.00000000000E+00  0.00000000000E+00  0.11093973477E+04  0.11093973477E+04  0.25500000920E-02 0. -1.
        2   -1    0    0  501    0  0.00000000000E+00  0.00000000000E+00 -0.15254545793E+04  0.15254545793E+04  0.25500000920E-02 0.  1.
    10030    2    1    2    0    0  0.00000000000E+00  0.00000000000E+00 -0.41605723159E+03  0.26348519270E+04  0.26017957371E+04 0.  0.
        3    1    3    3  502    0 -0.24864436927E+03 -0.12181277563E+04 -0.59587750018E+03  0.13786693797E+04  0.10100000352E+00 0.  1.
       -3    1    3    3    0  502  0.24864436927E+03  0.12181277563E+04  0.17982026859E+03  0.12561825474E+04  0.10100000352E+00 0. -1.
</event>
<event>
 5   0  0.2705807E-06  0.2596049E+04  0.7818609E-02  0.8369545E-01
       -2   -1    0    0    0  501  0.00000000000E+00  0.00000000000E+00  0.97576918304E+03  0.97576918304E+03  0.25500000920E-02 0.  1.
        2   -1    0    0  501    0  0.00000000000E+00  0.00000000000E+00 -0.17267069231E+04  0.17267069231E+04  0.25500000920E-02 0. -1.
    10030    2    1    2    0    0  0.00000000000E+00  0.00000000000E+00 -0.75093774003E+03  0.27024761061E+04  0.25960488468E+04 0.  0.
        4    1    3    3  502    0 -0.77926703161E+03  0.10270975436E+04 -0.21869848729E+03  0.13076762260E+04  0.12699999809E+01 0.  1.
       -4    1    3    3    0  502  0.77926703161E+03 -0.10270975436E+04 -0.53223925274E+03  0.13947998802E+04  0.12699999809E+01 0. -1.
</event>
<event>
 5   0  0.2586775E-06  0.2599954E+04  0.7818609E-02  0.8368217E-01
       -2   -1    0    0    0  501  0.00000000000E+00  0.00000000000E+00  0.20593489568E+04  0.20593489568E+04  0.25500000920E-02 0. -1.
        2   -1    0    0  501    0  0.00000000000E+00  0.00000000000E+00 -0.82061883915E+03  0.82061883915E+03  0.25500000920E-02 0.  1.
    10030    2    1    2    0    0  0.00000000000E+00  0.00000000000E+00  0.12387301176E+04  0.28799677959E+04  0.25999542691E+04 0.  0.
        1    1    3    3  502    0 -0.56346830027E+03 -0.77071136012E+03 -0.35795482041E+03  0.10196196249E+04  0.50400001928E-02 0.  1.
       -1    1    3    3    0  502  0.56346830027E+03  0.77071136012E+03  0.15966849380E+04  0.18603481710E+04  0.50400001928E-02 0. -1.
</event>
<event>
 5   0  0.1100104E-06  0.2601514E+04  0.7818609E-02  0.8367687E-01
        1   -1    0    0  501    0  0.00000000000E+00  0.00000000000E+00  0.11588597915E+04  0.11588597915E+04  0.50400001928E-02 0. -1.
       -1   -1    0    0    0  501  0.00000000000E+00  0.00000000000E+00 -0.14600291449E+04  0.14600291449E+04  0.50400001928E-02 0.  1.
    10030    2    1    2    0    0  0.00000000000E+00  0.00000000000E+00 -0.30116935341E+03  0.26188889364E+04  0.26015142286E+04 0.  0.
        4    1    3    3  502    0 -0.92846890021E+01 -0.28985443425E+03  0.11259004392E+04  0.11626500808E+04  0.12699999809E+01 0. -1.
       -4    1    3    3    0  502  0.92846890021E+01  0.28985443425E+03 -0.14270697926E+04  0.14562388556E+04  0.12699999809E+01 0.  1.
</event>
<event>
 5   0  0.2820028E-06  0.2603161E+04  0.7818609E-02  0.8367128E-01
        2   -1    0    0  501    0  0.00000000000E+00  0.00000000000E+00  0.27126686548E+04  0.27126686548E+04  0.25500000920E-02 0.  1.
       -2   -1    0    0    0  501  0.00000000000E+00  0.00000000000E+00 -0.62451874849E+03  0.62451874849E+03  0.25500000920E-02 0. -1.
    10030    2    1    2    0    0  0.00000000000E+00  0.00000000000E+00  0.20881499063E+04  0.33371874033E+04  0.26031614882E+04 0.  0.
        3    1    3    3  502    0 -0.97163635709E+03 -0.23419748543E+03  0.21129580966E+04  0.23374168650E+04  0.10100000352E+00 0.  1.
       -3    1    3    3    0  502  0.97163635709E+03  0.23419748543E+03 -0.24808190355E+02  0.99977053823E+03  0.10100000352E+00 0. -1.
</event>
<event>
 5   0  0.2623368E-06  0.2599620E+04  0.7818609E-02  0.8368330E-01
        2   -1    0    0  501    0  0.00000000000E+00  0.00000000000E+00  0.14443241129E+04  0.14443241129E+04  0.25500000920E-02 0.  1.
       -2   -1    0    0    0  501  0.00000000000E+00  0.00000000000E+00 -0.11697553390E+04  0.11697553390E+04  0.25500000920E-02 0. -1.
    10030    2    1    2    0    0  0.00000000000E+00  0.00000000000E+00  0.27456877394E+03  0.26140794520E+04  0.25996198510E+04 0.  0.
        5    1    3    3  502    0 -0.11606756967E+04  0.40369465517E+03  0.56313291966E+03  0.13517685537E+04  0.46999998093E+01 0.  1.
       -5    1    3    3    0  502  0.11606756967E+04 -0.40369465517E+03 -0.28856414572E+03  0.12623108982E+04  0.46999998093E+01 0. -1.
</event>
<event>
 5   0  0.1055179E-06  0.2595416E+04  0.7818609E-02  0.8369760E-01
        1   -1    0    0  501    0  0.00000000000E+00  0.00000000000E+00  0.88782176812E+03  0.88782176814E+03  0.50400001928E-02 0. -1.
       -1   -1    0    0    0  501  0.00000000000E+00  0.00000000000E+00 -0.18968291383E+04  0.18968291383E+04  0.50400001928E-02 0.  1.
    10030    2    1    2    0    0  0.00000000000E+00  0.00000000000E+00 -0.10090073701E+04  0.27846509064E+04  0.25954161126E+04 0.  0.
        3    1    3    3  502    0  0.70100608636E+03  0.70756678726E+02 -0.16737455816E+04  0.18159956836E+04  0.10100000352E+00 0.  1.
       -3    1    3    3    0  502 -0.70100608636E+03 -0.70756678726E+02  0.66473821146E+03  0.96865522281E+03  0.10100000352E+00 0. -1.
</event>
<event>
 5   0  0.1100104E-06  0.2654932E+04  0.7818609E-02  0.8349778E-01
       -1   -1    0    0    0  501  0.00000000000E+00  0.00000000000E+00  0.58177371430E+03  0.58177371433E+03  0.50400001928E-02 0. -1.
        1   -1    0    0  501    0  0.00000000000E+00  0.00000000000E+00 -0.30289539068E+04  0.30289539068E+04  0.50400001928E-02 0.  1.
    10030    2    1    2    0    0  0.00000000000E+00  0.00000000000E+00 -0.24471801924E+04  0.36107276211E+04  0.26549318370E+04 0.  0.
        4    1    3    3  502    0  0.12085834105E+04  0.54725935844E+03 -0.12843732571E+04  0.18465597585E+04  0.12699999809E+01 0.  1.
       -4    1    3    3    0  502 -0.12085834105E+04 -0.54725935844E+03 -0.11628069353E+04  0.17641678625E+04  0.12699999809E+01 0. -1.
</event>
<event>
 5   0  0.2705807E-06  0.2600214E+04  0.7818609E-02  0.8368129E-01
       -2   -1    0    0    0  501  0.00000000000E+00  0.00000000000E+00  0.11527466405E+04  0.11527466405E+04  0.25500000920E-02 0. -1.
        2   -1    0    0  501    0  0.00000000000E+00  0.00000000000E+00 -0.14663047647E+04  0.14663047647E+04  0.25500000920E-02 0.  1.
    10030    2    1    2    0    0  0.00000000000E+00  0.00000000000E+00 -0.31355812417E+03  0.26190514052E+04  0.26002137538E+04 0.  0.
        4    1    3    3  502    0  0.21339721698E+02  0.25109048561E+03  0.11279118281E+04  0.11557199144E+04  0.12699999809E+01 0. -1.
       -4    1    3    3    0  502 -0.21339721698E+02 -0.25109048561E+03 -0.14414699523E+04  0.14633314908E+04  0.12699999809E+01 0.  1.
</event>
<event>
 5   0  0.1055179E-06  0.2601335E+04  0.7818609E-02  0.8367748E-01
       -1   -1    0    0    0  501  0.00000000000E+00  0.00000000000E+00  0.60019271773E+03  0.60019271776E+03  0.50400001928E-02 0. -1.
        1   -1    0    0  501    0  0.00000000000E+00  0.00000000000E+00 -0.28186549035E+04  0.28186549035E+04  0.50400001928E-02 0.  1.
    10030    2    1    2    0    0  0.00000000000E+00  0.00000000000E+00 -0.22184621858E+04  0.34188476213E+04  0.26013351548E+04 0.  0.
        3    1    3    3  502    0  0.25807856732E+03 -0.10353436836E+04 -0.20867441695E+04  0.23437240301E+04  0.10100000352E+00 0.  1.
       -3    1    3    3    0  502 -0.25807856732E+03  0.10353436836E+04 -0.13171801623E+03  0.10751235911E+04  0.10100000352E+00 0. -1.
</event>
<event>
 5   0  0.2623368E-06  0.2603081E+04  0.7818609E-02  0.8367155E-01
        2   -1    0    0  501    0  0.00000000000E+00  0.00000000000E+00  0.23160978965E+04  0.23160978965E+04  0.25500000920E-02 0. -1.
       -2   -1    0    0    0  501  0.00000000000E+00  0.00000000000E+00 -0.73140580327E+03  0.73140580327E+03  0.25500000920E-02 0.  1.
    10030    2    1    2    0    0  0.00000000000E+00  0.00000000000E+00  0.15846920932E+04  0.30475036998E+04  0.26030808228E+04 0.  0.
        5    1    3    3  502    0 -0.35410684908E+03 -0.97248623239E+03 -0.13161418846E+03  0.10432955082E+04  0.46999998093E+01 0.  1.
       -5    1    3    3    0  502  0.35410684908E+03  0.97248623239E+03  0.17163062817E+04  0.20042081916E+04  0.46999998093E+01 0. -1.
</event>
<event>
 5   0  0.2746631E-06  0.2596557E+04  0.7818609E-02  0.8369372E-01
        2   -1    0    0  501    0  0.00000000000E+00  0.00000000000E+00  0.21020503092E+04  0.21020503092E+04  0.25500000920E-02 0.  1.
       -2   -1    0    0    0  501  0.00000000000E+00  0.00000000000E+00 -0.80184910200E+03  0.80184910200E+03  0.25500000920E-02 0. -1.
    10030    2    1    2    0    0  0.00000000000E+00  0.00000000000E+00  0.13002012072E+04  0.29038994112E+04  0.25965570687E+04 0.  0.
        2    1    3    3  502    0 -0.46382224184E+03  0.52304490730E+03  0.18735841539E+04  0.19997561423E+04  0.25500000920E-02 0.  1.
       -2    1    3    3    0  502  0.46382224184E+03 -0.52304490730E+03 -0.57338294669E+03  0.90414326887E+03  0.25500000920E-02 0. -1.
</event>
<event>
 5   0  0.2623368E-06  0.2602470E+04  0.7818609E-02  0.8367363E-01
       -2   -1    0    0    0  501  0.00000000000E+00  0.00000000000E+00  0.86151446933E+03  0.86151446933E+03  0.25500000920E-02 0. -1.
        2   -1    0    0  501    0  0.00000000000E+00  0.00000000000E+00 -0.19653899913E+04  0.19653899913E+04  0.25500000920E-02 0.  1.
    10030    2    1    2    0    0  0.00000000000E+00  0.00000000000E+00 -0.11038755220E+04  0.28269044606E+04  0.26024695313E+04 0.  0.
        5    1    3    3  502    0 -0.58085628711E+03  0.28940479184E+03 -0.17770502725E+04  0.18918453745E+04  0.46999998093E+01 0.  1.
       -5    1    3    3    0  502  0.58085628711E+03 -0.28940479184E+03  0.67317475056E+03  0.93505908616E+03  0.46999998093E+01 0. -1.
</event>
<event>
 5   0  0.1088757E-06  0.2602695E+04  0.7818609E-02  0.8367286E-01
        1   -1    0    0  501    0  0.00000000000E+00  0.00000000000E+00  0.13841644864E+04  0.13841644864E+04  0.50400001928E-02 0. -1.
       -1   -1    0    0    0  501  0.00000000000E+00  0.00000000000E+00 -0.12234852156E+04  0.12234852156E+04  0.50400001928E-02 0.  1.
    10030    2    1    2    0    0  0.00000000000E+00  0.00000000000E+00  0.16067927081E+03  0.26076497020E+04  0.26026945922E+04 0.  0.
        5    1    3    3  502    0 -0.39817642206E+03  0.72792297645E+03 -0.92409900540E+03  0.12419329227E+04  0.46999998093E+01 0.  1.
       -5    1    3    3    0  502  0.39817642206E+03 -0.72792297645E+03  0.10847782762E+04  0.13657167793E+04  0.46999998093E+01 0. -1.
</event>
<event>
 5   0  0.1100104E-06  0.2601504E+04  0.7818609E-02  0.8367690E-01
        1   -1    0    0  501    0  0.00000000000E+00  0.00000000000E+00  0.21127510304E+04  0.21127510304E+04  0.50400001928E-02 0.  1.
       -1   -1    0    0    0  501  0.00000000000E+00  0.00000000000E+00 -0.80083083037E+03  0.80083083039E+03  0.50400001928E-02 0. -1.
    10030    2    1    2    0    0  0.00000000000E+00  0.00000000000E+00  0.13119202000E+04  0.29135818608E+04  0.26015043049E+04 0.  0.
        4    1    3    3  502    0  0.31685027540E+03  0.11211160564E+04  0.80659088325E+01  0.11650587885E+04  0.12699999809E+01 0. -1.
       -4    1    3    3    0  502 -0.31685027540E+03 -0.11211160564E+04  0.13038542912E+04  0.17485230723E+04  0.12699999809E+01 0.  1.
</event>
<event>
 5   0  0.2820028E-06  0.2616007E+04  0.7818609E-02  0.8362784E-01
       -2   -1    0    0    0  501  0.00000000000E+00  0.00000000000E+00  0.67515213498E+03  0.67515213498E+03  0.25500000920E-02 0.  1.
        2   -1    0    0  501    0  0.00000000000E+00  0.00000000000E+00 -0.25340554621E+04  0.25340554621E+04  0.25500000920E-02 0. -1.
    10030    2    1    2    0    0  0.00000000000E+00  0.00000000000E+00 -0.18589033271E+04  0.32092075971E+04  0.26160068466E+04 0.  0.
        3    1    3    3  502    0 -0.74932969824E+01  0.31872280657E+03  0.62675883929E+03  0.70318349651E+03  0.10100000352E+00 0.  1.
       -3    1    3    3    0  502  0.74932969824E+01 -0.31872280657E+03 -0.24856621664E+04  0.25060241006E+04  0.10100000352E+00 0. -1.
</event>
<event>
 5   0  0.1122628E-06  0.2603105E+04  0.7818609E-02  0.8367147E-01
       -1   -1    0    0    0  501  0.00000000000E+00  0.00000000000E+00  0.16227568977E+04  0.16227568977E+04  0.50400001928E-02 0.  1.
        1   -1    0    0  501    0  0.00000000000E+00  0.00000000000E+00 -0.10439261829E+04  0.10439261829E+04  0.50400001928E-02 0. -1.
    10030    2    1    2    0    0  0.00000000000E+00  0.00000000000E+00  0.57883071476E+03  0.26666830806E+04  0.26031046188E+04 0.  0.
        2    1    3    3  502    0  0.34005273398E+03  0.10139382135E+04 -0.47054704549E+03  0.11683839629E+04  0.25500000920E-02 0. -1.
       -2    1    3    3    0  502 -0.34005273398E+03 -0.10139382135E+04  0.10493777603E+04  0.14982991178E+04  0.25500000920E-02 0.  1.
</event>
<event>
 5   0  0.2705807E-06  0.2605025E+04  0.7818609E-02  0.8366496E-01
       -2   -1    0    0    0  501  0.00000000000E+00  0.00000000000E+00  0.13719635936E+04  0.13719635936E+04  0.25500000920E-02 0. -1.
        2   -1    0    0  501    0  0.00000000000E+00  0.00000000000E+00 -0.12365774365E+04  0.12365774365E+04  0.25500000920E-02 0.  1.
    10030    2    1    2    0    0  0.00000000000E+00  0.00000000000E+00  0.13538615712E+03  0.26085410301E+04  0.26050253154E+04 0.  0.
        4    1    3    3  502    0 -0.11201530492E+04 -0.52575296820E+03 -0.33952340062E+03  0.12831355305E+04  0.12699999809E+01 0. -1.
       -4    1    3    3    0  502  0.11201530492E+04  0.52575296820E+03  0.47490955773E+03  0.13254054995E+04  0.12699999809E+01 0.  1.
</event>
<event>
 5   0  0.1100104E-06  0.2601121E+04  0.7818609E-02  0.8367821E-01
        1   -1    0    0  501    0  0.00000000000E+00  0.00000000000E+00  0.14826381819E+04  0.14826381819E+04  0.50400001928E-02 0. -1.
       -1   -1    0    0    0  501  0.00000000000E+00  0.00000000000E+00 -0.11408430879E+04  0.11408430879E+04  0.50400001928E-02 0.  1.
    10030    2    1    2    0    0  0.00000000000E+00  0.00000000000E+00  0.34179509400E+03  0.26234812698E+04  0.26011209289E+04 0.  0.
        4    1    3    3  502    0 -0.11912072664E+04  0.48732635469E+03 -0.17777881141E+02  0.12871594281E+04  0.12699999809E+01 0.  1.
       -4    1    3    3    0  502  0.11912072664E+04 -0.48732635469E+03  0.35957297514E+03  0.13363218417E+04  0.12699999809E+01 0. -1.
</event>
<event>
 5   0  0.1032076E-06  0.2599478E+04  0.7818609E-02  0.8368378E-01
       -1   -1    0    0    0  501  0.00000000000E+00  0.00000000000E+00  0.11991525297E+04  0.11991525297E+04  0.50400001928E-02 0. -1.
        1   -1    0    0  501    0  0.00000000000E+00  0.00000000000E+00 -0.14087630701E+04  0.14087630702E+04  0.50400001928E-02 0.  1.
    10030    2    1    2    0    0  0.00000000000E+00  0.00000000000E+00 -0.20961054049E+03  0.26079155998E+04  0.25994782548E+04 0.  0.
        1    1    3    3  502    0  0.80459437350E+03 -0.10075516022E+04 -0.26901139109E+03  0.13171558243E+04  0.50400001928E-02 0.  1.
       -1    1    3    3    0  502 -0.80459437350E+03  0.10075516022E+04  0.59400850603E+02  0.12907597755E+04  0.50400001928E-02 0. -1.
</event>
<event>
 5   0  0.1088757E-06  0.2602045E+04  0.7818609E-02  0.8367507E-01
       -1   -1    0    0    0  501  0.00000000000E+00  0.00000000000E+00  0.21093586902E+04  0.21093586902E+04  0.50400001928E-02 0.  1.
        1   -1    0    0  501    0  0.00000000000E+00  0.00000000000E+00 -0.80245236432E+03  0.80245236434E+03  0.50400001928E-02 0. -1.
    10030    2    1    2    0    0  0.00000000000E+00  0.00000000000E+00  0.13069063258E+04  0.29118110545E+04  0.26020452480E+04 0.  0.
        5    1    3    3  502    0  0.31240645276E+03 -0.10000048102E+04  0.15166660409E+04  0.18433408208E+04  0.46999998093E+01 0.  1.
       -5    1    3    3    0  502 -0.31240645276E+03  0.10000048102E+04 -0.20975971508E+03  0.10684702337E+04  0.46999998093E+01 0. -1.
</event>
<event>
 5   0  0.1055179E-06  0.2598027E+04  0.7818609E-02  0.8368872E-01
       -1   -1    0    0    0  501  0.00000000000E+00  0.00000000000E+00  0.12799176434E+04  0.12799176435E+04  0.50400001928E-02 0.  1.
        1   -1    0    0  501    0  0.00000000000E+00  0.00000000000E+00 -0.13183937701E+04  0.13183937701E+04  0.50400001928E-02 0. -1.
    10030    2    1    2    0    0  0.00000000000E+00  0.00000000000E+00 -0.38476126638E+02  0.25983114136E+04  0.25980265182E+04 0.  0.
        3    1    3    3  502    0 -0.19239263856E+03  0.12749081620E+04 -0.17746315021E+03  0.13014987240E+04  0.10100000352E+00 0. -1.
       -3    1    3    3    0  502  0.19239263856E+03 -0.12749081620E+04  0.13898702357E+03  0.12968126895E+04  0.10100000352E+00 0.  1.
</event>
<event>
 5   0  0.2746631E-06  0.2598084E+04  0.7818609E-02  0.8368852E-01
       -2   -1    0    0    0  501  0.00000000000E+00  0.00000000000E+00  0.58823705779E+03  0.58823705780E+03  0.25500000920E-02 0. -1.
        2   -1    0    0  501    0  0.00000000000E+00  0.00000000000E+00 -0.28687586517E+04  0.28687586517E+04  0.25500000920E-02 0.  1.
    10030    2    1    2    0    0  0.00000000000E+00  0.00000000000E+00 -0.22805215939E+04  0.34569957095E+04  0.25980840239E+04 0.  0.
        2    1    3    3  502    0  0.11967258602E+04  0.50090563974E+03 -0.12290315250E+04  0.17870584024E+04  0.25500000920E-02 0.  1.
       -2    1    3    3    0  502 -0.11967258602E+04 -0.50090563974E+03 -0.10514900689E+04  0.16699373070E+04  0.25500000920E-02 0. -1.
</event>
<event>
 5   0  0.1100104E-06  0.2574749E+04  0.7818609E-02  0.8376829E-01
       -1   -1    0    0    0  501  0.00000000000E+00  0.00000000000E+00  0.74545327695E+03  0.74545327697E+03  0.50400001928E-02 0.  1.
        1   -1    0    0  501    0  0.00000000000E+00  0.00000000000E+00 -0.22232553532E+04  0.22232553532E+04  0.50400001928E-02 0. -1.
    10030    2    1    2    0    0  0.00000000000E+00  0.00000000000E+00 -0.14778020762E+04  0.29687086302E+04  0.25747489109E+04 0.  0.
        4    1    3    3  502    0 -0.29415609349E+03 -0.40168101405E+03  0.62995710120E+03  0.80294645316E+03  0.12699999809E+01 0.  1.
       -4    1    3    3    0  502  0.29415609349E+03  0.40168101405E+03 -0.21077591774E+04  0.21657621770E+04  0.12699999809E+01 0. -1.
</event>
<event>
 5   0  0.2820028E-06  0.2598982E+04  0.7818609E-02  0.8368547E-01
        2   -1    0    0  501    0  0.00000000000E+00  0.00000000000E+00  0.96204582760E+03  0.96204582761E+03  0.25500000920E-02 0.  1.
       -2   -1    0    0    0  501  0.00000000000E+00  0.00000000000E+00 -0.17552971648E+04  0.17552971648E+04  0.25500000920E-02 0. -1.
    10030    2    1    2    0    0  0.00000000000E+00  0.00000000000E+00 -0.79325133715E+03  0.27173429924E+04  0.25989815802E+04 0.  0.
        3    1    3    3  502    0 -0.25486082810E+03 -0.11143601842E+04  0.24951864973E+03  0.11700479599E+04  0.10100000352E+00 0. -1.
       -3    1    3    3    0  502  0.25486082810E+03  0.11143601842E+04 -0.10427699869E+04  0.15472950325E+04  0.10100000352E+00 0.  1.
</event>
<event>
 5   0  0.2705807E-06  0.2600222E+04  0.7818609E-02  0.8368126E-01
       -2   -1    0    0    0  501  0.00000000000E+00  0.00000000000E+00  0.10158753690E+04  0.10158753690E+04  0.25500000920E-02 0.  1.
        2   -1    0    0  501    0  0.00000000000E+00  0.00000000000E+00 -0.16638738570E+04  0.16638738570E+04  0.25500000920E-02 0. -1.
    10030    2    1    2    0    0  0.00000000000E+00  0.00000000000E+00 -0.64799848797E+03  0.26797492260E+04  0.26002218894E+04 0.  0.
        4    1    3    3  502    0 -0.10656290955E+04  0.12726648024E+03  0.43228764193E+03  0.11569945309E+04  0.12699999809E+01 0.  1.
       -4    1    3    3    0  502  0.10656290955E+04 -0.12726648024E+03 -0.10802861299E+04  0.15227546951E+04  0.12699999809E+01 0. -1.
</event>
<event>
 5   0  0.1032076E-06  0.2600745E+04  0.7818609E-02  0.8367948E-01
        1   -1    0    0  501    0  0.00000000000E+00  0.00000000000E+00  0.18994330205E+04  0.18994330205E+04  0.50400001928E-02 0.  1.
       -1   -1    0    0    0  501  0.00000000000E+00  0.00000000000E+00 -0.89024887006E+03  0.89024887008E+03  0.50400001928E-02 0. -1.
    10030    2    1    2    0    0  0.00000000000E+00  0.00000000000E+00  0.10091841505E+04  0.27896818906E+04  0.26007445859E+04 0.  0.
        1    1    3    3  502    0  0.13106579546E+02  0.12682059293E+04  0.19659087284E+03  0.12834196636E+04  0.50400001928E-02 0. -1.
       -1    1    3    3    0  502 -0.13106579546E+02 -0.12682059293E+04  0.81259327762E+03  0.15062622270E+04  0.50400001928E-02 0.  1.
</event>
<event>
 5   0  0.2623368E-06  0.2597155E+04  0.7818609E-02  0.8369168E-01
       -2   -1    0    0    0  501  0.00000000000E+00  0.00000000000E+00  0.75183176065E+03  0.75183176065E+03  0.25500000920E-02 0.  1.
        2   -1    0    0  501    0  0.00000000000E+00  0.00000000000E+00 -0.22429274307E+04  0.22429274307E+04  0.25500000920E-02 0. -1.
    10030    2    1    2    0    0  0.00000000000E+00  0.00000000000E+00 -0.14910956701E+04  0.29947591914E+04  0.25971554280E+04 0.  0.
        5    1    3    3  502    0 -0.72727257926E+03 -0.40115897948E+03  0.40548295088E+03  0.92427941923E+03  0.46999998093E+01 0.  1.
       -5    1    3    3    0  502  0.72727257926E+03  0.40115897948E+03 -0.18965786210E+04  0.20704797722E+04  0.46999998093E+01 0. -1.
</event>
<event>
 5   0  0.9197000E-07  0.2604203E+04  0.7818609E-02  0.8366775E-01
       -3   -1    0    0    0  501  0.00000000000E+00  0.00000000000E+00  0.18154346363E+04  0.18154346391E+04  0.10100000352E+00 0.  1.
        3   -1    0    0  501    0  0.00000000000E+00  0.00000000000E+00 -0.93391878989E+03  0.93391879535E+03  0.10100000352E+00 0. -1.
    10030    2    1    2    0    0  0.00000000000E+00  0.00000000000E+00  0.88151584645E+03  0.27493534345E+04  0.26042031642E+04 0.  0.
        5    1    3    3  502    0 -0.21603767729E+03 -0.94802177548E+01 -0.91481991477E+03  0.94004240276E+03  0.46999998093E+01 0. -1.
       -5    1    3    3    0  502  0.21603767729E+03  0.94802177548E+01  0.17963357612E+04  0.18093110317E+04  0.46999998093E+01 0.  1.
</event>
<event>
 5   0  0.2586775E-06  0.2592446E+04  0.7818609E-02  0.8370771E-01
       -2   -1    0    0    0  501  0.00000000000E+00  0.00000000000E+00  0.10286835279E+04  0.10286835279E+04  0.25500000920E-02 0.  1.
        2   -1    0    0  501    0  0.00000000000E+00  0.00000000000E+00 -0.16333445835E+04  0.16333445835E+04  0.25500000920E-02 0. -1.
    10030    2    1    2    0    0  0.00000000000E+00  0.00000000000E+00 -0.60466105561E+03  0.26620281113E+04  0.25924464649E+04 0.  0.
        1    1    3    3  502    0  0.11324144198E+04  0.57232617562E+03 -0.57454001939E+03  0.13928445367E+04  0.50400001928E-02 0. -1.
       -1    1    3    3    0  502 -0.11324144198E+04 -0.57232617562E+03 -0.30121036225E+02  0.12691835747E+04  0.50400001928E-02 0.  1.
</event>
<event>
 5   0  0.2820028E-06  0.2601339E+04  0.7818609E-02  0.8367746E-01
       -2   -1    0    0    0  501  0.00000000000E+00  0.00000000000E+00  0.14396579940E+04  0.14396579940E+04  0.25500000920E-02 0.  1.
        2   -1    0    0  501    0  0.00000000000E+00  0.00000000000E+00 -0.11750996624E+04  0.11750996624E+04  0.25500000920E-02 0. -1.
    10030    2    1    2    0    0  0.00000000000E+00  0.00000000000E+00  0.26455833162E+03  0.26147576564E+04  0.26013393648E+04 0.  0.
        3    1    3    3  502    0 -0.11328181090E+04  0.61310933067E+03  0.31365854876E+03  0.13257305966E+04  0.10100000352E+00 0.  1.
       -3    1    3    3    0  502  0.11328181090E+04 -0.61310933067E+03 -0.49100217146E+02  0.12890270598E+04  0.10100000352E+00 0. -1.
</event>
<event>
 5   0  0.1032076E-06  0.2605440E+04  0.7818609E-02  0.8366356E-01
        1   -1    0    0  501    0  0.00000000000E+00  0.00000000000E+00  0.14429147778E+04  0.14429147779E+04  0.50400001928E-02 0.  1.
       -1   -1    0    0    0  501  0.00000000000E+00  0.00000000000E+00 -0.11761466297E+04  0.11761466297E+04  0.50400001928E-02 0. -1.
    10030    2    1    2    0    0  0.00000000000E+00  0.00000000000E+00  0.26676814816E+03  0.26190614076E+04  0.26054399651E+04 0.  0.
        1    1    3    3  502    0 -0.12329797935E+04 -0.37724928986E+03 -0.53391401103E+02  0.12905064276E+04  0.50400001928E-02 0.  1.
       -1    1    3    3    0  502  0.12329797935E+04  0.37724928986E+03  0.32015954926E+03  0.13285549800E+04  0.50400001928E-02 0. -1.
</event>
<event>
 5   0  0.1122628E-06  0.2598653E+04  0.7818609E-02  0.8368659E-01
        1   -1    0    0  501    0  0.00000000000E+00  0.00000000000E+00  0.17435873325E+04  0.17435873325E+04  0.50400001928E-02 0.  1.
       -1   -1    0    0    0  501  0.00000000000E+00  0.00000000000E+00 -0.96826164269E+03  0.96826164271E+03  0.50400001928E-02 0. -1.
    10030    2    1    2    0    0  0.00000000000E+00  0.00000000000E+00  0.77532568981E+03  0.27118489752E+04  0.25986525237E+04 0.  0.
        2    1    3    3  502    0 -0.84619060111E+03 -0.41117940920E+03  0.13228819580E+04  0.16233064143E+04  0.25500000920E-02 0.  1.
       -2    1    3    3    0  502  0.84619060111E+03  0.41117940920E+03 -0.54755626823E+03  0.10885425609E+04  0.25500000920E-02 0. -1.
</event>
<event>
 5   0  0.2586775E-06  0.2601410E+04  0.7818609E-02  0.8367722E-01
       -2   -1    0    0    0  501  0.00000000000E+00  0.00000000000E+00  0.20366977895E+04  0.20366977895E+04  0.25500000920E-02 0. -1.
        2   -1    0    0  501    0  0.00000000000E+00  0.00000000000E+00 -0.83067489951E+03  0.83067489951E+03  0.25500000920E-02 0.  1.
    10030    2    1    2    0    0  0.00000000000E+00  0.00000000000E+00  0.12060228900E+04  0.28673726890E+04  0.26014101804E+04 0.  0.
        1    1    3    3  502    0  0.87327783781E+03 -0.92599642333E+03  0.89825932441E+03  0.15578682139E+04  0.50400001928E-02 0. -1.
       -1    1    3    3    0  502 -0.87327783781E+03  0.92599642333E+03  0.30776356562E+03  0.13095044751E+04  0.50400001928E-02 0.  1.
</event>
<event>
 5   0  0.2820028E-06  0.2598751E+04  0.7818609E-02  0.8368625E-01
       -2   -1    0    0    0  501  0.00000000000E+00  0.00000000000E+00  0.17667930119E+04  0.17667930119E+04  0.25500000920E-02 0.  1.
        2   -1    0    0  501    0  0.00000000000E+00  0.00000000000E+00 -0.95561677493E+03  0.95561677493E+03  0.25500000920E-02 0. -1.
    10030    2    1    2    0    0  0.00000000000E+00  0.00000000000E+00  0.81117623693E+03  0.27224097868E+04  0.25987512693E+04 0.  0.
        3    1    3    3  502    0  0.24406604125E+03  0.72309171070E+03  0.15072694107E+04  0.16894646908E+04  0.10100000352E+00 0.  1.
       -3    1    3    3    0  502 -0.24406604125E+03 -0.72309171070E+03 -0.69609317381E+03  0.10329450960E+04  0.10100000352E+00 0. -1.
</event>
<event>
 5   0  0.1088757E-06  0.2600929E+04  0.7818609E-02  0.8367886E-01
       -1   -1    0    0    0  501  0.00000000000E+00  0.00000000000E+00  0.13061152450E+04  0.13061152450E+04  0.50400001928E-02 0. -1.
        1   -1    0    0  501    0  0.00000000000E+00  0.00000000000E+00 -0.12948377911E+04  0.12948377911E+04  0.50400001928E-02 0.  1.
    10030    2    1    2    0    0  0.00000000000E+00  0.00000000000E+00  0.11277453899E+02  0.26009530362E+04  0.26009285871E+04 0.  0.
        5    1    3    3  502    0 -0.11939327983E+03 -0.46802532573E+03 -0.12018008105E+04  0.12952411895E+04  0.46999998093E+01 0.  1.
       -5    1    3    3    0  502  0.11939327983E+03  0.46802532573E+03  0.12130782644E+04  0.13057118466E+04  0.46999998093E+01 0. -1.
</event>
<event>
 5   0  0.2820028E-06  0.2600681E+04  0.7818609E-02  0.8367970E-01
       -2   -1    0    0    0  501  0.00000000000E+00  0.00000000000E+00  0.78931595347E+03  0.78931595347E+03  0.25500000920E-02 0.  1.
        2   -1    0    0  501    0  0.00000000000E+00  0.00000000000E+00 -0.21422158885E+04  0.21422158885E+04  0.25500000920E-02 0. -1.
    10030    2    1    2    0    0  0.00000000000E+00  0.00000000000E+00 -0.13528999350E+04  0.29315318420E+04  0.26006808159E+04 0.  0.
        3    1    3    3  502    0  0.22099613395E+03  0.10934630170E+03  0.76272386830E+03  0.80158818254E+03  0.10100000352E+00 0.  1.
       -3    1    3    3    0  502 -0.22099613395E+03 -0.10934630170E+03 -0.21156238033E+04  0.21299436594E+04  0.10100000352E+00 0. -1.
</event>
<event>
 5   0  0.1100104E-06  0.2596110E+04  0.7818609E-02  0.8369524E-01
        1   -1    0    0  501    0  0.00000000000E+00  0.00000000000E+00  0.93032752997E+03  0.93032752998E+03  0.50400001928E-02 0.  1.
       -1   -1    0    0    0  501  0.00000000000E+00  0.00000000000E+00 -0.18111334306E+04  0.18111334306E+04  0.50400001928E-02 0. -1.
    10030    2    1    2    0    0  0.00000000000E+00  0.00000000000E+00 -0.88080590067E+03  0.27414609606E+04  0.25961103913E+04 0.  0.
        4    1    3    3  502    0 -0.12872110676E+03  0.12702748728E+04 -0.19325148245E+03  0.12913230131E+04  0.12699999809E+01 0. -1.
       -4    1    3    3    0  502  0.12872110676E+03 -0.12702748728E+04 -0.68755441822E+03  0.14501379475E+04  0.12699999809E+01 0.  1.
</event>
<event>
 5   0  0.1100104E-06  0.2603871E+04  0.7818609E-02  0.8366887E-01
       -1   -1    0    0    0  501  0.00000000000E+00  0.00000000000E+00  0.10141136438E+04  0.10141136439E+04  0.50400001928E-02 0. -1.
        1   -1    0    0  501    0  0.00000000000E+00  0.00000000000E+00 -0.16714462697E+04  0.16714462697E+04  0.50400001928E-02 0.  1.
    10030    2    1    2    0    0  0.00000000000E+00  0.00000000000E+00 -0.65733262588E+03  0.26855599136E+04  0.26038713233E+04 0.  0.
        4    1    3    3  502    0 -0.79168917750E+03 -0.23871270147E+03 -0.13658385805E+04  0.15966440269E+04  0.12699999809E+01 0.  1.
       -4    1    3    3    0  502  0.79168917750E+03  0.23871270147E+03  0.70850595466E+03  0.10889158867E+04  0.12699999809E+01 0. -1.
</event>
<event>
 5   0  0.2820028E-06  0.2601152E+04  0.7818609E-02  0.8367810E-01
       -2   -1    0    0    0  501  0.00000000000E+00  0.00000000000E+00  0.10030616886E+04  0.10030616886E+04  0.25500000920E-02 0.  1.
        2   -1    0    0  501    0  0.00000000000E+00  0.00000000000E+00 -0.16863346610E+04  0.16863346610E+04  0.25500000920E-02 0. -1.
    10030    2    1    2    0    0  0.00000000000E+00  0.00000000000E+00 -0.68327297244E+03  0.26893963496E+04  0.26011518161E+04 0.  0.
        3    1    3    3  502    0  0.87593230601E+03 -0.93828128278E+03 -0.55819016350E+03  0.13997161995E+04  0.10100000352E+00 0.  1.
       -3    1    3    3    0  502 -0.87593230601E+03  0.93828128278E+03 -0.12508280894E+03  0.12896801501E+04  0.10100000352E+00 0. -1.
</event>
<event>
 5   0  0.1055179E-06  0.2600055E+04  0.7818609E-02  0.8368183E-01
        1   -1    0    0  501    0  0.00000000000E+00  0.00000000000E+00  0.12819422678E+04  0.12819422678E+04  0.50400001928E-02 0. -1.
       -1   -1    0    0    0  501  0.00000000000E+00  0.00000000000E+00 -0.13183678767E+04  0.13183678767E+04  0.50400001928E-02 0.  1.
    10030    2    1    2    0    0  0.00000000000E+00  0.00000000000E+00 -0.36425608907E+02  0.26003101445E+04  0.26000550037E+04 0.  0.
        3    1    3    3  502    0 -0.10302070382E+04 -0.35016314075E+03  0.69328566064E+03  0.12901882747E+04  0.10100000352E+00 0. -1.
       -3    1    3    3    0  502  0.10302070382E+04  0.35016314075E+03 -0.72971126954E+03  0.13101218698E+04  0.10100000352E+00 0.  1.
</event>
<event>
 5   0  0.1032076E-06  0.2596027E+04  0.7818609E-02  0.8369552E-01
        1   -1    0    0  501    0  0.00000000000E+00  0.00000000000E+00  0.12845132727E+04  0.12845132727E+04  0.50400001928E-02 0. -1.
       -1   -1    0    0    0  501  0.00000000000E+00  0.00000000000E+00 -0.13116560624E+04  0.13116560624E+04  0.50400001928E-02 0.  1.
    10030    2    1    2    0    0  0.00000000000E+00  0.00000000000E+00 -0.27142789676E+02  0.25961693351E+04  0.25960274431E+04 0.  0.
        1    1    3    3  502    0 -0.39160585254E+03  0.20064663956E+03  0.12076527537E+04  0.12853168447E+04  0.50400001928E-02 0. -1.
       -1    1    3    3    0  502  0.39160585254E+03 -0.20064663956E+03 -0.12347955434E+04  0.13108524904E+04  0.50400001928E-02 0.  1.
</event>
<event>
 5   0  0.1100104E-06  0.2608394E+04  0.7818609E-02  0.8365355E-01
       -1   -1    0    0    0  501  0.00000000000E+00  0.00000000000E+00  0.12244020859E+04  0.12244020859E+04  0.50400001928E-02 0. -1.
        1   -1    0    0  501    0  0.00000000000E+00  0.00000000000E+00 -0.13891924801E+04  0.13891924801E+04  0.50400001928E-02 0.  1.
    10030    2    1    2    0    0  0.00000000000E+00  0.00000000000E+00 -0.16479039414E+03  0.26135945660E+04  0.26083942727E+04 0.  0.
        4    1    3    3  502    0 -0.91904726639E+03 -0.64537137399E+03  0.58208336614E+03  0.12649010816E+04  0.12699999809E+01 0. -1.
       -4    1    3    3    0  502  0.91904726639E+03  0.64537137399E+03 -0.74687376029E+03  0.13486934844E+04  0.12699999809E+01 0.  1.
</event>
<event>
 5   0  0.2746631E-06  0.2595559E+04  0.7818609E-02  0.8369711E-01
        2   -1    0    0  501    0  0.00000000000E+00  0.00000000000E+00  0.14297215332E+04  0.14297215332E+04  0.25500000920E-02 0.  1.
       -2   -1    0    0    0  501  0.00000000000E+00  0.00000000000E+00 -0.11780136676E+04  0.11780136676E+04  0.25500000920E-02 0. -1.
    10030    2    1    2    0    0  0.00000000000E+00  0.00000000000E+00  0.25170786561E+03  0.26077352009E+04  0.25955589048E+04 0.  0.
        2    1    3    3  502    0  0.31758247322E+03  0.11048924269E+04 -0.47912169515E+03  0.12454732036E+04  0.25500000920E-02 0. -1.
       -2    1    3    3    0  502 -0.31758247322E+03 -0.11048924269E+04  0.73082956076E+03  0.13622619972E+04  0.25500000920E-02 0.  1.
</event>
<event>
 5   0  0.2746631E-06  0.2597922E+04  0.7818609E-02  0.8368908E-01
        2   -1    0    0  501    0  0.00000000000E+00  0.00000000000E+00  0.11047719814E+04  0.11047719814E+04  0.25500000920E-02 0.  1.
       -2   -1    0    0    0  501  0.00000000000E+00  0.00000000000E+00 -0.15272826121E+04  0.15272826121E+04  0.25500000920E-02 0. -1.
    10030    2    1    2    0    0  0.00000000000E+00  0.00000000000E+00 -0.42251063072E+03  0.26320545935E+04  0.25979215058E+04 0.  0.
        2    1    3    3  502    0  0.84426234056E+03  0.90654872698E+03  0.18463375892E+03  0.12524771930E+04  0.25500000920E-02 0.  1.
       -2    1    3    3    0  502 -0.84426234056E+03 -0.90654872698E+03 -0.60714438965E+03  0.13795774005E+04  0.25500000920E-02 0. -1.
</event>
<event>
 5   0  0.2746631E-06  0.2602883E+04  0.7818609E-02  0.8367222E-01
       -2   -1    0    0    0  501  0.00000000000E+00  0.00000000000E+00  0.12511279302E+04  0.12511279302E+04  0.25500000920E-02 0.  1.
        2   -1    0    0  501    0  0.00000000000E+00  0.00000000000E+00 -0.13537787868E+04  0.13537787868E+04  0.25500000920E-02 0. -1.
    10030    2    1    2    0    0  0.00000000000E+00  0.00000000000E+00 -0.10265085665E+03  0.26049067170E+04  0.26028833639E+04 0.  0.
        2    1    3    3  502    0 -0.12168681797E+04  0.34566388091E+03  0.25468794615E+03  0.12903943720E+04  0.25500000920E-02 0.  1.
       -2    1    3    3    0  502  0.12168681797E+04 -0.34566388091E+03 -0.35733880280E+03  0.13145123450E+04  0.25500000920E-02 0. -1.
</event>
<event>
 5   0  0.1122628E-06  0.2640426E+04  0.7818609E-02  0.8354598E-01
       -1   -1    0    0    0  501  0.00000000000E+00  0.00000000000E+00  0.11297861319E+04  0.11297861319E+04  0.50400001928E-02 0. -1.
        1   -1    0    0  501    0  0.00000000000E+00  0.00000000000E+00 -0.15427360564E+04  0.15427360564E+04  0.50400001928E-02 0.  1.
    10030    2    1    2    0    0  0.00000000000E+00  0.00000000000E+00 -0.41294992454E+03  0.26725221883E+04  0.26404255730E+04 0.  0.
        2    1    3    3  502    0 -0.45699798407E+03  0.10937709344E+04 -0.79472805368E+03  0.14271561560E+04  0.25500000920E-02 0.  1.
       -2    1    3    3    0  502  0.45699798407E+03 -0.10937709344E+04  0.38177812914E+03  0.12453660323E+04  0.25500000920E-02 0. -1.
</event>
<event>
 5   0  0.1100104E-06  0.2605544E+04  0.7818609E-02  0.8366321E-01
        1   -1    0    0  501    0  0.00000000000E+00  0.00000000000E+00  0.13039825291E+04  0.13039825291E+04  0.50400001928E-02 0.  1.
       -1   -1    0    0    0  501  0.00000000000E+00  0.00000000000E+00 -0.13015622710E+04  0.13015622710E+04  0.50400001928E-02 0. -1.
    10030    2    1    2    0    0  0.00000000000E+00  0.00000000000E+00  0.24202581605E+01  0.26055448001E+04  0.26055436760E+04 0.  0.
        4    1    3    3  502    0 -0.37682590115E+03 -0.73138906137E+03 -0.10088819511E+04  0.13018341381E+04  0.12699999809E+01 0. -1.
       -4    1    3    3    0  502  0.37682590115E+03  0.73138906137E+03  0.10113022093E+04  0.13037106620E+04  0.12699999809E+01 0.  1.
</event>
<event>
 5   0  0.1055179E-06  0.2604200E+04  0.7818609E-02  0.8366776E-01
       -1   -1    0    0    0  501  0.00000000000E+00  0.00000000000E+00  0.93056204209E+03  0.93056204210E+03  0.50400001928E-02 0.  1.
        1   -1    0    0  501    0  0.00000000000E+00  0.00000000000E+00 -0.18219792726E+04  0.18219792726E+04  0.50400001928E-02 0. -1.
    10030    2    1    2    0    0  0.00000000000E+00  0.00000000000E+00 -0.89141723050E+03  0.27525413147E+04  0.26042002631E+04 0.  0.
        3    1    3    3  502    0 -0.81542908077E+02  0.11790192196E+04 -0.10234031895E+04  0.15633584568E+04  0.10100000352E+00 0. -1.
       -3    1    3    3    0  502  0.81542908077E+02 -0.11790192196E+04  0.13198595896E+03  0.11891828579E+04  0.10100000352E+00 0.  1.
</event>
<event>
 5   0  0.2623368E-06  0.2603642E+04  0.7818609E-02  0.8366965E-01
       -2   -1    0    0    0  501  0.00000000000E+00  0.00000000000E+00  0.13093392699E+04  0.13093392699E+04  0.25500000920E-02 0. -1.
        2   -1    0    0  501    0  0.00000000000E+00  0.00000000000E+00 -0.12943459761E+04  0.12943459761E+04  0.25500000920E-02 0.  1.
    10030    2    1    2    0    0  0.00000000000E+00  0.00000000000E+00  0.14993293773E+02  0.26036852460E+04  0.26036420763E+04 0.  0.
        5    1    3    3  502    0  0.92434416419E+03  0.13431719212E+03 -0.89930539917E+03  0.12966208131E+04  0.46999998093E+01 0.  1.
       -5    1    3    3    0  502 -0.92434416419E+03 -0.13431719212E+03  0.91429869294E+03  0.13070644329E+04  0.46999998093E+01 0. -1.
</event>
<event>
 5   0  0.1100104E-06  0.2600675E+04  0.7818609E-02  0.8367972E-01
        1   -1    0    0  501    0  0.00000000000E+00  0.00000000000E+00  0.12772946680E+04  0.12772946680E+04  0.50400001928E-02 0. -1.
       -1   -1    0    0    0  501  0.00000000000E+00  0.00000000000E+00 -0.13237963860E+04  0.13237963860E+04  0.50400001928E-02 0.  1.
    10030    2    1    2    0    0  0.00000000000E+00  0.00000000000E+00 -0.46501717989E+02  0.26010910539E+04  0.26006753471E+04 0.  0.
        4    1    3    3  502    0  0.65641608556E+03  0.11046948469E+04 -0.22238986842E+03  0.13041056892E+04  0.12699999809E+01 0.  1.
       -4    1    3    3    0  502 -0.65641608556E+03 -0.11046948469E+04  0.17588815043E+03  0.12969853648E+04  0.12699999809E+01 0. -1.
</event>
<event>
 5   0  0.2623368E-06  0.2601260E+04  0.7818609E-02  0.8367773E-01
        2   -1    0    0  501    0  0.00000000000E+00  0.00000000000E+00  0.17831468737E+04  0.17831468737E+04  0.25500000920E-02 0.  1.
       -2   -1    0    0    0  501  0.00000000000E+00  0.00000000000E+00 -0.94868179526E+03  0.94868179526E+03  0.25500000920E-02 0. -1.
    10030    2    1    2    0    0  0.00000000000E+00  0.00000000000E+00  0.83446507840E+03  0.27318286689E+04  0.26012604463E+04 0.  0.
        5    1    3    3  502    0  0.38083633821E+03  0.12397958554E+04  0.31494336481E+03  0.13346690573E+04  0.46999998093E+01 0. -1.
       -5    1    3    3    0  502 -0.38083633821E+03 -0.12397958554E+04  0.51952171359E+03  0.13971596116E+04  0.46999998093E+01 0.  1.
</event>
<event>
 5   0  0.1100104E-06  0.2598218E+04  0.7818609E-02  0.8368807E-01
        1   -1    0    0  501    0  0.00000000000E+00  0.00000000000E+00  0.22135367977E+04  0.22135367977E+04  0.50400001928E-02 0.  1.
       -1   -1    0    0    0  501  0.00000000000E+00  0.00000000000E+00 -0.76243783734E+03  0.76243783736E+03  0.50400001928E-02 0. -1.
    10030    2    1    2    0    0  0.00000000000E+00  0.00000000000E+00  0.14510989604E+04  0.29759746351E+04  0.25982180116E+04 0.  0.
        4    1    3    3  502    0  0.45970903041E+03  0.76387196340E+03  0.18078374862E+04  0.20157159419E+04  0.12699999809E+01 0.  1.
       -4    1    3    3    0  502 -0.45970903041E+03 -0.76387196340E+03 -0.35673852581E+03  0.96025869317E+03  0.12699999809E+01 0. -1.
</event>
<event>
 5   0  0.1088757E-06  0.2598546E+04  0.7818609E-02  0.8368695E-01
        1   -1    0    0  501    0  0.00000000000E+00  0.00000000000E+00  0.17807775221E+04  0.17807775221E+04  0.50400001928E-02 0. -1.
       -1   -1    0    0    0  501  0.00000000000E+00  0.00000000000E+00 -0.94796267489E+03  0.94796267490E+03  0.50400001928E-02 0.  1.
    10030    2    1    2    0    0  0.00000000000E+00  0.00000000000E+00  0.83281484725E+03  0.27287401970E+04  0.25985462269E+04 0.  0.
        5    1    3    3  502    0  0.39071891966E+03 -0.59534514688E+03  0.15575899462E+04  0.17126604009E+04  0.46999998093E+01 0. -1.
       -5    1    3    3    0  502 -0.39071891966E+03  0.59534514688E+03 -0.72477509898E+03  0.10160797962E+04  0.46999998093E+01 0.  1.
</event>
<event>
 5   0  0.1055179E-06  0.2599888E+04  0.7818609E-02  0.8368239E-01
        1   -1    0    0  501    0  0.00000000000E+00  0.00000000000E+00  0.99686798790E+03  0.99686798791E+03  0.50400001928E-02 0.  1.
       -1   -1    0    0    0  501  0.00000000000E+00  0.00000000000E+00 -0.16951633222E+04  0.16951633222E+04  0.50400001928E-02 0. -1.
    10030    2    1    2    0    0  0.00000000000E+00  0.00000000000E+00 -0.69829533434E+03  0.26920313102E+04  0.25998877285E+04 0.  0.
        3    1    3    3  502    0  0.71139366639E+03  0.52255616653E+03  0.63898469439E+03  0.10897005761E+04  0.10100000352E+00 0.  1.
       -3    1    3    3    0  502 -0.71139366639E+03 -0.52255616653E+03 -0.13372800287E+04  0.16023307340E+04  0.10100000352E+00 0. -1.
</event>
<event>
 5   0  0.1032076E-06  0.2600146E+04  0.7818609E-02  0.8368152E-01
       -1   -1    0    0    0  501  0.00000000000E+00  0.00000000000E+00  0.65063847235E+03  0.65063847237E+03  0.50400001928E-02 0.  1.
        1   -1    0    0  501    0  0.00000000000E+00  0.00000000000E+00 -0.25977399721E+04  0.25977399721E+04  0.50400001928E-02 0. -1.
    10030    2    1    2    0    0  0.00000000000E+00  0.00000000000E+00 -0.19471014997E+04  0.32483784445E+04  0.26001458167E+04 0.  0.
        1    1    3    3  502    0 -0.82094350678E+03  0.10037076685E+04 -0.10908275534E+04  0.16944857852E+04  0.50400001928E-02 0.  1.
       -1    1    3    3    0  502  0.82094350678E+03 -0.10037076685E+04 -0.85627394638E+03  0.15538926592E+04  0.50400001928E-02 0. -1.
</event>
<event>
 5   0  0.2705807E-06  0.2599980E+04  0.7818609E-02  0.8368208E-01
       -2   -1    0    0    0  501  0.00000000000E+00  0.00000000000E+00  0.71559193168E+03  0.71559193169E+03  0.25500000920E-02 0. -1.
        2   -1    0    0  501    0  0.00000000000E+00  0.00000000000E+00 -0.23616456782E+04  0.23616456782E+04  0.25500000920E-02 0.  1.
    10030    2    1    2    0    0  0.00000000000E+00  0.00000000000E+00 -0.16460537465E+04  0.30772376099E+04  0.25999804560E+04 0.  0.
        4    1    3    3  502    0  0.11682391466E+04  0.34708266617E+03 -0.28750745832E+03  0.12521626221E+04  0.12699999809E+01 0. -1.
       -4    1    3    3    0  502 -0.11682391466E+04 -0.34708266617E+03 -0.13585462882E+04  0.18250749878E+04  0.12699999809E+01 0.  1.
</event>
<event>
 5   0  0.2746631E-06  0.2558787E+04  0.7818609E-02  0.8382337E-01
       -2   -1    0    0    0  501  0.00000000000E+00  0.00000000000E+00  0.11776948563E+04  0.11776948563E+04  0.25500000920E-02 0.  1.
        2   -1    0    0  501    0  0.00000000000E+00  0.00000000000E+00 -0.13898737075E+04  0.13898737075E+04  0.25500000920E-02 0. -1.
    10030    2    1    2    0    0  0.00000000000E+00  0.00000000000E+00 -0.21217885119E+03  0.25675685638E+04  0.25587865219E+04 0.  0.
        2    1    3    3  502    0 -0.79326780283E+03 -0.99517363396E+03  0.25519972238E+02  0.12729083383E+04  0.25500000920E-02 0.  1.
       -2    1    3    3    0  502  0.79326780283E+03  0.99517363396E+03 -0.23769882342E+03  0.12946602255E+04  0.25500000920E-02 0. -1.
</event>
<event>
 5   0  0.1055179E-06  0.2597980E+04  0.7818609E-02  0.8368888E-01
       -1   -1    0    0    0  501  0.00000000000E+00  0.00000000000E+00  0.10418696241E+04  0.10418696241E+04  0.50400001928E-02 0.  1.
        1   -1    0    0  501    0  0.00000000000E+00  0.00000000000E+00 -0.16195647441E+04  0.16195647441E+04  0.50400001928E-02 0. -1.
    10030    2    1    2    0    0  0.00000000000E+00  0.00000000000E+00 -0.57769511996E+03  0.26614343682E+04  0.25979802240E+04 0.  0.
        3    1    3    3  502    0 -0.18593877746E+03  0.12473929136E+04 -0.60759502466E+03  0.13999050089E+04  0.10100000352E+00 0. -1.
       -3    1    3    3    0  502  0.18593877746E+03 -0.12473929136E+04  0.29899904702E+02  0.12615293593E+04  0.10100000352E+00 0.  1.
</event>
<event>
 5   0  0.2820028E-06  0.2596563E+04  0.7818609E-02  0.8369369E-01
        2   -1    0    0  501    0  0.00000000000E+00  0.00000000000E+00  0.20063453972E+04  0.20063453972E+04  0.25500000920E-02 0.  1.
       -2   -1    0    0    0  501  0.00000000000E+00  0.00000000000E+00 -0.84010226993E+03  0.84010226993E+03  0.25500000920E-02 0. -1.
    10030    2    1    2    0    0  0.00000000000E+00  0.00000000000E+00  0.11662431273E+04  0.28464476672E+04  0.25965633614E+04 0.  0.
        3    1    3    3  502    0 -0.49601127396E+02  0.82476208653E+03 -0.51467193172E+03  0.97343719814E+03  0.10100000352E+00 0.  1.
       -3    1    3    3    0  502  0.49601127396E+02 -0.82476208653E+03  0.16809150590E+04  0.18730104690E+04  0.10100000352E+00 0. -1.
</event>
<event>
 5   0  0.1032076E-06  0.2605383E+04  0.7818609E-02  0.8366375E-01
       -1   -1    0    0    0  501  0.00000000000E+00  0.00000000000E+00  0.94973100454E+03  0.94973100455E+03  0.50400001928E-02 0.  1.
        1   -1    0    0  501    0  0.00000000000E+00  0.00000000000E+00 -0.17868275888E+04  0.17868275888E+04  0.50400001928E-02 0. -1.
    10030    2    1    2    0    0  0.00000000000E+00  0.00000000000E+00 -0.83709658424E+03  0.27365585933E+04  0.26053833199E+04 0.  0.
        1    1    3    3  502    0  0.88114714988E+03  0.12068452563E+02 -0.14262471671E+04  0.16765282369E+04  0.50400001928E-02 0. -1.
       -1    1    3    3    0  502 -0.88114714988E+03 -0.12068452563E+02  0.58915058288E+03  0.10600303565E+04  0.50400001928E-02 0.  1.
</event>
<event>
 5   0  0.1100104E-06  0.2605817E+04  0.7818609E-02  0.8366228E-01
        1   -1    0    0  501    0  0.00000000000E+00  0.00000000000E+00  0.11798976597E+04  0.11798976597E+04  0.50400001928E-02 0.  1.
       -1   -1    0    0    0  501  0.00000000000E+00  0.00000000000E+00 -0.14387442321E+04  0.14387442321E+04  0.50400001928E-02 0. -1.
    10030    2    1    2    0    0  0.00000000000E+00  0.00000000000E+00 -0.25884657243E+03  0.26186418918E+04  0.26058173016E+04 0.  0.
        4    1    3    3  502    0 -0.44193664773E+03  0.24062473298E+02  0.11020391930E+04  0.11875937854E+04  0.12699999809E+01 0.  1.
       -4    1    3    3    0  502  0.44193664773E+03 -0.24062473298E+02 -0.13608857655E+04  0.14310481064E+04  0.12699999809E+01 0. -1.
</event>
<event>
 5   0  0.1088757E-06  0.2596700E+04  0.7818609E-02  0.8369323E-01
        1   -1    0    0  501    0  0.00000000000E+00  0.00000000000E+00  0.17822589271E+04  0.17822589271E+04  0.50400001928E-02 0.  1.
       -1   -1    0    0    0  501  0.00000000000E+00  0.00000000000E+00 -0.94582952161E+03  0.94582952162E+03  0.50400001928E-02 0. -1.
    10030    2    1    2    0    0  0.00000000000E+00  0.00000000000E+00  0.83642940545E+03  0.27280884487E+04  0.25967002972E+04 0.  0.
        5    1    3    3  502    0 -0.78145077289E+03 -0.78770720479E+03 -0.29009654493E+03  0.11468766483E+04  0.46999998093E+01 0. -1.
       -5    1    3    3    0  502  0.78145077289E+03  0.78770720479E+03  0.11265259504E+04  0.15812118004E+04  0.46999998093E+01 0.  1.
</event>
<event>
 5   0  0.2820028E-06  0.2599669E+04  0.7818609E-02  0.8368314E-01
       -2   -1    0    0    0  501  0.00000000000E+00  0.00000000000E+00  0.16169465310E+04  0.16169465310E+04  0.25500000920E-02 0.  1.
        2   -1    0    0  501    0  0.00000000000E+00  0.00000000000E+00 -0.10449135733E+04  0.10449135733E+04  0.25500000920E-02 0. -1.
    10030    2    1    2    0    0  0.00000000000E+00  0.00000000000E+00  0.57203295774E+03  0.26618601043E+04  0.25996687309E+04 0.  0.
        3    1    3    3  502    0 -0.29247407269E+02  0.12804688740E+04  0.51293361920E+03  0.13796944792E+04  0.10100000352E+00 0. -1.
       -3    1    3    3    0  502  0.29247407269E+02 -0.12804688740E+04  0.59099338548E+02  0.12821656251E+04  0.10100000352E+00 0.  1.
</event>
<event>
 5   0  0.1032076E-06  0.2599973E+04  0.7818609E-02  0.8368210E-01
       -1   -1    0    0    0  501  0.00000000000E+00  0.00000000000E+00  0.16870895804E+04  0.16870895804E+04  0.50400001928E-02 0. -1.
        1   -1    0    0  501    0  0.00000000000E+00  0.00000000000E+00 -0.10017042633E+04  0.10017042633E+04  0.50400001928E-02 0.  1.
    10030    2    1    2    0    0  0.00000000000E+00  0.00000000000E+00  0.68538531711E+03  0.26887938437E+04  0.25999729424E+04 0.  0.
        1    1    3    3  502    0  0.57535196910E+03  0.11504971817E+04  0.14841551178E+03  0.12948748270E+04  0.50400001928E-02 0. -1.
       -1    1    3    3    0  502 -0.57535196910E+03 -0.11504971817E+04  0.53696980533E+03  0.13939190168E+04  0.50400001928E-02 0.  1.
</event>
<event>
 5   0  0.2586775E-06  0.2602902E+04  0.7818609E-02  0.8367216E-01
        2   -1    0    0  501    0  0.00000000000E+00  0.00000000000E+00  0.14091625570E+04  0.14091625570E+04  0.25500000920E-02 0.  1.
       -2   -1    0    0    0  501  0.00000000000E+00  0.00000000000E+00 -0.12019724576E+04  0.12019724576E+04  0.25500000920E-02 0. -1.
    10030    2    1    2    0    0  0.00000000000E+00  0.00000000000E+00  0.20719009945E+03  0.26111350146E+04  0.26029019051E+04 0.  0.
        1    1    3    3  502    0 -0.54615773097E+03 -0.85974893036E+03 -0.70910205996E+03  0.12410810698E+04  0.50400001928E-02 0. -1.
       -1    1    3    3    0  502  0.54615773097E+03  0.85974893036E+03  0.91629215941E+03  0.13700539448E+04  0.50400001928E-02 0.  1.
</event>
<event>
 5   0  0.1100104E-06  0.2599815E+04  0.7818609E-02  0.8368264E-01
        1   -1    0    0  501    0  0.00000000000E+00  0.00000000000E+00  0.13379401362E+04  0.13379401362E+04  0.50400001928E-02 0. -1.
       -1   -1    0    0    0  501  0.00000000000E+00  0.00000000000E+00 -0.12629560141E+04  0.12629560141E+04  0.50400001928E-02 0.  1.
    10030    2    1    2    0    0  0.00000000000E+00  0.00000000000E+00  0.74984122136E+02  0.26008961503E+04  0.25998150254E+04 0.  0.
        4    1    3    3  502    0 -0.61867557814E+03 -0.28712204910E+03 -0.10695662286E+04  0.12685314629E+04  0.12699999809E+01 0.  1.
       -4    1    3    3    0  502  0.61867557814E+03  0.28712204910E+03  0.11445503507E+04  0.13323646874E+04  0.12699999809E+01 0. -1.
</event>
<event>
 5   0  0.1088757E-06  0.2599171E+04  0.7818609E-02  0.8368483E-01
        1   -1    0    0  501    0  0.00000000000E+00  0.00000000000E+00  0.11293971170E+04  0.11293971170E+04  0.50400001928E-02 0.  1.
       -1   -1    0    0    0  501  0.00000000000E+00  0.00000000000E+00 -0.14954195797E+04  0.14954195797E+04  0.50400001928E-02 0. -1.
    10030    2    1    2    0    0  0.00000000000E+00  0.00000000000E+00 -0.36602246263E+03  0.26248166967E+04  0.25991710694E+04 0.  0.
        5    1    3    3  502    0 -0.70141225464E+03  0.76277928370E+03 -0.97502571915E+03  0.14228522866E+04  0.46999998093E+01 0. -1.
       -5    1    3    3    0  502  0.70141225464E+03 -0.76277928370E+03  0.60900325652E+03  0.12019644101E+04  0.46999998093E+01 0.  1.
</event>
<event>
 5   0  0.1122628E-06  0.2597863E+04  0.7818609E-02  0.8368927E-01
       -1   -1    0    0    0  501  0.00000000000E+00  0.00000000000E+00  0.10857386351E+04  0.10857386351E+04  0.50400001928E-02 0.  1.
        1   -1    0    0  501    0  0.00000000000E+00  0.00000000000E+00 -0.15539862773E+04  0.15539862773E+04  0.50400001928E-02 0. -1.
    10030    2    1    2    0    0  0.00000000000E+00  0.00000000000E+00 -0.46824764222E+03  0.26397249124E+04  0.25978629215E+04 0.  0.
        2    1    3    3  502    0 -0.73121139609E+03  0.21221209727E+03  0.83522157729E+03  0.11301766071E+04  0.25500000920E-02 0.  1.
       -2    1    3    3    0  502  0.73121139609E+03 -0.21221209727E+03 -0.13034692195E+04  0.15095483054E+04  0.25500000920E-02 0. -1.
</event>
<event>
 5   0  0.1100104E-06  0.2596478E+04  0.7818609E-02  0.8369398E-01
        1   -1    0    0  501    0  0.00000000000E+00  0.00000000000E+00  0.17573275006E+04  0.17573275006E+04  0.50400001928E-02 0.  1.
       -1   -1    0    0    0  501  0.00000000000E+00  0.00000000000E+00 -0.95908398336E+03  0.95908398337E+03  0.50400001928E-02 0. -1.
    10030    2    1    2    0    0  0.00000000000E+00  0.00000000000E+00  0.79824351728E+03  0.27164114840E+04  0.25964781219E+04 0.  0.
        4    1    3    3  502    0  0.10717121917E+04  0.71983033276E+03  0.25605610881E+03  0.13161645313E+04  0.12699999809E+01 0.  1.
       -4    1    3    3    0  502 -0.10717121917E+04 -0.71983033276E+03  0.54218740847E+03  0.14002469527E+04  0.12699999809E+01 0. -1.
</event>
<event>
 5   0  0.1088757E-06  0.2604605E+04  0.7818609E-02  0.8366639E-01
        1   -1    0    0  501    0  0.00000000000E+00  0.00000000000E+00  0.14604546113E+04  0.14604546113E+04  0.50400001928E-02 0. -1.
       -1   -1    0    0    0  501  0.00000000000E+00  0.00000000000E+00 -0.11612764338E+04  0.11612764338E+04  0.50400001928E-02 0.  1.
    10030    2    1    2    0    0  0.00000000000E+00  0.00000000000E+00  0.29917817749E+03  0.26217310451E+04  0.26046047859E+04 0.  0.
        5    1    3    3  502    0 -0.92121529266E+03  0.36238925596E+03  0.10013242697E+04  0.14080610681E+04  0.46999998093E+01 0. -1.
       -5    1    3    3    0  502  0.92121529266E+03 -0.36238925596E+03 -0.70214609225E+03  0.12136699770E+04  0.46999998093E+01 0.  1.
</event>
<event>
 5   0  0.2746631E-06  0.2619655E+04  0.7818609E-02  0.8361555E-01
        2   -1    0    0  501    0  0.00000000000E+00  0.00000000000E+00  0.12846953656E+04  0.12846953656E+04  0.25500000920E-02 0. -1.
       -2   -1    0    0    0  501  0.00000000000E+00  0.00000000000E+00 -0.13354516177E+04  0.13354516177E+04  0.25500000920E-02 0.  1.
    10030    2    1    2    0    0  0.00000000000E+00  0.00000000000E+00 -0.50756252091E+02  0.26201469833E+04  0.26196553241E+04 0.  0.
        2    1    3    3  502    0  0.33882347501E+03 -0.46065049592E+03  0.11532522537E+04  0.12872416196E+04  0.25500000920E-02 0. -1.
       -2    1    3    3    0  502 -0.33882347501E+03  0.46065049592E+03 -0.12040085058E+04  0.13329053637E+04  0.25500000920E-02 0.  1.
</event>
<event>
 5   0  0.1032076E-06  0.2595664E+04  0.7818609E-02  0.8369676E-01
        1   -1    0    0  501    0  0.00000000000E+00  0.00000000000E+00  0.17446566357E+04  0.17446566357E+04  0.50400001928E-02 0. -1.
       -1   -1    0    0    0  501  0.00000000000E+00  0.00000000000E+00 -0.96544368167E+03  0.96544368169E+03  0.50400001928E-02 0.  1.
    10030    2    1    2    0    0  0.00000000000E+00  0.00000000000E+00  0.77921295403E+03  0.27101003174E+04  0.25956638655E+04 0.  0.
        1    1    3    3  502    0 -0.77994375259E+03 -0.39155654933E+03  0.13925496796E+04  0.16434182057E+04  0.50400001928E-02 0. -1.
       -1    1    3    3    0  502  0.77994375259E+03  0.39155654933E+03 -0.61333672557E+03  0.10666821117E+04  0.50400001928E-02 0.  1.
</event>
<event>
 5   0  0.1032076E-06  0.2601594E+04  0.7818609E-02  0.8367660E-01
       -1   -1    0    0    0  501  0.00000000000E+00  0.00000000000E+00  0.15777215012E+04  0.15777215012E+04  0.50400001928E-02 0. -1.
        1   -1    0    0  501    0  0.00000000000E+00  0.00000000000E+00 -0.10724788173E+04  0.10724788173E+04  0.50400001928E-02 0.  1.
    10030    2    1    2    0    0  0.00000000000E+00  0.00000000000E+00  0.50524268388E+03  0.26502003185E+04  0.26015940419E+04 0.  0.
        1    1    3    3  502    0  0.62950989390E+03  0.98605286736E+03 -0.32676673369E+03  0.12146437593E+04  0.50400001928E-02 0.  1.
       -1    1    3    3    0  502 -0.62950989390E+03 -0.98605286736E+03  0.83200941757E+03  0.14355565592E+04  0.50400001928E-02 0. -1.
</event>
<event>
 5   0  0.1032076E-06  0.2600514E+04  0.7818609E-02  0.8368027E-01
        1   -1    0    0  501    0  0.00000000000E+00  0.00000000000E+00  0.13109742473E+04  0.13109742473E+04  0.50400001928E-02 0. -1.
       -1   -1    0    0    0  501  0.00000000000E+00  0.00000000000E+00 -0.12896277008E+04  0.12896277008E+04  0.50400001928E-02 0.  1.
    10030    2    1    2    0    0  0.00000000000E+00  0.00000000000E+00  0.21346546503E+02  0.26006019482E+04  0.26005143372E+04 0.  0.
        1    1    3    3  502    0  0.11819997312E+04  0.26614103707E+03  0.48261531953E+03  0.13041748206E+04  0.50400001928E-02 0. -1.
       -1    1    3    3    0  502 -0.11819997312E+04 -0.26614103707E+03 -0.46126877303E+03  0.12964271276E+04  0.50400001928E-02 0.  1.
</event>
<event>
 5   0  0.2705807E-06  0.2600655E+04  0.7818609E-02  0.8367979E-01
       -2   -1    0    0    0  501  0.00000000000E+00  0.00000000000E+00  0.10647891985E+04  0.10647891985E+04  0.25500000920E-02 0. -1.
        2   -1    0    0  501    0  0.00000000000E+00  0.00000000000E+00 -0.15879687650E+04  0.15879687650E+04  0.25500000920E-02 0.  1.
    10030    2    1    2    0    0  0.00000000000E+00  0.00000000000E+00 -0.52317956648E+03  0.26527579635E+04  0.26006552932E+04 0.  0.
        4    1    3    3  502    0 -0.51493983303E+03 -0.69213881530E+03 -0.12540320297E+04  0.15221094296E+04  0.12699999809E+01 0.  1.
       -4    1    3    3    0  502  0.51493983303E+03  0.69213881530E+03  0.73085246323E+03  0.11306485339E+04  0.12699999809E+01 0. -1.
</event>
<event>
 5   0  0.1055179E-06  0.2594974E+04  0.7818609E-02  0.8369910E-01
        1   -1    0    0  501    0  0.00000000000E+00  0.00000000000E+00  0.67141087088E+03  0.67141087090E+03  0.50400001928E-02 0. -1.
       -1   -1    0    0    0  501  0.00000000000E+00  0.00000000000E+00 -0.25073653784E+04  0.25073653784E+04  0.50400001928E-02 0.  1.
    10030    2    1    2    0    0  0.00000000000E+00  0.00000000000E+00 -0.18359545075E+04  0.31787762493E+04  0.25949738899E+04 0.  0.
        3    1    3    3  502    0  0.99804546941E+03 -0.49975304098E+03 -0.10761765373E+03  0.11213516088E+04  0.10100000352E+00 0. -1.
       -3    1    3    3    0  502 -0.99804546941E+03  0.49975304098E+03 -0.17283368538E+04  0.20574246405E+04  0.10100000352E+00 0.  1.
</event>
<event>
 5   0  0.2705807E-06  0.2604851E+04  0.7818609E-02  0.8366555E-01
        2   -1    0    0  501    0  0.00000000000E+00  0.00000000000E+00  0.15509002570E+04  0.15509002570E+04  0.25500000920E-02 0.  1.
       -2   -1    0    0    0  501  0.00000000000E+00  0.00000000000E+00 -0.10937599175E+04  0.10937599175E+04  0.25500000920E-02 0. -1.
    10030    2    1    2    0    0  0.00000000000E+00  0.00000000000E+00  0.45714033947E+03  0.26446601745E+04  0.26048512719E+04 0.  0.
        4    1    3    3  502    0 -0.11431201982E+04  0.61776270916E+03  0.31913185205E+03  0.13379840448E+04  0.12699999809E+01 0.  1.
       -4    1    3    3    0  502  0.11431201982E+04 -0.61776270916E+03  0.13800848741E+03  0.13066761297E+04  0.12699999809E+01 0. -1.
</event>
<event>
 5   0  0.2820028E-06  0.2600134E+04  0.7818609E-02  0.8368156E-01
        2   -1    0    0  501    0  0.00000000000E+00  0.00000000000E+00  0.22395363887E+04  0.22395363887E+04  0.25500000920E-02 0.  1.
       -2   -1    0    0    0  501  0.00000000000E+00  0.00000000000E+00 -0.75469829332E+03  0.75469829332E+03  0.25500000920E-02 0. -1.
    10030    2    1    2    0    0  0.00000000000E+00  0.00000000000E+00  0.14848380954E+04  0.29942346820E+04  0.26001340661E+04 0.  0.
        3    1    3    3  502    0 -0.34415785283E+03  0.52113813759E+03  0.20554831826E+04  0.21482645810E+04  0.10100000352E+00 0.  1.
       -3    1    3    3    0  502  0.34415785283E+03 -0.52113813759E+03 -0.57064508715E+03  0.84597010101E+03  0.10100000352E+00 0. -1.
</event>
<event>
 5   0  0.2586775E-06  0.2599756E+04  0.7818609E-02  0.8368284E-01
       -2   -1    0    0    0  501  0.00000000000E+00  0.00000000000E+00  0.80825825705E+03  0.80825825705E+03  0.25500000920E-02 0. -1.
        2   -1    0    0  501    0  0.00000000000E+00  0.00000000000E+00 -0.20905228356E+04  0.20905228356E+04  0.25500000920E-02 0.  1.
    10030    2    1    2    0    0  0.00000000000E+00  0.00000000000E+00 -0.12822645786E+04  0.28987810927E+04  0.25997556373E+04 0.  0.
        1    1    3    3  502    0 -0.12729530582E+04  0.24968873901E+03 -0.54832138292E+03  0.14083360017E+04  0.50400001928E-02 0.  1.
       -1    1    3    3    0  502  0.12729530582E+04 -0.24968873901E+03 -0.73394319565E+03  0.14904450910E+04  0.50400001928E-02 0. -1.
</event>
<event>
 5   0  0.2705807E-06  0.2606345E+04  0.7818609E-02  0.8366049E-01
        2   -1    0    0  501    0  0.00000000000E+00  0.00000000000E+00  0.19496234587E+04  0.19496234587E+04  0.25500000920E-02 0. -1.
       -2   -1    0    0    0  501  0.00000000000E+00  0.00000000000E+00 -0.87107033636E+03  0.87107033637E+03  0.25500000920E-02 0.  1.
    10030    2    1    2    0    0  0.00000000000E+00  0.00000000000E+00  0.10785531223E+04  0.28206937951E+04  0.26063454583E+04 0.  0.
        4    1    3    3  502    0  0.43067179736E+03  0.77692789454E+03 -0.49264027281E+03  0.10157712349E+04  0.12699999809E+01 0.  1.
       -4    1    3    3    0  502 -0.43067179736E+03 -0.77692789454E+03  0.15711933951E+04  0.18049225602E+04  0.12699999809E+01 0. -1.
</event>
<event>
 5   0  0.1055179E-06  0.2575236E+04  0.7818609E-02  0.8376662E-01
       -1   -1    0    0    0  501  0.00000000000E+00  0.00000000000E+00  0.83180957860E+03  0.83180957862E+03  0.50400001928E-02 0.  1.
        1   -1    0    0  501    0  0.00000000000E+00  0.00000000000E+00 -0.19931966881E+04  0.19931966881E+04  0.50400001928E-02 0. -1.
    10030    2    1    2    0    0  0.00000000000E+00  0.00000000000E+00 -0.11613871095E+04  0.28250062667E+04  0.25752359870E+04 0.  0.
        3    1    3    3  502    0  0.38057272107E+03 -0.97520109052E+03  0.24176117960E+03  0.10743841218E+04  0.10100000352E+00 0.  1.
       -3    1    3    3    0  502 -0.38057272107E+03  0.97520109052E+03 -0.14031482891E+04  0.17506221449E+04  0.10100000352E+00 0. -1.
</event>
<event>
 5   0  0.2820028E-06  0.2630219E+04  0.7818609E-02  0.8358008E-01
        2   -1    0    0  501    0  0.00000000000E+00  0.00000000000E+00  0.18605001921E+04  0.18605001921E+04  0.25500000920E-02 0.  1.
       -2   -1    0    0    0  501  0.00000000000E+00  0.00000000000E+00 -0.92959545496E+03  0.92959545496E+03  0.25500000920E-02 0. -1.
    10030    2    1    2    0    0  0.00000000000E+00  0.00000000000E+00  0.93090473713E+03  0.27900956471E+04  0.26302186392E+04 0.  0.
        3    1    3    3  502    0 -0.44418580526E+03  0.10656334806E+04  0.11335250693E+04  0.16179477239E+04  0.10100000352E+00 0.  1.
       -3    1    3    3    0  502  0.44418580526E+03 -0.10656334806E+04 -0.20262033213E+03  0.11721479231E+04  0.10100000352E+00 0. -1.
</event>
<event>
 5   0  0.1055179E-06  0.2604320E+04  0.7818609E-02  0.8366735E-01
       -1   -1    0    0    0  501  0.00000000000E+00  0.00000000000E+00  0.10487852493E+04  0.10487852493E+04  0.50400001928E-02 0. -1.
        1   -1    0    0  501    0  0.00000000000E+00  0.00000000000E+00 -0.16167472623E+04  0.16167472623E+04  0.50400001928E-02 0.  1.
    10030    2    1    2    0    0  0.00000000000E+00  0.00000000000E+00 -0.56796201308E+03  0.26655325116E+04  0.26043200115E+04 0.  0.
        3    1    3    3  502    0  0.11453640254E+04  0.49904801657E+03 -0.65964051402E+03  0.14128104230E+04  0.10100000352E+00 0. -1.
       -3    1    3    3    0  502 -0.11453640254E+04 -0.49904801657E+03  0.91678500945E+02  0.12527220886E+04  0.10100000352E+00 0.  1.
</event>
<event>
 5   0  0.2705807E-06  0.2597551E+04  0.7818609E-02  0.8369033E-01
        2   -1    0    0  501    0  0.00000000000E+00  0.00000000000E+00  0.16905676163E+04  0.16905676163E+04  0.25500000920E-02 0.  1.
       -2   -1    0    0    0  501  0.00000000000E+00  0.00000000000E+00 -0.99778205433E+03  0.99778205434E+03  0.25500000920E-02 0. -1.
    10030    2    1    2    0    0  0.00000000000E+00  0.00000000000E+00  0.69278556196E+03  0.26883496706E+04  0.25975511769E+04 0.  0.
        4    1    3    3  502    0 -0.43147843029E+03  0.45717354033E+03  0.15226209298E+04  0.16472878894E+04  0.12699999809E+01 0.  1.
       -4    1    3    3    0  502  0.43147843029E+03 -0.45717354033E+03 -0.82983536783E+03  0.10410617813E+04  0.12699999809E+01 0. -1.
</event>
<event>
 5   0  0.2746631E-06  0.2595175E+04  0.7818609E-02  0.8369842E-01
        2   -1    0    0  501    0  0.00000000000E+00  0.00000000000E+00  0.29033015357E+04  0.29033015357E+04  0.25500000920E-02 0.  1.
       -2   -1    0    0    0  501  0.00000000000E+00  0.00000000000E+00 -0.57993735347E+03  0.57993735348E+03  0.25500000920E-02 0. -1.
    10030    2    1    2    0    0  0.00000000000E+00  0.00000000000E+00  0.23233641822E+04  0.34832388892E+04  0.25951747602E+04 0.  0.
        2    1    3    3  502    0 -0.12559520596E+04 -0.18200531398E+03  0.15247994171E+04  0.19838232716E+04  0.25500000920E-02 0.  1.
       -2    1    3    3    0  502  0.12559520596E+04  0.18200531398E+03  0.79856476507E+03  0.14994156176E+04  0.25500000920E-02 0. -1.
</event>
<event>
 5   0  0.2586775E-06  0.2595568E+04  0.7818609E-02  0.8369708E-01
        2   -1    0    0  501    0  0.00000000000E+00  0.00000000000E+00  0.18401205205E+04  0.18401205205E+04  0.25500000920E-02 0. -1.
       -2   -1    0    0    0  501  0.00000000000E+00  0.00000000000E+00 -0.91528943536E+03  0.91528943536E+03  0.25500000920E-02 0.  1.
    10030    2    1    2    0    0  0.00000000000E+00  0.00000000000E+00  0.92483108515E+03  0.27554099559E+04  0.25955676622E+04 0.  0.
        1    1    3    3  502    0  0.12019771422E+04 -0.52819948560E+02 -0.54068076999E+02  0.12043514247E+04  0.50400001928E-02 0.  1.
       -1    1    3    3    0  502 -0.12019771422E+04  0.52819948560E+02  0.97889916215E+03  0.15510585311E+04  0.50400001928E-02 0. -1.
</event>
<event>
 5   0  0.2820028E-06  0.2601176E+04  0.7818609E-02  0.8367802E-01
       -2   -1    0    0    0  501  0.00000000000E+00  0.00000000000E+00  0.80359762155E+03  0.80359762156E+03  0.25500000920E-02 0.  1.
        2   -1    0    0  501    0  0.00000000000E+00  0.00000000000E+00 -0.21049453935E+04  0.21049453935E+04  0.25500000920E-02 0. -1.
    10030    2    1    2    0    0  0.00000000000E+00  0.00000000000E+00 -0.13013477720E+04  0.29085430151E+04  0.26011759739E+04 0.  0.
        3    1    3    3  502    0  0.37840889890E+03 -0.68959337317E+03 -0.18088230262E+04  0.19724535648E+04  0.10100000352E+00 0. -1.
       -3    1    3    3    0  502 -0.37840889890E+03  0.68959337317E+03  0.50747525421E+03  0.93608945027E+03  0.10100000352E+00 0.  1.
</event>
<event>
 5   0  0.2746631E-06  0.2601309E+04  0.7818609E-02  0.8367757E-01
        2   -1    0    0  501    0  0.00000000000E+00  0.00000000000E+00  0.22362745001E+04  0.22362745001E+04  0.25500000920E-02 0.  1.
       -2   -1    0    0    0  501  0.00000000000E+00  0.00000000000E+00 -0.75648241109E+03  0.75648241110E+03  0.25500000920E-02 0. -1.
    10030    2    1    2    0    0  0.00000000000E+00  0.00000000000E+00  0.14797920890E+04  0.29927569112E+04  0.26013091517E+04 0.  0.
        2    1    3    3  502    0  0.53725578646E+02 -0.57205317542E+02 -0.75375603666E+03  0.75783048828E+03  0.25500000920E-02 0. -1.
       -2    1    3    3    0  502 -0.53725578646E+02  0.57205317542E+02  0.22335481257E+04  0.22349264229E+04  0.25500000920E-02 0.  1.
</event>
<event>
 5   0  0.1122628E-06  0.2614654E+04  0.7818609E-02  0.8363241E-01
        1   -1    0    0  501    0  0.00000000000E+00  0.00000000000E+00  0.17001323543E+04  0.17001323543E+04  0.50400001928E-02 0. -1.
       -1   -1    0    0    0  501  0.00000000000E+00  0.00000000000E+00 -0.10052768060E+04  0.10052768060E+04  0.50400001928E-02 0.  1.
    10030    2    1    2    0    0  0.00000000000E+00  0.00000000000E+00  0.69485554831E+03  0.27054091603E+04  0.26146537996E+04 0.  0.
        2    1    3    3  502    0  0.11729169932E+04  0.14013288903E+02  0.94467432215E+03  0.15061009993E+04  0.25500000920E-02 0. -1.
       -2    1    3    3    0  502 -0.11729169932E+04 -0.14013288903E+02 -0.24981877384E+03  0.11993081610E+04  0.25500000920E-02 0.  1.
</event>
<event>
 5   0  0.1122628E-06  0.2604825E+04  0.7818609E-02  0.8366564E-01
        1   -1    0    0  501    0  0.00000000000E+00  0.00000000000E+00  0.13226815461E+04  0.13226815461E+04  0.50400001928E-02 0.  1.
       -1   -1    0    0    0  501  0.00000000000E+00  0.00000000000E+00 -0.12824537639E+04  0.12824537639E+04  0.50400001928E-02 0. -1.
    10030    2    1    2    0    0  0.00000000000E+00  0.00000000000E+00  0.40227782205E+02  0.26051353099E+04  0.26048246983E+04 0.  0.
        2    1    3    3  502    0  0.15246585248E+03  0.98499917747E+03 -0.81832294842E+03  0.12896207441E+04  0.25500000920E-02 0. -1.
       -2    1    3    3    0  502 -0.15246585248E+03 -0.98499917747E+03  0.85855073062E+03  0.13155145658E+04  0.25500000920E-02 0.  1.
</event>
<event>
 5   0  0.1100104E-06  0.2593591E+04  0.7818609E-02  0.8370381E-01
        1   -1    0    0  501    0  0.00000000000E+00  0.00000000000E+00  0.15917740190E+04  0.15917740190E+04  0.50400001928E-02 0. -1.
       -1   -1    0    0    0  501  0.00000000000E+00  0.00000000000E+00 -0.10564807668E+04  0.10564807668E+04  0.50400001928E-02 0.  1.
    10030    2    1    2    0    0  0.00000000000E+00  0.00000000000E+00  0.53529325218E+03  0.26482547858E+04  0.25935910520E+04 0.  0.
        4    1    3    3  502    0  0.12601191723E+04  0.30110530359E+03  0.21068290270E+03  0.13126132830E+04  0.12699999809E+01 0. -1.
       -4    1    3    3    0  502 -0.12601191723E+04 -0.30110530359E+03  0.32461034949E+03  0.13356415029E+04  0.12699999809E+01 0.  1.
</event>
<event>
 5   0  0.1088757E-06  0.2610193E+04  0.7818609E-02  0.8364747E-01
       -1   -1    0    0    0  501  0.00000000000E+00  0.00000000000E+00  0.11125582132E+04  0.11125582132E+04  0.50400001928E-02 0. -1.
        1   -1    0    0  501    0  0.00000000000E+00  0.00000000000E+00 -0.15309548199E+04  0.15309548199E+04  0.50400001928E-02 0.  1.
    10030    2    1    2    0    0  0.00000000000E+00  0.00000000000E+00 -0.41839660672E+03  0.26435130331E+04  0.26101926051E+04 0.  0.
        5    1    3    3  502    0  0.96740375447E+03  0.50983784579E+03  0.51225024679E+03  0.12075707261E+04  0.46999998093E+01 0. -1.
       -5    1    3    3    0  502 -0.96740375447E+03 -0.50983784579E+03 -0.93064685351E+03  0.14359423070E+04  0.46999998093E+01 0.  1.
</event>
<event>
 5   0  0.1088757E-06  0.2597484E+04  0.7818609E-02  0.8369056E-01
       -1   -1    0    0    0  501  0.00000000000E+00  0.00000000000E+00  0.67695516562E+03  0.67695516564E+03  0.50400001928E-02 0. -1.
        1   -1    0    0  501    0  0.00000000000E+00  0.00000000000E+00 -0.24916427775E+04  0.24916427775E+04  0.50400001928E-02 0.  1.
    10030    2    1    2    0    0  0.00000000000E+00  0.00000000000E+00 -0.18146876119E+04  0.31685979431E+04  0.25974837433E+04 0.  0.
        5    1    3    3  502    0 -0.26484252989E+03 -0.83123119813E+01  0.64362064341E+03  0.69604617863E+03  0.46999998093E+01 0. -1.
       -5    1    3    3    0  502  0.26484252989E+03  0.83123119813E+01 -0.24583082553E+04  0.24725517645E+04  0.46999998093E+01 0.  1.
</event>
<event>
 5   0  0.2820028E-06  0.2598496E+04  0.7818609E-02  0.8368712E-01
        2   -1    0    0  501    0  0.00000000000E+00  0.00000000000E+00  0.19906873407E+04  0.19906873407E+04  0.25500000920E-02 0. -1.
       -2   -1    0    0    0  501  0.00000000000E+00  0.00000000000E+00 -0.84797107004E+03  0.84797107005E+03  0.25500000920E-02 0.  1.
    10030    2    1    2    0    0  0.00000000000E+00  0.00000000000E+00  0.11427162707E+04  0.28386584108E+04  0.25984959299E+04 0.  0.
        3    1    3    3  502    0 -0.82155157553E+03 -0.52556725676E+03  0.15091116323E+04  0.17968266087E+04  0.10100000352E+00 0. -1.
       -3    1    3    3    0  502  0.82155157553E+03  0.52556725676E+03 -0.36639536164E+03  0.10418318021E+04  0.10100000352E+00 0.  1.
</event>
<event>
 5   0  0.2820028E-06  0.2604540E+04  0.7818609E-02  0.8366661E-01
       -2   -1    0    0    0  501  0.00000000000E+00  0.00000000000E+00  0.86612995034E+03  0.86612995034E+03  0.25500000920E-02 0.  1.
        2   -1    0    0  501    0  0.00000000000E+00  0.00000000000E+00 -0.19580282282E+04  0.19580282282E+04  0.25500000920E-02 0. -1.
    10030    2    1    2    0    0  0.00000000000E+00  0.00000000000E+00 -0.10918982778E+04  0.28241581785E+04  0.26045397997E+04 0.  0.
        3    1    3    3  502    0  0.12900521773E+03 -0.53642331448E+03  0.73314319850E+03  0.91754633574E+03  0.10100000352E+00 0.  1.
       -3    1    3    3    0  502 -0.12900521773E+03  0.53642331448E+03 -0.18250414763E+04  0.19066118428E+04  0.10100000352E+00 0. -1.
</event>
<event>
 5   0  0.1088757E-06  0.2601684E+04  0.7818609E-02  0.8367630E-01
        1   -1    0    0  501    0  0.00000000000E+00  0.00000000000E+00  0.10563970998E+04  0.10563970998E+04  0.50400001928E-02 0. -1.
       -1   -1    0    0    0  501  0.00000000000E+00  0.00000000000E+00 -0.16018496804E+04  0.16018496804E+04  0.50400001928E-02 0.  1.
    10030    2    1    2    0    0  0.00000000000E+00  0.00000000000E+00 -0.54545258054E+03  0.26582467802E+04  0.26016835755E+04 0.  0.
        5    1    3    3  502    0  0.20579818044E+03  0.10064858959E+04  0.54262079857E+03  0.11618201973E+04  0.46999998093E+01 0. -1.
       -5    1    3    3    0  502 -0.20579818044E+03 -0.10064858959E+04 -0.10880733791E+04  0.14964265829E+04  0.46999998093E+01 0.  1.
</event>
<event>
 5   0  0.2586775E-06  0.2591702E+04  0.7818609E-02  0.8371025E-01
        2   -1    0    0  501    0  0.00000000000E+00  0.00000000000E+00  0.18172836211E+04  0.18172836211E+04  0.25500000920E-02 0.  1.
       -2   -1    0    0    0  501  0.00000000000E+00  0.00000000000E+00 -0.92403282816E+03  0.92403282817E+03  0.25500000920E-02 0. -1.
    10030    2    1    2    0    0  0.00000000000E+00  0.00000000000E+00  0.89325079298E+03  0.27413164493E+04  0.25917019304E+04 0.  0.
        1    1    3    3  502    0 -0.79034597134E+03  0.42549021290E+02 -0.63865359528E+03  0.10170229046E+04  0.50400001928E-02 0. -1.
       -1    1    3    3    0  502  0.79034597134E+03 -0.42549021290E+02  0.15319043883E+04  0.17242935447E+04  0.50400001928E-02 0.  1.
</event>
<event>
 5   0  0.1122628E-06  0.2600040E+04  0.7818609E-02  0.8368188E-01
       -1   -1    0    0    0  501  0.00000000000E+00  0.00000000000E+00  0.74814234253E+03  0.74814234255E+03  0.50400001928E-02 0. -1.
        1   -1    0    0  501    0  0.00000000000E+00  0.00000000000E+00 -0.22589974630E+04  0.22589974630E+04  0.50400001928E-02 0.  1.
    10030    2    1    2    0    0  0.00000000000E+00  0.00000000000E+00 -0.15108551205E+04  0.30071398056E+04  0.26000397334E+04 0.  0.
        2    1    3    3  502    0 -0.25343194974E+03 -0.10446875990E+04  0.90100207271E+02  0.10787576095E+04  0.25500000920E-02 0. -1.
       -2    1    3    3    0  502  0.25343194974E+03  0.10446875990E+04 -0.16009553277E+04  0.19283821961E+04  0.25500000920E-02 0.  1.
</event>
<event>
 5   0  0.2820028E-06  0.2621419E+04  0.7818609E-02  0.8360962E-01
        2   -1    0    0  501    0  0.00000000000E+00  0.00000000000E+00  0.14614489207E+04  0.14614489207E+04  0.25500000920E-02 0.  1.
       -2   -1    0    0    0  501  0.00000000000E+00  0.00000000000E+00 -0.11755180869E+04  0.11755180869E+04  0.25500000920E-02 0. -1.
    10030    2    1    2    0    0  0.00000000000E+00  0.00000000000E+00  0.28593083388E+03  0.26369670076E+04  0.26214191876E+04 0.  0.
        3    1    3    3  502    0 -0.53146501832E+03  0.31721345715E+03 -0.10192573151E+04  0.11924617091E+04  0.10100000352E+00 0. -1.
       -3    1    3    3    0  502  0.53146501832E+03 -0.31721345715E+03  0.13051881489E+04  0.14445052985E+04  0.10100000352E+00 0.  1.
</event>
<event>
 5   0  0.2705807E-06  0.2597778E+04  0.7818609E-02  0.8368956E-01
       -2   -1    0    0    0  501  0.00000000000E+00  0.00000000000E+00  0.13817078771E+04  0.13817078771E+04  0.25500000920E-02 0.  1.
        2   -1    0    0  501    0  0.00000000000E+00  0.00000000000E+00 -0.12210345591E+04  0.12210345591E+04  0.25500000920E-02 0. -1.
    10030    2    1    2    0    0  0.00000000000E+00  0.00000000000E+00  0.16067331792E+03  0.26027424362E+04  0.25977783343E+04 0.  0.
        4    1    3    3  502    0  0.88069489910E+02 -0.20817013728E+03 -0.12011776564E+04  0.12222603717E+04  0.12699999809E+01 0. -1.
       -4    1    3    3    0  502 -0.88069489910E+02  0.20817013728E+03  0.13618509743E+04  0.13804820645E+04  0.12699999809E+01 0.  1.
</event>
<event>
 5   0  0.2623368E-06  0.2599648E+04  0.7818609E-02  0.8368321E-01
        2   -1    0    0  501    0  0.00000000000E+00  0.00000000000E+00  0.10586043544E+04  0.10586043544E+04  0.25500000920E-02 0.  1.
       -2   -1    0    0    0  501  0.00000000000E+00  0.00000000000E+00 -0.15960093128E+04  0.15960093128E+04  0.25500000920E-02 0. -1.
    10030    2    1    2    0    0  0.00000000000E+00  0.00000000000E+00 -0.53740495835E+03  0.26546136672E+04  0.25996479825E+04 0.  0.
        5    1    3    3  502    0 -0.82959178158E+03  0.68763134250E+02  0.75068797220E+03  0.11209395230E+04  0.46999998093E+01 0.  1.
       -5    1    3    3    0  502  0.82959178158E+03 -0.68763134250E+02 -0.12880929306E+04  0.15336741442E+04  0.46999998093E+01 0. -1.
</event>
<event>
 5   0  0.1032076E-06  0.2657781E+04  0.7818609E-02  0.8348835E-01
        1   -1    0    0  501    0  0.00000000000E+00  0.00000000000E+00  0.13601588660E+04  0.13601588660E+04  0.50400001928E-02 0. -1.
       -1   -1    0    0    0  501  0.00000000000E+00  0.00000000000E+00 -0.12983409417E+04  0.12983409418E+04  0.50400001928E-02 0.  1.
    10030    2    1    2    0    0  0.00000000000E+00  0.00000000000E+00  0.61817924232E+02  0.26584998077E+04  0.26577809865E+04 0.  0.
        1    1    3    3  502    0  0.74781063711E+03 -0.71021428910E+03 -0.80736593871E+03  0.13097575518E+04  0.50400001928E-02 0.  1.
       -1    1    3    3    0  502 -0.74781063711E+03  0.71021428910E+03  0.86918386295E+03  0.13487422560E+04  0.50400001928E-02 0. -1.
</event>
<event>
 5   0  0.1055179E-06  0.2604896E+04  0.7818609E-02  0.8366540E-01
       -1   -1    0    0    0  501  0.00000000000E+00  0.00000000000E+00  0.10717245201E+04  0.10717245202E+04  0.50400001928E-02 0.  1.
        1   -1    0    0  501    0  0.00000000000E+00  0.00000000000E+00 -0.15828427776E+04  0.15828427776E+04  0.50400001928E-02 0. -1.
    10030    2    1    2    0    0  0.00000000000E+00  0.00000000000E+00 -0.51111825746E+03  0.26545672978E+04  0.26048964788E+04 0.  0.
        3    1    3    3  502    0  0.75590467880E+03 -0.65572966407E+03 -0.11051211497E+04  0.14908608391E+04  0.10100000352E+00 0. -1.
       -3    1    3    3    0  502 -0.75590467880E+03  0.65572966407E+03  0.59400289226E+03  0.11637064587E+04  0.10100000352E+00 0.  1.
</event>
<event>
 5   0  0.1100104E-06  0.2597607E+04  0.7818609E-02  0.8369015E-01
        1   -1    0    0  501    0  0.00000000000E+00  0.00000000000E+00  0.98723602622E+03  0.98723602624E+03  0.50400001928E-02 0. -1.
       -1   -1    0    0    0  501  0.00000000000E+00  0.00000000000E+00 -0.17086996885E+04  0.17086996885E+04  0.50400001928E-02 0.  1.
    10030    2    1    2    0    0  0.00000000000E+00  0.00000000000E+00 -0.72146366230E+03  0.26959357148E+04  0.25976065064E+04 0.  0.
        4    1    3    3  502    0 -0.17098809837E+03 -0.24282296893E+02 -0.16967289169E+04  0.17054961712E+04  0.12699999809E+01 0.  1.
       -4    1    3    3    0  502  0.17098809837E+03  0.24282296893E+02  0.97526525459E+03  0.99043954355E+03  0.12699999809E+01 0. -1.
</event>
<event>
 5   0  0.1088757E-06  0.2597130E+04  0.7818609E-02  0.8369177E-01
        1   -1    0    0  501    0  0.00000000000E+00  0.00000000000E+00  0.16324789913E+04  0.16324789913E+04  0.50400001928E-02 0. -1.
       -1   -1    0    0    0  501  0.00000000000E+00  0.00000000000E+00 -0.10329515345E+04  0.10329515345E+04  0.50400001928E-02 0.  1.
    10030    2    1    2    0    0  0.00000000000E+00  0.00000000000E+00  0.59952745681E+03  0.26654305258E+04  0.25971304773E+04 0.  0.
        5    1    3    3  502    0  0.10942253348E+04 -0.29710220762E+02 -0.41720519627E+03  0.11714495492E+04  0.46999998093E+01 0.  1.
       -5    1    3    3    0  502 -0.10942253348E+04  0.29710220762E+02  0.10167326531E+04  0.14939809766E+04  0.46999998093E+01 0. -1.
</event>
<event>
 5   0  0.2820028E-06  0.2599006E+04  0.7818609E-02  0.8368539E-01
       -2   -1    0    0    0  501  0.00000000000E+00  0.00000000000E+00  0.15473692739E+04  0.15473692739E+04  0.25500000920E-02 0.  1.
        2   -1    0    0  501    0  0.00000000000E+00  0.00000000000E+00 -0.10913415652E+04  0.10913415652E+04  0.25500000920E-02 0. -1.
    10030    2    1    2    0    0  0.00000000000E+00  0.00000000000E+00  0.45602770871E+03  0.26387108392E+04  0.25990062758E+04 0.  0.
        3    1    3    3  502    0 -0.72942785405E+03  0.71292138222E+02  0.13175155619E+04  0.15076454588E+04  0.10100000352E+00 0.  1.
       -3    1    3    3    0  502  0.72942785405E+03 -0.71292138222E+02 -0.86148785323E+03  0.11310653804E+04  0.10100000352E+00 0. -1.
</event>
<event>
 5   0  0.1122628E-06  0.2591135E+04  0.7818609E-02  0.8371219E-01
        1   -1    0    0  501    0  0.00000000000E+00  0.00000000000E+00  0.10539223954E+04  0.10539223954E+04  0.50400001928E-02 0.  1.
       -1   -1    0    0    0  501  0.00000000000E+00  0.00000000000E+00 -0.15926177904E+04  0.15926177904E+04  0.50400001928E-02 0. -1.
    10030    2    1    2    0    0  0.00000000000E+00  0.00000000000E+00 -0.53869539505E+03  0.26465401858E+04  0.25911353161E+04 0.  0.
        2    1    3    3  502    0  0.97227198269E+03 -0.50232765932E+03  0.43891286628E+03  0.11791057585E+04  0.25500000920E-02 0.  1.
       -2    1    3    3    0  502 -0.97227198269E+03  0.50232765932E+03 -0.97760826133E+03  0.14674344272E+04  0.25500000920E-02 0. -1.
</event>
<event>
 5   0  0.1100104E-06  0.2603368E+04  0.7818609E-02  0.8367058E-01
       -1   -1    0    0    0  501  0.00000000000E+00  0.00000000000E+00  0.13975474578E+04  0.13975474578E+04  0.50400001928E-02 0.  1.
        1   -1    0    0  501    0  0.00000000000E+00  0.00000000000E+00 -0.12123958389E+04  0.12123958389E+04  0.50400001928E-02 0. -1.
    10030    2    1    2    0    0  0.00000000000E+00  0.00000000000E+00  0.18515161888E+03  0.26099432967E+04  0.26033676056E+04 0.  0.
        4    1    3    3  502    0  0.65413546251E+03 -0.58277357174E+02  0.12192871478E+04  0.13849015183E+04  0.12699999809E+01 0.  1.
       -4    1    3    3    0  502 -0.65413546251E+03  0.58277357174E+02 -0.10341355290E+04  0.12250417784E+04  0.12699999809E+01 0. -1.
</event>
<event>
 5   0  0.1055179E-06  0.2586621E+04  0.7818609E-02  0.8372760E-01
        1   -1    0    0  501    0  0.00000000000E+00  0.00000000000E+00  0.15923878266E+04  0.15923878266E+04  0.50400001928E-02 0. -1.
       -1   -1    0    0    0  501  0.00000000000E+00  0.00000000000E+00 -0.10504049172E+04  0.10504049172E+04  0.50400001928E-02 0.  1.
    10030    2    1    2    0    0  0.00000000000E+00  0.00000000000E+00  0.54198290933E+03  0.26427927438E+04  0.25866209642E+04 0.  0.
        3    1    3    3  502    0 -0.38844702356E+03 -0.94794843075E+03 -0.53555287354E+03  0.11559905744E+04  0.10100000352E+00 0.  1.
       -3    1    3    3    0  502  0.38844702356E+03  0.94794843075E+03  0.10775357829E+04  0.14868021694E+04  0.10100000352E+00 0. -1.
</event>
<event>
 5   0  0.1100104E-06  0.2594955E+04  0.7818609E-02  0.8369917E-01
       -1   -1    0    0    0  501  0.00000000000E+00  0.00000000000E+00  0.60111594979E+03  0.60111594981E+03  0.50400001928E-02 0. -1.
        1   -1    0    0  501    0  0.00000000000E+00  0.00000000000E+00 -0.28005376821E+04  0.28005376821E+04  0.50400001928E-02 0.  1.
    10030    2    1    2    0    0  0.00000000000E+00  0.00000000000E+00 -0.21994217323E+04  0.34016536319E+04  0.25949550044E+04 0.  0.
        4    1    3    3  502    0  0.11183348212E+04 -0.20847288274E+03 -0.28179345113E+03  0.11719824560E+04  0.12699999809E+01 0. -1.
       -4    1    3    3    0  502 -0.11183348212E+04  0.20847288274E+03 -0.19176282812E+04  0.22296711759E+04  0.12699999809E+01 0.  1.
</event>
<event>
 5   0  0.2746631E-06  0.2602164E+04  0.7818609E-02  0.8367467E-01
       -2   -1    0    0    0  501  0.00000000000E+00  0.00000000000E+00  0.11473163610E+04  0.11473163610E+04  0.25500000920E-02 0.  1.
        2   -1    0    0  501    0  0.00000000000E+00  0.00000000000E+00 -0.14754556228E+04  0.14754556228E+04  0.25500000920E-02 0. -1.
    10030    2    1    2    0    0  0.00000000000E+00  0.00000000000E+00 -0.32813926180E+03  0.26227719837E+04  0.26021640039E+04 0.  0.
        2    1    3    3  502    0 -0.75479140256E+03 -0.24393640264E+03 -0.12035466726E+04  0.14414366525E+04  0.25500000920E-02 0. -1.
       -2    1    3    3    0  502  0.75479140256E+03  0.24393640264E+03  0.87540741082E+03  0.11813353312E+04  0.25500000920E-02 0.  1.
</event>
<event>
 5   0  0.2623368E-06  0.2600487E+04  0.7818609E-02  0.8368036E-01
       -2   -1    0    0    0  501  0.00000000000E+00  0.00000000000E+00  0.17471340256E+04  0.17471340256E+04  0.25500000920E-02 0. -1.
        2   -1    0    0  501    0  0.00000000000E+00  0.00000000000E+00 -0.96766073543E+03  0.96766073543E+03  0.25500000920E-02 0.  1.
    10030    2    1    2    0    0  0.00000000000E+00  0.00000000000E+00  0.77947329015E+03  0.27147947610E+04  0.26004868745E+04 0.  0.
        5    1    3    3  502    0 -0.55912292936E+03 -0.11612625499E+03  0.16092041832E+04  0.17075315372E+04  0.46999998093E+01 0. -1.
       -5    1    3    3    0  502  0.55912292936E+03  0.11612625499E+03 -0.82973089304E+03  0.10072632238E+04  0.46999998093E+01 0.  1.
</event>
<event>
 5   0  0.2820028E-06  0.2598092E+04  0.7818609E-02  0.8368850E-01
        2   -1    0    0  501    0  0.00000000000E+00  0.00000000000E+00  0.15675522536E+04  0.15675522536E+04  0.25500000920E-02 0. -1.
       -2   -1    0    0    0  501  0.00000000000E+00  0.00000000000E+00 -0.10765321395E+04  0.10765321395E+04  0.25500000920E-02 0.  1.
    10030    2    1    2    0    0  0.00000000000E+00  0.00000000000E+00  0.49102011407E+03  0.26440843931E+04  0.25980919009E+04 0.  0.
        3    1    3    3  502    0 -0.33913893451E+03  0.99482524230E+03 -0.53143617917E+03  0.11777592718E+04  0.10100000352E+00 0.  1.
       -3    1    3    3    0  502  0.33913893451E+03 -0.99482524230E+03  0.10224562932E+04  0.14663251213E+04  0.10100000352E+00 0. -1.
</event>
<event>
 5   0  0.2623368E-06  0.2598479E+04  0.7818609E-02  0.8368718E-01
        2   -1    0    0  501    0  0.00000000000E+00  0.00000000000E+00  0.18568025345E+04  0.18568025345E+04  0.25500000920E-02 0. -1.
       -2   -1    0    0    0  501  0.00000000000E+00  0.00000000000E+00 -0.90910247063E+03  0.90910247063E+03  0.25500000920E-02 0.  1.
    10030    2    1    2    0    0  0.00000000000E+00  0.00000000000E+00  0.94770006385E+03  0.27659050051E+04  0.25984793796E+04 0.  0.
        5    1    3    3  502    0 -0.64088071124E+02  0.12976484892E+04  0.47206913470E+03  0.13823423021E+04  0.46999998093E+01 0.  1.
       -5    1    3    3    0  502  0.64088071124E+02 -0.12976484892E+04  0.47563092914E+03  0.13835627030E+04  0.46999998093E+01 0. -1.
</event>
<event>
 5   0  0.1100104E-06  0.2597004E+04  0.7818609E-02  0.8369220E-01
       -1   -1    0    0    0  501  0.00000000000E+00  0.00000000000E+00  0.11227641349E+04  0.11227641349E+04  0.50400001928E-02 0.  1.
        1   -1    0    0  501    0  0.00000000000E+00  0.00000000000E+00 -0.15017469232E+04  0.15017469233E+04  0.50400001928E-02 0. -1.
    10030    2    1    2    0    0  0.00000000000E+00  0.00000000000E+00 -0.37898278833E+03  0.26245110582E+04  0.25970041087E+04 0.  0.
        4    1    3    3  502    0 -0.12636160984E+04 -0.20975028085E+03 -0.40478575135E+03  0.13433443125E+04  0.12699999809E+01 0. -1.
       -4    1    3    3    0  502  0.12636160984E+04  0.20975028085E+03  0.25802963018E+02  0.12811667457E+04  0.12699999809E+01 0.  1.
</event>
<event>
 5   0  0.1055179E-06  0.2601456E+04  0.7818609E-02  0.8367707E-01
        1   -1    0    0  501    0  0.00000000000E+00  0.00000000000E+00  0.15161644738E+04  0.15161644738E+04  0.50400001928E-02 0. -1.
       -1   -1    0    0    0  501  0.00000000000E+00  0.00000000000E+00 -0.11159032715E+04  0.11159032715E+04  0.50400001928E-02 0.  1.
    10030    2    1    2    0    0  0.00000000000E+00  0.00000000000E+00  0.40026120228E+03  0.26320677453E+04  0.26014556667E+04 0.  0.
        3    1    3    3  502    0  0.80100898382E+03  0.89931393347E+03  0.69735214766E+03  0.13916468558E+04  0.10100000352E+00 0. -1.
       -3    1    3    3    0  502 -0.80100898382E+03 -0.89931393347E+03 -0.29709094538E+03  0.12404208895E+04  0.10100000352E+00 0.  1.
</event>
<event>
 5   0  0.1055179E-06  0.2598972E+04  0.7818609E-02  0.8368550E-01
       -1   -1    0    0    0  501  0.00000000000E+00  0.00000000000E+00  0.11626098461E+04  0.11626098461E+04  0.50400001928E-02 0. -1.
        1   -1    0    0  501    0  0.00000000000E+00  0.00000000000E+00 -0.14524768302E+04  0.14524768302E+04  0.50400001928E-02 0.  1.
    10030    2    1    2    0    0  0.00000000000E+00  0.00000000000E+00 -0.28986698405E+03  0.26150866763E+04  0.25989719999E+04 0.  0.
        3    1    3    3  502    0  0.12838317933E+04 -0.14877667437E+03 -0.28106940030E+03  0.13226332032E+04  0.10100000352E+00 0.  1.
       -3    1    3    3    0  502 -0.12838317933E+04  0.14877667437E+03 -0.87975837516E+01  0.12924534731E+04  0.10100000352E+00 0. -1.
</event>
<event>
 5   0  0.1088757E-06  0.2602582E+04  0.7818609E-02  0.8367325E-01
       -1   -1    0    0    0  501  0.00000000000E+00  0.00000000000E+00  0.88743314758E+03  0.88743314759E+03  0.50400001928E-02 0. -1.
        1   -1    0    0  501    0  0.00000000000E+00  0.00000000000E+00 -0.19081528175E+04  0.19081528175E+04  0.50400001928E-02 0.  1.
    10030    2    1    2    0    0  0.00000000000E+00  0.00000000000E+00 -0.10207196699E+04  0.27955859651E+04  0.26025818419E+04 0.  0.
        5    1    3    3  502    0  0.19446168583E+03 -0.10118671685E+04 -0.13640595658E+04  0.17094943998E+04  0.46999998093E+01 0.  1.
       -5    1    3    3    0  502 -0.19446168583E+03  0.10118671685E+04  0.34333989588E+03  0.10860915653E+04  0.46999998093E+01 0. -1.
</event>
<event>
 5   0  0.2746631E-06  0.2604636E+04  0.7818609E-02  0.8366628E-01
        2   -1    0    0  501    0  0.00000000000E+00  0.00000000000E+00  0.10577464889E+04  0.10577464889E+04  0.25500000920E-02 0. -1.
       -2   -1    0    0    0  501  0.00000000000E+00  0.00000000000E+00 -0.16034397937E+04  0.16034397937E+04  0.25500000920E-02 0.  1.
    10030    2    1    2    0    0  0.00000000000E+00  0.00000000000E+00 -0.54569330483E+03  0.26611862826E+04  0.26046364906E+04 0.  0.
        2    1    3    3  502    0 -0.40932373765E+03  0.57714311773E+03 -0.13899245456E+04  0.15596571235E+04  0.25500000920E-02 0.  1.
       -2    1    3    3    0  502  0.40932373765E+03 -0.57714311773E+03  0.84423124074E+03  0.11015291591E+04  0.25500000920E-02 0. -1.
</event>
<event>
 5   0  0.2820028E-06  0.2595570E+04  0.7818609E-02  0.8369708E-01
        2   -1    0    0  501    0  0.00000000000E+00  0.00000000000E+00  0.88802010617E+03  0.88802010617E+03  0.25500000920E-02 0. -1.
       -2   -1    0    0    0  501  0.00000000000E+00  0.00000000000E+00 -0.18966298008E+04  0.18966298008E+04  0.25500000920E-02 0.  1.
    10030    2    1    2    0    0  0.00000000000E+00  0.00000000000E+00 -0.10086096946E+04  0.27846499070E+04  0.25955696077E+04 0.  0.
        3    1    3    3  502    0  0.16613084315E+03 -0.12113104039E+04 -0.37433746395E+02  0.12232226483E+04  0.10100000352E+00 0. -1.
       -3    1    3    3    0  502 -0.16613084315E+03  0.12113104039E+04 -0.97117594824E+03  0.15614272587E+04  0.10100000352E+00 0.  1.
</event>
<event>
 5   0  0.2820028E-06  0.2600467E+04  0.7818609E-02  0.8368042E-01
        2   -1    0    0  501    0  0.00000000000E+00  0.00000000000E+00  0.14333795244E+04  0.14333795244E+04  0.25500000920E-02 0. -1.
       -2   -1    0    0    0  501  0.00000000000E+00  0.00000000000E+00 -0.11794556248E+04  0.11794556248E+04  0.25500000920E-02 0.  1.
    10030    2    1    2    0    0  0.00000000000E+00  0.00000000000E+00  0.25392389965E+03  0.26128351492E+04  0.26004672984E+04 0.  0.
        3    1    3    3  502    0  0.11881313882E+04  0.34388065448E+03  0.52973933820E+03  0.13455608038E+04  0.10100000352E+00 0. -1.
       -3    1    3    3    0  502 -0.11881313882E+04 -0.34388065448E+03 -0.27581543855E+03  0.12672743454E+04  0.10100000352E+00 0.  1.
</event>
<event>
 5   0  0.1122628E-06  0.2600529E+04  0.7818609E-02  0.8368022E-01
        1   -1    0    0  501    0  0.00000000000E+00  0.00000000000E+00  0.23569281366E+04  0.23569281366E+04  0.50400001928E-02 0.  1.
       -1   -1    0    0    0  501  0.00000000000E+00  0.00000000000E+00 -0.71732671157E+03  0.71732671159E+03  0.50400001928E-02 0. -1.
    10030    2    1    2    0    0  0.00000000000E+00  0.00000000000E+00  0.16396014250E+04  0.30742548482E+04  0.26005287998E+04 0.  0.
        2    1    3    3  502    0  0.26296873477E+03  0.11608013274E+04  0.20091124108E+03  0.12070532730E+04  0.25500000920E-02 0. -1.
       -2    1    3    3    0  502 -0.26296873477E+03 -0.11608013274E+04  0.14386901840E+04  0.18672015752E+04  0.25500000920E-02 0.  1.
</event>
<event>
 5   0  0.2705807E-06  0.2578957E+04  0.7818609E-02  0.8375384E-01
       -2   -1    0    0    0  501  0.00000000000E+00  0.00000000000E+00  0.72617925453E+03  0.72617925453E+03  0.25500000920E-02 0.  1.
        2   -1    0    0  501    0  0.00000000000E+00  0.00000000000E+00 -0.22897297791E+04  0.22897297791E+04  0.25500000920E-02 0. -1.
    10030    2    1    2    0    0  0.00000000000E+00  0.00000000000E+00 -0.15635505245E+04  0.30159090336E+04  0.25789565828E+04 0.  0.
        4    1    3    3  502    0  0.86772753282E+03 -0.56947264244E+03 -0.16766012332E+04  0.19718629439E+04  0.12699999809E+01 0. -1.
       -4    1    3    3    0  502 -0.86772753282E+03  0.56947264244E+03  0.11305070864E+03  0.10440460897E+04  0.12699999809E+01 0.  1.
</event>
<event>
 5   0  0.2820028E-06  0.2601982E+04  0.7818609E-02  0.8367528E-01
       -2   -1    0    0    0  501  0.00000000000E+00  0.00000000000E+00  0.12410908739E+04  0.12410908739E+04  0.25500000920E-02 0. -1.
        2   -1    0    0  501    0  0.00000000000E+00  0.00000000000E+00 -0.13637825881E+04  0.13637825881E+04  0.25500000920E-02 0.  1.
    10030    2    1    2    0    0  0.00000000000E+00  0.00000000000E+00 -0.12269171422E+03  0.26048734620E+04  0.26019824166E+04 0.  0.
        3    1    3    3  502    0  0.87290392634E+03  0.18649382799E+03 -0.10088841013E+04  0.13470665732E+04  0.10100000352E+00 0.  1.
       -3    1    3    3    0  502 -0.87290392634E+03 -0.18649382799E+03  0.88619238710E+03  0.12578068889E+04  0.10100000352E+00 0. -1.
</event>
<event>
 5   0  0.2820028E-06  0.2594577E+04  0.7818609E-02  0.8370046E-01
       -2   -1    0    0    0  501  0.00000000000E+00  0.00000000000E+00  0.10775604526E+04  0.10775604526E+04  0.25500000920E-02 0. -1.
        2   -1    0    0  501    0  0.00000000000E+00  0.00000000000E+00 -0.15618217077E+04  0.15618217077E+04  0.25500000920E-02 0.  1.
    10030    2    1    2    0    0  0.00000000000E+00  0.00000000000E+00 -0.48426125508E+03  0.26393821602E+04  0.25945768874E+04 0.  0.
        3    1    3    3  502    0 -0.10788868216E+04 -0.64679197629E+02  0.48773910051E+03  0.11857780622E+04  0.10100000352E+00 0. -1.
       -3    1    3    3    0  502  0.10788868216E+04  0.64679197629E+02 -0.97200035559E+03  0.14536040980E+04  0.10100000352E+00 0.  1.
</event>
<event>
 5   0  0.2820028E-06  0.2601213E+04  0.7818609E-02  0.8367789E-01
        2   -1    0    0  501    0  0.00000000000E+00  0.00000000000E+00  0.22235295547E+04  0.22235295547E+04  0.25500000920E-02 0.  1.
       -2   -1    0    0    0  501  0.00000000000E+00  0.00000000000E+00 -0.76076218109E+03  0.76076218110E+03  0.25500000920E-02 0. -1.
    10030    2    1    2    0    0  0.00000000000E+00  0.00000000000E+00  0.14627673736E+04  0.29842917358E+04  0.26012129430E+04 0.  0.
        3    1    3    3  502    0 -0.10106627829E+04 -0.76647414383E+03  0.40154564127E+03  0.13304738954E+04  0.10100000352E+00 0. -1.
       -3    1    3    3    0  502  0.10106627829E+04  0.76647414383E+03  0.10612217323E+04  0.16538178404E+04  0.10100000352E+00 0.  1.
</event>
<event>
 5   0  0.2623368E-06  0.2638383E+04  0.7818609E-02  0.8355279E-01
        2   -1    0    0  501    0  0.00000000000E+00  0.00000000000E+00  0.10414574383E+04  0.10414574383E+04  0.25500000920E-02 0.  1.
       -2   -1    0    0    0  501  0.00000000000E+00  0.00000000000E+00 -0.16709906287E+04  0.16709906287E+04  0.25500000920E-02 0. -1.
    10030    2    1    2    0    0  0.00000000000E+00  0.00000000000E+00 -0.62953319042E+03  0.27124480670E+04  0.26383825496E+04 0.  0.
        5    1    3    3  502    0  0.83328796590E+03  0.17995541100E+03  0.72021722286E+03  0.11160142123E+04  0.46999998093E+01 0.  1.
       -5    1    3    3    0  502 -0.83328796590E+03 -0.17995541100E+03 -0.13497504133E+04  0.15964338546E+04  0.46999998093E+01 0. -1.
</event>
<event>
 5   0  0.1055179E-06  0.2591385E+04  0.7818609E-02  0.8371133E-01
       -1   -1    0    0    0  501  0.00000000000E+00  0.00000000000E+00  0.84494346910E+03  0.84494346912E+03  0.50400001928E-02 0. -1.
        1   -1    0    0  501    0  0.00000000000E+00  0.00000000000E+00 -0.19869016997E+04  0.19869016997E+04  0.50400001928E-02 0.  1.
    10030    2    1    2    0    0  0.00000000000E+00  0.00000000000E+00 -0.11419582306E+04  0.28318451688E+04  0.25913854325E+04 0.  0.
        3    1    3    3  502    0  0.60472823751E+03 -0.50719474810E+02 -0.18219996482E+04  0.19204039769E+04  0.10100000352E+00 0.  1.
       -3    1    3    3    0  502 -0.60472823751E+03  0.50719474810E+02  0.68004141763E+03  0.91144119188E+03  0.10100000352E+00 0. -1.
</event>
<event>
 5   0  0.1122628E-06  0.2600105E+04  0.7818609E-02  0.8368165E-01
        1   -1    0    0  501    0  0.00000000000E+00  0.00000000000E+00  0.13127857490E+04  0.13127857490E+04  0.50400001928E-02 0. -1.
       -1   -1    0    0    0  501  0.00000000000E+00  0.00000000000E+00 -0.12874428892E+04  0.12874428892E+04  0.50400001928E-02 0.  1.
    10030    2    1    2    0    0  0.00000000000E+00  0.00000000000E+00  0.25342859800E+02  0.26002286382E+04  0.26001051345E+04 0.  0.
        2    1    3    3  502    0  0.34789002323E+03 -0.32699210580E+02  0.12649449371E+04  0.13123194735E+04  0.25500000920E-02 0. -1.
       -2    1    3    3    0  502 -0.34789002323E+03  0.32699210580E+02 -0.12396020773E+04  0.12879091647E+04  0.25500000920E-02 0.  1.
</event>
<event>
 5   0  0.1100104E-06  0.2600068E+04  0.7818609E-02  0.8368178E-01
        1   -1    0    0  501    0  0.00000000000E+00  0.00000000000E+00  0.13556010535E+04  0.13556010535E+04  0.50400001928E-02 0.  1.
       -1   -1    0    0    0  501  0.00000000000E+00  0.00000000000E+00 -0.12467451198E+04  0.12467451198E+04  0.50400001928E-02 0. -1.
    10030    2    1    2    0    0  0.00000000000E+00  0.00000000000E+00  0.10885593370E+03  0.26023461733E+04  0.26000684589E+04 0.  0.
        4    1    3    3  502    0  0.22504069420E+03  0.71186965497E+03 -0.10107814243E+04  0.12566154624E+04  0.12699999809E+01 0. -1.
       -4    1    3    3    0  502 -0.22504069420E+03 -0.71186965497E+03  0.11196373580E+04  0.13457307108E+04  0.12699999809E+01 0.  1.
</event>
<event>
 5   0  0.2820028E-06  0.2600678E+04  0.7818609E-02  0.8367971E-01
        2   -1    0    0  501    0  0.00000000000E+00  0.00000000000E+00  0.90108098932E+03  0.90108098932E+03  0.25500000920E-02 0. -1.
       -2   -1    0    0    0  501  0.00000000000E+00  0.00000000000E+00 -0.18765039270E+04  0.18765039270E+04  0.25500000920E-02 0.  1.
    10030    2    1    2    0    0  0.00000000000E+00  0.00000000000E+00 -0.97542293765E+03  0.27775849163E+04  0.26006783846E+04 0.  0.
        3    1    3    3  502    0 -0.99370305111E+03  0.67308396545E+03  0.46721020983E+02  0.12011122522E+04  0.10100000352E+00 0.  1.
       -3    1    3    3    0  502  0.99370305111E+03 -0.67308396545E+03 -0.10221439586E+04  0.15764726641E+04  0.10100000352E+00 0. -1.
</event>
<event>
 5   0  0.2820028E-06  0.2597108E+04  0.7818609E-02  0.8369184E-01
        2   -1    0    0  501    0  0.00000000000E+00  0.00000000000E+00  0.16682600487E+04  0.16682600487E+04  0.25500000920E-02 0.  1.
       -2   -1    0    0    0  501  0.00000000000E+00  0.00000000000E+00 -0.10107788029E+04  0.10107788029E+04  0.25500000920E-02 0. -1.
    10030    2    1    2    0    0  0.00000000000E+00  0.00000000000E+00  0.65748124578E+03  0.26790388515E+04  0.25971075410E+04 0.  0.
        3    1    3    3  502    0 -0.10623832272E+04  0.32598950086E+03  0.10217335056E+04  0.15095915483E+04  0.10100000352E+00 0.  1.
       -3    1    3    3    0  502  0.10623832272E+04 -0.32598950086E+03 -0.36425225983E+03  0.11694473032E+04  0.10100000352E+00 0. -1.
</event>
<event>
 5   0  0.2586775E-06  0.2599085E+04  0.7818609E-02  0.8368512E-01
       -2   -1    0    0    0  501  0.00000000000E+00  0.00000000000E+00  0.14778789362E+04  0.14778789362E+04  0.25500000920E-02 0. -1.
        2   -1    0    0  501    0  0.00000000000E+00  0.00000000000E+00 -0.11427258309E+04  0.11427258309E+04  0.25500000920E-02 0.  1.
    10030    2    1    2    0    0  0.00000000000E+00  0.00000000000E+00  0.33515310534E+03  0.26206047671E+04  0.25990847891E+04 0.  0.
        1    1    3    3  502    0  0.45157668196E+03 -0.11986727790E+04  0.38864637023E+03  0.13385753367E+04  0.50400001928E-02 0.  1.
       -1    1    3    3    0  502 -0.45157668196E+03  0.11986727790E+04 -0.53493264892E+02  0.12820294304E+04  0.50400001928E-02 0. -1.
</event>
<event>
 5   0  0.1032076E-06  0.2650606E+04  0.7818609E-02  0.8351212E-01
       -1   -1    0    0    0  501  0.00000000000E+00  0.00000000000E+00  0.78729484681E+03  0.78729484682E+03  0.50400001928E-02 0.  1.
        1   -1    0    0  501    0  0.00000000000E+00  0.00000000000E+00 -0.22309667734E+04  0.22309667734E+04  0.50400001928E-02 0. -1.
    10030    2    1    2    0    0  0.00000000000E+00  0.00000000000E+00 -0.14436719266E+04  0.30182616202E+04  0.26506064545E+04 0.  0.
        1    1    3    3  502    0 -0.80454269454E+03 -0.96545896091E+03 -0.24272792222E+03  0.12799674983E+04  0.50400001928E-02 0. -1.
       -1    1    3    3    0  502  0.80454269454E+03  0.96545896091E+03 -0.12009440044E+04  0.17382941219E+04  0.50400001928E-02 0.  1.
</event>
<event>
 5   0  0.2746631E-06  0.2604619E+04  0.7818609E-02  0.8366634E-01
        2   -1    0    0  501    0  0.00000000000E+00  0.00000000000E+00  0.11049489493E+04  0.11049489493E+04  0.25500000920E-02 0.  1.
       -2   -1    0    0    0  501  0.00000000000E+00  0.00000000000E+00 -0.15349213860E+04  0.15349213860E+04  0.25500000920E-02 0. -1.
    10030    2    1    2    0    0  0.00000000000E+00  0.00000000000E+00 -0.42997243674E+03  0.26398703352E+04  0.26046187995E+04 0.  0.
        2    1    3    3  502    0  0.49621282034E+03 -0.21203247446E+03 -0.14162807875E+04  0.15155976387E+04  0.25500000920E-02 0. -1.
       -2    1    3    3    0  502 -0.49621282034E+03  0.21203247446E+03  0.98630835081E+03  0.11242726965E+04  0.25500000920E-02 0.  1.
</event>
<event>
 5   0  0.2820028E-06  0.2606851E+04  0.7818609E-02  0.8365878E-01
        2   -1    0    0  501    0  0.00000000000E+00  0.00000000000E+00  0.13917646209E+04  0.13917646209E+04  0.25500000920E-02 0.  1.
       -2   -1    0    0    0  501  0.00000000000E+00  0.00000000000E+00 -0.12206939027E+04  0.12206939027E+04  0.25500000920E-02 0. -1.
    10030    2    1    2    0    0  0.00000000000E+00  0.00000000000E+00  0.17107071817E+03  0.26124585235E+04  0.26068514240E+04 0.  0.
        3    1    3    3  502    0  0.85080241611E+03 -0.18020570835E+03 -0.88741833695E+03  0.12425176713E+04  0.10100000352E+00 0. -1.
       -3    1    3    3    0  502 -0.85080241611E+03  0.18020570835E+03  0.10584890551E+04  0.13699408522E+04  0.10100000352E+00 0.  1.
</event>
<event>
 5   0  0.1032076E-06  0.2601504E+04  0.7818609E-02  0.8367691E-01
       -1   -1    0    0    0  501  0.00000000000E+00  0.00000000000E+00  0.20714206427E+04  0.20714206427E+04  0.50400001928E-02 0.  1.
        1   -1    0    0  501    0  0.00000000000E+00  0.00000000000E+00 -0.81680907890E+03  0.81680907892E+03  0.50400001928E-02 0. -1.
    10030    2    1    2    0    0  0.00000000000E+00  0.00000000000E+00  0.12546115638E+04  0.28882297217E+04  0.26015035554E+04 0.  0.
        1    1    3    3  502    0  0.11612669143E+04  0.18428562244E+03  0.97093713617E+01  0.11758385556E+04  0.50400001928E-02 0. -1.
       -1    1    3    3    0  502 -0.11612669143E+04 -0.18428562244E+03  0.12449021925E+04  0.17123911661E+04  0.50400001928E-02 0.  1.
</event>
<event>
 5   0  0.2705807E-06  0.2603920E+04  0.7818609E-02  0.8366871E-01
        2   -1    0    0  501    0  0.00000000000E+00  0.00000000000E+00  0.20879935634E+04  0.20879935634E+04  0.25500000920E-02 0. -1.
       -2   -1    0    0    0  501  0.00000000000E+00  0.00000000000E+00 -0.81183190306E+03  0.81183190306E+03  0.25500000920E-02 0.  1.
    10030    2    1    2    0    0  0.00000000000E+00  0.00000000000E+00  0.12761616604E+04  0.28998254665E+04  0.26039199590E+04 0.  0.
        4    1    3    3  502    0  0.49070583544E+03  0.21231394364E+02 -0.70469898447E+03  0.85897919687E+03  0.12699999809E+01 0.  1.
       -4    1    3    3    0  502 -0.49070583544E+03 -0.21231394364E+02  0.19808606448E+04  0.20408462696E+04  0.12699999809E+01 0. -1.
</event>
<event>
 5   0  0.1088757E-06  0.2604899E+04  0.7818609E-02  0.8366539E-01
       -1   -1    0    0    0  501  0.00000000000E+00  0.00000000000E+00  0.92835035285E+03  0.92835035287E+03  0.50400001928E-02 0.  1.
        1   -1    0    0  501    0  0.00000000000E+00  0.00000000000E+00 -0.18272999663E+04  0.18272999663E+04  0.50400001928E-02 0. -1.
    10030    2    1    2    0    0  0.00000000000E+00  0.00000000000E+00 -0.89894961341E+03  0.27556503191E+04  0.26048988990E+04 0.  0.
        5    1    3    3  502    0  0.98093386375E+03 -0.85417808609E+03 -0.52044716235E+03  0.14009777966E+04  0.46999998093E+01 0. -1.
       -5    1    3    3    0  502 -0.98093386375E+03  0.85417808609E+03 -0.37850245107E+03  0.13546725225E+04  0.46999998093E+01 0.  1.
</event>
<event>
 5   0  0.2623368E-06  0.2574363E+04  0.7818609E-02  0.8376962E-01
        2   -1    0    0  501    0  0.00000000000E+00  0.00000000000E+00  0.12049197035E+04  0.12049197035E+04  0.25500000920E-02 0.  1.
       -2   -1    0    0    0  501  0.00000000000E+00  0.00000000000E+00 -0.13750590318E+04  0.13750590318E+04  0.25500000920E-02 0. -1.
    10030    2    1    2    0    0  0.00000000000E+00  0.00000000000E+00 -0.17013932834E+03  0.25799787352E+04  0.25743626169E+04 0.  0.
        5    1    3    3  502    0  0.45037433568E+02 -0.84802541914E+03  0.88432442358E+03  0.12260616861E+04  0.46999998093E+01 0.  1.
       -5    1    3    3    0  502 -0.45037433568E+02  0.84802541914E+03 -0.10544637519E+04  0.13539170492E+04  0.46999998093E+01 0. -1.
</event>
<event>
 5   0  0.2705807E-06  0.2601647E+04  0.7818609E-02  0.8367642E-01
       -2   -1    0    0    0  501  0.00000000000E+00  0.00000000000E+00  0.78717588592E+03  0.78717588592E+03  0.25500000920E-02 0.  1.
        2   -1    0    0  501    0  0.00000000000E+00  0.00000000000E+00 -0.21496360722E+04  0.21496360722E+04  0.25500000920E-02 0. -1.
    10030    2    1    2    0    0  0.00000000000E+00  0.00000000000E+00 -0.13624601863E+04  0.29368119581E+04  0.26016469242E+04 0.  0.
        4    1    3    3  502    0 -0.43670733487E+02  0.29956150271E+02 -0.21484180216E+04  0.21490709882E+04  0.12699999809E+01 0. -1.
       -4    1    3    3    0  502  0.43670733487E+02 -0.29956150271E+02  0.78595783532E+03  0.78774096992E+03  0.12699999809E+01 0.  1.
</event>
<event>
 5   0  0.2820028E-06  0.2601804E+04  0.7818609E-02  0.8367589E-01
        2   -1    0    0  501    0  0.00000000000E+00  0.00000000000E+00  0.16928087179E+04  0.16928087179E+04  0.25500000920E-02 0.  1.
       -2   -1    0    0    0  501  0.00000000000E+00  0.00000000000E+00 -0.99972655117E+03  0.99972655117E+03  0.25500000920E-02 0. -1.
    10030    2    1    2    0    0  0.00000000000E+00  0.00000000000E+00  0.69308216673E+03  0.26925352691E+04  0.26018038522E+04 0.  0.
        3    1    3    3  502    0 -0.17598266834E+03 -0.95850709969E+03  0.12383586695E+04  0.15758292942E+04  0.10100000352E+00 0.  1.
       -3    1    3    3    0  502  0.17598266834E+03  0.95850709969E+03 -0.54527650280E+03  0.11167059749E+04  0.10100000352E+00 0. -1.
</event>
<event>
 5   0  0.2820028E-06  0.2603287E+04  0.7818609E-02  0.8367086E-01
       -2   -1    0    0    0  501  0.00000000000E+00  0.00000000000E+00  0.87387336804E+03  0.87387336805E+03  0.25500000920E-02 0.  1.
        2   -1    0    0  501    0  0.00000000000E+00  0.00000000000E+00 -0.19388109507E+04  0.19388109507E+04  0.25500000920E-02 0. -1.
    10030    2    1    2    0    0  0.00000000000E+00  0.00000000000E+00 -0.10649375827E+04  0.28126843188E+04  0.26032865809E+04 0.  0.
        3    1    3    3  502    0  0.11624936663E+04  0.80632392488E+02  0.94167402537E+02  0.11690853762E+04  0.10100000352E+00 0.  1.
       -3    1    3    3    0  502 -0.11624936663E+04 -0.80632392488E+02 -0.11591049852E+04  0.16435989425E+04  0.10100000352E+00 0. -1.
</event>
<event>
 5   0  0.2705807E-06  0.2595654E+04  0.7818609E-02  0.8369679E-01
        2   -1    0    0  501    0  0.00000000000E+00  0.00000000000E+00  0.19857921914E+04  0.19857921914E+04  0.25500000920E-02 0.  1.
       -2   -1    0    0    0  501  0.00000000000E+00  0.00000000000E+00 -0.84820280642E+03  0.84820280642E+03  0.25500000920E-02 0. -1.
    10030    2    1    2    0    0  0.00000000000E+00  0.00000000000E+00  0.11375893850E+04  0.28339949978E+04  0.25956536824E+04 0.  0.
        4    1    3    3  502    0 -0.72325635912E+02 -0.17453194522E+02  0.19834611227E+04  0.19848564809E+04  0.12699999809E+01 0.  1.
       -4    1    3    3    0  502  0.72325635912E+02  0.17453194522E+02 -0.84587173764E+03  0.84913851700E+03  0.12699999809E+01 0. -1.
</event>
<event>
 5   0  0.2820028E-06  0.2596479E+04  0.7818609E-02  0.8369398E-01
       -2   -1    0    0    0  501  0.00000000000E+00  0.00000000000E+00  0.12660731795E+04  0.12660731795E+04  0.25500000920E-02 0. -1.
        2   -1    0    0  501    0  0.00000000000E+00  0.00000000000E+00 -0.13312226513E+04  0.13312226513E+04  0.25500000920E-02 0.  1.
    10030    2    1    2    0    0  0.00000000000E+00  0.00000000000E+00 -0.65149471804E+02  0.25972958307E+04  0.25964786112E+04 0.  0.
        3    1    3    3  502    0  0.67194204432E+03  0.25186373922E+03  0.10496547896E+04  0.12715017270E+04  0.10100000352E+00 0. -1.
       -3    1    3    3    0  502 -0.67194204432E+03 -0.25186373922E+03 -0.11148042614E+04  0.13257941038E+04  0.10100000352E+00 0.  1.
</event>
<event>
 5   0  0.1088757E-06  0.2601704E+04  0.7818609E-02  0.8367623E-01
       -1   -1    0    0    0  501  0.00000000000E+00  0.00000000000E+00  0.19271627184E+04  0.19271627184E+04  0.50400001928E-02 0. -1.
        1   -1    0    0  501    0  0.00000000000E+00  0.00000000000E+00 -0.87808691009E+03  0.87808691010E+03  0.50400001928E-02 0.  1.
    10030    2    1    2    0    0  0.00000000000E+00  0.00000000000E+00  0.10490758083E+04  0.28052496285E+04  0.26017043312E+04 0.  0.
        5    1    3    3  502    0 -0.21749939437E+03 -0.12780604356E+04  0.40916267392E+03  0.13594780791E+04  0.46999998093E+01 0. -1.
       -5    1    3    3    0  502  0.21749939437E+03  0.12780604356E+04  0.63991313441E+03  0.14457715495E+04  0.46999998093E+01 0.  1.
</event>
<event>
 5   0  0.2586775E-06  0.2599311E+04  0.7818609E-02  0.8368435E-01
        2   -1    0    0  501    0  0.00000000000E+00  0.00000000000E+00  0.22769302758E+04  0.22769302758E+04  0.25500000920E-02 0.  1.
       -2   -1    0    0    0  501  0.00000000000E+00  0.00000000000E+00 -0.74183395948E+03  0.74183395949E+03  0.25500000920E-02 0. -1.
    10030    2    1    2    0    0  0.00000000000E+00  0.00000000000E+00  0.15350963163E+04  0.30187642353E+04  0.25993108333E+04 0.  0.
        1    1    3    3  502    0 -0.37641554633E+03  0.92097858541E+03  0.17386751648E+04  0.20032177982E+04  0.50400001928E-02 0.  1.
       -1    1    3    3    0  502  0.37641554633E+03 -0.92097858541E+03 -0.20357884848E+03  0.10155464371E+04  0.50400001928E-02 0. -1.
</event>
<event>
 5   0  0.1055179E-06  0.2599086E+04  0.7818609E-02  0.8368512E-01
       -1   -1    0    0    0  501  0.00000000000E+00  0.00000000000E+00  0.10108224272E+04  0.10108224272E+04  0.50400001928E-02 0. -1.
        1   -1    0    0  501    0  0.00000000000E+00  0.00000000000E+00 -0.16707308355E+04  0.16707308355E+04  0.50400001928E-02 0.  1.
    10030    2    1    2    0    0  0.00000000000E+00  0.00000000000E+00 -0.65990840836E+03  0.26815532627E+04  0.25990861458E+04 0.  0.
        3    1    3    3  502    0 -0.12043898862E+04  0.22455195028E+03 -0.77710335280E+03  0.14508163934E+04  0.10100000352E+00 0.  1.
       -3    1    3    3    0  502  0.12043898862E+04 -0.22455195028E+03  0.11719494444E+03  0.12307368693E+04  0.10100000352E+00 0. -1.
</event>
<event>
 5   0  0.2705807E-06  0.2599212E+04  0.7818609E-02  0.8368469E-01
       -2   -1    0    0    0  501  0.00000000000E+00  0.00000000000E+00  0.14468507617E+04  0.14468507617E+04  0.25500000920E-02 0. -1.
        2   -1    0    0  501    0  0.00000000000E+00  0.00000000000E+00 -0.11673465147E+04  0.11673465147E+04  0.25500000920E-02 0.  1.
    10030    2    1    2    0    0  0.00000000000E+00  0.00000000000E+00  0.27950424703E+03  0.26141972764E+04  0.25992123375E+04 0.  0.
        4    1    3    3  502    0 -0.12288713799E+04 -0.41451404565E+03  0.55436730453E+02  0.12980838210E+04  0.12699999809E+01 0. -1.
       -4    1    3    3    0  502  0.12288713799E+04  0.41451404565E+03  0.22406751657E+03  0.13161134553E+04  0.12699999809E+01 0.  1.
</event>
<event>
 5   0  0.2705807E-06  0.2592902E+04  0.7818609E-02  0.8370616E-01
       -2   -1    0    0    0  501  0.00000000000E+00  0.00000000000E+00  0.15364661325E+04  0.15364661325E+04  0.25500000920E-02 0.  1.
        2   -1    0    0  501    0  0.00000000000E+00  0.00000000000E+00 -0.10939294831E+04  0.10939294831E+04  0.25500000920E-02 0. -1.
    10030    2    1    2    0    0  0.00000000000E+00  0.00000000000E+00  0.44253664942E+03  0.26303956156E+04  0.25929023138E+04 0.  0.
        4    1    3    3  502    0 -0.12772457556E+04  0.12403065943E+03  0.40844557724E+03  0.13466884299E+04  0.12699999809E+01 0.  1.
       -4    1    3    3    0  502  0.12772457556E+04 -0.12403065943E+03  0.34091072180E+02  0.12837071858E+04  0.12699999809E+01 0. -1.
</event>
<event>
 5   0  0.9197000E-07  0.2598740E+04  0.7818609E-02  0.8368629E-01
        3   -1    0    0  501    0  0.00000000000E+00  0.00000000000E+00  0.15602259918E+04  0.15602259951E+04  0.10100000352E+00 0. -1.
       -3   -1    0    0    0  501  0.00000000000E+00  0.00000000000E+00 -0.10821269093E+04  0.10821269140E+04  0.10100000352E+00 0.  1.
    10030    2    1    2    0    0  0.00000000000E+00  0.00000000000E+00  0.47809908253E+03  0.26423529091E+04  0.25987401108E+04 0.  0.
        4    1    3    3  502    0  0.12933736627E+03  0.53713173083E+03 -0.95674966123E+03  0.11048122817E+04  0.12699999809E+01 0.  1.
       -4    1    3    3    0  502 -0.12933736627E+03 -0.53713173083E+03  0.14348487438E+04  0.15375406274E+04  0.12699999809E+01 0. -1.
</event>
<event>
 5   0  0.2705807E-06  0.2593272E+04  0.7818609E-02  0.8370490E-01
        2   -1    0    0  501    0  0.00000000000E+00  0.00000000000E+00  0.14713617490E+04  0.14713617490E+04  0.25500000920E-02 0.  1.
       -2   -1    0    0    0  501  0.00000000000E+00  0.00000000000E+00 -0.11426587301E+04  0.11426587301E+04  0.25500000920E-02 0. -1.
    10030    2    1    2    0    0  0.00000000000E+00  0.00000000000E+00  0.32870301894E+03  0.26140204791E+04  0.25932715612E+04 0.  0.
        4    1    3    3  502    0  0.80794045780E+03  0.74075455025E+03  0.86255335686E+03  0.13948064358E+04  0.12699999809E+01 0.  1.
       -4    1    3    3    0  502 -0.80794045780E+03 -0.74075455025E+03 -0.53385033792E+03  0.12192140433E+04  0.12699999809E+01 0. -1.
</event>
<event>
 5   0  0.2586775E-06  0.2599321E+04  0.7818609E-02  0.8368432E-01
       -2   -1    0    0    0  501  0.00000000000E+00  0.00000000000E+00  0.78979961237E+03  0.78979961237E+03  0.25500000920E-02 0.  1.
        2   -1    0    0  501    0  0.00000000000E+00  0.00000000000E+00 -0.21386665382E+04  0.21386665382E+04  0.25500000920E-02 0. -1.
    10030    2    1    2    0    0  0.00000000000E+00  0.00000000000E+00 -0.13488669258E+04  0.29284661506E+04  0.25993214521E+04 0.  0.
        1    1    3    3  502    0 -0.20756344627E+03 -0.51250980831E+02  0.76985191915E+03  0.79898762488E+03  0.50400001928E-02 0.  1.
       -1    1    3    3    0  502  0.20756344627E+03  0.51250980831E+02 -0.21187188450E+04  0.21294785257E+04  0.50400001928E-02 0. -1.
</event>
<event>
 5   0  0.1100104E-06  0.2599966E+04  0.7818609E-02  0.8368213E-01
       -1   -1    0    0    0  501  0.00000000000E+00  0.00000000000E+00  0.10177210259E+04  0.10177210259E+04  0.50400001928E-02 0. -1.
        1   -1    0    0  501    0  0.00000000000E+00  0.00000000000E+00 -0.16605291449E+04  0.16605291449E+04  0.50400001928E-02 0.  1.
    10030    2    1    2    0    0  0.00000000000E+00  0.00000000000E+00 -0.64280811900E+03  0.26782501708E+04  0.25999657112E+04 0.  0.
        4    1    3    3  502    0  0.28708431747E+03 -0.19805659487E+03  0.96862494680E+03  0.10295045996E+04  0.12699999809E+01 0. -1.
       -4    1    3    3    0  502 -0.28708431747E+03  0.19805659487E+03 -0.16114330658E+04  0.16487455712E+04  0.12699999809E+01 0.  1.
</event>
<event>
 5   0  0.9197000E-07  0.2599835E+04  0.7818609E-02  0.8368257E-01
        3   -1    0    0  501    0  0.00000000000E+00  0.00000000000E+00  0.19974321633E+04  0.19974321658E+04  0.10100000352E+00 0. -1.
       -3   -1    0    0    0  501  0.00000000000E+00  0.00000000000E+00 -0.84597902751E+03  0.84597903353E+03  0.10100000352E+00 0.  1.
    10030    2    1    2    0    0  0.00000000000E+00  0.00000000000E+00  0.11514531357E+04  0.28434111993E+04  0.25998351726E+04 0.  0.
        3    1    3    3  502    0  0.94599557342E+03 -0.46260078930E+03 -0.25783281679E+03  0.10841516899E+04  0.10100000352E+00 0.  1.
       -3    1    3    3    0  502 -0.94599557342E+03  0.46260078930E+03  0.14092859525E+04  0.17592595094E+04  0.10100000352E+00 0. -1.
</event>
<event>
 5   0  0.1088757E-06  0.2587724E+04  0.7818609E-02  0.8372383E-01
        1   -1    0    0  501    0  0.00000000000E+00  0.00000000000E+00  0.28158690704E+04  0.28158690704E+04  0.50400001928E-02 0.  1.
       -1   -1    0    0    0  501  0.00000000000E+00  0.00000000000E+00 -0.59451594414E+03  0.59451594416E+03  0.50400001928E-02 0. -1.
    10030    2    1    2    0    0  0.00000000000E+00  0.00000000000E+00  0.22213531262E+04  0.34103850145E+04  0.25877241422E+04 0.  0.
        5    1    3    3  502    0  0.79144731497E+03  0.87428747370E+03  0.18121329851E+04  0.21620859106E+04  0.46999998093E+01 0.  1.
       -5    1    3    3    0  502 -0.79144731497E+03 -0.87428747370E+03  0.40922014113E+03  0.12482991040E+04  0.46999998093E+01 0. -1.
</event>
<event>
 5   0  0.2705807E-06  0.2596681E+04  0.7818609E-02  0.8369330E-01
       -2   -1    0    0    0  501  0.00000000000E+00  0.00000000000E+00  0.13036238924E+04  0.13036238924E+04  0.25500000920E-02 0. -1.
        2   -1    0    0  501    0  0.00000000000E+00  0.00000000000E+00 -0.12930781752E+04  0.12930781752E+04  0.25500000920E-02 0.  1.
    10030    2    1    2    0    0  0.00000000000E+00  0.00000000000E+00  0.10545717175E+02  0.25967020676E+04  0.25966806534E+04 0.  0.
        4    1    3    3  502    0 -0.10884105173E+04  0.70407789924E+03 -0.67685598927E+02  0.12980547352E+04  0.12699999809E+01 0. -1.
       -4    1    3    3    0  502  0.10884105173E+04 -0.70407789924E+03  0.78231316103E+02  0.12986473324E+04  0.12699999809E+01 0.  1.
</event>
<event>
 5   0  0.2586775E-06  0.2597407E+04  0.7818609E-02  0.8369083E-01
        2   -1    0    0  501    0  0.00000000000E+00  0.00000000000E+00  0.21329271406E+04  0.21329271406E+04  0.25500000920E-02 0.  1.
       -2   -1    0    0    0  501  0.00000000000E+00  0.00000000000E+00 -0.79075865677E+03  0.79075865678E+03  0.25500000920E-02 0. -1.
    10030    2    1    2    0    0  0.00000000000E+00  0.00000000000E+00  0.13421684839E+04  0.29236857974E+04  0.25974068613E+04 0.  0.
        1    1    3    3  502    0  0.12558357421E+04 -0.32154840929E+03  0.75909721325E+03  0.15022467740E+04  0.50400001928E-02 0. -1.
       -1    1    3    3    0  502 -0.12558357421E+04  0.32154840929E+03  0.58307127062E+03  0.14214390234E+04  0.50400001928E-02 0.  1.
</event>
<event>
 5   0  0.2746631E-06  0.2598943E+04  0.7818609E-02  0.8368560E-01
        2   -1    0    0  501    0  0.00000000000E+00  0.00000000000E+00  0.18335412530E+04  0.18335412530E+04  0.25500000920E-02 0.  1.
       -2   -1    0    0    0  501  0.00000000000E+00  0.00000000000E+00 -0.92096418301E+03  0.92096418301E+03  0.25500000920E-02 0. -1.
    10030    2    1    2    0    0  0.00000000000E+00  0.00000000000E+00  0.91257707000E+03  0.27545054360E+04  0.25989427251E+04 0.  0.
        2    1    3    3  502    0  0.88839370938E+03  0.50842955790E+03 -0.39218031461E+03  0.10961520868E+04  0.25500000920E-02 0. -1.
       -2    1    3    3    0  502 -0.88839370938E+03 -0.50842955790E+03  0.13047573846E+04  0.16583533492E+04  0.25500000920E-02 0.  1.
</event>
<event>
 5   0  0.2623368E-06  0.2603613E+04  0.7818609E-02  0.8366975E-01
       -2   -1    0    0    0  501  0.00000000000E+00  0.00000000000E+00  0.85480526984E+03  0.85480526984E+03  0.25500000920E-02 0.  1.
        2   -1    0    0  501    0  0.00000000000E+00  0.00000000000E+00 -0.19825576364E+04  0.19825576364E+04  0.25500000920E-02 0. -1.
    10030    2    1    2    0    0  0.00000000000E+00  0.00000000000E+00 -0.11277523666E+04  0.28373629062E+04  0.26036134240E+04 0.  0.
        5    1    3    3  502    0  0.87344270346E+03  0.69162545285E+03  0.16995108606E+03  0.11270108185E+04  0.46999998093E+01 0.  1.
       -5    1    3    3    0  502 -0.87344270346E+03 -0.69162545285E+03 -0.12977034526E+04  0.17103520878E+04  0.46999998093E+01 0. -1.
</event>
<event>
 5   0  0.2746631E-06  0.2621174E+04  0.7818609E-02  0.8361044E-01
        2   -1    0    0  501    0  0.00000000000E+00  0.00000000000E+00  0.28246039277E+04  0.28246039277E+04  0.25500000920E-02 0. -1.
       -2   -1    0    0    0  501  0.00000000000E+00  0.00000000000E+00 -0.60809876829E+03  0.60809876829E+03  0.25500000920E-02 0.  1.
    10030    2    1    2    0    0  0.00000000000E+00  0.00000000000E+00  0.22165051595E+04  0.34327026960E+04  0.26211739121E+04 0.  0.
        2    1    3    3  502    0  0.84038479242E+03 -0.90748726653E+03  0.16758699793E+04  0.20828633959E+04  0.25500000920E-02 0. -1.
       -2    1    3    3    0  502 -0.84038479242E+03  0.90748726653E+03  0.54063518012E+03  0.13498393002E+04  0.25500000920E-02 0.  1.
</event>
<event>
 5   0  0.1055179E-06  0.2599669E+04  0.7818609E-02  0.8368314E-01
        1   -1    0    0  501    0  0.00000000000E+00  0.00000000000E+00  0.17083567171E+04  0.17083567171E+04  0.50400001928E-02 0.  1.
       -1   -1    0    0    0  501  0.00000000000E+00  0.00000000000E+00 -0.98900310738E+03  0.98900310740E+03  0.50400001928E-02 0. -1.
    10030    2    1    2    0    0  0.00000000000E+00  0.00000000000E+00  0.71935360972E+03  0.26973598245E+04  0.25996692880E+04 0.  0.
        3    1    3    3  502    0 -0.43742379816E+03 -0.61613311547E+03  0.14570648538E+04  0.16413401822E+04  0.10100000352E+00 0.  1.
       -3    1    3    3    0  502  0.43742379816E+03  0.61613311547E+03 -0.73771124409E+03  0.10560196423E+04  0.10100000352E+00 0. -1.
</event>
<event>
 5   0  0.2586775E-06  0.2596680E+04  0.7818609E-02  0.8369330E-01
        2   -1    0    0  501    0  0.00000000000E+00  0.00000000000E+00  0.14615614633E+04  0.14615614633E+04  0.25500000920E-02 0.  1.
       -2   -1    0    0    0  501  0.00000000000E+00  0.00000000000E+00 -0.11533463983E+04  0.11533463983E+04  0.25500000920E-02 0. -1.
    10030    2    1    2    0    0  0.00000000000E+00  0.00000000000E+00  0.30821506497E+03  0.26149078616E+04  0.25966799184E+04 0.  0.
        1    1    3    3  502    0 -0.95643956004E+03  0.75009943441E+03 -0.30545201815E+03  0.12532863715E+04  0.50400001928E-02 0. -1.
       -1    1    3    3    0  502  0.95643956004E+03 -0.75009943441E+03  0.61366708312E+03  0.13616214902E+04  0.50400001928E-02 0.  1.
</event>
<event>
 5   0  0.1122628E-06  0.2600463E+04  0.7818609E-02  0.8368044E-01
       -1   -1    0    0    0  501  0.00000000000E+00  0.00000000000E+00  0.11375426022E+04  0.11375426023E+04  0.50400001928E-02 0. -1.
        1   -1    0    0  501    0  0.00000000000E+00  0.00000000000E+00 -0.14861882596E+04  0.14861882596E+04  0.50400001928E-02 0.  1.
    10030    2    1    2    0    0  0.00000000000E+00  0.00000000000E+00 -0.34864565737E+03  0.26237308619E+04  0.26004633897E+04 0.  0.
        2    1    3    3  502    0 -0.51934817506E+03 -0.41462316675E+03 -0.13018944044E+04  0.14616989901E+04  0.25500000920E-02 0.  1.
       -2    1    3    3    0  502  0.51934817506E+03  0.41462316675E+03  0.95324874704E+03  0.11620318718E+04  0.25500000920E-02 0. -1.
</event>
<event>
 5   0  0.1100104E-06  0.2607305E+04  0.7818609E-02  0.8365724E-01
       -1   -1    0    0    0  501  0.00000000000E+00  0.00000000000E+00  0.25277567968E+04  0.25277567969E+04  0.50400001928E-02 0.  1.
        1   -1    0    0  501    0  0.00000000000E+00  0.00000000000E+00 -0.67233889012E+03  0.67233889014E+03  0.50400001928E-02 0. -1.
    10030    2    1    2    0    0  0.00000000000E+00  0.00000000000E+00  0.18554179067E+04  0.32000956870E+04  0.26073045080E+04 0.  0.
        4    1    3    3  502    0 -0.62936532236E+03  0.57529861276E+03  0.21380346538E+04  0.23017956027E+04  0.12699999809E+01 0.  1.
       -4    1    3    3    0  502  0.62936532236E+03 -0.57529861276E+03 -0.28261674706E+03  0.89830008430E+03  0.12699999809E+01 0. -1.
</event>
<event>
 5   0  0.2820028E-06  0.2596659E+04  0.7818609E-02  0.8369337E-01
       -2   -1    0    0    0  501  0.00000000000E+00  0.00000000000E+00  0.11344236043E+04  0.11344236043E+04  0.25500000920E-02 0. -1.
        2   -1    0    0  501    0  0.00000000000E+00  0.00000000000E+00 -0.14859175955E+04  0.14859175955E+04  0.25500000920E-02 0.  1.
    10030    2    1    2    0    0  0.00000000000E+00  0.00000000000E+00 -0.35149399117E+03  0.26203411998E+04  0.25966593881E+04 0.  0.
        3    1    3    3  502    0 -0.29904875468E+03 -0.27743622923E+03  0.10680765211E+04  0.11433234381E+04  0.10100000352E+00 0. -1.
       -3    1    3    3    0  502  0.29904875468E+03  0.27743622923E+03 -0.14195705123E+04  0.14770177617E+04  0.10100000352E+00 0.  1.
</event>
<event>
 5   0  0.2623368E-06  0.2601288E+04  0.7818609E-02  0.8367764E-01
       -2   -1    0    0    0  501  0.00000000000E+00  0.00000000000E+00  0.11564733136E+04  0.11564733136E+04  0.25500000920E-02 0.  1.
        2   -1    0    0  501    0  0.00000000000E+00  0.00000000000E+00 -0.14627875128E+04  0.14627875128E+04  0.25500000920E-02 0. -1.
    10030    2    1    2    0    0  0.00000000000E+00  0.00000000000E+00 -0.30631419919E+03  0.26192608264E+04  0.26012879288E+04 0.  0.
        5    1    3    3  502    0  0.57060415568E+03 -0.44856985197E+03  0.93358143356E+03  0.11825398081E+04  0.46999998093E+01 0.  1.
       -5    1    3    3    0  502 -0.57060415568E+03  0.44856985197E+03 -0.12398956327E+04  0.14367210184E+04  0.46999998093E+01 0. -1.
</event>
<event>
 5   0  0.9197000E-07  0.2598985E+04  0.7818609E-02  0.8368546E-01
        3   -1    0    0  501    0  0.00000000000E+00  0.00000000000E+00  0.17175455786E+04  0.17175455816E+04  0.10100000352E+00 0. -1.
       -3   -1    0    0    0  501  0.00000000000E+00  0.00000000000E+00 -0.98319380413E+03  0.98319380932E+03  0.10100000352E+00 0.  1.
    10030    2    1    2    0    0  0.00000000000E+00  0.00000000000E+00  0.73435177450E+03  0.27007393909E+04  0.25989845573E+04 0.  0.
        1    1    3    3  502    0 -0.20351730272E+03 -0.11418808256E+04 -0.24174316926E+03  0.11847999292E+04  0.50400001928E-02 0. -1.
       -1    1    3    3    0  502  0.20351730272E+03  0.11418808256E+04  0.97609494376E+03  0.15159394617E+04  0.50400001928E-02 0.  1.
</event>
<event>
 5   0  0.2623368E-06  0.2560641E+04  0.7818609E-02  0.8381695E-01
        2   -1    0    0  501    0  0.00000000000E+00  0.00000000000E+00  0.19346055452E+04  0.19346055453E+04  0.25500000920E-02 0. -1.
       -2   -1    0    0    0  501  0.00000000000E+00  0.00000000000E+00 -0.84731486070E+03  0.84731486070E+03  0.25500000920E-02 0.  1.
    10030    2    1    2    0    0  0.00000000000E+00  0.00000000000E+00  0.10872906846E+04  0.27819204060E+04  0.25606405668E+04 0.  0.
        5    1    3    3  502    0 -0.10100687213E+04  0.15837415186E+03 -0.29358360984E+03  0.10637361607E+04  0.46999998093E+01 0.  1.
       -5    1    3    3    0  502  0.10100687213E+04 -0.15837415186E+03  0.13808742944E+04  0.17181842452E+04  0.46999998093E+01 0. -1.
</event>
<event>
 5   0  0.2586775E-06  0.2600028E+04  0.7818609E-02  0.8368192E-01
       -2   -1    0    0    0  501  0.00000000000E+00  0.00000000000E+00  0.13841082618E+04  0.13841082618E+04  0.25500000920E-02 0.  1.
        2   -1    0    0  501    0  0.00000000000E+00  0.00000000000E+00 -0.12210294129E+04  0.12210294129E+04  0.25500000920E-02 0. -1.
    10030    2    1    2    0    0  0.00000000000E+00  0.00000000000E+00  0.16307884895E+03  0.26051376747E+04  0.26000283831E+04 0.  0.
        1    1    3    3  502    0  0.12666054965E+04  0.81428463580E+02  0.36336928241E+03  0.13202110868E+04  0.50400001928E-02 0.  1.
       -1    1    3    3    0  502 -0.12666054965E+04 -0.81428463580E+02 -0.20029043346E+03  0.12849265878E+04  0.50400001928E-02 0. -1.
</event>
<event>
 5   0  0.1100104E-06  0.2603841E+04  0.7818609E-02  0.8366898E-01
        1   -1    0    0  501    0  0.00000000000E+00  0.00000000000E+00  0.16208266964E+04  0.16208266964E+04  0.50400001928E-02 0.  1.
       -1   -1    0    0    0  501  0.00000000000E+00  0.00000000000E+00 -0.10457605384E+04  0.10457605384E+04  0.50400001928E-02 0. -1.
    10030    2    1    2    0    0  0.00000000000E+00  0.00000000000E+00  0.57506615801E+03  0.26665872349E+04  0.26038407008E+04 0.  0.
        4    1    3    3  502    0 -0.34946149696E+00 -0.87569922133E+03  0.12741520725E+04  0.15460641530E+04  0.12699999809E+01 0.  1.
       -4    1    3    3    0  502  0.34946149696E+00  0.87569922133E+03 -0.69908591447E+03  0.11205230819E+04  0.12699999809E+01 0. -1.
</event>
<event>
 5   0  0.1088757E-06  0.2581171E+04  0.7818609E-02  0.8374625E-01
        1   -1    0    0  501    0  0.00000000000E+00  0.00000000000E+00  0.11829034887E+04  0.11829034887E+04  0.50400001928E-02 0. -1.
       -1   -1    0    0    0  501  0.00000000000E+00  0.00000000000E+00 -0.14080703744E+04  0.14080703744E+04  0.50400001928E-02 0.  1.
    10030    2    1    2    0    0  0.00000000000E+00  0.00000000000E+00 -0.22516688576E+03  0.25909738631E+04  0.25811713296E+04 0.  0.
        5    1    3    3  502    0 -0.10870882993E+03 -0.36461787084E+03 -0.13504843683E+04  0.14030659003E+04  0.46999998093E+01 0.  1.
       -5    1    3    3    0  502  0.10870882993E+03  0.36461787084E+03  0.11253174826E+04  0.11879079628E+04  0.46999998093E+01 0. -1.
</event>
<event>
 5   0  0.2623368E-06  0.2597452E+04  0.7818609E-02  0.8369067E-01
        2   -1    0    0  501    0  0.00000000000E+00  0.00000000000E+00  0.90045850272E+03  0.90045850272E+03  0.25500000920E-02 0. -1.
       -2   -1    0    0    0  501  0.00000000000E+00  0.00000000000E+00 -0.18731453745E+04  0.18731453745E+04  0.25500000920E-02 0.  1.
    10030    2    1    2    0    0  0.00000000000E+00  0.00000000000E+00 -0.97268687182E+03  0.27736038773E+04  0.25974523513E+04 0.  0.
        5    1    3    3  502    0 -0.41199002512E+03 -0.50480225548E+02  0.82771533337E+03  0.92596911237E+03  0.46999998093E+01 0. -1.
       -5    1    3    3    0  502  0.41199002512E+03  0.50480225548E+02 -0.18004022052E+04  0.18476347649E+04  0.46999998093E+01 0.  1.
</event>
<event>
 5   0  0.2746631E-06  0.2595210E+04  0.7818609E-02  0.8369830E-01
       -2   -1    0    0    0  501  0.00000000000E+00  0.00000000000E+00  0.96096696042E+03  0.96096696043E+03  0.25500000920E-02 0. -1.
        2   -1    0    0  501    0  0.00000000000E+00  0.00000000000E+00 -0.17521718671E+04  0.17521718671E+04  0.25500000920E-02 0.  1.
    10030    2    1    2    0    0  0.00000000000E+00  0.00000000000E+00 -0.79120490668E+03  0.27131388275E+04  0.25952104140E+04 0.  0.
        2    1    3    3  502    0  0.10650240581E+04  0.72648114510E+03 -0.24149946400E+03  0.13116299363E+04  0.25500000920E-02 0. -1.
       -2    1    3    3    0  502 -0.10650240581E+04 -0.72648114510E+03 -0.54970544268E+03  0.14015088913E+04  0.25500000920E-02 0.  1.
</event>
<event>
 5   0  0.2820028E-06  0.2577900E+04  0.7818609E-02  0.8375747E-01
        2   -1    0    0  501    0  0.00000000000E+00  0.00000000000E+00  0.16090456509E+04  0.16090456509E+04  0.25500000920E-02 0.  1.
       -2   -1    0    0    0  501  0.00000000000E+00  0.00000000000E+00 -0.10325327714E+04  0.10325327714E+04  0.25500000920E-02 0. -1.
    10030    2    1    2    0    0  0.00000000000E+00  0.00000000000E+00  0.57651287954E+03  0.26415784223E+04  0.25779002039E+04 0.  0.
        3    1    3    3  502    0  0.10816412422E+04 -0.69650268313E+03  0.36977395088E+03  0.13385800497E+04  0.10100000352E+00 0.  1.
       -3    1    3    3    0  502 -0.10816412422E+04  0.69650268313E+03  0.20673892866E+03  0.13029983727E+04  0.10100000352E+00 0. -1.
</event>
<event>
 5   0  0.1032076E-06  0.2602091E+04  0.7818609E-02  0.8367491E-01
       -1   -1    0    0    0  501  0.00000000000E+00  0.00000000000E+00  0.16417901254E+04  0.16417901254E+04  0.50400001928E-02 0. -1.
        1   -1    0    0  501    0  0.00000000000E+00  0.00000000000E+00 -0.10310208921E+04  0.10310208921E+04  0.50400001928E-02 0.  1.
    10030    2    1    2    0    0  0.00000000000E+00  0.00000000000E+00  0.61076923328E+03  0.26728110175E+04  0.26020914048E+04 0.  0.
        1    1    3    3  502    0 -0.76173070599E+02 -0.12888001991E+04  0.47073037942E+03  0.13741889899E+04  0.50400001928E-02 0.  1.
       -1    1    3    3    0  502  0.76173070599E+02  0.12888001991E+04  0.14003885386E+03  0.12986220276E+04  0.50400001928E-02 0. -1.
</event>
<event>
 5   0  0.2820028E-06  0.2594108E+04  0.7818609E-02  0.8370205E-01
        2   -1    0    0  501    0  0.00000000000E+00  0.00000000000E+00  0.23705902669E+04  0.23705902669E+04  0.25500000920E-02 0.  1.
       -2   -1    0    0    0  501  0.00000000000E+00  0.00000000000E+00 -0.70967502992E+03  0.70967502993E+03  0.25500000920E-02 0. -1.
    10030    2    1    2    0    0  0.00000000000E+00  0.00000000000E+00  0.16609152370E+04  0.30802652969E+04  0.25941077222E+04 0.  0.
        3    1    3    3  502    0  0.96973794088E+03  0.52035326273E+03  0.15381955232E+02  0.11006342748E+04  0.10100000352E+00 0. -1.
       -3    1    3    3    0  502 -0.96973794088E+03 -0.52035326273E+03  0.16455332818E+04  0.19796310221E+04  0.10100000352E+00 0.  1.
</event>
<event>
 5   0  0.2623368E-06  0.2545242E+04  0.7818609E-02  0.8387043E-01
        2   -1    0    0  501    0  0.00000000000E+00  0.00000000000E+00  0.23108037831E+04  0.23108037831E+04  0.25500000920E-02 0. -1.
       -2   -1    0    0    0  501  0.00000000000E+00  0.00000000000E+00 -0.70086607886E+03  0.70086607887E+03  0.25500000920E-02 0.  1.
    10030    2    1    2    0    0  0.00000000000E+00  0.00000000000E+00  0.16099377043E+04  0.30116698620E+04  0.25452418247E+04 0.  0.
        5    1    3    3  502    0  0.72348820048E+03 -0.98015663780E+03  0.36957014026E+03  0.12730853818E+04  0.46999998093E+01 0.  1.
       -5    1    3    3    0  502 -0.72348820048E+03  0.98015663780E+03  0.12403675640E+04  0.17385844802E+04  0.46999998093E+01 0. -1.
</event>
<event>
 5   0  0.1032076E-06  0.2624541E+04  0.7818609E-02  0.8359913E-01
        1   -1    0    0  501    0  0.00000000000E+00  0.00000000000E+00  0.15035113899E+04  0.15035113899E+04  0.50400001928E-02 0. -1.
       -1   -1    0    0    0  501  0.00000000000E+00  0.00000000000E+00 -0.11453545047E+04  0.11453545047E+04  0.50400001928E-02 0.  1.
    10030    2    1    2    0    0  0.00000000000E+00  0.00000000000E+00  0.35815688523E+03  0.26488658946E+04  0.26245407547E+04 0.  0.
        1    1    3    3  502    0  0.84857926223E+03 -0.98240526663E+02  0.11844614836E+04  0.14603722031E+04  0.50400001928E-02 0. -1.
       -1    1    3    3    0  502 -0.84857926223E+03  0.98240526663E+02 -0.82630459840E+03  0.11884936915E+04  0.50400001928E-02 0.  1.
</event>
<event>
 5   0  0.1122628E-06  0.2600472E+04  0.7818609E-02  0.8368041E-01
       -1   -1    0    0    0  501  0.00000000000E+00  0.00000000000E+00  0.18747199979E+04  0.18747199979E+04  0.50400001928E-02 0. -1.
        1   -1    0    0  501    0  0.00000000000E+00  0.00000000000E+00 -0.90179536546E+03  0.90179536547E+03  0.50400001928E-02 0.  1.
    10030    2    1    2    0    0  0.00000000000E+00  0.00000000000E+00  0.97292463243E+03  0.27765153634E+04  0.26004721153E+04 0.  0.
        2    1    3    3  502    0  0.47767743685E+03  0.99799645429E+02 -0.80031286722E+03  0.93735606274E+03  0.25500000920E-02 0.  1.
       -2    1    3    3    0  502 -0.47767743685E+03 -0.99799645429E+02  0.17732374997E+04  0.18391593006E+04  0.25500000920E-02 0. -1.
</event>
<event>
 5   0  0.2705807E-06  0.2598414E+04  0.7818609E-02  0.8368740E-01
       -2   -1    0    0    0  501  0.00000000000E+00  0.00000000000E+00  0.13529760545E+04  0.13529760545E+04  0.25500000920E-02 0. -1.
        2   -1    0    0  501    0  0.00000000000E+00  0.00000000000E+00 -0.12475747625E+04  0.12475747625E+04  0.25500000920E-02 0.  1.
    10030    2    1    2    0    0  0.00000000000E+00  0.00000000000E+00  0.10540129196E+03  0.26005508170E+04  0.25984139623E+04 0.  0.
        4    1    3    3  502    0 -0.37581099207E+03  0.58976258765E+02 -0.11905870562E+04  0.12498844955E+04  0.12699999809E+01 0.  1.
       -4    1    3    3    0  502  0.37581099207E+03 -0.58976258765E+02  0.12959883481E+04  0.13506663216E+04  0.12699999809E+01 0. -1.
</event>
<event>
 5   0  0.2705807E-06  0.2597734E+04  0.7818609E-02  0.8368971E-01
        2   -1    0    0  501    0  0.00000000000E+00  0.00000000000E+00  0.18607001557E+04  0.18607001557E+04  0.25500000920E-02 0. -1.
       -2   -1    0    0    0  501  0.00000000000E+00  0.00000000000E+00 -0.90667763024E+03  0.90667763024E+03  0.25500000920E-02 0.  1.
    10030    2    1    2    0    0  0.00000000000E+00  0.00000000000E+00  0.95402252549E+03  0.27673777860E+04  0.25977337876E+04 0.  0.
        4    1    3    3  502    0  0.60232639151E+03 -0.10123949876E+04 -0.10581152832E+03  0.11827672574E+04  0.12699999809E+01 0.  1.
       -4    1    3    3    0  502 -0.60232639151E+03  0.10123949876E+04  0.10598340538E+04  0.15846105286E+04  0.12699999809E+01 0. -1.
</event>
<event>
 5   0  0.2746631E-06  0.2598796E+04  0.7818609E-02  0.8368610E-01
       -2   -1    0    0    0  501  0.00000000000E+00  0.00000000000E+00  0.12301344922E+04  0.12301344922E+04  0.25500000920E-02 0. -1.
        2   -1    0    0  501    0  0.00000000000E+00  0.00000000000E+00 -0.13725618519E+04  0.13725618519E+04  0.25500000920E-02 0.  1.
    10030    2    1    2    0    0  0.00000000000E+00  0.00000000000E+00 -0.14242735972E+03  0.26026963441E+04  0.25987963958E+04 0.  0.
        2    1    3    3  502    0  0.36283406146E+03  0.92418892621E+03 -0.91072095548E+03  0.13472885312E+04  0.25500000920E-02 0.  1.
       -2    1    3    3    0  502 -0.36283406146E+03 -0.92418892621E+03  0.76829359576E+03  0.12554078129E+04  0.25500000920E-02 0. -1.
</event>
<event>
 5   0  0.2586775E-06  0.2600451E+04  0.7818609E-02  0.8368048E-01
        2   -1    0    0  501    0  0.00000000000E+00  0.00000000000E+00  0.22482890085E+04  0.22482890085E+04  0.25500000920E-02 0. -1.
       -2   -1    0    0    0  501  0.00000000000E+00  0.00000000000E+00 -0.75194351849E+03  0.75194351849E+03  0.25500000920E-02 0.  1.
    10030    2    1    2    0    0  0.00000000000E+00  0.00000000000E+00  0.14963454900E+04  0.30002325270E+04  0.26004509975E+04 0.  0.
        1    1    3    3  502    0  0.46609940459E+03  0.10449323105E+04  0.35602935497E+02  0.11447269358E+04  0.50400001928E-02 0.  1.
       -1    1    3    3    0  502 -0.46609940459E+03 -0.10449323105E+04  0.14607425545E+04  0.18555055912E+04  0.50400001928E-02 0. -1.
</event>
<event>
 5   0  0.2705807E-06  0.2598749E+04  0.7818609E-02  0.8368626E-01
       -2   -1    0    0    0  501  0.00000000000E+00  0.00000000000E+00  0.87313250010E+03  0.87313250011E+03  0.25500000920E-02 0.  1.
        2   -1    0    0  501    0  0.00000000000E+00  0.00000000000E+00 -0.19336970897E+04  0.19336970897E+04  0.25500000920E-02 0. -1.
    10030    2    1    2    0    0  0.00000000000E+00  0.00000000000E+00 -0.10605645896E+04  0.28068295899E+04  0.25987487562E+04 0.  0.
        4    1    3    3  502    0 -0.29853086736E+03 -0.90144817601E+03 -0.14882271329E+04  0.17653756271E+04  0.12699999809E+01 0. -1.
       -4    1    3    3    0  502  0.29853086736E+03  0.90144817601E+03  0.42766254322E+03  0.10414539628E+04  0.12699999809E+01 0.  1.
</event>
<event>
 5   0  0.2820028E-06  0.2601628E+04  0.7818609E-02  0.8367648E-01
       -2   -1    0    0    0  501  0.00000000000E+00  0.00000000000E+00  0.84872641004E+03  0.84872641005E+03  0.25500000920E-02 0. -1.
        2   -1    0    0  501    0  0.00000000000E+00  0.00000000000E+00 -0.19937130234E+04  0.19937130234E+04  0.25500000920E-02 0.  1.
    10030    2    1    2    0    0  0.00000000000E+00  0.00000000000E+00 -0.11449866134E+04  0.28424394335E+04  0.26016278727E+04 0.  0.
        3    1    3    3  502    0  0.36256514561E+03 -0.21508318597E+02 -0.19371904740E+04  0.19709447063E+04  0.10100000352E+00 0.  1.
       -3    1    3    3    0  502 -0.36256514561E+03  0.21508318597E+02  0.79220386059E+03  0.87149472719E+03  0.10100000352E+00 0. -1.
</event>
<event>
 5   0  0.1055179E-06  0.2588420E+04  0.7818609E-02  0.8372145E-01
        1   -1    0    0  501    0  0.00000000000E+00  0.00000000000E+00  0.14418149865E+04  0.14418149866E+04  0.50400001928E-02 0.  1.
       -1   -1    0    0    0  501  0.00000000000E+00  0.00000000000E+00 -0.11617162854E+04  0.11617162855E+04  0.50400001928E-02 0. -1.
    10030    2    1    2    0    0  0.00000000000E+00  0.00000000000E+00  0.28009870110E+03  0.26035312720E+04  0.25884203295E+04 0.  0.
        3    1    3    3  502    0 -0.78682938174E+02 -0.11320812466E+04  0.76592060813E+03  0.13690994638E+04  0.10100000352E+00 0.  1.
       -3    1    3    3    0  502  0.78682938174E+02  0.11320812466E+04 -0.48582190703E+03  0.12344318082E+04  0.10100000352E+00 0. -1.
</event>
<event>
 5   0  0.1055179E-06  0.2602432E+04  0.7818609E-02  0.8367375E-01
       -1   -1    0    0    0  501  0.00000000000E+00  0.00000000000E+00  0.13646305156E+04  0.13646305156E+04  0.50400001928E-02 0.  1.
        1   -1    0    0  501    0  0.00000000000E+00  0.00000000000E+00 -0.12407486417E+04  0.12407486417E+04  0.50400001928E-02 0. -1.
    10030    2    1    2    0    0  0.00000000000E+00  0.00000000000E+00  0.12388187386E+03  0.26053791573E+04  0.26024322921E+04 0.  0.
        3    1    3    3  502    0  0.16847357820E+03  0.10630488891E+04  0.79400568726E+03  0.13374981603E+04  0.10100000352E+00 0.  1.
       -3    1    3    3    0  502 -0.16847357820E+03 -0.10630488891E+04 -0.67012381341E+03  0.12678809970E+04  0.10100000352E+00 0. -1.
</event>
<event>
 5   0  0.1100104E-06  0.2606950E+04  0.7818609E-02  0.8365844E-01
        1   -1    0    0  501    0  0.00000000000E+00  0.00000000000E+00  0.17120249764E+04  0.17120249764E+04  0.50400001928E-02 0. -1.
       -1   -1    0    0    0  501  0.00000000000E+00  0.00000000000E+00 -0.99241949035E+03  0.99241949036E+03  0.50400001928E-02 0.  1.
    10030    2    1    2    0    0  0.00000000000E+00  0.00000000000E+00  0.71960548606E+03  0.27044444668E+04  0.26069499071E+04 0.  0.
        4    1    3    3  502    0 -0.12372236595E+03 -0.12930302935E+04  0.24706102906E+03  0.13222236304E+04  0.12699999809E+01 0. -1.
       -4    1    3    3    0  502  0.12372236595E+03  0.12930302935E+04  0.47254445699E+03  0.13822208364E+04  0.12699999809E+01 0.  1.
</event>
<event>
 5   0  0.1032076E-06  0.2598514E+04  0.7818609E-02  0.8368706E-01
        1   -1    0    0  501    0  0.00000000000E+00  0.00000000000E+00  0.16750574379E+04  0.16750574379E+04  0.50400001928E-02 0.  1.
       -1   -1    0    0    0  501  0.00000000000E+00  0.00000000000E+00 -0.10077673720E+04  0.10077673720E+04  0.50400001928E-02 0. -1.
    10030    2    1    2    0    0  0.00000000000E+00  0.00000000000E+00  0.66729006584E+03  0.26828248099E+04  0.25985135999E+04 0.  0.
        1    1    3    3  502    0 -0.65672818983E+03  0.72606382511E+03  0.12155301347E+04  0.15607607446E+04  0.50400001928E-02 0.  1.
       -1    1    3    3    0  502  0.65672818983E+03 -0.72606382511E+03 -0.54824006891E+03  0.11220640653E+04  0.50400001928E-02 0. -1.
</event>
<event>
 5   0  0.2586775E-06  0.2600727E+04  0.7818609E-02  0.8367954E-01
        2   -1    0    0  501    0  0.00000000000E+00  0.00000000000E+00  0.13402944730E+04  0.13402944730E+04  0.25500000920E-02 0.  1.
       -2   -1    0    0    0  501  0.00000000000E+00  0.00000000000E+00 -0.12616225415E+04  0.12616225415E+04  0.25500000920E-02 0. -1.
    10030    2    1    2    0    0  0.00000000000E+00  0.00000000000E+00  0.78671931433E+02  0.26019170145E+04  0.26007273747E+04 0.  0.
        1    1    3    3  502    0  0.39833724381E+03  0.11033954773E+04 -0.52198358119E+03  0.12839863699E+04  0.50400001928E-02 0. -1.
       -1    1    3    3    0  502 -0.39833724381E+03 -0.11033954773E+04  0.60065551262E+03  0.13179306446E+04  0.50400001928E-02 0.  1.
</event>
<event>
 5   0  0.2705807E-06  0.2601345E+04  0.7818609E-02  0.8367744E-01
        2   -1    0    0  501    0  0.00000000000E+00  0.00000000000E+00  0.15092585255E+04  0.15092585255E+04  0.25500000920E-02 0.  1.
       -2   -1    0    0    0  501  0.00000000000E+00  0.00000000000E+00 -0.11209142853E+04  0.11209142853E+04  0.25500000920E-02 0. -1.
    10030    2    1    2    0    0  0.00000000000E+00  0.00000000000E+00  0.38834424016E+03  0.26301728108E+04  0.26013453761E+04 0.  0.
        4    1    3    3  502    0  0.11166434943E+04 -0.52218785785E+03  0.61371010045E+03  0.13770310645E+04  0.12699999809E+01 0.  1.
       -4    1    3    3    0  502 -0.11166434943E+04  0.52218785785E+03 -0.22536586029E+03  0.12531417463E+04  0.12699999809E+01 0. -1.
</event>
<event>
 5   0  0.2746631E-06  0.2601036E+04  0.7818609E-02  0.8367849E-01
       -2   -1    0    0    0  501  0.00000000000E+00  0.00000000000E+00  0.11108112319E+04  0.11108112319E+04  0.25500000920E-02 0.  1.
        2   -1    0    0  501    0  0.00000000000E+00  0.00000000000E+00 -0.15226230927E+04  0.15226230927E+04  0.25500000920E-02 0. -1.
    10030    2    1    2    0    0  0.00000000000E+00  0.00000000000E+00 -0.41181186080E+03  0.26334343247E+04  0.26010358194E+04 0.  0.
        2    1    3    3  502    0  0.70443540696E+03 -0.26969474840E+03  0.86671574788E+03  0.11489824574E+04  0.25500000920E-02 0.  1.
       -2    1    3    3    0  502 -0.70443540696E+03  0.26969474840E+03 -0.12785276087E+04  0.14844518672E+04  0.25500000920E-02 0. -1.
</event>
<event>
 5   0  0.1088757E-06  0.2606543E+04  0.7818609E-02  0.8365982E-01
        1   -1    0    0  501    0  0.00000000000E+00  0.00000000000E+00  0.15705603417E+04  0.15705603417E+04  0.50400001928E-02 0.  1.
       -1   -1    0    0    0  501  0.00000000000E+00  0.00000000000E+00 -0.10814719500E+04  0.10814719500E+04  0.50400001928E-02 0. -1.
    10030    2    1    2    0    0  0.00000000000E+00  0.00000000000E+00  0.48908839173E+03  0.26520322918E+04  0.26065432706E+04 0.  0.
        5    1    3    3  502    0  0.80795228077E+03 -0.99464876040E+03  0.29517128188E+01  0.12814616058E+04  0.46999998093E+01 0.  1.
       -5    1    3    3    0  502 -0.80795228077E+03  0.99464876040E+03  0.48613667891E+03  0.13705706859E+04  0.46999998093E+01 0. -1.
</event>
<event>
 5   0  0.1055179E-06  0.2601218E+04  0.7818609E-02  0.8367788E-01
       -1   -1    0    0    0  501  0.00000000000E+00  0.00000000000E+00  0.78319582851E+03  0.78319582853E+03  0.50400001928E-02 0.  1.
        1   -1    0    0  501    0  0.00000000000E+00  0.00000000000E+00 -0.21598471663E+04  0.21598471663E+04  0.50400001928E-02 0. -1.
    10030    2    1    2    0    0  0.00000000000E+00  0.00000000000E+00 -0.13766513377E+04  0.29430429948E+04  0.26012176309E+04 0.  0.
        3    1    3    3  502    0  0.63678852032E+03 -0.87126010753E+03  0.13301039601E+03  0.10873295592E+04  0.10100000352E+00 0.  1.
       -3    1    3    3    0  502 -0.63678852032E+03  0.87126010753E+03 -0.15096617337E+04  0.18557134356E+04  0.10100000352E+00 0. -1.
</event>
<event>
 5   0  0.2586775E-06  0.2605526E+04  0.7818609E-02  0.8366326E-01
       -2   -1    0    0    0  501  0.00000000000E+00  0.00000000000E+00  0.10133624690E+04  0.10133624690E+04  0.25500000920E-02 0. -1.
        2   -1    0    0  501    0  0.00000000000E+00  0.00000000000E+00 -0.16748123279E+04  0.16748123279E+04  0.25500000920E-02 0.  1.
    10030    2    1    2    0    0  0.00000000000E+00  0.00000000000E+00 -0.66144985893E+03  0.26881747969E+04  0.26055264004E+04 0.  0.
        1    1    3    3  502    0 -0.68773606271E+03  0.76168458443E+03 -0.11587071851E+04  0.15478199633E+04  0.50400001928E-02 0.  1.
       -1    1    3    3    0  502  0.68773606271E+03 -0.76168458443E+03  0.49725732615E+03  0.11403548336E+04  0.50400001928E-02 0. -1.
</event>
<event>
 5   0  0.1100104E-06  0.2598954E+04  0.7818609E-02  0.8368556E-01
       -1   -1    0    0    0  501  0.00000000000E+00  0.00000000000E+00  0.70390371293E+03  0.70390371295E+03  0.50400001928E-02 0. -1.
        1   -1    0    0  501    0  0.00000000000E+00  0.00000000000E+00 -0.23989660524E+04  0.23989660524E+04  0.50400001928E-02 0.  1.
    10030    2    1    2    0    0  0.00000000000E+00  0.00000000000E+00 -0.16950623394E+04  0.31028697653E+04  0.25989544909E+04 0.  0.
        4    1    3    3  502    0 -0.35202340572E+03  0.11818870433E+04 -0.13366801106E+04  0.18186513664E+04  0.12699999809E+01 0.  1.
       -4    1    3    3    0  502  0.35202340572E+03 -0.11818870433E+04 -0.35838222878E+03  0.12842183989E+04  0.12699999809E+01 0. -1.
</event>
<event>
 5   0  0.1055179E-06  0.2604099E+04  0.7818609E-02  0.8366810E-01
       -1   -1    0    0    0  501  0.00000000000E+00  0.00000000000E+00  0.14279562317E+04  0.14279562317E+04  0.50400001928E-02 0. -1.
        1   -1    0    0  501    0  0.00000000000E+00  0.00000000000E+00 -0.11872442241E+04  0.11872442241E+04  0.50400001928E-02 0.  1.
    10030    2    1    2    0    0  0.00000000000E+00  0.00000000000E+00  0.24071200756E+03  0.26152004558E+04  0.26040989139E+04 0.  0.
        3    1    3    3  502    0  0.71935731438E+02  0.95849172555E+03 -0.76171157680E+03  0.12264117065E+04  0.10100000352E+00 0.  1.
       -3    1    3    3    0  502 -0.71935731438E+02 -0.95849172555E+03  0.10024235844E+04  0.13887887493E+04  0.10100000352E+00 0. -1.
</event>
<event>
 5   0  0.1032076E-06  0.2538104E+04  0.7818609E-02  0.8389535E-01
       -1   -1    0    0    0  501  0.00000000000E+00  0.00000000000E+00  0.12606669436E+04  0.12606669436E+04  0.50400001928E-02 0. -1.
        1   -1    0    0  501    0  0.00000000000E+00  0.00000000000E+00 -0.12774931066E+04  0.12774931067E+04  0.50400001928E-02 0.  1.
    10030    2    1    2    0    0  0.00000000000E+00  0.00000000000E+00 -0.16826163018E+02  0.25381600503E+04  0.25381042770E+04 0.  0.
        1    1    3    3  502    0  0.75655253589E+03  0.97390507466E+03  0.29097702427E+03  0.12670952856E+04  0.50400001928E-02 0. -1.
       -1    1    3    3    0  502 -0.75655253589E+03 -0.97390507466E+03 -0.30780318729E+03  0.12710647647E+04  0.50400001928E-02 0.  1.
</event>
<event>
 5   0  0.1088757E-06  0.2583274E+04  0.7818609E-02  0.8373905E-01
        1   -1    0    0  501    0  0.00000000000E+00  0.00000000000E+00  0.11786913356E+04  0.11786913356E+04  0.50400001928E-02 0. -1.
       -1   -1    0    0    0  501  0.00000000000E+00  0.00000000000E+00 -0.14154058178E+04  0.14154058178E+04  0.50400001928E-02 0.  1.
    10030    2    1    2    0    0  0.00000000000E+00  0.00000000000E+00 -0.23671448226E+03  0.25940971534E+04  0.25832743361E+04 0.  0.
        5    1    3    3  502    0  0.49071772050E+03  0.10795570699E+04 -0.63241711169E+03  0.13439571576E+04  0.46999998093E+01 0. -1.
       -5    1    3    3    0  502 -0.49071772050E+03 -0.10795570699E+04  0.39570262943E+03  0.12501399958E+04  0.46999998093E+01 0.  1.
</event>
<event>
 5   0  0.1055179E-06  0.2616038E+04  0.7818609E-02  0.8362774E-01
        1   -1    0    0  501    0  0.00000000000E+00  0.00000000000E+00  0.15425723762E+04  0.15425723762E+04  0.50400001928E-02 0.  1.
       -1   -1    0    0    0  501  0.00000000000E+00  0.00000000000E+00 -0.11091305260E+04  0.11091305260E+04  0.50400001928E-02 0. -1.
    10030    2    1    2    0    0  0.00000000000E+00  0.00000000000E+00  0.43344185020E+03  0.26517029023E+04  0.26160383110E+04 0.  0.
        3    1    3    3  502    0 -0.76321534759E+03  0.62413269057E+02  0.12916122373E+04  0.15015509530E+04  0.10100000352E+00 0.  1.
       -3    1    3    3    0  502  0.76321534759E+03 -0.62413269057E+02 -0.85817038706E+03  0.11501519493E+04  0.10100000352E+00 0. -1.
</event>
<event>
 5   0  0.2705807E-06  0.2599891E+04  0.7818609E-02  0.8368238E-01
        2   -1    0    0  501    0  0.00000000000E+00  0.00000000000E+00  0.21632870654E+04  0.21632870654E+04  0.25500000920E-02 0. -1.
       -2   -1    0    0    0  501  0.00000000000E+00  0.00000000000E+00 -0.78115285833E+03  0.78115285833E+03  0.25500000920E-02 0.  1.
    10030    2    1    2    0    0  0.00000000000E+00  0.00000000000E+00  0.13821342071E+04  0.29444399238E+04  0.25998906704E+04 0.  0.
        4    1    3    3  502    0  0.10184798222E+03  0.64619861445E+03 -0.58115198205E+03  0.87503422787E+03  0.12699999809E+01 0.  1.
       -4    1    3    3    0  502 -0.10184798222E+03 -0.64619861445E+03  0.19632861891E+04  0.20694056959E+04  0.12699999809E+01 0. -1.
</event>
<event>
 5   0  0.2586775E-06  0.2605595E+04  0.7818609E-02  0.8366303E-01
       -2   -1    0    0    0  501  0.00000000000E+00  0.00000000000E+00  0.87415723013E+03  0.87415723013E+03  0.25500000920E-02 0. -1.
        2   -1    0    0  501    0  0.00000000000E+00  0.00000000000E+00 -0.19416203521E+04  0.19416203521E+04  0.25500000920E-02 0.  1.
    10030    2    1    2    0    0  0.00000000000E+00  0.00000000000E+00 -0.10674631220E+04  0.28157775823E+04  0.26055951098E+04 0.  0.
        1    1    3    3  502    0  0.29129683198E+03  0.12699715859E+02 -0.19059075335E+04  0.19280815993E+04  0.50400001928E-02 0.  1.
       -1    1    3    3    0  502 -0.29129683198E+03 -0.12699715859E+02  0.83844441148E+03  0.88769598302E+03  0.50400001928E-02 0. -1.
</event>
<event>
 5   0  0.1100104E-06  0.2635672E+04  0.7818609E-02  0.8356184E-01
       -1   -1    0    0    0  501  0.00000000000E+00  0.00000000000E+00  0.26985006020E+04  0.26985006020E+04  0.50400001928E-02 0.  1.
        1   -1    0    0  501    0  0.00000000000E+00  0.00000000000E+00 -0.64357662377E+03  0.64357662379E+03  0.50400001928E-02 0. -1.
    10030    2    1    2    0    0  0.00000000000E+00  0.00000000000E+00  0.20549239782E+04  0.33420772258E+04  0.26356721395E+04 0.  0.
        4    1    3    3  502    0 -0.30153427685E+03 -0.79031791223E+03  0.23088275566E+04  0.24589045572E+04  0.12699999809E+01 0. -1.
       -4    1    3    3    0  502  0.30153427685E+03  0.79031791223E+03 -0.25390357837E+03  0.88317266858E+03  0.12699999809E+01 0.  1.
</event>
<event>
 5   0  0.2623368E-06  0.2593421E+04  0.7818609E-02  0.8370439E-01
        2   -1    0    0  501    0  0.00000000000E+00  0.00000000000E+00  0.15090055783E+04  0.15090055783E+04  0.25500000920E-02 0. -1.
       -2   -1    0    0    0  501  0.00000000000E+00  0.00000000000E+00 -0.11142821506E+04  0.11142821506E+04  0.25500000920E-02 0.  1.
    10030    2    1    2    0    0  0.00000000000E+00  0.00000000000E+00  0.39472342763E+03  0.26232877289E+04  0.25934208922E+04 0.  0.
        5    1    3    3  502    0  0.46444998372E+03 -0.10838253258E+04 -0.34833686163E+03  0.12295331567E+04  0.46999998093E+01 0.  1.
       -5    1    3    3    0  502 -0.46444998372E+03  0.10838253258E+04  0.74306028926E+03  0.13937545722E+04  0.46999998093E+01 0. -1.
</event>
<event>
 5   0  0.1100104E-06  0.2592318E+04  0.7818609E-02  0.8370815E-01
        1   -1    0    0  501    0  0.00000000000E+00  0.00000000000E+00  0.80722968023E+03  0.80722968025E+03  0.50400001928E-02 0. -1.
       -1   -1    0    0    0  501  0.00000000000E+00  0.00000000000E+00 -0.20812270639E+04  0.20812270639E+04  0.50400001928E-02 0.  1.
    10030    2    1    2    0    0  0.00000000000E+00  0.00000000000E+00 -0.12739973837E+04  0.28884567441E+04  0.25923180803E+04 0.  0.
        4    1    3    3  502    0  0.23751166425E+03 -0.12480299203E+04 -0.92332979316E+03  0.15705190201E+04  0.12699999809E+01 0. -1.
       -4    1    3    3    0  502 -0.23751166425E+03  0.12480299203E+04 -0.35066759050E+03  0.13179377241E+04  0.12699999809E+01 0.  1.
</event>
<event>
 5   0  0.1032076E-06  0.2597990E+04  0.7818609E-02  0.8368884E-01
       -1   -1    0    0    0  501  0.00000000000E+00  0.00000000000E+00  0.64478392533E+03  0.64478392535E+03  0.50400001928E-02 0.  1.
        1   -1    0    0  501    0  0.00000000000E+00  0.00000000000E+00 -0.26169811883E+04  0.26169811883E+04  0.50400001928E-02 0. -1.
    10030    2    1    2    0    0  0.00000000000E+00  0.00000000000E+00 -0.19721972630E+04  0.32617651136E+04  0.25979895328E+04 0.  0.
        1    1    3    3  502    0  0.10988296756E+04  0.24119835074E+03 -0.18014792607E+04  0.21238952016E+04  0.50400001928E-02 0. -1.
       -1    1    3    3    0  502 -0.10988296756E+04 -0.24119835074E+03 -0.17071800221E+03  0.11378699120E+04  0.50400001928E-02 0.  1.
</event>
<event>
 5   0  0.1032076E-06  0.2596480E+04  0.7818609E-02  0.8369398E-01
       -1   -1    0    0    0  501  0.00000000000E+00  0.00000000000E+00  0.11550677163E+04  0.11550677164E+04  0.50400001928E-02 0. -1.
        1   -1    0    0  501    0  0.00000000000E+00  0.00000000000E+00 -0.14591589475E+04  0.14591589475E+04  0.50400001928E-02 0.  1.
    10030    2    1    2    0    0  0.00000000000E+00  0.00000000000E+00 -0.30409123117E+03  0.26142266639E+04  0.25964802278E+04 0.  0.
        1    1    3    3  502    0  0.12105998455E+04  0.21370978649E+03 -0.57227527507E+03  0.13559951509E+04  0.50400001928E-02 0.  1.
       -1    1    3    3    0  502 -0.12105998455E+04 -0.21370978649E+03  0.26818404390E+03  0.12582315130E+04  0.50400001928E-02 0. -1.
</event>
<event>
 5   0  0.1055179E-06  0.2597940E+04  0.7818609E-02  0.8368901E-01
        1   -1    0    0  501    0  0.00000000000E+00  0.00000000000E+00  0.51512536051E+03  0.51512536053E+03  0.50400001928E-02 0. -1.
       -1   -1    0    0    0  501  0.00000000000E+00  0.00000000000E+00 -0.32755586150E+04  0.32755586150E+04  0.50400001928E-02 0.  1.
    10030    2    1    2    0    0  0.00000000000E+00  0.00000000000E+00 -0.27604332545E+04  0.37906839755E+04  0.25979401937E+04 0.  0.
        3    1    3    3  502    0  0.11266058223E+04 -0.61677783599E+03 -0.10970297510E+04  0.16891210325E+04  0.10100000352E+00 0. -1.
       -3    1    3    3    0  502 -0.11266058223E+04  0.61677783599E+03 -0.16634035035E+04  0.21015629430E+04  0.10100000352E+00 0.  1.
</event>
<event>
 5   0  0.2623368E-06  0.2601835E+04  0.7818609E-02  0.8367578E-01
        2   -1    0    0  501    0  0.00000000000E+00  0.00000000000E+00  0.13448358728E+04  0.13448358729E+04  0.25500000920E-02 0.  1.
       -2   -1    0    0    0  501  0.00000000000E+00  0.00000000000E+00 -0.12584334900E+04  0.12584334900E+04  0.25500000920E-02 0. -1.
    10030    2    1    2    0    0  0.00000000000E+00  0.00000000000E+00  0.86402382875E+02  0.26032693628E+04  0.26018351223E+04 0.  0.
        5    1    3    3  502    0  0.83883395373E+03 -0.57067291338E+03 -0.77152921991E+03  0.12745938189E+04  0.46999998093E+01 0. -1.
       -5    1    3    3    0  502 -0.83883395373E+03  0.57067291338E+03  0.85793160278E+03  0.13286755439E+04  0.46999998093E+01 0.  1.
</event>
<event>
 5   0  0.2586775E-06  0.2599491E+04  0.7818609E-02  0.8368374E-01
       -2   -1    0    0    0  501  0.00000000000E+00  0.00000000000E+00  0.15292037021E+04  0.15292037021E+04  0.25500000920E-02 0.  1.
        2   -1    0    0  501    0  0.00000000000E+00  0.00000000000E+00 -0.11047179718E+04  0.11047179718E+04  0.25500000920E-02 0. -1.
    10030    2    1    2    0    0  0.00000000000E+00  0.00000000000E+00  0.42448573034E+03  0.26339216739E+04  0.25994913443E+04 0.  0.
        1    1    3    3  502    0  0.54826741090E+02 -0.75315504000E+03  0.12841250460E+04  0.14897065548E+04  0.50400001928E-02 0.  1.
       -1    1    3    3    0  502 -0.54826741090E+02  0.75315504000E+03 -0.85963931561E+03  0.11442151191E+04  0.50400001928E-02 0. -1.
</event>
<event>
 5   0  0.1100104E-06  0.2600133E+04  0.7818609E-02  0.8368156E-01
       -1   -1    0    0    0  501  0.00000000000E+00  0.00000000000E+00  0.63932440937E+03  0.63932440939E+03  0.50400001928E-02 0. -1.
        1   -1    0    0  501    0  0.00000000000E+00  0.00000000000E+00 -0.26436850814E+04  0.26436850814E+04  0.50400001928E-02 0.  1.
    10030    2    1    2    0    0  0.00000000000E+00  0.00000000000E+00 -0.20043606720E+04  0.32830094908E+04  0.26001326145E+04 0.  0.
        4    1    3    3  502    0  0.36317802198E+03 -0.11991530569E+04 -0.14401232510E+04  0.19088800173E+04  0.12699999809E+01 0.  1.
       -4    1    3    3    0  502 -0.36317802198E+03  0.11991530569E+04 -0.56423742099E+03  0.13741294734E+04  0.12699999809E+01 0. -1.
</event>
<event>
 5   0  0.1055179E-06  0.2599296E+04  0.7818609E-02  0.8368440E-01
        1   -1    0    0  501    0  0.00000000000E+00  0.00000000000E+00  0.14789524577E+04  0.14789524577E+04  0.50400001928E-02 0.  1.
       -1   -1    0    0    0  501  0.00000000000E+00  0.00000000000E+00 -0.11420820853E+04  0.11420820853E+04  0.50400001928E-02 0. -1.
    10030    2    1    2    0    0  0.00000000000E+00  0.00000000000E+00  0.33687037245E+03  0.26210345430E+04  0.25992961408E+04 0.  0.
        3    1    3    3  502    0 -0.12394705004E+04 -0.28612181243E+03  0.43699371795E+03  0.13450339523E+04  0.10100000352E+00 0.  1.
       -3    1    3    3    0  502  0.12394705004E+04  0.28612181243E+03 -0.10012334549E+03  0.12760005907E+04  0.10100000352E+00 0. -1.
</event>
<event>
 5   0  0.2623368E-06  0.2597991E+04  0.7818609E-02  0.8368884E-01
        2   -1    0    0  501    0  0.00000000000E+00  0.00000000000E+00  0.16256942909E+04  0.16256942909E+04  0.25500000920E-02 0.  1.
       -2   -1    0    0    0  501  0.00000000000E+00  0.00000000000E+00 -0.10379500185E+04  0.10379500185E+04  0.25500000920E-02 0. -1.
    10030    2    1    2    0    0  0.00000000000E+00  0.00000000000E+00  0.58774427245E+03  0.26636443094E+04  0.25979910849E+04 0.  0.
        5    1    3    3  502    0 -0.22873485099E+03 -0.12785937914E+04  0.30994025776E+03  0.13353676530E+04  0.46999998093E+01 0.  1.
       -5    1    3    3    0  502  0.22873485099E+03  0.12785937914E+04  0.27780401469E+03  0.13282766564E+04  0.46999998093E+01 0. -1.
</event>
<event>
 5   0  0.1055179E-06  0.2601556E+04  0.7818609E-02  0.8367673E-01
       -1   -1    0    0    0  501  0.00000000000E+00  0.00000000000E+00  0.86189342136E+03  0.86189342138E+03  0.50400001928E-02 0.  1.
        1   -1    0    0  501    0  0.00000000000E+00  0.00000000000E+00 -0.19631464440E+04  0.19631464440E+04  0.50400001928E-02 0. -1.
    10030    2    1    2    0    0  0.00000000000E+00  0.00000000000E+00 -0.11012530226E+04  0.28250398654E+04  0.26015556925E+04 0.  0.
        3    1    3    3  502    0  0.20827290135E+03  0.26308735925E+03  0.81408766999E+03  0.88052899139E+03  0.10100000352E+00 0.  1.
       -3    1    3    3    0  502 -0.20827290135E+03 -0.26308735925E+03 -0.19153406926E+04  0.19445108740E+04  0.10100000352E+00 0. -1.
</event>
<event>
 5   0  0.1055179E-06  0.2600743E+04  0.7818609E-02  0.8367949E-01
       -1   -1    0    0    0  501  0.00000000000E+00  0.00000000000E+00  0.91698655784E+03  0.91698655785E+03  0.50400001928E-02 0. -1.
        1   -1    0    0  501    0  0.00000000000E+00  0.00000000000E+00 -0.18440467461E+04  0.18440467461E+04  0.50400001928E-02 0.  1.
    10030    2    1    2    0    0  0.00000000000E+00  0.00000000000E+00 -0.92706018824E+03  0.27610333039E+04  0.26007430309E+04 0.  0.
        3    1    3    3  502    0 -0.20000087147E+03 -0.17948625873E+03 -0.18142464117E+04  0.18340408169E+04  0.10100000352E+00 0.  1.
       -3    1    3    3    0  502  0.20000087147E+03  0.17948625873E+03  0.88718622345E+03  0.92699248700E+03  0.10100000352E+00 0. -1.
</event>
<event>
 5   0  0.2705807E-06  0.2602000E+04  0.7818609E-02  0.8367522E-01
       -2   -1    0    0    0  501  0.00000000000E+00  0.00000000000E+00  0.11573018907E+04  0.11573018907E+04  0.25500000920E-02 0. -1.
        2   -1    0    0  501    0  0.00000000000E+00  0.00000000000E+00 -0.14625403764E+04  0.14625403764E+04  0.25500000920E-02 0.  1.
    10030    2    1    2    0    0  0.00000000000E+00  0.00000000000E+00 -0.30523848573E+03  0.26198422672E+04  0.26019998024E+04 0.  0.
        4    1    3    3  502    0  0.11747929314E+04  0.50220956785E+03  0.94514979181E+02  0.12811274628E+04  0.12699999809E+01 0. -1.
       -4    1    3    3    0  502 -0.11747929314E+04 -0.50220956785E+03 -0.39975346491E+03  0.13387148044E+04  0.12699999809E+01 0.  1.
</event>
<event>
 5   0  0.2746631E-06  0.2595320E+04  0.7818609E-02  0.8369793E-01
       -2   -1    0    0    0  501  0.00000000000E+00  0.00000000000E+00  0.13513182512E+04  0.13513182512E+04  0.25500000920E-02 0.  1.
        2   -1    0    0  501    0  0.00000000000E+00  0.00000000000E+00 -0.12461323452E+04  0.12461323452E+04  0.25500000920E-02 0. -1.
    10030    2    1    2    0    0  0.00000000000E+00  0.00000000000E+00  0.10518590607E+03  0.25974505964E+04  0.25953199275E+04 0.  0.
        2    1    3    3  502    0 -0.60613388061E+03 -0.73225100774E+03 -0.83149603509E+03  0.12629233848E+04  0.25500000920E-02 0. -1.
       -2    1    3    3    0  502  0.60613388061E+03  0.73225100774E+03  0.93668194116E+03  0.13345272116E+04  0.25500000920E-02 0.  1.
</event>
<event>
 5   0  0.1122628E-06  0.2616890E+04  0.7818609E-02  0.8362486E-01
       -1   -1    0    0    0  501  0.00000000000E+00  0.00000000000E+00  0.12544787518E+04  0.12544787518E+04  0.50400001928E-02 0. -1.
        1   -1    0    0  501    0  0.00000000000E+00  0.00000000000E+00 -0.13647331516E+04  0.13647331516E+04  0.50400001928E-02 0.  1.
    10030    2    1    2    0    0  0.00000000000E+00  0.00000000000E+00 -0.11025439982E+03  0.26192119034E+04  0.26168903230E+04 0.  0.
        2    1    3    3  502    0  0.11014652685E+03  0.73068987289E+03  0.10256403653E+04  0.12641115879E+04  0.25500000920E-02 0. -1.
       -2    1    3    3    0  502 -0.11014652685E+03 -0.73068987289E+03 -0.11358947651E+04  0.13551003155E+04  0.25500000920E-02 0.  1.
</event>
<event>
 5   0  0.2746631E-06  0.2597905E+04  0.7818609E-02  0.8368913E-01
       -2   -1    0    0    0  501  0.00000000000E+00  0.00000000000E+00  0.10414380469E+04  0.10414380469E+04  0.25500000920E-02 0.  1.
        2   -1    0    0  501    0  0.00000000000E+00  0.00000000000E+00 -0.16201418681E+04  0.16201418681E+04  0.25500000920E-02 0. -1.
    10030    2    1    2    0    0  0.00000000000E+00  0.00000000000E+00 -0.57870382119E+03  0.26615799150E+04  0.25979048349E+04 0.  0.
        2    1    3    3  502    0  0.78763823215E+03 -0.87289257656E+03  0.27641702590E+03  0.12077755616E+04  0.25500000920E-02 0.  1.
       -2    1    3    3    0  502 -0.78763823215E+03  0.87289257656E+03 -0.85512084709E+03  0.14538043534E+04  0.25500000920E-02 0. -1.
</event>
<event>
 5   0  0.1122628E-06  0.2596516E+04  0.7818609E-02  0.8369385E-01
        1   -1    0    0  501    0  0.00000000000E+00  0.00000000000E+00  0.12558164700E+04  0.12558164700E+04  0.50400001928E-02 0. -1.
       -1   -1    0    0    0  501  0.00000000000E+00  0.00000000000E+00 -0.13421342158E+04  0.13421342158E+04  0.50400001928E-02 0.  1.
    10030    2    1    2    0    0  0.00000000000E+00  0.00000000000E+00 -0.86317745829E+02  0.25979506859E+04  0.25965163225E+04 0.  0.
        2    1    3    3  502    0  0.37611079812E+03  0.12165860780E+04 -0.29614877554E+03  0.13073810137E+04  0.25500000920E-02 0.  1.
       -2    1    3    3    0  502 -0.37611079812E+03 -0.12165860780E+04  0.20983102971E+03  0.12905696722E+04  0.25500000920E-02 0. -1.
</event>
<event>
 5   0  0.9197000E-07  0.2598488E+04  0.7818609E-02  0.8368715E-01
       -3   -1    0    0    0  501  0.00000000000E+00  0.00000000000E+00  0.11148566339E+04  0.11148566385E+04  0.10100000352E+00 0. -1.
        3   -1    0    0  501    0  0.00000000000E+00  0.00000000000E+00 -0.15141276568E+04  0.15141276602E+04  0.10100000352E+00 0.  1.
    10030    2    1    2    0    0  0.00000000000E+00  0.00000000000E+00 -0.39927102287E+03  0.26289842987E+04  0.25984882322E+04 0.  0.
        4    1    3    3  502    0 -0.40984136905E+03 -0.10061361686E+04 -0.92056667009E+03  0.14239819326E+04  0.12699999809E+01 0.  1.
       -4    1    3    3    0  502  0.40984136905E+03  0.10061361686E+04  0.52129564721E+03  0.12050023661E+04  0.12699999809E+01 0. -1.
</event>
<event>
 5   0  0.1032076E-06  0.2594694E+04  0.7818609E-02  0.8370006E-01
       -1   -1    0    0    0  501  0.00000000000E+00  0.00000000000E+00  0.94110665673E+03  0.94110665674E+03  0.50400001928E-02 0. -1.
        1   -1    0    0  501    0  0.00000000000E+00  0.00000000000E+00 -0.17884368337E+04  0.17884368337E+04  0.50400001928E-02 0.  1.
    10030    2    1    2    0    0  0.00000000000E+00  0.00000000000E+00 -0.84733017695E+03  0.27295434904E+04  0.25946944401E+04 0.  0.
        1    1    3    3  502    0 -0.88398364240E+03  0.49306100063E+03  0.43003622360E+03  0.10997578752E+04  0.50400001928E-02 0. -1.
       -1    1    3    3    0  502  0.88398364240E+03 -0.49306100063E+03 -0.12773664006E+04  0.16297856152E+04  0.50400001928E-02 0.  1.
</event>
<event>
 5   0  0.2746631E-06  0.2598960E+04  0.7818609E-02  0.8368555E-01
       -2   -1    0    0    0  501  0.00000000000E+00  0.00000000000E+00  0.66116751701E+03  0.66116751701E+03  0.25500000920E-02 0. -1.
        2   -1    0    0  501    0  0.00000000000E+00  0.00000000000E+00 -0.25540393824E+04  0.25540393824E+04  0.25500000920E-02 0.  1.
    10030    2    1    2    0    0  0.00000000000E+00  0.00000000000E+00 -0.18928718654E+04  0.32152068994E+04  0.25989596971E+04 0.  0.
        2    1    3    3  502    0  0.11728124094E+04  0.12125065799E+03 -0.16222860843E+04  0.20054931586E+04  0.25500000920E-02 0. -1.
       -2    1    3    3    0  502 -0.11728124094E+04 -0.12125065799E+03 -0.27058578111E+03  0.12097137408E+04  0.25500000920E-02 0.  1.
</event>
<event>
 5   0  0.2705807E-06  0.2599902E+04  0.7818609E-02  0.8368234E-01
       -2   -1    0    0    0  501  0.00000000000E+00  0.00000000000E+00  0.10653181429E+04  0.10653181429E+04  0.25500000920E-02 0.  1.
        2   -1    0    0  501    0  0.00000000000E+00  0.00000000000E+00 -0.15862610945E+04  0.15862610945E+04  0.25500000920E-02 0. -1.
    10030    2    1    2    0    0  0.00000000000E+00  0.00000000000E+00 -0.52094295162E+03  0.26515792374E+04  0.25999020931E+04 0.  0.
        4    1    3    3  502    0  0.93514257360E+03 -0.22168041250E+03 -0.11532202301E+04  0.15011836498E+04  0.12699999809E+01 0. -1.
       -4    1    3    3    0  502 -0.93514257360E+03  0.22168041250E+03  0.63227727851E+03  0.11503955876E+04  0.12699999809E+01 0.  1.
</event>
<event>
 5   0  0.2586775E-06  0.2602525E+04  0.7818609E-02  0.8367344E-01
        2   -1    0    0  501    0  0.00000000000E+00  0.00000000000E+00  0.13996849360E+04  0.13996849360E+04  0.25500000920E-02 0.  1.
       -2   -1    0    0    0  501  0.00000000000E+00  0.00000000000E+00 -0.12097606835E+04  0.12097606835E+04  0.25500000920E-02 0. -1.
    10030    2    1    2    0    0  0.00000000000E+00  0.00000000000E+00  0.18992425252E+03  0.26094456195E+04  0.26025247778E+04 0.  0.
        1    1    3    3  502    0 -0.56874101020E+03  0.75600912070E+03  0.99079635030E+03  0.13699246458E+04  0.50400001928E-02 0.  1.
       -1    1    3    3    0  502  0.56874101020E+03 -0.75600912070E+03 -0.80087209778E+03  0.12395209737E+04  0.50400001928E-02 0. -1.
</event>
<event>
 5   0  0.2586775E-06  0.2598959E+04  0.7818609E-02  0.8368555E-01
       -2   -1    0    0    0  501  0.00000000000E+00  0.00000000000E+00  0.92118325344E+03  0.92118325344E+03  0.25500000920E-02 0.  1.
        2   -1    0    0  501    0  0.00000000000E+00  0.00000000000E+00 -0.18331275569E+04  0.18331275569E+04  0.25500000920E-02 0. -1.
    10030    2    1    2    0    0  0.00000000000E+00  0.00000000000E+00 -0.91194430345E+03  0.27543108103E+04  0.25989585659E+04 0.  0.
        1    1    3    3  502    0 -0.83846479567E+03 -0.17720784322E+03  0.57926054164E+03  0.10343928695E+04  0.50400001928E-02 0.  1.
       -1    1    3    3    0  502  0.83846479567E+03  0.17720784322E+03 -0.14912048451E+04  0.17199179409E+04  0.50400001928E-02 0. -1.
</event>
<event>
 5   0  0.1122628E-06  0.2600749E+04  0.7818609E-02  0.8367947E-01
       -1   -1    0    0    0  501  0.00000000000E+00  0.00000000000E+00  0.12476615714E+04  0.12476615714E+04  0.50400001928E-02 0.  1.
        1   -1    0    0  501    0  0.00000000000E+00  0.00000000000E+00 -0.13553150303E+04  0.13553150303E+04  0.50400001928E-02 0. -1.
    10030    2    1    2    0    0  0.00000000000E+00  0.00000000000E+00 -0.10765345887E+03  0.26029766017E+04  0.26007494924E+04 0.  0.
        2    1    3    3  502    0  0.35324494280E+02  0.86947217701E+03  0.91330546058E+03  0.12614898140E+04  0.25500000920E-02 0.  1.
       -2    1    3    3    0  502 -0.35324494280E+02 -0.86947217701E+03 -0.10209589194E+04  0.13414867877E+04  0.25500000920E-02 0. -1.
</event>
<event>
 5   0  0.9197000E-07  0.2602007E+04  0.7818609E-02  0.8367520E-01
       -4   -1    0    0    0  501  0.00000000000E+00  0.00000000000E+00  0.10194993974E+04  0.10195001884E+04  0.12699999809E+01 0. -1.
        4   -1    0    0  501    0  0.00000000000E+00  0.00000000000E+00 -0.16602341804E+04  0.16602346661E+04  0.12699999809E+01 0.  1.
    10030    2    1    2    0    0  0.00000000000E+00  0.00000000000E+00 -0.64073478295E+03  0.26797348545E+04  0.26020065005E+04 0.  0.
        4    1    3    3  502    0 -0.31942901467E+03  0.66570550422E+03 -0.14235377867E+04  0.16036396593E+04  0.12699999809E+01 0.  1.
       -4    1    3    3    0  502  0.31942901467E+03 -0.66570550422E+03  0.78280300372E+03  0.10760951953E+04  0.12699999809E+01 0. -1.
</event>
<event>
 5   0  0.2586775E-06  0.2598489E+04  0.7818609E-02  0.8368715E-01
       -2   -1    0    0    0  501  0.00000000000E+00  0.00000000000E+00  0.20204734542E+04  0.20204734542E+04  0.25500000920E-02 0.  1.
        2   -1    0    0  501    0  0.00000000000E+00  0.00000000000E+00 -0.83546549980E+03  0.83546549981E+03  0.25500000920E-02 0. -1.
    10030    2    1    2    0    0  0.00000000000E+00  0.00000000000E+00  0.11850079544E+04  0.28559389540E+04  0.25984886871E+04 0.  0.
        1    1    3    3  502    0  0.11574615741E+04 -0.58433321230E+03  0.68362312680E+03  0.14657773289E+04  0.50400001928E-02 0. -1.
       -1    1    3    3    0  502 -0.11574615741E+04  0.58433321230E+03  0.50138482759E+03  0.13901616251E+04  0.50400001928E-02 0.  1.
</event>
<event>
 5   0  0.2623368E-06  0.2601544E+04  0.7818609E-02  0.8367677E-01
        2   -1    0    0  501    0  0.00000000000E+00  0.00000000000E+00  0.76846550282E+03  0.76846550283E+03  0.25500000920E-02 0. -1.
       -2   -1    0    0    0  501  0.00000000000E+00  0.00000000000E+00 -0.22018007550E+04  0.22018007550E+04  0.25500000920E-02 0.  1.
    10030    2    1    2    0    0  0.00000000000E+00  0.00000000000E+00 -0.14333352522E+04  0.29702662578E+04  0.26015440987E+04 0.  0.
        5    1    3    3  502    0 -0.54313326457E+03  0.11530268418E+04 -0.10133448756E+04  0.16282980587E+04  0.46999998093E+01 0.  1.
       -5    1    3    3    0  502  0.54313326457E+03 -0.11530268418E+04 -0.41999037660E+03  0.13419681991E+04  0.46999998093E+01 0. -1.
</event>
<event>
 5   0  0.2705807E-06  0.2601046E+04  0.7818609E-02  0.8367846E-01
        2   -1    0    0  501    0  0.00000000000E+00  0.00000000000E+00  0.15880858686E+04  0.15880858686E+04  0.25500000920E-02 0. -1.
       -2   -1    0    0    0  501  0.00000000000E+00  0.00000000000E+00 -0.10650304080E+04  0.10650304080E+04  0.25500000920E-02 0.  1.
    10030    2    1    2    0    0  0.00000000000E+00  0.00000000000E+00  0.52305546053E+03  0.26531162766E+04  0.26010457440E+04 0.  0.
        4    1    3    3  502    0  0.21719524848E+03 -0.11930592965E+04 -0.21776605369E+03  0.12320665274E+04  0.12699999809E+01 0. -1.
       -4    1    3    3    0  502 -0.21719524848E+03  0.11930592965E+04  0.74082151422E+03  0.14210497492E+04  0.12699999809E+01 0.  1.
</event>
<event>
 5   0  0.1032076E-06  0.2600193E+04  0.7818609E-02  0.8368136E-01
        1   -1    0    0  501    0  0.00000000000E+00  0.00000000000E+00  0.16356699858E+04  0.16356699858E+04  0.50400001928E-02 0.  1.
       -1   -1    0    0    0  501  0.00000000000E+00  0.00000000000E+00 -0.10333688773E+04  0.10333688773E+04  0.50400001928E-02 0. -1.
    10030    2    1    2    0    0  0.00000000000E+00  0.00000000000E+00  0.60230110854E+03  0.26690388631E+04  0.26001926520E+04 0.  0.
        1    1    3    3  502    0  0.62201639648E+03 -0.10119883253E+04  0.84355976575E+03  0.14569206726E+04  0.50400001928E-02 0.  1.
       -1    1    3    3    0  502 -0.62201639648E+03  0.10119883253E+04 -0.24125865721E+03  0.12121181905E+04  0.50400001928E-02 0. -1.
</event>
<event>
 5   0  0.2820028E-06  0.2595108E+04  0.7818609E-02  0.8369865E-01
        2   -1    0    0  501    0  0.00000000000E+00  0.00000000000E+00  0.21323575580E+04  0.21323575580E+04  0.25500000920E-02 0. -1.
       -2   -1    0    0    0  501  0.00000000000E+00  0.00000000000E+00 -0.78957017382E+03  0.78957017382E+03  0.25500000920E-02 0.  1.
    10030    2    1    2    0    0  0.00000000000E+00  0.00000000000E+00  0.13427873842E+04  0.29219277319E+04  0.25951076492E+04 0.  0.
        3    1    3    3  502    0 -0.97256313829E+03  0.17607117653E+03  0.16179617732E+04  0.18959642473E+04  0.10100000352E+00 0. -1.
       -3    1    3    3    0  502  0.97256313829E+03 -0.17607117653E+03 -0.27517438898E+03  0.10259634846E+04  0.10100000352E+00 0.  1.
</event>
<event>
 5   0  0.2586775E-06  0.2602841E+04  0.7818609E-02  0.8367237E-01
        2   -1    0    0  501    0  0.00000000000E+00  0.00000000000E+00  0.24594826319E+04  0.24594826319E+04  0.25500000920E-02 0.  1.
       -2   -1    0    0    0  501  0.00000000000E+00  0.00000000000E+00 -0.68863891580E+03  0.68863891580E+03  0.25500000920E-02 0. -1.
    10030    2    1    2    0    0  0.00000000000E+00  0.00000000000E+00  0.17708437162E+04  0.31481215477E+04  0.26028411039E+04 0.  0.
        1    1    3    3  502    0  0.43500916714E+03  0.37299168068E+03 -0.52784505684E+03  0.77908675602E+03  0.50400001928E-02 0. -1.
       -1    1    3    3    0  502 -0.43500916714E+03 -0.37299168068E+03  0.22986887730E+04  0.23690347917E+04  0.50400001928E-02 0.  1.
</event>
<event>
 5   0  0.1100104E-06  0.2607987E+04  0.7818609E-02  0.8365493E-01
       -1   -1    0    0    0  501  0.00000000000E+00  0.00000000000E+00  0.18886097284E+04  0.18886097284E+04  0.50400001928E-02 0. -1.
        1   -1    0    0  501    0  0.00000000000E+00  0.00000000000E+00 -0.90034434372E+03  0.90034434374E+03  0.50400001928E-02 0.  1.
    10030    2    1    2    0    0  0.00000000000E+00  0.00000000000E+00  0.98826538466E+03  0.27889540721E+04  0.26079870295E+04 0.  0.
        4    1    3    3  502    0 -0.11889348977E+04 -0.10415712525E+03 -0.67660881588E+02  0.11954055820E+04  0.12699999809E+01 0.  1.
       -4    1    3    3    0  502  0.11889348977E+04  0.10415712525E+03  0.10559262662E+04  0.15935484901E+04  0.12699999809E+01 0. -1.
</event>
<event>
 5   0  0.2820028E-06  0.2605557E+04  0.7818609E-02  0.8366316E-01
       -2   -1    0    0    0  501  0.00000000000E+00  0.00000000000E+00  0.95119630136E+03  0.95119630136E+03  0.25500000920E-02 0.  1.
        2   -1    0    0  501    0  0.00000000000E+00  0.00000000000E+00 -0.17843125879E+04  0.17843125879E+04  0.25500000920E-02 0. -1.
    10030    2    1    2    0    0  0.00000000000E+00  0.00000000000E+00 -0.83311628659E+03  0.27355088893E+04  0.26055567805E+04 0.  0.
        3    1    3    3  502    0  0.92115419372E+03  0.36848600633E+03  0.46990231923E+03  0.10977773842E+04  0.10100000352E+00 0.  1.
       -3    1    3    3    0  502 -0.92115419372E+03 -0.36848600633E+03 -0.13030186058E+04  0.16377315051E+04  0.10100000352E+00 0. -1.
</event>
<event>
 5   0  0.2586775E-06  0.2602771E+04  0.7818609E-02  0.8367261E-01
        2   -1    0    0  501    0  0.00000000000E+00  0.00000000000E+00  0.14065209071E+04  0.14065209071E+04  0.25500000920E-02 0.  1.
       -2   -1    0    0    0  501  0.00000000000E+00  0.00000000000E+00 -0.12041087986E+04  0.12041087986E+04  0.25500000920E-02 0. -1.
    10030    2    1    2    0    0  0.00000000000E+00  0.00000000000E+00  0.20241210853E+03  0.26106297057E+04  0.26027709847E+04 0.  0.
        1    1    3    3  502    0 -0.45182684280E+02 -0.87990420514E+03 -0.85945996330E+03  0.12308307413E+04  0.50400001928E-02 0. -1.
       -1    1    3    3    0  502  0.45182684280E+02  0.87990420514E+03  0.10618720718E+04  0.13797989644E+04  0.50400001928E-02 0.  1.
</event>
<event>
 5   0  0.1122628E-06  0.2561665E+04  0.7818609E-02  0.8381341E-01
       -1   -1    0    0    0  501  0.00000000000E+00  0.00000000000E+00  0.10857730376E+04  0.10857730376E+04  0.50400001928E-02 0.  1.
        1   -1    0    0  501    0  0.00000000000E+00  0.00000000000E+00 -0.15109339883E+04  0.15109339883E+04  0.50400001928E-02 0. -1.
    10030    2    1    2    0    0  0.00000000000E+00  0.00000000000E+00 -0.42516095068E+03  0.25967070259E+04  0.25616646042E+04 0.  0.
        2    1    3    3  502    0 -0.98320195476E+03  0.64229233185E+03 -0.73075405116E+03  0.13831944934E+04  0.25500000920E-02 0. -1.
       -2    1    3    3    0  502  0.98320195476E+03 -0.64229233185E+03  0.30559310049E+03  0.12135125325E+04  0.25500000920E-02 0.  1.
</event>
<event>
 5   0  0.2623368E-06  0.2630967E+04  0.7818609E-02  0.8357758E-01
       -2   -1    0    0    0  501  0.00000000000E+00  0.00000000000E+00  0.12755879555E+04  0.12755879555E+04  0.25500000920E-02 0.  1.
        2   -1    0    0  501    0  0.00000000000E+00  0.00000000000E+00 -0.13566268386E+04  0.13566268386E+04  0.25500000920E-02 0. -1.
    10030    2    1    2    0    0  0.00000000000E+00  0.00000000000E+00 -0.81038883141E+02  0.26322147941E+04  0.26309670127E+04 0.  0.
        5    1    3    3  502    0 -0.24046925994E+03  0.12931033578E+04 -0.63617324401E+02  0.13168185194E+04  0.46999998093E+01 0. -1.
       -5    1    3    3    0  502  0.24046925994E+03 -0.12931033578E+04 -0.17421558740E+02  0.13153962748E+04  0.46999998093E+01 0.  1.
</event>
<event>
 5   0  0.1032076E-06  0.2598900E+04  0.7818609E-02  0.8368575E-01
        1   -1    0    0  501    0  0.00000000000E+00  0.00000000000E+00  0.14648170501E+04  0.14648170501E+04  0.50400001928E-02 0. -1.
       -1   -1    0    0    0  501  0.00000000000E+00  0.00000000000E+00 -0.11527513056E+04  0.11527513057E+04  0.50400001928E-02 0.  1.
    10030    2    1    2    0    0  0.00000000000E+00  0.00000000000E+00  0.31206574445E+03  0.26175683558E+04  0.25988995880E+04 0.  0.
        1    1    3    3  502    0 -0.86235612911E+02  0.10922852739E+04 -0.54758836628E+03  0.12248986568E+04  0.50400001928E-02 0.  1.
       -1    1    3    3    0  502  0.86235612911E+02 -0.10922852739E+04  0.85965411073E+03  0.13926696990E+04  0.50400001928E-02 0. -1.
</event>
<event>
 5   0  0.2586775E-06  0.2600455E+04  0.7818609E-02  0.8368047E-01
        2   -1    0    0  501    0  0.00000000000E+00  0.00000000000E+00  0.23284994725E+04  0.23284994725E+04  0.25500000920E-02 0. -1.
       -2   -1    0    0    0  501  0.00000000000E+00  0.00000000000E+00 -0.72604320669E+03  0.72604320669E+03  0.25500000920E-02 0.  1.
    10030    2    1    2    0    0  0.00000000000E+00  0.00000000000E+00  0.16024562658E+04  0.30545426792E+04  0.26004547478E+04 0.  0.
        1    1    3    3  502    0  0.55167327934E+03  0.79722980142E+02 -0.57858239803E+03  0.80340323129E+03  0.50400001928E-02 0.  1.
       -1    1    3    3    0  502 -0.55167327934E+03 -0.79722980142E+02  0.21810386638E+04  0.22511394479E+04  0.50400001928E-02 0. -1.
</event>
<event>
 5   0  0.2746631E-06  0.2601307E+04  0.7818609E-02  0.8367757E-01
        2   -1    0    0  501    0  0.00000000000E+00  0.00000000000E+00  0.18945262395E+04  0.18945262395E+04  0.25500000920E-02 0. -1.
       -2   -1    0    0    0  501  0.00000000000E+00  0.00000000000E+00 -0.89294081362E+03  0.89294081362E+03  0.25500000920E-02 0.  1.
    10030    2    1    2    0    0  0.00000000000E+00  0.00000000000E+00  0.10015854259E+04  0.27874670531E+04  0.26013072112E+04 0.  0.
        2    1    3    3  502    0 -0.59558261980E+03  0.66183563288E+03  0.15167770468E+04  0.17587943801E+04  0.25500000920E-02 0. -1.
       -2    1    3    3    0  502  0.59558261980E+03 -0.66183563288E+03 -0.51519162088E+03  0.10286726730E+04  0.25500000920E-02 0.  1.
</event>
<event>
 5   0  0.1088757E-06  0.2620030E+04  0.7818609E-02  0.8361429E-01
        1   -1    0    0  501    0  0.00000000000E+00  0.00000000000E+00  0.23387623897E+04  0.23387623897E+04  0.50400001928E-02 0.  1.
       -1   -1    0    0    0  501  0.00000000000E+00  0.00000000000E+00 -0.73378104553E+03  0.73378104555E+03  0.50400001928E-02 0. -1.
    10030    2    1    2    0    0  0.00000000000E+00  0.00000000000E+00  0.16049813441E+04  0.30725434352E+04  0.26200301613E+04 0.  0.
        5    1    3    3  502    0  0.42114120151E+03 -0.44887055530E+03  0.21586219576E+04  0.22446637906E+04  0.46999998093E+01 0.  1.
       -5    1    3    3    0  502 -0.42114120151E+03  0.44887055530E+03 -0.55364061349E+03  0.82787964459E+03  0.46999998093E+01 0. -1.
</event>
<event>
 5   0  0.1055179E-06  0.2594855E+04  0.7818609E-02  0.8369951E-01
        1   -1    0    0  501    0  0.00000000000E+00  0.00000000000E+00  0.11321802043E+04  0.11321802043E+04  0.50400001928E-02 0.  1.
       -1   -1    0    0    0  501  0.00000000000E+00  0.00000000000E+00 -0.14867936926E+04  0.14867936926E+04  0.50400001928E-02 0. -1.
    10030    2    1    2    0    0  0.00000000000E+00  0.00000000000E+00 -0.35461348837E+03  0.26189738969E+04  0.25948552072E+04 0.  0.
        3    1    3    3  502    0  0.11544358935E+04 -0.37461584578E+03 -0.64010898596E+03  0.13721511535E+04  0.10100000352E+00 0. -1.
       -3    1    3    3    0  502 -0.11544358935E+04  0.37461584578E+03  0.28549549759E+03  0.12468227434E+04  0.10100000352E+00 0.  1.
</event>
<event>
 5   0  0.2820028E-06  0.2600301E+04  0.7818609E-02  0.8368099E-01
        2   -1    0    0  501    0  0.00000000000E+00  0.00000000000E+00  0.15692937497E+04  0.15692937497E+04  0.25500000920E-02 0. -1.
       -2   -1    0    0    0  501  0.00000000000E+00  0.00000000000E+00 -0.10771671430E+04  0.10771671430E+04  0.25500000920E-02 0.  1.
    10030    2    1    2    0    0  0.00000000000E+00  0.00000000000E+00  0.49212660671E+03  0.26464608928E+04  0.26003012633E+04 0.  0.
        3    1    3    3  502    0 -0.49526400349E+03 -0.23773919930E+03 -0.95323741722E+03  0.11002126812E+04  0.10100000352E+00 0.  1.
       -3    1    3    3    0  502  0.49526400349E+03  0.23773919930E+03  0.14453640239E+04  0.15462482116E+04  0.10100000352E+00 0. -1.
</event>
<event>
 5   0  0.2623368E-06  0.2603549E+04  0.7818609E-02  0.8366997E-01
       -2   -1    0    0    0  501  0.00000000000E+00  0.00000000000E+00  0.11434765391E+04  0.11434765391E+04  0.25500000920E-02 0.  1.
        2   -1    0    0  501    0  0.00000000000E+00  0.00000000000E+00 -0.14819860751E+04  0.14819860751E+04  0.25500000920E-02 0. -1.
    10030    2    1    2    0    0  0.00000000000E+00  0.00000000000E+00 -0.33850953597E+03  0.26254626142E+04  0.26035485846E+04 0.  0.
        5    1    3    3  502    0 -0.64282347089E+03  0.50313341302E+03  0.85329645001E+03  0.11808904130E+04  0.46999998093E+01 0.  1.
       -5    1    3    3    0  502  0.64282347089E+03 -0.50313341302E+03 -0.11918059860E+04  0.14445722011E+04  0.46999998093E+01 0. -1.
</event>
<event>
 5   0  0.1088757E-06  0.2616630E+04  0.7818609E-02  0.8362574E-01
        1   -1    0    0  501    0  0.00000000000E+00  0.00000000000E+00  0.18935432933E+04  0.18935432933E+04  0.50400001928E-02 0. -1.
       -1   -1    0    0    0  501  0.00000000000E+00  0.00000000000E+00 -0.90396041944E+03  0.90396041946E+03  0.50400001928E-02 0.  1.
    10030    2    1    2    0    0  0.00000000000E+00  0.00000000000E+00  0.98958287386E+03  0.27975037128E+04  0.26166300386E+04 0.  0.
        5    1    3    3  502    0 -0.51604586669E+03 -0.85822832939E+03 -0.40531178545E+03  0.10803513018E+04  0.46999998093E+01 0.  1.
       -5    1    3    3    0  502  0.51604586669E+03  0.85822832939E+03  0.13948946593E+04  0.17171524110E+04  0.46999998093E+01 0. -1.
</event>
<event>
 5   0  0.2586775E-06  0.2603884E+04  0.7818609E-02  0.8366883E-01
        2   -1    0    0  501    0  0.00000000000E+00  0.00000000000E+00  0.11930124150E+04  0.11930124150E+04  0.25500000920E-02 0. -1.
       -2   -1    0    0    0  501  0.00000000000E+00  0.00000000000E+00 -0.14208179081E+04  0.14208179081E+04  0.25500000920E-02 0.  1.
    10030    2    1    2    0    0  0.00000000000E+00  0.00000000000E+00 -0.22780549318E+03  0.26138303231E+04  0.26038843321E+04 0.  0.
        1    1    3    3  502    0  0.91162552302E+03  0.71823161692E+03  0.47838119134E+03  0.12552953095E+04  0.50400001928E-02 0. -1.
       -1    1    3    3    0  502 -0.91162552302E+03 -0.71823161692E+03 -0.70618668452E+03  0.13585350136E+04  0.50400001928E-02 0.  1.
</event>
<event>
 5   0  0.1032076E-06  0.2601204E+04  0.7818609E-02  0.8367792E-01
       -1   -1    0    0    0  501  0.00000000000E+00  0.00000000000E+00  0.13472689623E+04  0.13472689623E+04  0.50400001928E-02 0. -1.
        1   -1    0    0  501    0  0.00000000000E+00  0.00000000000E+00 -0.12555518785E+04  0.12555518785E+04  0.50400001928E-02 0.  1.
    10030    2    1    2    0    0  0.00000000000E+00  0.00000000000E+00  0.91717083761E+02  0.26028208408E+04  0.26012043952E+04 0.  0.
        1    1    3    3  502    0 -0.27525964639E+03 -0.10376864394E+04 -0.68876732505E+03  0.12755239894E+04  0.50400001928E-02 0.  1.
       -1    1    3    3    0  502  0.27525964639E+03  0.10376864394E+04  0.78048440881E+03  0.13272968514E+04  0.50400001928E-02 0. -1.
</event>
<event>
 5   0  0.2820028E-06  0.2602642E+04  0.7818609E-02  0.8367304E-01
       -2   -1    0    0    0  501  0.00000000000E+00  0.00000000000E+00  0.60310787958E+03  0.60310787959E+03  0.25500000920E-02 0. -1.
        2   -1    0    0  501    0  0.00000000000E+00  0.00000000000E+00 -0.28078504046E+04  0.28078504046E+04  0.25500000920E-02 0.  1.
    10030    2    1    2    0    0  0.00000000000E+00  0.00000000000E+00 -0.22047425250E+04  0.34109582842E+04  0.26026422756E+04 0.  0.
        3    1    3    3  502    0 -0.88036448785E+03  0.95737644966E+03 -0.10463773982E+04  0.16692863647E+04  0.10100000352E+00 0.  1.
       -3    1    3    3    0  502  0.88036448785E+03 -0.95737644966E+03 -0.11583651268E+04  0.17416719195E+04  0.10100000352E+00 0. -1.
</event>
<event>
 5   0  0.2705807E-06  0.2593938E+04  0.7818609E-02  0.8370263E-01
        2   -1    0    0  501    0  0.00000000000E+00  0.00000000000E+00  0.20828823843E+04  0.20828823843E+04  0.25500000920E-02 0.  1.
       -2   -1    0    0    0  501  0.00000000000E+00  0.00000000000E+00 -0.80759680026E+03  0.80759680026E+03  0.25500000920E-02 0. -1.
    10030    2    1    2    0    0  0.00000000000E+00  0.00000000000E+00  0.12752855840E+04  0.28904791846E+04  0.25939384333E+04 0.  0.
        4    1    3    3  502    0  0.48957057766E+03  0.84113258692E+03 -0.31765187417E+03  0.10237615471E+04  0.12699999809E+01 0. -1.
       -4    1    3    3    0  502 -0.48957057766E+03 -0.84113258692E+03  0.15929374582E+04  0.18667176374E+04  0.12699999809E+01 0.  1.
</event>
<event>
 5   0  0.2746631E-06  0.2581063E+04  0.7818609E-02  0.8374662E-01
       -2   -1    0    0    0  501  0.00000000000E+00  0.00000000000E+00  0.81928759109E+03  0.81928759109E+03  0.25500000920E-02 0. -1.
        2   -1    0    0  501    0  0.00000000000E+00  0.00000000000E+00 -0.20328294503E+04  0.20328294503E+04  0.25500000920E-02 0.  1.
    10030    2    1    2    0    0  0.00000000000E+00  0.00000000000E+00 -0.12135418593E+04  0.28521170414E+04  0.25810633030E+04 0.  0.
        2    1    3    3  502    0  0.92635650692E+03  0.94812115044E+02  0.38056360155E+03  0.10059594276E+04  0.25500000920E-02 0. -1.
       -2    1    3    3    0  502 -0.92635650692E+03 -0.94812115044E+02 -0.15941054608E+04  0.18461576139E+04  0.25500000920E-02 0.  1.
</event>
<event>
 5   0  0.2746631E-06  0.2578439E+04  0.7818609E-02  0.8375562E-01
       -2   -1    0    0    0  501  0.00000000000E+00  0.00000000000E+00  0.15449700027E+04  0.15449700027E+04  0.25500000920E-02 0. -1.
        2   -1    0    0  501    0  0.00000000000E+00  0.00000000000E+00 -0.10758055182E+04  0.10758055182E+04  0.25500000920E-02 0.  1.
    10030    2    1    2    0    0  0.00000000000E+00  0.00000000000E+00  0.46916448456E+03  0.26207755209E+04  0.25784392600E+04 0.  0.
        2    1    3    3  502    0 -0.89998796855E+03  0.48562504515E+03 -0.56334074725E+03  0.11675456417E+04  0.25500000920E-02 0.  1.
       -2    1    3    3    0  502  0.89998796855E+03 -0.48562504515E+03  0.10325052318E+04  0.14532298792E+04  0.25500000920E-02 0. -1.
</event>
<event>
 5   0  0.2586775E-06  0.2632014E+04  0.7818609E-02  0.8357407E-01
       -2   -1    0    0    0  501  0.00000000000E+00  0.00000000000E+00  0.10067998406E+04  0.10067998406E+04  0.25500000920E-02 0.  1.
        2   -1    0    0  501    0  0.00000000000E+00  0.00000000000E+00 -0.17201774230E+04  0.17201774230E+04  0.25500000920E-02 0. -1.
    10030    2    1    2    0    0  0.00000000000E+00  0.00000000000E+00 -0.71337758239E+03  0.27269772637E+04  0.26320139478E+04 0.  0.
        1    1    3    3  502    0  0.97052167659E+02  0.83269526534E+03  0.69434480148E+03  0.10885381167E+04  0.50400001928E-02 0.  1.
       -1    1    3    3    0  502 -0.97052167659E+02 -0.83269526534E+03 -0.14077223839E+04  0.16384391469E+04  0.50400001928E-02 0. -1.
</event>
<event>
 5   0  0.1088757E-06  0.2608107E+04  0.7818609E-02  0.8365452E-01
        1   -1    0    0  501    0  0.00000000000E+00  0.00000000000E+00  0.14492077438E+04  0.14492077438E+04  0.50400001928E-02 0.  1.
       -1   -1    0    0    0  501  0.00000000000E+00  0.00000000000E+00 -0.11734385113E+04  0.11734385113E+04  0.50400001928E-02 0. -1.
    10030    2    1    2    0    0  0.00000000000E+00  0.00000000000E+00  0.27576923247E+03  0.26226462551E+04  0.26081074958E+04 0.  0.
        5    1    3    3  502    0  0.10296330177E+04 -0.38802742331E+03 -0.56589154141E+03  0.12373216070E+04  0.46999998093E+01 0. -1.
       -5    1    3    3    0  502 -0.10296330177E+04  0.38802742331E+03  0.84166077388E+03  0.13853246481E+04  0.46999998093E+01 0.  1.
</event>
<event>
 5   0  0.1032076E-06  0.2604096E+04  0.7818609E-02  0.8366811E-01
        1   -1    0    0  501    0  0.00000000000E+00  0.00000000000E+00  0.15168539697E+04  0.15168539697E+04  0.50400001928E-02 0. -1.
       -1   -1    0    0    0  501  0.00000000000E+00  0.00000000000E+00 -0.11176615716E+04  0.11176615716E+04  0.50400001928E-02 0.  1.
    10030    2    1    2    0    0  0.00000000000E+00  0.00000000000E+00  0.39919239809E+03  0.26345155413E+04  0.26040963052E+04 0.  0.
        1    1    3    3  502    0  0.45387095361E+03  0.16261664580E+03  0.14232231138E+04  0.15026666456E+04  0.50400001928E-02 0. -1.
       -1    1    3    3    0  502 -0.45387095361E+03 -0.16261664580E+03 -0.10240307157E+04  0.11318488957E+04  0.50400001928E-02 0.  1.
</event>
<event>
 5   0  0.2586775E-06  0.2598533E+04  0.7818609E-02  0.8368700E-01
        2   -1    0    0  501    0  0.00000000000E+00  0.00000000000E+00  0.11998811756E+04  0.11998811756E+04  0.25500000920E-02 0.  1.
       -2   -1    0    0    0  501  0.00000000000E+00  0.00000000000E+00 -0.14068834888E+04  0.14068834888E+04  0.25500000920E-02 0. -1.
    10030    2    1    2    0    0  0.00000000000E+00  0.00000000000E+00 -0.20700231321E+03  0.26067646643E+04  0.25985326739E+04 0.  0.
        1    1    3    3  502    0 -0.53028528952E+03 -0.11804706117E+04 -0.21953807797E+03  0.13125967854E+04  0.50400001928E-02 0. -1.
       -1    1    3    3    0  502  0.53028528952E+03  0.11804706117E+04  0.12535764759E+02  0.12941678789E+04  0.50400001928E-02 0.  1.
</event>
<event>
 5   0  0.1122628E-06  0.2607594E+04  0.7818609E-02  0.8365626E-01
       -1   -1    0    0    0  501  0.00000000000E+00  0.00000000000E+00  0.92523203009E+03  0.92523203011E+03  0.50400001928E-02 0.  1.
        1   -1    0    0  501    0  0.00000000000E+00  0.00000000000E+00 -0.18372542254E+04  0.18372542254E+04  0.50400001928E-02 0. -1.
    10030    2    1    2    0    0  0.00000000000E+00  0.00000000000E+00 -0.91202219530E+03  0.27624862555E+04  0.26075938770E+04 0.  0.
        2    1    3    3  502    0  0.75399478580E+03 -0.32042126964E+03 -0.15305109095E+04  0.17359843234E+04  0.25500000920E-02 0. -1.
       -2    1    3    3    0  502 -0.75399478580E+03  0.32042126964E+03  0.61848871417E+03  0.10265019321E+04  0.25500000920E-02 0.  1.
</event>
<event>
 5   0  0.1055179E-06  0.2593742E+04  0.7818609E-02  0.8370330E-01
        1   -1    0    0  501    0  0.00000000000E+00  0.00000000000E+00  0.25791452369E+04  0.25791452369E+04  0.50400001928E-02 0.  1.
       -1   -1    0    0    0  501  0.00000000000E+00  0.00000000000E+00 -0.65210532971E+03  0.65210532973E+03  0.50400001928E-02 0. -1.
    10030    2    1    2    0    0  0.00000000000E+00  0.00000000000E+00  0.19270399071E+04  0.32312505666E+04  0.25937419726E+04 0.  0.
        3    1    3    3  502    0 -0.19453068622E+03  0.12275000059E+04  0.50194630739E+03  0.13403538929E+04  0.10100000352E+00 0. -1.
       -3    1    3    3    0  502  0.19453068622E+03 -0.12275000059E+04  0.14250935997E+04  0.18908966737E+04  0.10100000352E+00 0.  1.
</event>
<event>
 5   0  0.1100104E-06  0.2605653E+04  0.7818609E-02  0.8366283E-01
       -1   -1    0    0    0  501  0.00000000000E+00  0.00000000000E+00  0.11960664501E+04  0.11960664501E+04  0.50400001928E-02 0. -1.
        1   -1    0    0  501    0  0.00000000000E+00  0.00000000000E+00 -0.14191160731E+04  0.14191160731E+04  0.50400001928E-02 0.  1.
    10030    2    1    2    0    0  0.00000000000E+00  0.00000000000E+00 -0.22304962297E+03  0.26151825232E+04  0.26056531801E+04 0.  0.
        4    1    3    3  502    0 -0.24411815199E+03  0.99476353670E+03 -0.91958250534E+03  0.13765107203E+04  0.12699999809E+01 0.  1.
       -4    1    3    3    0  502  0.24411815199E+03 -0.99476353670E+03  0.69653288237E+03  0.12386718029E+04  0.12699999809E+01 0. -1.
</event>
<event>
 5   0  0.2586775E-06  0.2594527E+04  0.7818609E-02  0.8370062E-01
       -2   -1    0    0    0  501  0.00000000000E+00  0.00000000000E+00  0.90077076787E+03  0.90077076787E+03  0.25500000920E-02 0.  1.
        2   -1    0    0  501    0  0.00000000000E+00  0.00000000000E+00 -0.18682812920E+04  0.18682812920E+04  0.25500000920E-02 0. -1.
    10030    2    1    2    0    0  0.00000000000E+00  0.00000000000E+00 -0.96751052413E+03  0.27690520599E+04  0.25945274514E+04 0.  0.
        1    1    3    3  502    0 -0.74453953723E+03 -0.10930766957E+03  0.64402063069E+03  0.99047961206E+03  0.50400001928E-02 0.  1.
       -1    1    3    3    0  502  0.74453953723E+03  0.10930766957E+03 -0.16115311548E+04  0.17785724478E+04  0.50400001928E-02 0. -1.
</event>
<event>
 5   0  0.1122628E-06  0.2600069E+04  0.7818609E-02  0.8368178E-01
       -1   -1    0    0    0  501  0.00000000000E+00  0.00000000000E+00  0.14038693253E+04  0.14038693253E+04  0.50400001928E-02 0. -1.
        1   -1    0    0  501    0  0.00000000000E+00  0.00000000000E+00 -0.12038794690E+04  0.12038794690E+04  0.50400001928E-02 0.  1.
    10030    2    1    2    0    0  0.00000000000E+00  0.00000000000E+00  0.19998985636E+03  0.26077487943E+04  0.26000688129E+04 0.  0.
        2    1    3    3  502    0 -0.54510038864E+03  0.55032055381E+03  0.11471585382E+04  0.13841820174E+04  0.25500000920E-02 0. -1.
       -2    1    3    3    0  502  0.54510038864E+03 -0.55032055381E+03 -0.94716868184E+03  0.12235667769E+04  0.25500000920E-02 0.  1.
</event>
<event>
 5   0  0.1055179E-06  0.2601737E+04  0.7818609E-02  0.8367612E-01
       -1   -1    0    0    0  501  0.00000000000E+00  0.00000000000E+00  0.74602255197E+03  0.74602255198E+03  0.50400001928E-02 0. -1.
        1   -1    0    0  501    0  0.00000000000E+00  0.00000000000E+00 -0.22683743482E+04  0.22683743482E+04  0.50400001928E-02 0.  1.
    10030    2    1    2    0    0  0.00000000000E+00  0.00000000000E+00 -0.15223517962E+04  0.30143969001E+04  0.26017366662E+04 0.  0.
        3    1    3    3  502    0 -0.63789156322E+03  0.98834568215E+03 -0.11762532276E+03  0.11821880394E+04  0.10100000352E+00 0. -1.
       -3    1    3    3    0  502  0.63789156322E+03 -0.98834568215E+03 -0.14047264734E+04  0.18322088607E+04  0.10100000352E+00 0.  1.
</event>
<event>
 5   0  0.1088757E-06  0.2602663E+04  0.7818609E-02  0.8367297E-01
        1   -1    0    0  501    0  0.00000000000E+00  0.00000000000E+00  0.16546286250E+04  0.16546286250E+04  0.50400001928E-02 0.  1.
       -1   -1    0    0    0  501  0.00000000000E+00  0.00000000000E+00 -0.10234703922E+04  0.10234703923E+04  0.50400001928E-02 0. -1.
    10030    2    1    2    0    0  0.00000000000E+00  0.00000000000E+00  0.63115823271E+03  0.26780990172E+04  0.26026627963E+04 0.  0.
        5    1    3    3  502    0 -0.61789417432E+03 -0.29053780609E+03 -0.82433662208E+03  0.10704010388E+04  0.46999998093E+01 0. -1.
       -5    1    3    3    0  502  0.61789417432E+03  0.29053780609E+03  0.14554948548E+04  0.16076979784E+04  0.46999998093E+01 0.  1.
</event>
<event>
 5   0  0.2586775E-06  0.2603696E+04  0.7818609E-02  0.8366947E-01
       -2   -1    0    0    0  501  0.00000000000E+00  0.00000000000E+00  0.12863876484E+04  0.12863876484E+04  0.25500000920E-02 0. -1.
        2   -1    0    0  501    0  0.00000000000E+00  0.00000000000E+00 -0.13174940158E+04  0.13174940158E+04  0.25500000920E-02 0.  1.
    10030    2    1    2    0    0  0.00000000000E+00  0.00000000000E+00 -0.31106367402E+02  0.26038816643E+04  0.26036958569E+04 0.  0.
        1    1    3    3  502    0 -0.11143722123E+04  0.37513935503E+03 -0.57438914695E+03  0.13086167718E+04  0.50400001928E-02 0.  1.
       -1    1    3    3    0  502  0.11143722123E+04 -0.37513935503E+03  0.54328277955E+03  0.12952648925E+04  0.50400001928E-02 0. -1.
</event>
<event>
 5   0  0.1088757E-06  0.2599301E+04  0.7818609E-02  0.8368439E-01
       -1   -1    0    0    0  501  0.00000000000E+00  0.00000000000E+00  0.77043274995E+03  0.77043274997E+03  0.50400001928E-02 0.  1.
        1   -1    0    0  501    0  0.00000000000E+00  0.00000000000E+00 -0.21923924392E+04  0.21923924392E+04  0.50400001928E-02 0. -1.
    10030    2    1    2    0    0  0.00000000000E+00  0.00000000000E+00 -0.14219596893E+04  0.29628251892E+04  0.25993006259E+04 0.  0.
        5    1    3    3  502    0  0.42490569087E+03 -0.10373672022E+04  0.38550100823E+02  0.11216879061E+04  0.46999998093E+01 0.  1.
       -5    1    3    3    0  502 -0.42490569087E+03  0.10373672022E+04 -0.14605097901E+04  0.18411372831E+04  0.46999998093E+01 0. -1.
</event>
<event>
 5   0  0.2746631E-06  0.2597466E+04  0.7818609E-02  0.8369062E-01
       -2   -1    0    0    0  501  0.00000000000E+00  0.00000000000E+00  0.13825635526E+04  0.13825635526E+04  0.25500000920E-02 0. -1.
        2   -1    0    0  501    0  0.00000000000E+00  0.00000000000E+00 -0.12199857941E+04  0.12199857941E+04  0.25500000920E-02 0.  1.
    10030    2    1    2    0    0  0.00000000000E+00  0.00000000000E+00  0.16257775847E+03  0.26025493467E+04  0.25974663760E+04 0.  0.
        2    1    3    3  502    0 -0.21797525789E+03  0.24062281362E+03 -0.11786675714E+04  0.12225668879E+04  0.25500000920E-02 0.  1.
       -2    1    3    3    0  502  0.21797525789E+03 -0.24062281362E+03  0.13412453299E+04  0.13799824588E+04  0.25500000920E-02 0. -1.
</event>
<event>
 5   0  0.1122628E-06  0.2598082E+04  0.7818609E-02  0.8368853E-01
       -1   -1    0    0    0  501  0.00000000000E+00  0.00000000000E+00  0.65966756696E+03  0.65966756698E+03  0.50400001928E-02 0.  1.
        1   -1    0    0  501    0  0.00000000000E+00  0.00000000000E+00 -0.25581171233E+04  0.25581171233E+04  0.50400001928E-02 0. -1.
    10030    2    1    2    0    0  0.00000000000E+00  0.00000000000E+00 -0.18984495563E+04  0.32177846903E+04  0.25980815220E+04 0.  0.
        2    1    3    3  502    0 -0.73040356737E+02  0.10001988887E+04 -0.19718688010E+04  0.22122385222E+04  0.25500000920E-02 0. -1.
       -2    1    3    3    0  502  0.73040356737E+02 -0.10001988887E+04  0.73419244645E+02  0.10055461681E+04  0.25500000920E-02 0.  1.
</event>
<event>
 5   0  0.2623368E-06  0.2598474E+04  0.7818609E-02  0.8368720E-01
        2   -1    0    0  501    0  0.00000000000E+00  0.00000000000E+00  0.27758230230E+04  0.27758230230E+04  0.25500000920E-02 0.  1.
       -2   -1    0    0    0  501  0.00000000000E+00  0.00000000000E+00 -0.60811404145E+03  0.60811404146E+03  0.25500000920E-02 0. -1.
    10030    2    1    2    0    0  0.00000000000E+00  0.00000000000E+00  0.21677089816E+04  0.33839370645E+04  0.25984741345E+04 0.  0.
        5    1    3    3  502    0 -0.84297718607E+03 -0.18377503703E+03 -0.18117424808E+03  0.88160648740E+03  0.46999998093E+01 0. -1.
       -5    1    3    3    0  502  0.84297718607E+03  0.18377503703E+03  0.23488832296E+04  0.25023305771E+04  0.46999998093E+01 0.  1.
</event>
<event>
 5   0  0.2705807E-06  0.2596551E+04  0.7818609E-02  0.8369374E-01
       -2   -1    0    0    0  501  0.00000000000E+00  0.00000000000E+00  0.78002244305E+03  0.78002244306E+03  0.25500000920E-02 0.  1.
        2   -1    0    0  501    0  0.00000000000E+00  0.00000000000E+00 -0.21608592398E+04  0.21608592398E+04  0.25500000920E-02 0. -1.
    10030    2    1    2    0    0  0.00000000000E+00  0.00000000000E+00 -0.13808367968E+04  0.29408816829E+04  0.25965505605E+04 0.  0.
        4    1    3    3  502    0 -0.35103541849E+03 -0.52979282293E+03 -0.19726274733E+04  0.20724784828E+04  0.12699999809E+01 0. -1.
       -4    1    3    3    0  502  0.35103541849E+03  0.52979282293E+03  0.59179067652E+03  0.86840320012E+03  0.12699999809E+01 0.  1.
</event>
<event>
 5   0  0.2705807E-06  0.2597256E+04  0.7818609E-02  0.8369134E-01
        2   -1    0    0  501    0  0.00000000000E+00  0.00000000000E+00  0.12684070605E+04  0.12684070605E+04  0.25500000920E-02 0. -1.
       -2   -1    0    0    0  501  0.00000000000E+00  0.00000000000E+00 -0.13295687123E+04  0.13295687123E+04  0.25500000920E-02 0.  1.
    10030    2    1    2    0    0  0.00000000000E+00  0.00000000000E+00 -0.61161651793E+02  0.25979757728E+04  0.25972557380E+04 0.  0.
        4    1    3    3  502    0 -0.12924730350E+04  0.86749555839E+02  0.61208972912E+02  0.12968269672E+04  0.12699999809E+01 0. -1.
       -4    1    3    3    0  502  0.12924730350E+04 -0.86749555839E+02 -0.12237062471E+03  0.13011488056E+04  0.12699999809E+01 0.  1.
</event>
<event>
 5   0  0.1088757E-06  0.2593193E+04  0.7818609E-02  0.8370517E-01
        1   -1    0    0  501    0  0.00000000000E+00  0.00000000000E+00  0.18690687571E+04  0.18690687571E+04  0.50400001928E-02 0.  1.
       -1   -1    0    0    0  501  0.00000000000E+00  0.00000000000E+00 -0.89946533364E+03  0.89946533366E+03  0.50400001928E-02 0. -1.
    10030    2    1    2    0    0  0.00000000000E+00  0.00000000000E+00  0.96960342344E+03  0.27685340907E+04  0.25931930535E+04 0.  0.
        5    1    3    3  502    0  0.55838848413E+03  0.57013674824E+03  0.15758021654E+04  0.17663601460E+04  0.46999998093E+01 0.  1.
       -5    1    3    3    0  502 -0.55838848413E+03 -0.57013674824E+03 -0.60619874192E+03  0.10021739448E+04  0.46999998093E+01 0. -1.
</event>
<event>
 5   0  0.1088757E-06  0.2597357E+04  0.7818609E-02  0.8369100E-01
        1   -1    0    0  501    0  0.00000000000E+00  0.00000000000E+00  0.16224511176E+04  0.16224511176E+04  0.50400001928E-02 0.  1.
       -1   -1    0    0    0  501  0.00000000000E+00  0.00000000000E+00 -0.10395171616E+04  0.10395171616E+04  0.50400001928E-02 0. -1.
    10030    2    1    2    0    0  0.00000000000E+00  0.00000000000E+00  0.58293395596E+03  0.26619682792E+04  0.25973569493E+04 0.  0.
        5    1    3    3  502    0  0.39964387385E+03  0.86344955746E+03 -0.61442312736E+03  0.11326068310E+04  0.46999998093E+01 0. -1.
       -5    1    3    3    0  502 -0.39964387385E+03 -0.86344955746E+03  0.11973570833E+04  0.15293614482E+04  0.46999998093E+01 0.  1.
</event>
<event>
 5   0  0.1088757E-06  0.2599511E+04  0.7818609E-02  0.8368367E-01
       -1   -1    0    0    0  501  0.00000000000E+00  0.00000000000E+00  0.73045320524E+03  0.73045320525E+03  0.50400001928E-02 0.  1.
        1   -1    0    0  501    0  0.00000000000E+00  0.00000000000E+00 -0.23127625326E+04  0.23127625326E+04  0.50400001928E-02 0. -1.
    10030    2    1    2    0    0  0.00000000000E+00  0.00000000000E+00 -0.15823093274E+04  0.30432157379E+04  0.25995113425E+04 0.  0.
        5    1    3    3  502    0  0.33745944035E+03 -0.12277714875E+04 -0.10965246979E+04  0.16803839450E+04  0.46999998093E+01 0.  1.
       -5    1    3    3    0  502 -0.33745944035E+03  0.12277714875E+04 -0.48578462947E+03  0.13628317929E+04  0.46999998093E+01 0. -1.
</event>
<event>
 5   0  0.2705807E-06  0.2597471E+04  0.7818609E-02  0.8369061E-01
       -2   -1    0    0    0  501  0.00000000000E+00  0.00000000000E+00  0.10997718378E+04  0.10997718378E+04  0.25500000920E-02 0.  1.
        2   -1    0    0  501    0  0.00000000000E+00  0.00000000000E+00 -0.15336938839E+04  0.15336938839E+04  0.25500000920E-02 0. -1.
    10030    2    1    2    0    0  0.00000000000E+00  0.00000000000E+00 -0.43392204616E+03  0.26334657217E+04  0.25974705706E+04 0.  0.
        4    1    3    3  502    0  0.33018161263E+03 -0.51555015404E+03  0.94429339297E+03  0.11253903694E+04  0.12699999809E+01 0.  1.
       -4    1    3    3    0  502 -0.33018161263E+03  0.51555015404E+03 -0.13782154391E+04  0.15080753523E+04  0.12699999809E+01 0. -1.
</event>
<event>
 5   0  0.2623368E-06  0.2613630E+04  0.7818609E-02  0.8363586E-01
        2   -1    0    0  501    0  0.00000000000E+00  0.00000000000E+00  0.77764999429E+03  0.77764999429E+03  0.25500000920E-02 0. -1.
       -2   -1    0    0    0  501  0.00000000000E+00  0.00000000000E+00 -0.21960597822E+04  0.21960597822E+04  0.25500000920E-02 0.  1.
    10030    2    1    2    0    0  0.00000000000E+00  0.00000000000E+00 -0.14184097879E+04  0.29737097765E+04  0.26136303312E+04 0.  0.
        5    1    3    3  502    0 -0.71825997756E+03 -0.10187398359E+04 -0.26268924063E+03  0.12738743956E+04  0.46999998093E+01 0. -1.
       -5    1    3    3    0  502  0.71825997756E+03  0.10187398359E+04 -0.11557205473E+04  0.16998353809E+04  0.46999998093E+01 0.  1.
</event>
<event>
 5   0  0.1055179E-06  0.2600384E+04  0.7818609E-02  0.8368071E-01
       -1   -1    0    0    0  501  0.00000000000E+00  0.00000000000E+00  0.19771145449E+04  0.19771145449E+04  0.50400001928E-02 0.  1.
        1   -1    0    0  501    0  0.00000000000E+00  0.00000000000E+00 -0.85503332492E+03  0.85503332494E+03  0.50400001928E-02 0. -1.
    10030    2    1    2    0    0  0.00000000000E+00  0.00000000000E+00  0.11220812200E+04  0.28321478698E+04  0.26003836818E+04 0.  0.
        3    1    3    3  502    0 -0.19256846976E+02  0.88810678056E+03  0.15950771940E+04  0.18257534732E+04  0.10100000352E+00 0.  1.
       -3    1    3    3    0  502  0.19256846976E+02 -0.88810678056E+03 -0.47299597408E+03  0.10063943966E+04  0.10100000352E+00 0. -1.
</event>
<event>
 5   0  0.2705807E-06  0.2604652E+04  0.7818609E-02  0.8366623E-01
       -2   -1    0    0    0  501  0.00000000000E+00  0.00000000000E+00  0.93049549821E+03  0.93049549822E+03  0.25500000920E-02 0. -1.
        2   -1    0    0  501    0  0.00000000000E+00  0.00000000000E+00 -0.18227417524E+04  0.18227417524E+04  0.25500000920E-02 0.  1.
    10030    2    1    2    0    0  0.00000000000E+00  0.00000000000E+00 -0.89224625421E+03  0.27532372506E+04  0.26046519883E+04 0.  0.
        4    1    3    3  502    0 -0.11277009465E+04 -0.64439964445E+03 -0.54690933204E+03  0.14092805813E+04  0.12699999809E+01 0.  1.
       -4    1    3    3    0  502  0.11277009465E+04  0.64439964445E+03 -0.34533692218E+03  0.13439566694E+04  0.12699999809E+01 0. -1.
</event>
<event>
 5   0  0.2586775E-06  0.2601743E+04  0.7818609E-02  0.8367609E-01
        2   -1    0    0  501    0  0.00000000000E+00  0.00000000000E+00  0.15888522198E+04  0.15888522198E+04  0.25500000920E-02 0. -1.
       -2   -1    0    0    0  501  0.00000000000E+00  0.00000000000E+00 -0.10650878654E+04  0.10650878655E+04  0.25500000920E-02 0.  1.
    10030    2    1    2    0    0  0.00000000000E+00  0.00000000000E+00  0.52376435435E+03  0.26539400853E+04  0.26017434303E+04 0.  0.
        1    1    3    3  502    0 -0.70071150005E+03  0.37538859696E+03 -0.78851147842E+03  0.11196711824E+04  0.50400001928E-02 0.  1.
       -1    1    3    3    0  502  0.70071150005E+03 -0.37538859696E+03  0.13122758328E+04  0.15342689029E+04  0.50400001928E-02 0. -1.
</event>
<event>
 5   0  0.1055179E-06  0.2592042E+04  0.7818609E-02  0.8370909E-01
       -1   -1    0    0    0  501  0.00000000000E+00  0.00000000000E+00  0.82979092548E+03  0.82979092549E+03  0.50400001928E-02 0.  1.
        1   -1    0    0  501    0  0.00000000000E+00  0.00000000000E+00 -0.20242089568E+04  0.20242089568E+04  0.50400001928E-02 0. -1.
    10030    2    1    2    0    0  0.00000000000E+00  0.00000000000E+00 -0.11944180313E+04  0.28539998822E+04  0.25920418389E+04 0.  0.
        3    1    3    3  502    0  0.94902077813E+03 -0.43916572022E+03  0.24577867952E+03  0.10742039549E+04  0.10100000352E+00 0.  1.
       -3    1    3    3    0  502 -0.94902077813E+03  0.43916572022E+03 -0.14401967108E+04  0.17797959274E+04  0.10100000352E+00 0. -1.
</event>
<event>
 5   0  0.2820028E-06  0.2597510E+04  0.7818609E-02  0.8369047E-01
        2   -1    0    0  501    0  0.00000000000E+00  0.00000000000E+00  0.24321543371E+04  0.24321543371E+04  0.25500000920E-02 0.  1.
       -2   -1    0    0    0  501  0.00000000000E+00  0.00000000000E+00 -0.69352705269E+03  0.69352705270E+03  0.25500000920E-02 0. -1.
    10030    2    1    2    0    0  0.00000000000E+00  0.00000000000E+00  0.17386272844E+04  0.31256813898E+04  0.25975102149E+04 0.  0.
        3    1    3    3  502    0  0.51744548085E+03  0.40244663089E+03 -0.47984808641E+03  0.81238372251E+03  0.10100000352E+00 0.  1.
       -3    1    3    3    0  502 -0.51744548085E+03 -0.40244663089E+03  0.22184753708E+04  0.23132976673E+04  0.10100000352E+00 0. -1.
</event>
<event>
 5   0  0.1055179E-06  0.2600050E+04  0.7818609E-02  0.8368184E-01
       -1   -1    0    0    0  501  0.00000000000E+00  0.00000000000E+00  0.92053748141E+03  0.92053748142E+03  0.50400001928E-02 0. -1.
        1   -1    0    0  501    0  0.00000000000E+00  0.00000000000E+00 -0.18359543286E+04  0.18359543286E+04  0.50400001928E-02 0.  1.
    10030    2    1    2    0    0  0.00000000000E+00  0.00000000000E+00 -0.91541684722E+03  0.27564918101E+04  0.26000498254E+04 0.  0.
        3    1    3    3  502    0 -0.43724194554E+03 -0.15849808769E+03  0.82932196578E+03  0.95082968815E+03  0.10100000352E+00 0. -1.
       -3    1    3    3    0  502  0.43724194554E+03  0.15849808769E+03 -0.17447388130E+04  0.18056621219E+04  0.10100000352E+00 0.  1.
</event>
<event>
 5   0  0.1088757E-06  0.2542955E+04  0.7818609E-02  0.8387840E-01
       -1   -1    0    0    0  501  0.00000000000E+00  0.00000000000E+00  0.13207452419E+04  0.13207452420E+04  0.50400001928E-02 0.  1.
        1   -1    0    0  501    0  0.00000000000E+00  0.00000000000E+00 -0.12240478441E+04  0.12240478442E+04  0.50400001928E-02 0. -1.
    10030    2    1    2    0    0  0.00000000000E+00  0.00000000000E+00  0.96697397799E+02  0.25447930861E+04  0.25429552620E+04 0.  0.
        5    1    3    3  502    0  0.67379225955E+02 -0.53215257866E+03 -0.11052666950E+04  0.12285613066E+04  0.46999998093E+01 0. -1.
       -5    1    3    3    0  502 -0.67379225955E+02  0.53215257866E+03  0.12019640928E+04  0.13162317795E+04  0.46999998093E+01 0.  1.
</event>
<event>
 5   0  0.1032076E-06  0.2597774E+04  0.7818609E-02  0.8368958E-01
        1   -1    0    0  501    0  0.00000000000E+00  0.00000000000E+00  0.91835772028E+03  0.91835772029E+03  0.50400001928E-02 0. -1.
       -1   -1    0    0    0  501  0.00000000000E+00  0.00000000000E+00 -0.18370917024E+04  0.18370917024E+04  0.50400001928E-02 0.  1.
    10030    2    1    2    0    0  0.00000000000E+00  0.00000000000E+00 -0.91873398207E+03  0.27554494227E+04  0.25977739299E+04 0.  0.
        1    1    3    3  502    0  0.57487659945E+02  0.12228297149E+04 -0.91987294814E+03  0.15312686190E+04  0.50400001928E-02 0.  1.
       -1    1    3    3    0  502 -0.57487659945E+02 -0.12228297149E+04  0.11389660664E+01  0.12241808037E+04  0.50400001928E-02 0. -1.
</event>
<event>
 5   0  0.1032076E-06  0.2598705E+04  0.7818609E-02  0.8368641E-01
       -1   -1    0    0    0  501  0.00000000000E+00  0.00000000000E+00  0.75081778141E+03  0.75081778143E+03  0.50400001928E-02 0. -1.
        1   -1    0    0  501    0  0.00000000000E+00  0.00000000000E+00 -0.22486373339E+04  0.22486373339E+04  0.50400001928E-02 0.  1.
    10030    2    1    2    0    0  0.00000000000E+00  0.00000000000E+00 -0.14978195525E+04  0.29994551153E+04  0.25987049808E+04 0.  0.
        1    1    3    3  502    0  0.10350584464E+04  0.56632796808E+03 -0.12069256232E+03  0.11860185705E+04  0.50400001928E-02 0. -1.
       -1    1    3    3    0  502 -0.10350584464E+04 -0.56632796808E+03 -0.13771269901E+04  0.18134365448E+04  0.50400001928E-02 0.  1.
</event>
<event>
 5   0  0.2820028E-06  0.2599855E+04  0.7818609E-02  0.8368250E-01
        2   -1    0    0  501    0  0.00000000000E+00  0.00000000000E+00  0.19376896505E+04  0.19376896505E+04  0.25500000920E-02 0.  1.
       -2   -1    0    0    0  501  0.00000000000E+00  0.00000000000E+00 -0.87207565076E+03  0.87207565077E+03  0.25500000920E-02 0. -1.
    10030    2    1    2    0    0  0.00000000000E+00  0.00000000000E+00  0.10656139998E+04  0.28097653013E+04  0.25998553521E+04 0.  0.
        3    1    3    3  502    0  0.24245046002E+03  0.12654989947E+04  0.71856219353E+03  0.14753310026E+04  0.10100000352E+00 0.  1.
       -3    1    3    3    0  502 -0.24245046002E+03 -0.12654989947E+04  0.34705180625E+03  0.13344342987E+04  0.10100000352E+00 0. -1.
</event>
<event>
 5   0  0.1032076E-06  0.2600311E+04  0.7818609E-02  0.8368096E-01
        1   -1    0    0  501    0  0.00000000000E+00  0.00000000000E+00  0.13789376781E+04  0.13789376781E+04  0.50400001928E-02 0.  1.
       -1   -1    0    0    0  501  0.00000000000E+00  0.00000000000E+00 -0.12258744517E+04  0.12258744517E+04  0.50400001928E-02 0. -1.
    10030    2    1    2    0    0  0.00000000000E+00  0.00000000000E+00  0.15306322638E+03  0.26048121298E+04  0.26003111122E+04 0.  0.
        1    1    3    3  502    0 -0.16871278232E+03 -0.29164923386E+03 -0.11813813139E+04  0.12284889448E+04  0.50400001928E-02 0. -1.
       -1    1    3    3    0  502  0.16871278232E+03  0.29164923386E+03  0.13344445403E+04  0.13763231850E+04  0.50400001928E-02 0.  1.
</event>
<event>
 5   0  0.1122628E-06  0.2608301E+04  0.7818609E-02  0.8365387E-01
        1   -1    0    0  501    0  0.00000000000E+00  0.00000000000E+00  0.14929963231E+04  0.14929963231E+04  0.50400001928E-02 0. -1.
       -1   -1    0    0    0  501  0.00000000000E+00  0.00000000000E+00 -0.11391917783E+04  0.11391917783E+04  0.50400001928E-02 0.  1.
    10030    2    1    2    0    0  0.00000000000E+00  0.00000000000E+00  0.35380454482E+03  0.26321881014E+04  0.26083014675E+04 0.  0.
        2    1    3    3  502    0 -0.45155998154E+03 -0.12132725225E+04  0.17747779637E+02  0.12947013612E+04  0.25500000920E-02 0.  1.
       -2    1    3    3    0  502  0.45155998154E+03  0.12132725225E+04  0.33605676519E+03  0.13374867402E+04  0.25500000920E-02 0. -1.
</event>
<event>
 5   0  0.1088757E-06  0.2600228E+04  0.7818609E-02  0.8368124E-01
        1   -1    0    0  501    0  0.00000000000E+00  0.00000000000E+00  0.14355339632E+04  0.14355339632E+04  0.50400001928E-02 0.  1.
       -1   -1    0    0    0  501  0.00000000000E+00  0.00000000000E+00 -0.11774685197E+04  0.11774685197E+04  0.50400001928E-02 0. -1.
    10030    2    1    2    0    0  0.00000000000E+00  0.00000000000E+00  0.25806544348E+03  0.26130024829E+04  0.26002277213E+04 0.  0.
        5    1    3    3  502    0  0.63940044611E+03  0.10765388544E+04 -0.22269416461E+03  0.12717639783E+04  0.46999998093E+01 0. -1.
       -5    1    3    3    0  502 -0.63940044611E+03 -0.10765388544E+04  0.48075960809E+03  0.13412385046E+04  0.46999998093E+01 0.  1.
</event>
<event>
 5   0  0.2705807E-06  0.2603396E+04  0.7818609E-02  0.8367049E-01
        2   -1    0    0  501    0  0.00000000000E+00  0.00000000000E+00  0.10221803479E+04  0.10221803479E+04  0.25500000920E-02 0.  1.
       -2   -1    0    0    0  501  0.00000000000E+00  0.00000000000E+00 -0.16576505573E+04  0.16576505573E+04  0.25500000920E-02 0. -1.
    10030    2    1    2    0    0  0.00000000000E+00  0.00000000000E+00 -0.63547020940E+03  0.26798309053E+04  0.26033961078E+04 0.  0.
        4    1    3    3  502    0 -0.12338786560E+04  0.39496350678E+03 -0.18767885845E+03  0.13090751224E+04  0.12699999809E+01 0.  1.
       -4    1    3    3    0  502  0.12338786560E+04 -0.39496350678E+03 -0.44779135095E+03  0.13707557829E+04  0.12699999809E+01 0. -1.
</event>
<event>
 5   0  0.2820028E-06  0.2600347E+04  0.7818609E-02  0.8368083E-01
        2   -1    0    0  501    0  0.00000000000E+00  0.00000000000E+00  0.33350012862E+04  0.33350012862E+04  0.25500000920E-02 0.  1.
       -2   -1    0    0    0  501  0.00000000000E+00  0.00000000000E+00 -0.50688171239E+03  0.50688171240E+03  0.25500000920E-02 0. -1.
    10030    2    1    2    0    0  0.00000000000E+00  0.00000000000E+00  0.28281195739E+04  0.38418829986E+04  0.26003470252E+04 0.  0.
        3    1    3    3  502    0  0.11337284549E+04  0.86976366260E+01  0.23543442479E+04  0.26131116903E+04  0.10100000352E+00 0.  1.
       -3    1    3    3    0  502 -0.11337284549E+04 -0.86976366260E+01  0.47377532597E+03  0.12287713083E+04  0.10100000352E+00 0. -1.
</event>
<event>
 5   0  0.1100104E-06  0.2592735E+04  0.7818609E-02  0.8370673E-01
       -1   -1    0    0    0  501  0.00000000000E+00  0.00000000000E+00  0.10700949191E+04  0.10700949191E+04  0.50400001928E-02 0. -1.
        1   -1    0    0  501    0  0.00000000000E+00  0.00000000000E+00 -0.15704853399E+04  0.15704853399E+04  0.50400001928E-02 0.  1.
    10030    2    1    2    0    0  0.00000000000E+00  0.00000000000E+00 -0.50039042076E+03  0.26405802590E+04  0.25927347591E+04 0.  0.
        4    1    3    3  502    0  0.28594757381E+03 -0.57128915404E+02 -0.15366505910E+04  0.15640736490E+04  0.12699999809E+01 0.  1.
       -4    1    3    3    0  502 -0.28594757381E+03  0.57128915404E+02  0.10362601702E+04  0.10765066099E+04  0.12699999809E+01 0. -1.
</event>
<event>
 5   0  0.1122628E-06  0.2605499E+04  0.7818609E-02  0.8366336E-01
        1   -1    0    0  501    0  0.00000000000E+00  0.00000000000E+00  0.17422376896E+04  0.17422376896E+04  0.50400001928E-02 0.  1.
       -1   -1    0    0    0  501  0.00000000000E+00  0.00000000000E+00 -0.97412420108E+03  0.97412420109E+03  0.50400001928E-02 0. -1.
    10030    2    1    2    0    0  0.00000000000E+00  0.00000000000E+00  0.76811348855E+03  0.27163618907E+04  0.26054987220E+04 0.  0.
        2    1    3    3  502    0  0.99009293917E+03 -0.42903145801E+03  0.11450493777E+04  0.15733690278E+04  0.25500000920E-02 0.  1.
       -2    1    3    3    0  502 -0.99009293917E+03  0.42903145801E+03 -0.37693588919E+03  0.11429928629E+04  0.25500000920E-02 0. -1.
</event>
<event>
 5   0  0.1100104E-06  0.2601562E+04  0.7818609E-02  0.8367671E-01
        1   -1    0    0  501    0  0.00000000000E+00  0.00000000000E+00  0.24924618984E+04  0.24924618984E+04  0.50400001928E-02 0.  1.
       -1   -1    0    0    0  501  0.00000000000E+00  0.00000000000E+00 -0.67885957772E+03  0.67885957774E+03  0.50400001928E-02 0. -1.
    10030    2    1    2    0    0  0.00000000000E+00  0.00000000000E+00  0.18136023207E+04  0.31713214762E+04  0.26015623244E+04 0.  0.
        4    1    3    3  502    0  0.96129708432E+01  0.73382827293E+02  0.24898925088E+04  0.24909925264E+04  0.12699999809E+01 0.  1.
       -4    1    3    3    0  502 -0.96129708432E+01 -0.73382827293E+02 -0.67629018805E+03  0.68032894977E+03  0.12699999809E+01 0. -1.
</event>
<event>
 5   0  0.1032076E-06  0.2590742E+04  0.7818609E-02  0.8371353E-01
       -1   -1    0    0    0  501  0.00000000000E+00  0.00000000000E+00  0.98026108650E+03  0.98026108651E+03  0.50400001928E-02 0. -1.
        1   -1    0    0  501    0  0.00000000000E+00  0.00000000000E+00 -0.17117744844E+04  0.17117744844E+04  0.50400001928E-02 0.  1.
    10030    2    1    2    0    0  0.00000000000E+00  0.00000000000E+00 -0.73151339786E+03  0.26920355709E+04  0.25907419137E+04 0.  0.
        1    1    3    3  502    0 -0.31212216767E+02  0.91445466812E+03  0.58703718011E+03  0.10871127786E+04  0.50400001928E-02 0. -1.
       -1    1    3    3    0  502  0.31212216767E+02 -0.91445466812E+03 -0.13185505780E+04  0.16049227923E+04  0.50400001928E-02 0.  1.
</event>
<event>
 5   0  0.9197000E-07  0.2608483E+04  0.7818609E-02  0.8365326E-01
        3   -1    0    0  501    0  0.00000000000E+00  0.00000000000E+00  0.85366460747E+03  0.85366461345E+03  0.10100000352E+00 0.  1.
       -3   -1    0    0    0  501  0.00000000000E+00  0.00000000000E+00 -0.19926390900E+04  0.19926390926E+04  0.10100000352E+00 0. -1.
    10030    2    1    2    0    0  0.00000000000E+00  0.00000000000E+00 -0.11389744826E+04  0.28463037061E+04  0.26084826845E+04 0.  0.
        1    1    3    3  502    0  0.10985839716E+04 -0.69527583796E+03 -0.68262366965E+03  0.14684244305E+04  0.50400001928E-02 0.  1.
       -1    1    3    3    0  502 -0.10985839716E+04  0.69527583796E+03 -0.45635081292E+03  0.13778792756E+04  0.50400001928E-02 0. -1.
</event>
<event>
 5   0  0.1032076E-06  0.2603223E+04  0.7818609E-02  0.8367107E-01
       -1   -1    0    0    0  501  0.00000000000E+00  0.00000000000E+00  0.93668593746E+03  0.93668593747E+03  0.50400001928E-02 0. -1.
        1   -1    0    0  501    0  0.00000000000E+00  0.00000000000E+00 -0.18087090883E+04  0.18087090883E+04  0.50400001928E-02 0.  1.
    10030    2    1    2    0    0  0.00000000000E+00  0.00000000000E+00 -0.87202315084E+03  0.27453950258E+04  0.26032229009E+04 0.  0.
        1    1    3    3  502    0 -0.88302635967E+02  0.11880734359E+04  0.11690843930E+03  0.11970728582E+04  0.50400001928E-02 0. -1.
       -1    1    3    3    0  502  0.88302635967E+02 -0.11880734359E+04 -0.98893159014E+03  0.15483221676E+04  0.50400001928E-02 0.  1.
</event>
<event>
 5   0  0.2705807E-06  0.2601790E+04  0.7818609E-02  0.8367593E-01
        2   -1    0    0  501    0  0.00000000000E+00  0.00000000000E+00  0.15449336718E+04  0.15449336718E+04  0.25500000920E-02 0. -1.
       -2   -1    0    0    0  501  0.00000000000E+00  0.00000000000E+00 -0.10954052081E+04  0.10954052081E+04  0.25500000920E-02 0.  1.
    10030    2    1    2    0    0  0.00000000000E+00  0.00000000000E+00  0.44952846364E+03  0.26403388799E+04  0.26017904529E+04 0.  0.
        4    1    3    3  502    0 -0.53266618917E+03  0.11780986084E+04  0.78838130275E+02  0.12953249260E+04  0.12699999809E+01 0.  1.
       -4    1    3    3    0  502  0.53266618917E+03 -0.11780986084E+04  0.37069033337E+03  0.13450139539E+04  0.12699999809E+01 0. -1.
</event>
<event>
 5   0  0.2705807E-06  0.2598810E+04  0.7818609E-02  0.8368606E-01
        2   -1    0    0  501    0  0.00000000000E+00  0.00000000000E+00  0.15052106426E+04  0.15052106426E+04  0.25500000920E-02 0. -1.
       -2   -1    0    0    0  501  0.00000000000E+00  0.00000000000E+00 -0.11217386248E+04  0.11217386248E+04  0.25500000920E-02 0.  1.
    10030    2    1    2    0    0  0.00000000000E+00  0.00000000000E+00  0.38347201775E+03  0.26269492674E+04  0.25988096631E+04 0.  0.
        4    1    3    3  502    0  0.51486557084E+03 -0.11045791393E+04  0.64747218737E+03  0.13800012599E+04  0.12699999809E+01 0. -1.
       -4    1    3    3    0  502 -0.51486557084E+03  0.11045791393E+04 -0.26400016962E+03  0.12469480075E+04  0.12699999809E+01 0.  1.
</event>
<event>
 5   0  0.1032076E-06  0.2601085E+04  0.7818609E-02  0.8367833E-01
        1   -1    0    0  501    0  0.00000000000E+00  0.00000000000E+00  0.84007198098E+03  0.84007198099E+03  0.50400001928E-02 0.  1.
       -1   -1    0    0    0  501  0.00000000000E+00  0.00000000000E+00 -0.20134111543E+04  0.20134111543E+04  0.50400001928E-02 0. -1.
    10030    2    1    2    0    0  0.00000000000E+00  0.00000000000E+00 -0.11733391733E+04  0.28534831353E+04  0.26010846176E+04 0.  0.
        1    1    3    3  502    0  0.11726729922E+04 -0.12427836914E+03 -0.11883447470E+04  0.16741476331E+04  0.50400001928E-02 0. -1.
       -1    1    3    3    0  502 -0.11726729922E+04  0.12427836914E+03  0.15005573651E+02  0.11793355022E+04  0.50400001928E-02 0.  1.
</event>
<event>
 5   0  0.1100104E-06  0.2605363E+04  0.7818609E-02  0.8366382E-01
       -1   -1    0    0    0  501  0.00000000000E+00  0.00000000000E+00  0.12410660917E+04  0.12410660917E+04  0.50400001928E-02 0.  1.
        1   -1    0    0  501    0  0.00000000000E+00  0.00000000000E+00 -0.13673556142E+04  0.13673556142E+04  0.50400001928E-02 0. -1.
    10030    2    1    2    0    0  0.00000000000E+00  0.00000000000E+00 -0.12628952251E+03  0.26084217058E+04  0.26053626911E+04 0.  0.
        4    1    3    3  502    0 -0.12974354101E+04  0.64422308870E+02 -0.16066651073E+03  0.13089324726E+04  0.12699999809E+01 0. -1.
       -4    1    3    3    0  502  0.12974354101E+04 -0.64422308870E+02  0.34376988220E+02  0.12994892333E+04  0.12699999809E+01 0.  1.
</event>
<event>
 5   0  0.2705807E-06  0.2596250E+04  0.7818609E-02  0.8369476E-01
       -2   -1    0    0    0  501  0.00000000000E+00  0.00000000000E+00  0.15402659490E+04  0.15402659490E+04  0.25500000920E-02 0. -1.
        2   -1    0    0  501    0  0.00000000000E+00  0.00000000000E+00 -0.10940507646E+04  0.10940507646E+04  0.25500000920E-02 0.  1.
    10030    2    1    2    0    0  0.00000000000E+00  0.00000000000E+00  0.44621518439E+03  0.26343167136E+04  0.25962504804E+04 0.  0.
        4    1    3    3  502    0 -0.16636096353E+03 -0.91477110632E+03 -0.69606943508E+03  0.11614630508E+04  0.12699999809E+01 0.  1.
       -4    1    3    3    0  502  0.16636096353E+03  0.91477110632E+03  0.11422846195E+04  0.14728536628E+04  0.12699999809E+01 0. -1.
</event>
<event>
 5   0  0.2705807E-06  0.2599479E+04  0.7818609E-02  0.8368378E-01
       -2   -1    0    0    0  501  0.00000000000E+00  0.00000000000E+00  0.92388288522E+03  0.92388288522E+03  0.25500000920E-02 0. -1.
        2   -1    0    0  501    0  0.00000000000E+00  0.00000000000E+00 -0.18285035962E+04  0.18285035962E+04  0.25500000920E-02 0.  1.
    10030    2    1    2    0    0  0.00000000000E+00  0.00000000000E+00 -0.90462071102E+03  0.27523864815E+04  0.25994793157E+04 0.  0.
        4    1    3    3  502    0 -0.15668009408E+02  0.50037781921E+03  0.81770182905E+03  0.95878117556E+03  0.12699999809E+01 0. -1.
       -4    1    3    3    0  502  0.15668009408E+02 -0.50037781921E+03 -0.17223225401E+04  0.17936053059E+04  0.12699999809E+01 0.  1.
</event>
<event>
 5   0  0.2623368E-06  0.2598338E+04  0.7818609E-02  0.8368766E-01
        2   -1    0    0  501    0  0.00000000000E+00  0.00000000000E+00  0.25866206200E+04  0.25866206200E+04  0.25500000920E-02 0.  1.
       -2   -1    0    0    0  501  0.00000000000E+00  0.00000000000E+00 -0.65252688086E+03  0.65252688086E+03  0.25500000920E-02 0. -1.
    10030    2    1    2    0    0  0.00000000000E+00  0.00000000000E+00  0.19340937392E+04  0.32391475009E+04  0.25983375340E+04 0.  0.
        5    1    3    3  502    0  0.12658196734E+03  0.96854041560E+03  0.20348753017E+04  0.22571737006E+04  0.46999998093E+01 0. -1.
       -5    1    3    3    0  502 -0.12658196734E+03 -0.96854041560E+03 -0.10078156255E+03  0.98197380029E+03  0.46999998093E+01 0.  1.
</event>
<event>
 5   0  0.2586775E-06  0.2594339E+04  0.7818609E-02  0.8370127E-01
       -2   -1    0    0    0  501  0.00000000000E+00  0.00000000000E+00  0.78252333669E+03  0.78252333669E+03  0.25500000920E-02 0. -1.
        2   -1    0    0  501    0  0.00000000000E+00  0.00000000000E+00 -0.21502855094E+04  0.21502855094E+04  0.25500000920E-02 0.  1.
    10030    2    1    2    0    0  0.00000000000E+00  0.00000000000E+00 -0.13677621728E+04  0.29328088461E+04  0.25943389075E+04 0.  0.
        1    1    3    3  502    0 -0.12757006384E+04  0.16070726581E+03 -0.49001494855E+03  0.13759918583E+04  0.50400001928E-02 0.  1.
       -1    1    3    3    0  502  0.12757006384E+04 -0.16070726581E+03 -0.87774722420E+03  0.15568169879E+04  0.50400001928E-02 0. -1.
</event>
<event>
 5   0  0.1088757E-06  0.2601721E+04  0.7818609E-02  0.8367617E-01
        1   -1    0    0  501    0  0.00000000000E+00  0.00000000000E+00  0.13193150108E+04  0.13193150108E+04  0.50400001928E-02 0.  1.
       -1   -1    0    0    0  501  0.00000000000E+00  0.00000000000E+00 -0.12826644066E+04  0.12826644066E+04  0.50400001928E-02 0. -1.
    10030    2    1    2    0    0  0.00000000000E+00  0.00000000000E+00  0.36650604224E+02  0.26019794175E+04  0.26017212806E+04 0.  0.
        5    1    3    3  502    0  0.88533685680E+03  0.22715027674E+03 -0.90740022132E+03  0.12879502513E+04  0.46999998093E+01 0. -1.
       -5    1    3    3    0  502 -0.88533685680E+03 -0.22715027674E+03  0.94405082555E+03  0.13140291661E+04  0.46999998093E+01 0.  1.
</event>
<event>
 5   0  0.2623368E-06  0.2598447E+04  0.7818609E-02  0.8368729E-01
        2   -1    0    0  501    0  0.00000000000E+00  0.00000000000E+00  0.20378180166E+04  0.20378180166E+04  0.25500000920E-02 0. -1.
       -2   -1    0    0    0  501  0.00000000000E+00  0.00000000000E+00 -0.82832813788E+03  0.82832813789E+03  0.25500000920E-02 0.  1.
    10030    2    1    2    0    0  0.00000000000E+00  0.00000000000E+00  0.12094898787E+04  0.28661461545E+04  0.25984472310E+04 0.  0.
        5    1    3    3  502    0  0.12562627150E+04 -0.31472941561E+03  0.71889205746E+03  0.14812422133E+04  0.46999998093E+01 0.  1.
       -5    1    3    3    0  502 -0.12562627150E+04  0.31472941561E+03  0.49059782127E+03  0.13849039412E+04  0.46999998093E+01 0. -1.
</event>
<event>
 5   0  0.1122628E-06  0.2590200E+04  0.7818609E-02  0.8371538E-01
        1   -1    0    0  501    0  0.00000000000E+00  0.00000000000E+00  0.14405710336E+04  0.14405710336E+04  0.50400001928E-02 0. -1.
       -1   -1    0    0    0  501  0.00000000000E+00  0.00000000000E+00 -0.11643190862E+04  0.11643190863E+04  0.50400001928E-02 0.  1.
    10030    2    1    2    0    0  0.00000000000E+00  0.00000000000E+00  0.27625194733E+03  0.26048901198E+04  0.25902002622E+04 0.  0.
        2    1    3    3  502    0 -0.14277374919E+02  0.12903661308E+04  0.27796199629E+02  0.12907444455E+04  0.25500000920E-02 0. -1.
       -2    1    3    3    0  502  0.14277374919E+02 -0.12903661308E+04  0.24845574770E+03  0.13141456744E+04  0.25500000920E-02 0.  1.
</event>
<event>
 5   0  0.2623368E-06  0.2608192E+04  0.7818609E-02  0.8365424E-01
       -2   -1    0    0    0  501  0.00000000000E+00  0.00000000000E+00  0.67660781114E+03  0.67660781114E+03  0.25500000920E-02 0.  1.
        2   -1    0    0  501    0  0.00000000000E+00  0.00000000000E+00 -0.25135194888E+04  0.25135194888E+04  0.25500000920E-02 0. -1.
    10030    2    1    2    0    0  0.00000000000E+00  0.00000000000E+00 -0.18369116777E+04  0.31901273000E+04  0.26081924159E+04 0.  0.
        5    1    3    3  502    0 -0.33288647663E+03  0.72034944952E+03 -0.21842076041E+04  0.23238979503E+04  0.46999998093E+01 0. -1.
       -5    1    3    3    0  502  0.33288647663E+03 -0.72034944952E+03  0.34729592638E+03  0.86622934967E+03  0.46999998093E+01 0.  1.
</event>
<event>
 5   0  0.1055179E-06  0.2594365E+04  0.7818609E-02  0.8370118E-01
        1   -1    0    0  501    0  0.00000000000E+00  0.00000000000E+00  0.13590668318E+04  0.13590668318E+04  0.50400001928E-02 0.  1.
       -1   -1    0    0    0  501  0.00000000000E+00  0.00000000000E+00 -0.12381162793E+04  0.12381162793E+04  0.50400001928E-02 0. -1.
    10030    2    1    2    0    0  0.00000000000E+00  0.00000000000E+00  0.12095055255E+03  0.25971831111E+04  0.25943652550E+04 0.  0.
        3    1    3    3  502    0  0.56512359946E+03  0.41156863206E+03  0.11543328108E+04  0.13495323894E+04  0.10100000352E+00 0.  1.
       -3    1    3    3    0  502 -0.56512359946E+03 -0.41156863206E+03 -0.10333822583E+04  0.12476507218E+04  0.10100000352E+00 0. -1.
</event>
<event>
 5   0  0.1100104E-06  0.2602926E+04  0.7818609E-02  0.8367208E-01
       -1   -1    0    0    0  501  0.00000000000E+00  0.00000000000E+00  0.13810000205E+04  0.13810000205E+04  0.50400001928E-02 0.  1.
        1   -1    0    0  501    0  0.00000000000E+00  0.00000000000E+00 -0.12265071827E+04  0.12265071827E+04  0.50400001928E-02 0. -1.
    10030    2    1    2    0    0  0.00000000000E+00  0.00000000000E+00  0.15449283782E+03  0.26075072031E+04  0.26029263873E+04 0.  0.
        4    1    3    3  502    0  0.74644465930E+03  0.10585747377E+04  0.20413711934E+03  0.13112717800E+04  0.12699999809E+01 0.  1.
       -4    1    3    3    0  502 -0.74644465930E+03 -0.10585747377E+04 -0.49644281528E+02  0.12962354231E+04  0.12699999809E+01 0. -1.
</event>
<event>
 5   0  0.1055179E-06  0.2596988E+04  0.7818609E-02  0.8369225E-01
       -1   -1    0    0    0  501  0.00000000000E+00  0.00000000000E+00  0.14930684853E+04  0.14930684853E+04  0.50400001928E-02 0. -1.
        1   -1    0    0  501    0  0.00000000000E+00  0.00000000000E+00 -0.11292761987E+04  0.11292761987E+04  0.50400001928E-02 0.  1.
    10030    2    1    2    0    0  0.00000000000E+00  0.00000000000E+00  0.36379228663E+03  0.26223446840E+04  0.25969880273E+04 0.  0.
        3    1    3    3  502    0 -0.81498590388E+03  0.10021616009E+04  0.31569193501E+03  0.13297335469E+04  0.10100000352E+00 0. -1.
       -3    1    3    3    0  502  0.81498590388E+03 -0.10021616009E+04  0.48100351623E+02  0.12926111371E+04  0.10100000352E+00 0.  1.
</event>
<event>
 5   0  0.1055179E-06  0.2601419E+04  0.7818609E-02  0.8367719E-01
       -1   -1    0    0    0  501  0.00000000000E+00  0.00000000000E+00  0.65895389692E+03  0.65895389694E+03  0.50400001928E-02 0.  1.
        1   -1    0    0  501    0  0.00000000000E+00  0.00000000000E+00 -0.25674719446E+04  0.25674719446E+04  0.50400001928E-02 0. -1.
    10030    2    1    2    0    0  0.00000000000E+00  0.00000000000E+00 -0.19085180476E+04  0.32264258415E+04  0.26014193381E+04 0.  0.
        3    1    3    3  502    0 -0.49331806471E+03 -0.11402634184E+04 -0.47666826332E+03  0.13307050837E+04  0.10100000352E+00 0.  1.
       -3    1    3    3    0  502  0.49331806471E+03  0.11402634184E+04 -0.14318497843E+04  0.18957207578E+04  0.10100000352E+00 0. -1.
</event>
<event>
 5   0  0.2746631E-06  0.2598448E+04  0.7818609E-02  0.8368729E-01
        2   -1    0    0  501    0  0.00000000000E+00  0.00000000000E+00  0.19110016110E+04  0.19110016110E+04  0.25500000920E-02 0.  1.
       -2   -1    0    0    0  501  0.00000000000E+00  0.00000000000E+00 -0.88329759722E+03  0.88329759722E+03  0.25500000920E-02 0. -1.
    10030    2    1    2    0    0  0.00000000000E+00  0.00000000000E+00  0.10277040138E+04  0.27942992083E+04  0.25984480994E+04 0.  0.
        2    1    3    3  502    0  0.45308313409E+03 -0.11101180109E+04  0.10519002468E+04  0.15950361920E+04  0.25500000920E-02 0.  1.
       -2    1    3    3    0  502 -0.45308313409E+03  0.11101180109E+04 -0.24196232964E+02  0.11992630163E+04  0.25500000920E-02 0. -1.
</event>
<event>
 5   0  0.1088757E-06  0.2595568E+04  0.7818609E-02  0.8369708E-01
        1   -1    0    0  501    0  0.00000000000E+00  0.00000000000E+00  0.12222876975E+04  0.12222876975E+04  0.50400001928E-02 0.  1.
       -1   -1    0    0    0  501  0.00000000000E+00  0.00000000000E+00 -0.13779432733E+04  0.13779432734E+04  0.50400001928E-02 0. -1.
    10030    2    1    2    0    0  0.00000000000E+00  0.00000000000E+00 -0.15565557589E+03  0.26002309708E+04  0.25955678460E+04 0.  0.
        5    1    3    3  502    0 -0.71734292830E+01  0.58672713129E+03 -0.12374569053E+04  0.13695334487E+04  0.46999998093E+01 0. -1.
       -5    1    3    3    0  502  0.71734292830E+01 -0.58672713129E+03  0.10818013294E+04  0.12306975221E+04  0.46999998093E+01 0.  1.
</event>
<event>
 5   0  0.1122628E-06  0.2604237E+04  0.7818609E-02  0.8366763E-01
       -1   -1    0    0    0  501  0.00000000000E+00  0.00000000000E+00  0.10416738058E+04  0.10416738058E+04  0.50400001928E-02 0. -1.
        1   -1    0    0  501    0  0.00000000000E+00  0.00000000000E+00 -0.16276809030E+04  0.16276809030E+04  0.50400001928E-02 0.  1.
    10030    2    1    2    0    0  0.00000000000E+00  0.00000000000E+00 -0.58600709717E+03  0.26693547089E+04  0.26042369792E+04 0.  0.
        2    1    3    3  502    0 -0.34765727147E+03  0.10514095854E+02  0.99317761101E+03  0.10523202420E+04  0.25500000920E-02 0. -1.
       -2    1    3    3    0  502  0.34765727147E+03 -0.10514095854E+02 -0.15791847082E+04  0.16170344669E+04  0.25500000920E-02 0.  1.
</event>
<event>
 5   0  0.1055179E-06  0.2602983E+04  0.7818609E-02  0.8367189E-01
       -1   -1    0    0    0  501  0.00000000000E+00  0.00000000000E+00  0.15056327932E+04  0.15056327932E+04  0.50400001928E-02 0. -1.
        1   -1    0    0  501    0  0.00000000000E+00  0.00000000000E+00 -0.11250284475E+04  0.11250284475E+04  0.50400001928E-02 0.  1.
    10030    2    1    2    0    0  0.00000000000E+00  0.00000000000E+00  0.38060434573E+03  0.26306612407E+04  0.26029826921E+04 0.  0.
        3    1    3    3  502    0 -0.75215560418E+03 -0.37675899785E+03 -0.81333073714E+03  0.11701249051E+04  0.10100000352E+00 0.  1.
       -3    1    3    3    0  502  0.75215560418E+03  0.37675899785E+03  0.11939350829E+04  0.14605363356E+04  0.10100000352E+00 0. -1.
</event>
<event>
 5   0  0.2586775E-06  0.2605268E+04  0.7818609E-02  0.8366414E-01
        2   -1    0    0  501    0  0.00000000000E+00  0.00000000000E+00  0.21596329143E+04  0.21596329143E+04  0.25500000920E-02 0.  1.
       -2   -1    0    0    0  501  0.00000000000E+00  0.00000000000E+00 -0.78571448711E+03  0.78571448712E+03  0.25500000920E-02 0. -1.
    10030    2    1    2    0    0  0.00000000000E+00  0.00000000000E+00  0.13739184272E+04  0.29453474014E+04  0.26052676389E+04 0.  0.
        1    1    3    3  502    0 -0.32570889424E+03  0.12603886239E+04  0.63406391804E+03  0.14479995922E+04  0.50400001928E-02 0. -1.
       -1    1    3    3    0  502  0.32570889424E+03 -0.12603886239E+04  0.73985450913E+03  0.14973478092E+04  0.50400001928E-02 0.  1.
</event>
<event>
 5   0  0.2746631E-06  0.2613568E+04  0.7818609E-02  0.8363607E-01
       -2   -1    0    0    0  501  0.00000000000E+00  0.00000000000E+00  0.12773783473E+04  0.12773783473E+04  0.25500000920E-02 0. -1.
        2   -1    0    0  501    0  0.00000000000E+00  0.00000000000E+00 -0.13368661386E+04  0.13368661386E+04  0.25500000920E-02 0.  1.
    10030    2    1    2    0    0  0.00000000000E+00  0.00000000000E+00 -0.59487791303E+02  0.26142444860E+04  0.26135675685E+04 0.  0.
        2    1    3    3  502    0 -0.68088286305E+03  0.47696064172E+03  0.97877858641E+03  0.12841730600E+04  0.25500000920E-02 0. -1.
       -2    1    3    3    0  502  0.68088286305E+03 -0.47696064172E+03 -0.10382663777E+04  0.13300714259E+04  0.25500000920E-02 0.  1.
</event>
<event>
 5   0  0.1055179E-06  0.2597742E+04  0.7818609E-02  0.8368969E-01
       -1   -1    0    0    0  501  0.00000000000E+00  0.00000000000E+00  0.11091151166E+04  0.11091151166E+04  0.50400001928E-02 0. -1.
        1   -1    0    0  501    0  0.00000000000E+00  0.00000000000E+00 -0.15210916931E+04  0.15210916931E+04  0.50400001928E-02 0.  1.
    10030    2    1    2    0    0  0.00000000000E+00  0.00000000000E+00 -0.41197657647E+03  0.26302068098E+04  0.25977419353E+04 0.  0.
        3    1    3    3  502    0  0.50199037415E+03  0.21608273534E+03 -0.13990090992E+04  0.15019695584E+04  0.10100000352E+00 0.  1.
       -3    1    3    3    0  502 -0.50199037415E+03 -0.21608273534E+03  0.98703252277E+03  0.11282372514E+04  0.10100000352E+00 0. -1.
</event>
<event>
 5   0  0.2586775E-06  0.2641776E+04  0.7818609E-02  0.8354148E-01
        2   -1    0    0  501    0  0.00000000000E+00  0.00000000000E+00  0.19489528667E+04  0.19489528667E+04  0.25500000920E-02 0.  1.
       -2   -1    0    0    0  501  0.00000000000E+00  0.00000000000E+00 -0.89522200111E+03  0.89522200112E+03  0.25500000920E-02 0. -1.
    10030    2    1    2    0    0  0.00000000000E+00  0.00000000000E+00  0.10537308656E+04  0.28441748678E+04  0.26417762853E+04 0.  0.
        1    1    3    3  502    0 -0.10425583799E+04  0.71976552498E+03  0.92934523253E+03  0.15712011163E+04  0.50400001928E-02 0. -1.
       -1    1    3    3    0  502  0.10425583799E+04 -0.71976552498E+03  0.12438563306E+03  0.12729737516E+04  0.50400001928E-02 0.  1.
</event>
<event>
 5   0  0.1032076E-06  0.2604692E+04  0.7818609E-02  0.8366609E-01
       -1   -1    0    0    0  501  0.00000000000E+00  0.00000000000E+00  0.81111497747E+03  0.81111497749E+03  0.50400001928E-02 0. -1.
        1   -1    0    0  501    0  0.00000000000E+00  0.00000000000E+00 -0.20910789081E+04  0.20910789081E+04  0.50400001928E-02 0.  1.
    10030    2    1    2    0    0  0.00000000000E+00  0.00000000000E+00 -0.12799639306E+04  0.29021938856E+04  0.26046922440E+04 0.  0.
        1    1    3    3  502    0  0.45744725386E+02 -0.11239579451E+04  0.91280465456E+02  0.11285859142E+04  0.50400001928E-02 0. -1.
       -1    1    3    3    0  502 -0.45744725386E+02  0.11239579451E+04 -0.13712443961E+04  0.17736079714E+04  0.50400001928E-02 0.  1.
</event>
<event>
 5   0  0.1055179E-06  0.2605579E+04  0.7818609E-02  0.8366309E-01
        1   -1    0    0  501    0  0.00000000000E+00  0.00000000000E+00  0.16122994806E+04  0.16122994807E+04  0.50400001928E-02 0. -1.
       -1   -1    0    0    0  501  0.00000000000E+00  0.00000000000E+00 -0.10526956676E+04  0.10526956676E+04  0.50400001928E-02 0.  1.
    10030    2    1    2    0    0  0.00000000000E+00  0.00000000000E+00  0.55960381302E+03  0.26649951483E+04  0.26055791511E+04 0.  0.
        3    1    3    3  502    0 -0.97237838546E+03 -0.55872629621E+03  0.95791812904E+03  0.14748904877E+04  0.10100000352E+00 0. -1.
       -3    1    3    3    0  502  0.97237838546E+03  0.55872629621E+03 -0.39831431602E+03  0.11901046606E+04  0.10100000352E+00 0.  1.
</event>
<event>
 5   0  0.2705807E-06  0.2603859E+04  0.7818609E-02  0.8366892E-01
        2   -1    0    0  501    0  0.00000000000E+00  0.00000000000E+00  0.94986467435E+03  0.94986467436E+03  0.25500000920E-02 0.  1.
       -2   -1    0    0    0  501  0.00000000000E+00  0.00000000000E+00 -0.17844858833E+04  0.17844858833E+04  0.25500000920E-02 0. -1.
    10030    2    1    2    0    0  0.00000000000E+00  0.00000000000E+00 -0.83462120899E+03  0.27343505577E+04  0.26038587538E+04 0.  0.
        4    1    3    3  502    0 -0.11430922470E+04  0.61387721086E+03 -0.52998833350E+03  0.14015685362E+04  0.12699999809E+01 0.  1.
       -4    1    3    3    0  502  0.11430922470E+04 -0.61387721086E+03 -0.30463287550E+03  0.13327820215E+04  0.12699999809E+01 0. -1.
</event>
<event>
 5   0  0.2623368E-06  0.2599322E+04  0.7818609E-02  0.8368431E-01
       -2   -1    0    0    0  501  0.00000000000E+00  0.00000000000E+00  0.14187784273E+04  0.14187784273E+04  0.25500000920E-02 0.  1.
        2   -1    0    0  501    0  0.00000000000E+00  0.00000000000E+00 -0.11905448205E+04  0.11905448205E+04  0.25500000920E-02 0. -1.
    10030    2    1    2    0    0  0.00000000000E+00  0.00000000000E+00  0.22823360685E+03  0.26093232478E+04  0.25993224563E+04 0.  0.
        5    1    3    3  502    0 -0.60503141221E+03  0.11478225962E+04  0.39416144000E+02  0.12981276688E+04  0.46999998093E+01 0.  1.
       -5    1    3    3    0  502  0.60503141221E+03 -0.11478225962E+04  0.18881746285E+03  0.13111955790E+04  0.46999998093E+01 0. -1.
</event>
<event>
 5   0  0.9197000E-07  0.2589629E+04  0.7818609E-02  0.8371733E-01
        3   -1    0    0  501    0  0.00000000000E+00  0.00000000000E+00  0.98111887854E+03  0.98111888374E+03  0.10100000352E+00 0.  1.
       -3   -1    0    0    0  501  0.00000000000E+00  0.00000000000E+00 -0.17088087498E+04  0.17088087528E+04  0.10100000352E+00 0. -1.
    10030    2    1    2    0    0  0.00000000000E+00  0.00000000000E+00 -0.72768987128E+03  0.26899276365E+04  0.25896289582E+04 0.  0.
        5    1    3    3  502    0  0.14371731771E+03 -0.12215186317E+04 -0.78419099704E+03  0.14586774986E+04  0.46999998093E+01 0. -1.
       -5    1    3    3    0  502 -0.14371731771E+03  0.12215186317E+04  0.56501125758E+02  0.12312501380E+04  0.46999998093E+01 0.  1.
</event>
<event>
 5   0  0.2586775E-06  0.2587211E+04  0.7818609E-02  0.8372558E-01
        2   -1    0    0  501    0  0.00000000000E+00  0.00000000000E+00  0.11828696975E+04  0.11828696975E+04  0.25500000920E-02 0. -1.
       -2   -1    0    0    0  501  0.00000000000E+00  0.00000000000E+00 -0.14147083745E+04  0.14147083745E+04  0.25500000920E-02 0.  1.
    10030    2    1    2    0    0  0.00000000000E+00  0.00000000000E+00 -0.23183867697E+03  0.25975780720E+04  0.25872113690E+04 0.  0.
        1    1    3    3  502    0  0.72294415821E+03  0.95281918774E+03  0.37890738229E+03  0.12546248303E+04  0.50400001928E-02 0. -1.
       -1    1    3    3    0  502 -0.72294415821E+03 -0.95281918774E+03 -0.61074605926E+03  0.13429532417E+04  0.50400001928E-02 0.  1.
</event>
<event>
 5   0  0.2623368E-06  0.2613552E+04  0.7818609E-02  0.8363613E-01
       -2   -1    0    0    0  501  0.00000000000E+00  0.00000000000E+00  0.98164517078E+03  0.98164517078E+03  0.25500000920E-02 0.  1.
        2   -1    0    0  501    0  0.00000000000E+00  0.00000000000E+00 -0.17395931550E+04  0.17395931550E+04  0.25500000920E-02 0. -1.
    10030    2    1    2    0    0  0.00000000000E+00  0.00000000000E+00 -0.75794798418E+03  0.27212383257E+04  0.26135517746E+04 0.  0.
        5    1    3    3  502    0 -0.11957515338E+04  0.50654980744E+03 -0.53067086416E+03  0.14028713748E+04  0.46999998093E+01 0.  1.
       -5    1    3    3    0  502  0.11957515338E+04 -0.50654980744E+03 -0.22727712003E+03  0.13183669510E+04  0.46999998093E+01 0. -1.
</event>
<event>
 5   0  0.2705807E-06  0.2598418E+04  0.7818609E-02  0.8368739E-01
        2   -1    0    0  501    0  0.00000000000E+00  0.00000000000E+00  0.18214765009E+04  0.18214765009E+04  0.25500000920E-02 0.  1.
       -2   -1    0    0    0  501  0.00000000000E+00  0.00000000000E+00 -0.92669023688E+03  0.92669023688E+03  0.25500000920E-02 0. -1.
    10030    2    1    2    0    0  0.00000000000E+00  0.00000000000E+00  0.89478626398E+03  0.27481667377E+04  0.25984183574E+04 0.  0.
        4    1    3    3  502    0  0.12354941986E+04  0.29742374738E+03  0.73321978344E+03  0.14671467766E+04  0.12699999809E+01 0.  1.
       -4    1    3    3    0  502 -0.12354941986E+04 -0.29742374738E+03  0.16156648054E+03  0.12810199611E+04  0.12699999809E+01 0. -1.
</event>
<event>
 5   0  0.1055179E-06  0.2597363E+04  0.7818609E-02  0.8369097E-01
       -1   -1    0    0    0  501  0.00000000000E+00  0.00000000000E+00  0.12261228312E+04  0.12261228312E+04  0.50400001928E-02 0. -1.
        1   -1    0    0  501    0  0.00000000000E+00  0.00000000000E+00 -0.13755341095E+04  0.13755341095E+04  0.50400001928E-02 0.  1.
    10030    2    1    2    0    0  0.00000000000E+00  0.00000000000E+00 -0.14941127837E+03  0.26016569407E+04  0.25973631065E+04 0.  0.
        3    1    3    3  502    0 -0.55505435038E+03  0.11545227565E+04 -0.28851961849E+03  0.13131076527E+04  0.10100000352E+00 0.  1.
       -3    1    3    3    0  502  0.55505435038E+03 -0.11545227565E+04  0.13910834011E+03  0.12885492880E+04  0.10100000352E+00 0. -1.
</event>
<event>
 5   0  0.1055179E-06  0.2611144E+04  0.7818609E-02  0.8364426E-01
       -1   -1    0    0    0  501  0.00000000000E+00  0.00000000000E+00  0.10982493827E+04  0.10982493827E+04  0.50400001928E-02 0.  1.
        1   -1    0    0  501    0  0.00000000000E+00  0.00000000000E+00 -0.15520315863E+04  0.15520315863E+04  0.50400001928E-02 0. -1.
    10030    2    1    2    0    0  0.00000000000E+00  0.00000000000E+00 -0.45378220367E+03  0.26502809690E+04  0.26111436051E+04 0.  0.
        3    1    3    3  502    0  0.66383595618E+03 -0.57702241478E+03  0.75239389639E+03  0.11574669021E+04  0.10100000352E+00 0.  1.
       -3    1    3    3    0  502 -0.66383595618E+03  0.57702241478E+03 -0.12061761001E+04  0.14928140669E+04  0.10100000352E+00 0. -1.
</event>
<event>
 5   0  0.2820028E-06  0.2585824E+04  0.7818609E-02  0.8373032E-01
       -2   -1    0    0    0  501  0.00000000000E+00  0.00000000000E+00  0.12365481148E+04  0.12365481148E+04  0.25500000920E-02 0.  1.
        2   -1    0    0  501    0  0.00000000000E+00  0.00000000000E+00 -0.13518453605E+04  0.13518453605E+04  0.25500000920E-02 0. -1.
    10030    2    1    2    0    0  0.00000000000E+00  0.00000000000E+00 -0.11529724578E+03  0.25883934753E+04  0.25858243034E+04 0.  0.
        3    1    3    3  502    0  0.60584274693E+03 -0.82852144101E+03 -0.84464132659E+03  0.13292524941E+04  0.10100000352E+00 0. -1.
       -3    1    3    3    0  502 -0.60584274693E+03  0.82852144101E+03  0.72934408081E+03  0.12591409812E+04  0.10100000352E+00 0.  1.
</event>
<event>
 5   0  0.2705807E-06  0.2607696E+04  0.7818609E-02  0.8365592E-01
       -2   -1    0    0    0  501  0.00000000000E+00  0.00000000000E+00  0.10929114583E+04  0.10929114583E+04  0.25500000920E-02 0.  1.
        2   -1    0    0  501    0  0.00000000000E+00  0.00000000000E+00 -0.15554958185E+04  0.15554958185E+04  0.25500000920E-02 0. -1.
    10030    2    1    2    0    0  0.00000000000E+00  0.00000000000E+00 -0.46258436026E+03  0.26484072768E+04  0.26076956903E+04 0.  0.
        4    1    3    3  502    0  0.31297570387E+03  0.84430638510E+03 -0.11889936656E+04  0.14914806780E+04  0.12699999809E+01 0. -1.
       -4    1    3    3    0  502 -0.31297570387E+03 -0.84430638510E+03  0.72640930534E+03  0.11569265988E+04  0.12699999809E+01 0.  1.
</event>
<event>
 5   0  0.1122628E-06  0.2598335E+04  0.7818609E-02  0.8368767E-01
        1   -1    0    0  501    0  0.00000000000E+00  0.00000000000E+00  0.17737109508E+04  0.17737109509E+04  0.50400001928E-02 0. -1.
       -1   -1    0    0    0  501  0.00000000000E+00  0.00000000000E+00 -0.95158434915E+03  0.95158434916E+03  0.50400001928E-02 0.  1.
    10030    2    1    2    0    0  0.00000000000E+00  0.00000000000E+00  0.82212660170E+03  0.27252953000E+04  0.25983345287E+04 0.  0.
        2    1    3    3  502    0 -0.20130436864E+03 -0.12747619489E+04  0.56767115177E+03  0.14098907801E+04  0.25500000920E-02 0. -1.
       -2    1    3    3    0  502  0.20130436864E+03  0.12747619489E+04  0.25445544993E+03  0.13154045200E+04  0.25500000920E-02 0.  1.
</event>
<event>
 5   0  0.1032076E-06  0.2601873E+04  0.7818609E-02  0.8367565E-01
       -1   -1    0    0    0  501  0.00000000000E+00  0.00000000000E+00  0.12836984342E+04  0.12836984343E+04  0.50400001928E-02 0. -1.
        1   -1    0    0  501    0  0.00000000000E+00  0.00000000000E+00 -0.13184056899E+04  0.13184056899E+04  0.50400001928E-02 0.  1.
    10030    2    1    2    0    0  0.00000000000E+00  0.00000000000E+00 -0.34707255680E+02  0.26021041242E+04  0.26018726486E+04 0.  0.
        1    1    3    3  502    0 -0.88073009872E+03 -0.93557483228E+03  0.18625610107E+03  0.12983362849E+04  0.50400001928E-02 0. -1.
       -1    1    3    3    0  502  0.88073009872E+03  0.93557483228E+03 -0.22096335675E+03  0.13037678392E+04  0.50400001928E-02 0.  1.
</event>
<event>
 5   0  0.1122628E-06  0.2609916E+04  0.7818609E-02  0.8364841E-01
       -1   -1    0    0    0  501  0.00000000000E+00  0.00000000000E+00  0.95065616429E+03  0.95065616430E+03  0.50400001928E-02 0.  1.
        1   -1    0    0  501    0  0.00000000000E+00  0.00000000000E+00 -0.17913053391E+04  0.17913053391E+04  0.50400001928E-02 0. -1.
    10030    2    1    2    0    0  0.00000000000E+00  0.00000000000E+00 -0.84064917482E+03  0.27419615034E+04  0.26099160621E+04 0.  0.
        2    1    3    3  502    0  0.19423906748E+03 -0.35086334633E+03 -0.17249579638E+04  0.17709641103E+04  0.25500000920E-02 0. -1.
       -2    1    3    3    0  502 -0.19423906748E+03  0.35086334633E+03  0.88430878898E+03  0.97099739310E+03  0.25500000920E-02 0.  1.
</event>
<event>
 5   0  0.2705807E-06  0.2606204E+04  0.7818609E-02  0.8366097E-01
       -2   -1    0    0    0  501  0.00000000000E+00  0.00000000000E+00  0.93648021929E+03  0.93648021930E+03  0.25500000920E-02 0.  1.
        2   -1    0    0  501    0  0.00000000000E+00  0.00000000000E+00 -0.18132527198E+04  0.18132527198E+04  0.25500000920E-02 0. -1.
    10030    2    1    2    0    0  0.00000000000E+00  0.00000000000E+00 -0.87677250053E+03  0.27497329391E+04  0.26062043701E+04 0.  0.
        4    1    3    3  502    0  0.98717028008E+03 -0.59773149057E+02 -0.13336417527E+04  0.16603252479E+04  0.12699999809E+01 0. -1.
       -4    1    3    3    0  502 -0.98717028008E+03  0.59773149057E+02  0.45686925221E+03  0.10894076912E+04  0.12699999809E+01 0.  1.
</event>
<event>
 5   0  0.2705807E-06  0.2599717E+04  0.7818609E-02  0.8368297E-01
       -2   -1    0    0    0  501  0.00000000000E+00  0.00000000000E+00  0.18501424631E+04  0.18501424631E+04  0.25500000920E-02 0.  1.
        2   -1    0    0  501    0  0.00000000000E+00  0.00000000000E+00 -0.91324439137E+03  0.91324439138E+03  0.25500000920E-02 0. -1.
    10030    2    1    2    0    0  0.00000000000E+00  0.00000000000E+00  0.93689807174E+03  0.27633868545E+04  0.25997170828E+04 0.  0.
        4    1    3    3  502    0  0.69177691291E+02 -0.11640743967E+02  0.18481282420E+04  0.18494595620E+04  0.12699999809E+01 0.  1.
       -4    1    3    3    0  502 -0.69177691291E+02  0.11640743967E+02 -0.91123017023E+03  0.91392729247E+03  0.12699999809E+01 0. -1.
</event>
<event>
 5   0  0.2623368E-06  0.2600350E+04  0.7818609E-02  0.8368082E-01
        2   -1    0    0  501    0  0.00000000000E+00  0.00000000000E+00  0.19843313483E+04  0.19843313483E+04  0.25500000920E-02 0.  1.
       -2   -1    0    0    0  501  0.00000000000E+00  0.00000000000E+00 -0.85190144610E+03  0.85190144611E+03  0.25500000920E-02 0. -1.
    10030    2    1    2    0    0  0.00000000000E+00  0.00000000000E+00  0.11324299022E+04  0.28362327944E+04  0.26003497804E+04 0.  0.
        5    1    3    3  502    0  0.43887368607E+03  0.73198419899E+03 -0.50358489933E+03  0.99097468218E+03  0.46999998093E+01 0. -1.
       -5    1    3    3    0  502 -0.43887368607E+03 -0.73198419899E+03  0.16360148015E+04  0.18452581122E+04  0.46999998093E+01 0.  1.
</event>
<event>
 5   0  0.1055179E-06  0.2596669E+04  0.7818609E-02  0.8369333E-01
       -1   -1    0    0    0  501  0.00000000000E+00  0.00000000000E+00  0.11088534801E+04  0.11088534801E+04  0.50400001928E-02 0.  1.
        1   -1    0    0  501    0  0.00000000000E+00  0.00000000000E+00 -0.15201942282E+04  0.15201942282E+04  0.50400001928E-02 0. -1.
    10030    2    1    2    0    0  0.00000000000E+00  0.00000000000E+00 -0.41134074807E+03  0.26290477083E+04  0.25966691436E+04 0.  0.
        3    1    3    3  502    0  0.67238079410E+03  0.88292117393E+03  0.47654680463E+03  0.12077841690E+04  0.10100000352E+00 0.  1.
       -3    1    3    3    0  502 -0.67238079410E+03 -0.88292117393E+03 -0.88788755270E+03  0.14212635393E+04  0.10100000352E+00 0. -1.
</event>
<event>
 5   0  0.1122628E-06  0.2618614E+04  0.7818609E-02  0.8361906E-01
        1   -1    0    0  501    0  0.00000000000E+00  0.00000000000E+00  0.31921714089E+04  0.31921714089E+04  0.50400001928E-02 0. -1.
       -1   -1    0    0    0  501  0.00000000000E+00  0.00000000000E+00 -0.53702777010E+03  0.53702777012E+03  0.50400001928E-02 0.  1.
    10030    2    1    2    0    0  0.00000000000E+00  0.00000000000E+00  0.26551436388E+04  0.37291991790E+04  0.26186139032E+04 0.  0.
        2    1    3    3  502    0  0.53710861193E+03  0.37343517958E+03  0.29427590614E+04  0.30145929058E+04  0.25500000920E-02 0. -1.
       -2    1    3    3    0  502 -0.53710861193E+03 -0.37343517958E+03 -0.28761542261E+03  0.71460627319E+03  0.25500000920E-02 0.  1.
</event>
<event>
 5   0  0.2586775E-06  0.2610001E+04  0.7818609E-02  0.8364812E-01
        2   -1    0    0  501    0  0.00000000000E+00  0.00000000000E+00  0.17408588674E+04  0.17408588674E+04  0.25500000920E-02 0. -1.
       -2   -1    0    0    0  501  0.00000000000E+00  0.00000000000E+00 -0.97826771490E+03  0.97826771490E+03  0.25500000920E-02 0.  1.
    10030    2    1    2    0    0  0.00000000000E+00  0.00000000000E+00  0.76259115252E+03  0.27191265823E+04  0.26100007864E+04 0.  0.
        1    1    3    3  502    0 -0.92307376481E+03 -0.22030131788E+03 -0.55194126161E+03  0.10978328663E+04  0.50400001928E-02 0.  1.
       -1    1    3    3    0  502  0.92307376481E+03  0.22030131788E+03  0.13145324141E+04  0.16212937161E+04  0.50400001928E-02 0. -1.
</event>
<event>
 5   0  0.1100104E-06  0.2599168E+04  0.7818609E-02  0.8368484E-01
        1   -1    0    0  501    0  0.00000000000E+00  0.00000000000E+00  0.94285012732E+03  0.94285012734E+03  0.50400001928E-02 0. -1.
       -1   -1    0    0    0  501  0.00000000000E+00  0.00000000000E+00 -0.17912908491E+04  0.17912908492E+04  0.50400001928E-02 0.  1.
    10030    2    1    2    0    0  0.00000000000E+00  0.00000000000E+00 -0.84844072182E+03  0.27341409765E+04  0.25991681786E+04 0.  0.
        4    1    3    3  502    0  0.63362218205E+03 -0.16370300558E+02 -0.16176720330E+04  0.17374145951E+04  0.12699999809E+01 0.  1.
       -4    1    3    3    0  502 -0.63362218205E+03  0.16370300558E+02  0.76923131113E+03  0.99672638134E+03  0.12699999809E+01 0. -1.
</event>
<event>
 5   0  0.2705807E-06  0.2602414E+04  0.7818609E-02  0.8367382E-01
       -2   -1    0    0    0  501  0.00000000000E+00  0.00000000000E+00  0.15477373499E+04  0.15477373499E+04  0.25500000920E-02 0.  1.
        2   -1    0    0  501    0  0.00000000000E+00  0.00000000000E+00 -0.10939449699E+04  0.10939449699E+04  0.25500000920E-02 0. -1.
    10030    2    1    2    0    0  0.00000000000E+00  0.00000000000E+00  0.45379238000E+03  0.26416823198E+04  0.26024138707E+04 0.  0.
        4    1    3    3  502    0 -0.21324150893E+03 -0.16664226043E+02  0.15297695526E+04  0.15446508132E+04  0.12699999809E+01 0.  1.
       -4    1    3    3    0  502  0.21324150893E+03  0.16664226043E+02 -0.10759771726E+04  0.10970315066E+04  0.12699999809E+01 0. -1.
</event>
<event>
 5   0  0.9197000E-07  0.2622348E+04  0.7818609E-02  0.8360649E-01
        3   -1    0    0  501    0  0.00000000000E+00  0.00000000000E+00  0.18377404568E+04  0.18377404595E+04  0.10100000352E+00 0. -1.
       -3   -1    0    0    0  501  0.00000000000E+00  0.00000000000E+00 -0.93548456614E+03  0.93548457159E+03  0.10100000352E+00 0.  1.
    10030    2    1    2    0    0  0.00000000000E+00  0.00000000000E+00  0.90225589062E+03  0.27732250311E+04  0.26223484477E+04 0.  0.
        3    1    3    3  502    0 -0.39618033507E+03 -0.69804688439E+03 -0.64532184500E+03  0.10298876660E+04  0.10100000352E+00 0.  1.
       -3    1    3    3    0  502  0.39618033507E+03  0.69804688439E+03  0.15475777356E+04  0.17433373651E+04  0.10100000352E+00 0. -1.
</event>
<event>
 5   0  0.2746631E-06  0.2572623E+04  0.7818609E-02  0.8377560E-01
       -2   -1    0    0    0  501  0.00000000000E+00  0.00000000000E+00  0.13227358146E+04  0.13227358146E+04  0.25500000920E-02 0. -1.
        2   -1    0    0  501    0  0.00000000000E+00  0.00000000000E+00 -0.12508901637E+04  0.12508901637E+04  0.25500000920E-02 0.  1.
    10030    2    1    2    0    0  0.00000000000E+00  0.00000000000E+00  0.71845650925E+02  0.25736259783E+04  0.25726229569E+04 0.  0.
        2    1    3    3  502    0 -0.18075813727E+03 -0.73161922831E+03  0.10787576748E+04  0.13159248916E+04  0.25500000920E-02 0. -1.
       -2    1    3    3    0  502  0.18075813727E+03  0.73161922831E+03 -0.10069120239E+04  0.12577010866E+04  0.25500000920E-02 0.  1.
</event>
<event>
 5   0  0.1100104E-06  0.2599554E+04  0.7818609E-02  0.8368353E-01
        1   -1    0    0  501    0  0.00000000000E+00  0.00000000000E+00  0.23019499485E+04  0.23019499485E+04  0.50400001928E-02 0.  1.
       -1   -1    0    0    0  501  0.00000000000E+00  0.00000000000E+00 -0.73390847884E+03  0.73390847885E+03  0.50400001928E-02 0. -1.
    10030    2    1    2    0    0  0.00000000000E+00  0.00000000000E+00  0.15680414696E+04  0.30358584273E+04  0.25995542580E+04 0.  0.
        4    1    3    3  502    0 -0.10408642365E+04 -0.63325776238E+03  0.13127886415E+04  0.17910414241E+04  0.12699999809E+01 0.  1.
       -4    1    3    3    0  502  0.10408642365E+04  0.63325776238E+03  0.25525282813E+03  0.12448170033E+04  0.12699999809E+01 0. -1.
</event>
<event>
 5   0  0.2705807E-06  0.2599504E+04  0.7818609E-02  0.8368370E-01
        2   -1    0    0  501    0  0.00000000000E+00  0.00000000000E+00  0.15831031459E+04  0.15831031459E+04  0.25500000920E-02 0.  1.
       -2   -1    0    0    0  501  0.00000000000E+00  0.00000000000E+00 -0.10671166911E+04  0.10671166911E+04  0.25500000920E-02 0. -1.
    10030    2    1    2    0    0  0.00000000000E+00  0.00000000000E+00  0.51598645474E+03  0.26502198370E+04  0.25995044072E+04 0.  0.
        4    1    3    3  502    0 -0.12301568191E+04  0.31173176110E+03 -0.28363219151E+02  0.12693575445E+04  0.12699999809E+01 0. -1.
       -4    1    3    3    0  502  0.12301568191E+04 -0.31173176110E+03  0.54434967389E+03  0.13808622925E+04  0.12699999809E+01 0.  1.
</event>
<event>
 5   0  0.1055179E-06  0.2598253E+04  0.7818609E-02  0.8368795E-01
       -1   -1    0    0    0  501  0.00000000000E+00  0.00000000000E+00  0.14234033430E+04  0.14234033430E+04  0.50400001928E-02 0. -1.
        1   -1    0    0  501    0  0.00000000000E+00  0.00000000000E+00 -0.11857005837E+04  0.11857005837E+04  0.50400001928E-02 0.  1.
    10030    2    1    2    0    0  0.00000000000E+00  0.00000000000E+00  0.23770275932E+03  0.26091039267E+04  0.25982533938E+04 0.  0.
        3    1    3    3  502    0  0.30852112875E+03 -0.90446041177E+03 -0.76487848622E+03  0.12240396367E+04  0.10100000352E+00 0.  1.
       -3    1    3    3    0  502 -0.30852112875E+03  0.90446041177E+03  0.10025812455E+04  0.13850642900E+04  0.10100000352E+00 0. -1.
</event>
<event>
 5   0  0.2623368E-06  0.2599054E+04  0.7818609E-02  0.8368523E-01
       -2   -1    0    0    0  501  0.00000000000E+00  0.00000000000E+00  0.34874154726E+04  0.34874154726E+04  0.25500000920E-02 0. -1.
        2   -1    0    0  501    0  0.00000000000E+00  0.00000000000E+00 -0.48424708001E+03  0.48424708002E+03  0.25500000920E-02 0.  1.
    10030    2    1    2    0    0  0.00000000000E+00  0.00000000000E+00  0.30031683925E+04  0.39716625526E+04  0.25990542583E+04 0.  0.
        5    1    3    3  502    0 -0.99161492677E+03  0.68662195409E+03  0.22407873479E+04  0.25447789491E+04  0.46999998093E+01 0. -1.
       -5    1    3    3    0  502  0.99161492677E+03 -0.68662195409E+03  0.76238104460E+03  0.14268836035E+04  0.46999998093E+01 0.  1.
</event>
<event>
 5   0  0.2623368E-06  0.2606847E+04  0.7818609E-02  0.8365879E-01
       -2   -1    0    0    0  501  0.00000000000E+00  0.00000000000E+00  0.16561358385E+04  0.16561358385E+04  0.25500000920E-02 0. -1.
        2   -1    0    0  501    0  0.00000000000E+00  0.00000000000E+00 -0.10258291625E+04  0.10258291625E+04  0.25500000920E-02 0.  1.
    10030    2    1    2    0    0  0.00000000000E+00  0.00000000000E+00  0.63030667602E+03  0.26819650010E+04  0.26068467083E+04 0.  0.
        5    1    3    3  502    0  0.62799371595E+03 -0.11175286162E+04  0.72466110980E+02  0.12839469391E+04  0.46999998093E+01 0.  1.
       -5    1    3    3    0  502 -0.62799371595E+03  0.11175286162E+04  0.55784056504E+03  0.13980180619E+04  0.46999998093E+01 0. -1.
</event>
<event>
 5   0  0.2586775E-06  0.2602947E+04  0.7818609E-02  0.8367201E-01
       -2   -1    0    0    0  501  0.00000000000E+00  0.00000000000E+00  0.13815524714E+04  0.13815524714E+04  0.25500000920E-02 0.  1.
        2   -1    0    0  501    0  0.00000000000E+00  0.00000000000E+00 -0.12260357155E+04  0.12260357155E+04  0.25500000920E-02 0. -1.
    10030    2    1    2    0    0  0.00000000000E+00  0.00000000000E+00  0.15551675588E+03  0.26075881869E+04  0.26029465402E+04 0.  0.
        1    1    3    3  502    0 -0.70877536229E+03  0.73561273280E+03 -0.73011881399E+03  0.12556122369E+04  0.50400001928E-02 0. -1.
       -1    1    3    3    0  502  0.70877536229E+03 -0.73561273280E+03  0.88563556987E+03  0.13519759500E+04  0.50400001928E-02 0.  1.
</event>
<event>
 5   0  0.1100104E-06  0.2606957E+04  0.7818609E-02  0.8365842E-01
        1   -1    0    0  501    0  0.00000000000E+00  0.00000000000E+00  0.13486242231E+04  0.13486242231E+04  0.50400001928E-02 0. -1.
       -1   -1    0    0    0  501  0.00000000000E+00  0.00000000000E+00 -0.12598437235E+04  0.12598437235E+04  0.50400001928E-02 0.  1.
    10030    2    1    2    0    0  0.00000000000E+00  0.00000000000E+00  0.88780499580E+02  0.26084679466E+04  0.26069566646E+04 0.  0.
        4    1    3    3  502    0  0.13003791177E+04 -0.85843792616E+01 -0.45074159278E+02  0.13011890078E+04  0.12699999809E+01 0. -1.
       -4    1    3    3    0  502 -0.13003791177E+04  0.85843792616E+01  0.13385465886E+03  0.13072789388E+04  0.12699999809E+01 0.  1.
</event>
<event>
 5   0  0.1055179E-06  0.2603080E+04  0.7818609E-02  0.8367156E-01
       -1   -1    0    0    0  501  0.00000000000E+00  0.00000000000E+00  0.11251416078E+04  0.11251416078E+04  0.50400001928E-02 0.  1.
        1   -1    0    0  501    0  0.00000000000E+00  0.00000000000E+00 -0.15055938118E+04  0.15055938118E+04  0.50400001928E-02 0. -1.
    10030    2    1    2    0    0  0.00000000000E+00  0.00000000000E+00 -0.38045220400E+03  0.26307354196E+04  0.26030799005E+04 0.  0.
        3    1    3    3  502    0 -0.67361330645E+03  0.62289536576E+03 -0.11232093981E+04  0.14502940686E+04  0.10100000352E+00 0. -1.
       -3    1    3    3    0  502  0.67361330645E+03 -0.62289536576E+03  0.74275719413E+03  0.11804413509E+04  0.10100000352E+00 0.  1.
</event>
<event>
 5   0  0.1055179E-06  0.2602281E+04  0.7818609E-02  0.8367427E-01
        1   -1    0    0  501    0  0.00000000000E+00  0.00000000000E+00  0.21344515875E+04  0.21344515875E+04  0.50400001928E-02 0.  1.
       -1   -1    0    0    0  501  0.00000000000E+00  0.00000000000E+00 -0.79316220078E+03  0.79316220079E+03  0.50400001928E-02 0. -1.
    10030    2    1    2    0    0  0.00000000000E+00  0.00000000000E+00  0.13412893867E+04  0.29276137883E+04  0.26022807831E+04 0.  0.
        3    1    3    3  502    0  0.55938500420E+03 -0.11130619621E+04  0.24797931346E+03  0.12701622985E+04  0.10100000352E+00 0. -1.
       -3    1    3    3    0  502 -0.55938500420E+03  0.11130619621E+04  0.10933100732E+04  0.16574514897E+04  0.10100000352E+00 0.  1.
</event>
<event>
 5   0  0.2705807E-06  0.2603668E+04  0.7818609E-02  0.8366956E-01
       -2   -1    0    0    0  501  0.00000000000E+00  0.00000000000E+00  0.18736614937E+04  0.18736614937E+04  0.25500000920E-02 0.  1.
        2   -1    0    0  501    0  0.00000000000E+00  0.00000000000E+00 -0.90452410082E+03  0.90452410082E+03  0.25500000920E-02 0. -1.
    10030    2    1    2    0    0  0.00000000000E+00  0.00000000000E+00  0.96913739292E+03  0.27781855946E+04  0.26036681646E+04 0.  0.
        4    1    3    3  502    0  0.95103655024E+03 -0.14282444135E+03  0.14208213698E+04  0.17156935387E+04  0.12699999809E+01 0.  1.
       -4    1    3    3    0  502 -0.95103655024E+03  0.14282444135E+03 -0.45168397687E+03  0.10624920559E+04  0.12699999809E+01 0. -1.
</event>
<event>
 5   0  0.1088757E-06  0.2599334E+04  0.7818609E-02  0.8368427E-01
        1   -1    0    0  501    0  0.00000000000E+00  0.00000000000E+00  0.20808053912E+04  0.20808053913E+04  0.50400001928E-02 0. -1.
       -1   -1    0    0    0  501  0.00000000000E+00  0.00000000000E+00 -0.81176966009E+03  0.81176966011E+03  0.50400001928E-02 0.  1.
    10030    2    1    2    0    0  0.00000000000E+00  0.00000000000E+00  0.12690357312E+04  0.28925750514E+04  0.25993342880E+04 0.  0.
        5    1    3    3  502    0  0.11783725763E+04  0.35616416472E+03  0.17072976450E+03  0.12428135755E+04  0.46999998093E+01 0.  1.
       -5    1    3    3    0  502 -0.11783725763E+04 -0.35616416472E+03  0.10983059667E+04  0.16497614759E+04  0.46999998093E+01 0. -1.
</event>
<event>
 5   0  0.1100104E-06  0.2636110E+04  0.7818609E-02  0.8356038E-01
        1   -1    0    0  501    0  0.00000000000E+00  0.00000000000E+00  0.27599569580E+04  0.27599569580E+04  0.50400001928E-02 0. -1.
       -1   -1    0    0    0  501  0.00000000000E+00  0.00000000000E+00 -0.62945505205E+03  0.62945505207E+03  0.50400001928E-02 0.  1.
    10030    2    1    2    0    0  0.00000000000E+00  0.00000000000E+00  0.21305019059E+04  0.33894120101E+04  0.26361098996E+04 0.  0.
        4    1    3    3  502    0 -0.11782206961E+04 -0.16794628837E+03  0.33694007565E+03  0.12369075115E+04  0.12699999809E+01 0.  1.
       -4    1    3    3    0  502  0.11782206961E+04  0.16794628837E+03  0.17935618303E+04  0.21525044986E+04  0.12699999809E+01 0. -1.
</event>
<event>
 5   0  0.1122628E-06  0.2601847E+04  0.7818609E-02  0.8367574E-01
        1   -1    0    0  501    0  0.00000000000E+00  0.00000000000E+00  0.22482103166E+04  0.22482103166E+04  0.50400001928E-02 0.  1.
       -1   -1    0    0    0  501  0.00000000000E+00  0.00000000000E+00 -0.75277737034E+03  0.75277737036E+03  0.50400001928E-02 0. -1.
    10030    2    1    2    0    0  0.00000000000E+00  0.00000000000E+00  0.14954329463E+04  0.30009876870E+04  0.26018469210E+04 0.  0.
        2    1    3    3  502    0  0.91776129887E+03 -0.45343785634E+03 -0.17825446348E+03  0.10390699423E+04  0.25500000920E-02 0. -1.
       -2    1    3    3    0  502 -0.91776129887E+03  0.45343785634E+03  0.16736874097E+04  0.19619177447E+04  0.25500000920E-02 0.  1.
</event>
<event>
 5   0  0.2820028E-06  0.2599104E+04  0.7818609E-02  0.8368505E-01
        2   -1    0    0  501    0  0.00000000000E+00  0.00000000000E+00  0.20277397796E+04  0.20277397796E+04  0.25500000920E-02 0.  1.
       -2   -1    0    0    0  501  0.00000000000E+00  0.00000000000E+00 -0.83286615625E+03  0.83286615625E+03  0.25500000920E-02 0. -1.
    10030    2    1    2    0    0  0.00000000000E+00  0.00000000000E+00  0.11948736234E+04  0.28606059359E+04  0.25991043351E+04 0.  0.
        3    1    3    3  502    0 -0.10591075079E+04 -0.33866859508E+03 -0.14286762637E+03  0.11210781862E+04  0.10100000352E+00 0. -1.
       -3    1    3    3    0  502  0.10591075079E+04  0.33866859508E+03  0.13377412497E+04  0.17395277497E+04  0.10100000352E+00 0.  1.
</event>
<event>
 5   0  0.2705807E-06  0.2586231E+04  0.7818609E-02  0.8372893E-01
        2   -1    0    0  501    0  0.00000000000E+00  0.00000000000E+00  0.24425409693E+04  0.24425409693E+04  0.25500000920E-02 0.  1.
       -2   -1    0    0    0  501  0.00000000000E+00  0.00000000000E+00 -0.68459356353E+03  0.68459356353E+03  0.25500000920E-02 0. -1.
    10030    2    1    2    0    0  0.00000000000E+00  0.00000000000E+00  0.17579474058E+04  0.31271345329E+04  0.25862311005E+04 0.  0.
        4    1    3    3  502    0  0.11982606022E+04 -0.32690807619E+03  0.13140128487E+04  0.18081285188E+04  0.12699999809E+01 0.  1.
       -4    1    3    3    0  502 -0.11982606022E+04  0.32690807619E+03  0.44393455707E+03  0.13190060140E+04  0.12699999809E+01 0. -1.
</event>
<event>
 5   0  0.2586775E-06  0.2594524E+04  0.7818609E-02  0.8370064E-01
        2   -1    0    0  501    0  0.00000000000E+00  0.00000000000E+00  0.24890918989E+04  0.24890918989E+04  0.25500000920E-02 0. -1.
       -2   -1    0    0    0  501  0.00000000000E+00  0.00000000000E+00 -0.67610535951E+03  0.67610535951E+03  0.25500000920E-02 0.  1.
    10030    2    1    2    0    0  0.00000000000E+00  0.00000000000E+00  0.18129865394E+04  0.31651972584E+04  0.25945237507E+04 0.  0.
        1    1    3    3  502    0 -0.11627135121E+04  0.23934705334E+03  0.26825997254E+03  0.12170263497E+04  0.50400001928E-02 0.  1.
       -1    1    3    3    0  502  0.11627135121E+04 -0.23934705334E+03  0.15447265669E+04  0.19481709087E+04  0.50400001928E-02 0. -1.
</event>
<event>
 5   0  0.2820028E-06  0.2599426E+04  0.7818609E-02  0.8368396E-01
       -2   -1    0    0    0  501  0.00000000000E+00  0.00000000000E+00  0.88273192903E+03  0.88273192904E+03  0.25500000920E-02 0.  1.
        2   -1    0    0  501    0  0.00000000000E+00  0.00000000000E+00 -0.19136657181E+04  0.19136657181E+04  0.25500000920E-02 0. -1.
    10030    2    1    2    0    0  0.00000000000E+00  0.00000000000E+00 -0.10309337891E+04  0.27963976472E+04  0.25994259604E+04 0.  0.
        3    1    3    3  502    0 -0.11144651949E+04 -0.55369752429E+03 -0.11202943880E+03  0.12494655755E+04  0.10100000352E+00 0.  1.
       -3    1    3    3    0  502  0.11144651949E+04  0.55369752429E+03 -0.91890435029E+03  0.15469320716E+04  0.10100000352E+00 0. -1.
</event>
<event>
 5   0  0.1088757E-06  0.2605073E+04  0.7818609E-02  0.8366480E-01
        1   -1    0    0  501    0  0.00000000000E+00  0.00000000000E+00  0.13432639858E+04  0.13432639858E+04  0.50400001928E-02 0. -1.
       -1   -1    0    0    0  501  0.00000000000E+00  0.00000000000E+00 -0.12630437907E+04  0.12630437907E+04  0.50400001928E-02 0.  1.
    10030    2    1    2    0    0  0.00000000000E+00  0.00000000000E+00  0.80220195065E+02  0.26063077765E+04  0.26050729253E+04 0.  0.
        5    1    3    3  502    0 -0.10601492033E+04 -0.61815201648E+03 -0.39661818148E+03  0.12897117199E+04  0.46999998093E+01 0.  1.
       -5    1    3    3    0  502  0.10601492033E+04  0.61815201648E+03  0.47683837655E+03  0.13165960565E+04  0.46999998093E+01 0. -1.
</event>
<event>
 5   0  0.1100104E-06  0.2571881E+04  0.7818609E-02  0.8377816E-01
       -1   -1    0    0    0  501  0.00000000000E+00  0.00000000000E+00  0.78411454650E+03  0.78411454652E+03  0.50400001928E-02 0.  1.
        1   -1    0    0  501    0  0.00000000000E+00  0.00000000000E+00 -0.21089304486E+04  0.21089304486E+04  0.50400001928E-02 0. -1.
    10030    2    1    2    0    0  0.00000000000E+00  0.00000000000E+00 -0.13248159021E+04  0.28930449951E+04  0.25718810566E+04 0.  0.
        4    1    3    3  502    0 -0.31266242369E+03 -0.10654367243E+04 -0.13920420672E+04  0.17806448086E+04  0.12699999809E+01 0. -1.
       -4    1    3    3    0  502  0.31266242369E+03  0.10654367243E+04  0.67226165160E+02  0.11124001865E+04  0.12699999809E+01 0.  1.
</event>
<event>
 5   0  0.1088757E-06  0.2601392E+04  0.7818609E-02  0.8367729E-01
       -1   -1    0    0    0  501  0.00000000000E+00  0.00000000000E+00  0.54523086979E+03  0.54523086981E+03  0.50400001928E-02 0.  1.
        1   -1    0    0  501    0  0.00000000000E+00  0.00000000000E+00 -0.31029232089E+04  0.31029232089E+04  0.50400001928E-02 0. -1.
    10030    2    1    2    0    0  0.00000000000E+00  0.00000000000E+00 -0.25576923391E+04  0.36481540787E+04  0.26013915662E+04 0.  0.
        5    1    3    3  502    0  0.46038831602E+03  0.19316316021E+03 -0.29631795990E+04  0.30049500552E+04  0.46999998093E+01 0. -1.
       -5    1    3    3    0  502 -0.46038831602E+03 -0.19316316021E+03  0.40548725990E+03  0.64320402356E+03  0.46999998093E+01 0.  1.
</event>
<event>
 5   0  0.1032076E-06  0.2601442E+04  0.7818609E-02  0.8367711E-01
       -1   -1    0    0    0  501  0.00000000000E+00  0.00000000000E+00  0.90784135894E+03  0.90784135895E+03  0.50400001928E-02 0. -1.
        1   -1    0    0  501    0  0.00000000000E+00  0.00000000000E+00 -0.18636246875E+04  0.18636246875E+04  0.50400001928E-02 0.  1.
    10030    2    1    2    0    0  0.00000000000E+00  0.00000000000E+00 -0.95578332859E+03  0.27714660465E+04  0.26014423452E+04 0.  0.
        1    1    3    3  502    0 -0.16468500535E+02  0.84758222035E+03 -0.15288811148E+04  0.17481831412E+04  0.50400001928E-02 0.  1.
       -1    1    3    3    0  502  0.16468500535E+02 -0.84758222035E+03  0.57309778621E+03  0.10232829053E+04  0.50400001928E-02 0. -1.
</event>
<event>
 5   0  0.2705807E-06  0.2598933E+04  0.7818609E-02  0.8368564E-01
        2   -1    0    0  501    0  0.00000000000E+00  0.00000000000E+00  0.25271668648E+04  0.25271668648E+04  0.25500000920E-02 0. -1.
       -2   -1    0    0    0  501  0.00000000000E+00  0.00000000000E+00 -0.66818415512E+03  0.66818415512E+03  0.25500000920E-02 0.  1.
    10030    2    1    2    0    0  0.00000000000E+00  0.00000000000E+00  0.18589827096E+04  0.31953510199E+04  0.25989327474E+04 0.  0.
        4    1    3    3  502    0  0.71685576293E+03  0.81543560917E+03  0.18073423749E+04  0.21083893119E+04  0.12699999809E+01 0. -1.
       -4    1    3    3    0  502 -0.71685576293E+03 -0.81543560917E+03  0.51640334751E+02  0.10869617080E+04  0.12699999809E+01 0.  1.
</event>
<event>
 5   0  0.2586775E-06  0.2598813E+04  0.7818609E-02  0.8368605E-01
       -2   -1    0    0    0  501  0.00000000000E+00  0.00000000000E+00  0.69088119027E+03  0.69088119028E+03  0.25500000920E-02 0.  1.
        2   -1    0    0  501    0  0.00000000000E+00  0.00000000000E+00 -0.24439182929E+04  0.24439182929E+04  0.25500000920E-02 0. -1.
    10030    2    1    2    0    0  0.00000000000E+00  0.00000000000E+00 -0.17530371026E+04  0.31347994831E+04  0.25988129437E+04 0.  0.
        1    1    3    3  502    0  0.67142640541E+03  0.19937484269E+03  0.44369393962E+03  0.82911281371E+03  0.50400001928E-02 0.  1.
       -1    1    3    3    0  502 -0.67142640541E+03 -0.19937484269E+03 -0.21967310422E+04  0.23056866694E+04  0.50400001928E-02 0. -1.
</event>
<event>
 5   0  0.2746631E-06  0.2602073E+04  0.7818609E-02  0.8367497E-01
        2   -1    0    0  501    0  0.00000000000E+00  0.00000000000E+00  0.88200267976E+03  0.88200267977E+03  0.25500000920E-02 0. -1.
       -2   -1    0    0    0  501  0.00000000000E+00  0.00000000000E+00 -0.19191508806E+04  0.19191508806E+04  0.25500000920E-02 0.  1.
    10030    2    1    2    0    0  0.00000000000E+00  0.00000000000E+00 -0.10371482008E+04  0.28011535603E+04  0.26020731885E+04 0.  0.
        2    1    3    3  502    0  0.54548718106E+03  0.39424204541E+03  0.68003622990E+03  0.95678227881E+03  0.25500000920E-02 0. -1.
       -2    1    3    3    0  502 -0.54548718106E+03 -0.39424204541E+03 -0.17171844307E+04  0.18443712815E+04  0.25500000920E-02 0.  1.
</event>
<event>
 5   0  0.1055179E-06  0.2625630E+04  0.7818609E-02  0.8359547E-01
       -1   -1    0    0    0  501  0.00000000000E+00  0.00000000000E+00  0.12753472007E+04  0.12753472007E+04  0.50400001928E-02 0.  1.
        1   -1    0    0  501    0  0.00000000000E+00  0.00000000000E+00 -0.13513838458E+04  0.13513838458E+04  0.50400001928E-02 0. -1.
    10030    2    1    2    0    0  0.00000000000E+00  0.00000000000E+00 -0.76036645096E+02  0.26267310464E+04  0.26256302898E+04 0.  0.
        3    1    3    3  502    0  0.70255553180E+03 -0.17915444640E+03  0.10568823745E+04  0.12816711570E+04  0.10100000352E+00 0.  1.
       -3    1    3    3    0  502 -0.70255553180E+03  0.17915444640E+03 -0.11329190196E+04  0.13450598894E+04  0.10100000352E+00 0. -1.
</event>
<event>
 5   0  0.2820028E-06  0.2596868E+04  0.7818609E-02  0.8369266E-01
       -2   -1    0    0    0  501  0.00000000000E+00  0.00000000000E+00  0.83608581175E+03  0.83608581176E+03  0.25500000920E-02 0.  1.
        2   -1    0    0  501    0  0.00000000000E+00  0.00000000000E+00 -0.20164572470E+04  0.20164572470E+04  0.25500000920E-02 0. -1.
    10030    2    1    2    0    0  0.00000000000E+00  0.00000000000E+00 -0.11803714352E+04  0.28525430588E+04  0.25968683403E+04 0.  0.
        3    1    3    3  502    0  0.84717241435E+03  0.90256741513E+03 -0.10206935523E+04  0.16044140290E+04  0.10100000352E+00 0. -1.
       -3    1    3    3    0  502 -0.84717241435E+03 -0.90256741513E+03 -0.15967788297E+03  0.12481290298E+04  0.10100000352E+00 0.  1.
</event>
<event>
 5   0  0.2623368E-06  0.2592737E+04  0.7818609E-02  0.8370673E-01
       -2   -1    0    0    0  501  0.00000000000E+00  0.00000000000E+00  0.13424003533E+04  0.13424003533E+04  0.25500000920E-02 0. -1.
        2   -1    0    0  501    0  0.00000000000E+00  0.00000000000E+00 -0.12519147840E+04  0.12519147840E+04  0.25500000920E-02 0.  1.
    10030    2    1    2    0    0  0.00000000000E+00  0.00000000000E+00  0.90485569318E+02  0.25943151372E+04  0.25927366610E+04 0.  0.
        5    1    3    3  502    0 -0.14012041636E+03  0.71146917943E+03  0.11204790718E+04  0.13346600934E+04  0.46999998093E+01 0. -1.
       -5    1    3    3    0  502  0.14012041636E+03 -0.71146917943E+03 -0.10299935025E+04  0.12596550439E+04  0.46999998093E+01 0.  1.
</event>
<event>
 5   0  0.2586775E-06  0.2599658E+04  0.7818609E-02  0.8368317E-01
       -2   -1    0    0    0  501  0.00000000000E+00  0.00000000000E+00  0.99557681366E+03  0.99557681366E+03  0.25500000920E-02 0. -1.
        2   -1    0    0  501    0  0.00000000000E+00  0.00000000000E+00 -0.16970624095E+04  0.16970624095E+04  0.25500000920E-02 0.  1.
    10030    2    1    2    0    0  0.00000000000E+00  0.00000000000E+00 -0.70148559587E+03  0.26926392232E+04  0.25996584285E+04 0.  0.
        1    1    3    3  502    0  0.75074579602E+03 -0.10089128755E+04 -0.10305469793E+02  0.12576289768E+04  0.50400001928E-02 0. -1.
       -1    1    3    3    0  502 -0.75074579602E+03  0.10089128755E+04 -0.69118012608E+03  0.14350102464E+04  0.50400001928E-02 0.  1.
</event>
<event>
 5   0  0.1055179E-06  0.2558458E+04  0.7818609E-02  0.8382451E-01
       -1   -1    0    0    0  501  0.00000000000E+00  0.00000000000E+00  0.96889535716E+03  0.96889535717E+03  0.50400001928E-02 0. -1.
        1   -1    0    0  501    0  0.00000000000E+00  0.00000000000E+00 -0.16889614497E+04  0.16889614497E+04  0.50400001928E-02 0.  1.
    10030    2    1    2    0    0  0.00000000000E+00  0.00000000000E+00 -0.72006609254E+03  0.26578568069E+04  0.25584580568E+04 0.  0.
        3    1    3    3  502    0  0.23830855893E+03 -0.11462150689E+04  0.17558201018E+03  0.11838196678E+04  0.10100000352E+00 0. -1.
       -3    1    3    3    0  502 -0.23830855893E+03  0.11462150689E+04 -0.89564810272E+03  0.14740371391E+04  0.10100000352E+00 0.  1.
</event>
<event>
 5   0  0.1100104E-06  0.2602638E+04  0.7818609E-02  0.8367306E-01
       -1   -1    0    0    0  501  0.00000000000E+00  0.00000000000E+00  0.58449967220E+03  0.58449967222E+03  0.50400001928E-02 0.  1.
        1   -1    0    0  501    0  0.00000000000E+00  0.00000000000E+00 -0.28972320200E+04  0.28972320200E+04  0.50400001928E-02 0. -1.
    10030    2    1    2    0    0  0.00000000000E+00  0.00000000000E+00 -0.23127323478E+04  0.34817316922E+04  0.26026380202E+04 0.  0.
        4    1    3    3  502    0  0.64702917733E+03 -0.60435092323E+03  0.11946465183E+03  0.89339812551E+03  0.12699999809E+01 0.  1.
       -4    1    3    3    0  502 -0.64702917733E+03  0.60435092323E+03 -0.24321969996E+04  0.25883335667E+04  0.12699999809E+01 0. -1.
</event>
<event>
 5   0  0.1055179E-06  0.2600848E+04  0.7818609E-02  0.8367913E-01
       -1   -1    0    0    0  501  0.00000000000E+00  0.00000000000E+00  0.11193812594E+04  0.11193812594E+04  0.50400001928E-02 0.  1.
        1   -1    0    0  501    0  0.00000000000E+00  0.00000000000E+00 -0.15107470958E+04  0.15107470958E+04  0.50400001928E-02 0. -1.
    10030    2    1    2    0    0  0.00000000000E+00  0.00000000000E+00 -0.39136583640E+03  0.26301283552E+04  0.26008475439E+04 0.  0.
        3    1    3    3  502    0  0.67469893952E+03  0.10860879853E+04 -0.43562234114E+03  0.13507674134E+04  0.10100000352E+00 0. -1.
       -3    1    3    3    0  502 -0.67469893952E+03 -0.10860879853E+04  0.44256504740E+02  0.12793609418E+04  0.10100000352E+00 0.  1.
</event>
<event>
 5   0  0.2705807E-06  0.2601456E+04  0.7818609E-02  0.8367707E-01
        2   -1    0    0  501    0  0.00000000000E+00  0.00000000000E+00  0.15665299867E+04  0.15665299867E+04  0.25500000920E-02 0.  1.
       -2   -1    0    0    0  501  0.00000000000E+00  0.00000000000E+00 -0.10800261860E+04  0.10800261860E+04  0.25500000920E-02 0. -1.
    10030    2    1    2    0    0  0.00000000000E+00  0.00000000000E+00  0.48650380072E+03  0.26465561727E+04  0.26014560590E+04 0.  0.
        4    1    3    3  502    0 -0.38420419268E+03 -0.61895714308E+03  0.13395097337E+04  0.15247979362E+04  0.12699999809E+01 0.  1.
       -4    1    3    3    0  502  0.38420419268E+03  0.61895714308E+03 -0.85300593295E+03  0.11217582365E+04  0.12699999809E+01 0. -1.
</event>
<event>
 5   0  0.2623368E-06  0.2599631E+04  0.7818609E-02  0.8368327E-01
        2   -1    0    0  501    0  0.00000000000E+00  0.00000000000E+00  0.14974001766E+04  0.14974001766E+04  0.25500000920E-02 0.  1.
       -2   -1    0    0    0  501  0.00000000000E+00  0.00000000000E+00 -0.11283023635E+04  0.11283023635E+04  0.25500000920E-02 0. -1.
    10030    2    1    2    0    0  0.00000000000E+00  0.00000000000E+00  0.36909781312E+03  0.26257025401E+04  0.25996308649E+04 0.  0.
        5    1    3    3  502    0 -0.30209794965E+03 -0.98951203186E+03 -0.61017181127E+03  0.12011365291E+04  0.46999998093E+01 0. -1.
       -5    1    3    3    0  502  0.30209794965E+03  0.98951203186E+03  0.97926962440E+03  0.14245660110E+04  0.46999998093E+01 0.  1.
</event>
<event>
 5   0  0.2746631E-06  0.2606283E+04  0.7818609E-02  0.8366070E-01
        2   -1    0    0  501    0  0.00000000000E+00  0.00000000000E+00  0.13112086769E+04  0.13112086769E+04  0.25500000920E-02 0. -1.
       -2   -1    0    0    0  501  0.00000000000E+00  0.00000000000E+00 -0.12951235571E+04  0.12951235571E+04  0.25500000920E-02 0.  1.
    10030    2    1    2    0    0  0.00000000000E+00  0.00000000000E+00  0.16085119781E+02  0.26063322340E+04  0.26062825984E+04 0.  0.
        2    1    3    3  502    0  0.13875984829E+03  0.57008242709E+02 -0.12864599840E+04  0.12951770248E+04  0.25500000920E-02 0.  1.
       -2    1    3    3    0  502 -0.13875984829E+03 -0.57008242709E+02  0.13025451038E+04  0.13111552092E+04  0.25500000920E-02 0. -1.
</event>
<event>
 5   0  0.2820028E-06  0.2592041E+04  0.7818609E-02  0.8370910E-01
       -2   -1    0    0    0  501  0.00000000000E+00  0.00000000000E+00  0.63122517686E+03  0.63122517687E+03  0.25500000920E-02 0.  1.
        2   -1    0    0  501    0  0.00000000000E+00  0.00000000000E+00 -0.26609659953E+04  0.26609659953E+04  0.25500000920E-02 0. -1.
    10030    2    1    2    0    0  0.00000000000E+00  0.00000000000E+00 -0.20297408184E+04  0.32921911722E+04  0.25920406872E+04 0.  0.
        3    1    3    3  502    0  0.25616380924E+03  0.24024983283E+03 -0.25993765059E+04  0.26229941115E+04  0.10100000352E+00 0. -1.
       -3    1    3    3    0  502 -0.25616380924E+03 -0.24024983283E+03  0.56963568748E+03  0.66919706066E+03  0.10100000352E+00 0.  1.
</event>
<event>
 5   0  0.2746631E-06  0.2590679E+04  0.7818609E-02  0.8371374E-01
       -2   -1    0    0    0  501  0.00000000000E+00  0.00000000000E+00  0.12472227049E+04  0.12472227049E+04  0.25500000920E-02 0.  1.
        2   -1    0    0  501    0  0.00000000000E+00  0.00000000000E+00 -0.13453126051E+04  0.13453126051E+04  0.25500000920E-02 0. -1.
    10030    2    1    2    0    0  0.00000000000E+00  0.00000000000E+00 -0.98089900212E+02  0.25925353100E+04  0.25906790046E+04 0.  0.
        2    1    3    3  502    0 -0.67852153848E+03  0.59346786862E+03 -0.97993126156E+03  0.13314882150E+04  0.25500000920E-02 0. -1.
       -2    1    3    3    0  502  0.67852153848E+03 -0.59346786862E+03  0.88184136134E+03  0.12610470950E+04  0.25500000920E-02 0.  1.
</event>
<event>
 5   0  0.2820028E-06  0.2606410E+04  0.7818609E-02  0.8366027E-01
        2   -1    0    0  501    0  0.00000000000E+00  0.00000000000E+00  0.15377177568E+04  0.15377177568E+04  0.25500000920E-02 0. -1.
       -2   -1    0    0    0  501  0.00000000000E+00  0.00000000000E+00 -0.11044569320E+04  0.11044569321E+04  0.25500000920E-02 0.  1.
    10030    2    1    2    0    0  0.00000000000E+00  0.00000000000E+00  0.43326082478E+03  0.26421746889E+04  0.26064098189E+04 0.  0.
        3    1    3    3  502    0  0.48986088342E+03  0.11993173123E+04  0.73206407194E+02  0.12975688379E+04  0.10100000352E+00 0. -1.
       -3    1    3    3    0  502 -0.48986088342E+03 -0.11993173123E+04  0.36005441758E+03  0.13446058510E+04  0.10100000352E+00 0.  1.
</event>
<event>
 5   0  0.2820028E-06  0.2645665E+04  0.7818609E-02  0.8352853E-01
        2   -1    0    0  501    0  0.00000000000E+00  0.00000000000E+00  0.25389642693E+04  0.25389642693E+04  0.25500000920E-02 0. -1.
       -2   -1    0    0    0  501  0.00000000000E+00  0.00000000000E+00 -0.68921271297E+03  0.68921271297E+03  0.25500000920E-02 0.  1.
    10030    2    1    2    0    0  0.00000000000E+00  0.00000000000E+00  0.18497515563E+04  0.32281769823E+04  0.26456654756E+04 0.  0.
        3    1    3    3  502    0 -0.57556447066E+03  0.11882531751E+04  0.10245005283E+04  0.16711736626E+04  0.10100000352E+00 0. -1.
       -3    1    3    3    0  502  0.57556447066E+03 -0.11882531751E+04  0.82525102798E+03  0.15570033196E+04  0.10100000352E+00 0.  1.
</event>
<event>
 5   0  0.2705807E-06  0.2598426E+04  0.7818609E-02  0.8368736E-01
       -2   -1    0    0    0  501  0.00000000000E+00  0.00000000000E+00  0.60942118775E+03  0.60942118775E+03  0.25500000920E-02 0. -1.
        2   -1    0    0  501    0  0.00000000000E+00  0.00000000000E+00 -0.27697674839E+04  0.27697674839E+04  0.25500000920E-02 0.  1.
    10030    2    1    2    0    0  0.00000000000E+00  0.00000000000E+00 -0.21603462961E+04  0.33791886716E+04  0.25984264391E+04 0.  0.
        4    1    3    3  502    0  0.23169889451E+03  0.14782160320E+02 -0.27425701593E+04  0.27523799849E+04  0.12699999809E+01 0.  1.
       -4    1    3    3    0  502 -0.23169889451E+03 -0.14782160320E+02  0.58222386316E+03  0.62680868669E+03  0.12699999809E+01 0. -1.
</event>
<event>
 5   0  0.1055179E-06  0.2600799E+04  0.7818609E-02  0.8367930E-01
       -1   -1    0    0    0  501  0.00000000000E+00  0.00000000000E+00  0.12535651316E+04  0.12535651316E+04  0.50400001928E-02 0. -1.
        1   -1    0    0  501    0  0.00000000000E+00  0.00000000000E+00 -0.13489837060E+04  0.13489837060E+04  0.50400001928E-02 0.  1.
    10030    2    1    2    0    0  0.00000000000E+00  0.00000000000E+00 -0.95418574362E+02  0.26025488376E+04  0.26007990595E+04 0.  0.
        3    1    3    3  502    0 -0.27937061695E+03  0.13797217005E+03  0.12156592908E+04  0.12549548928E+04  0.10100000352E+00 0. -1.
       -3    1    3    3    0  502  0.27937061695E+03 -0.13797217005E+03 -0.13110778652E+04  0.13475939448E+04  0.10100000352E+00 0.  1.
</event>
<event>
 5   0  0.1122628E-06  0.2601189E+04  0.7818609E-02  0.8367797E-01
        1   -1    0    0  501    0  0.00000000000E+00  0.00000000000E+00  0.80723716154E+03  0.80723716156E+03  0.50400001928E-02 0. -1.
       -1   -1    0    0    0  501  0.00000000000E+00  0.00000000000E+00 -0.20954765272E+04  0.20954765272E+04  0.50400001928E-02 0.  1.
    10030    2    1    2    0    0  0.00000000000E+00  0.00000000000E+00 -0.12882393656E+04  0.29027136887E+04  0.26011893617E+04 0.  0.
        2    1    3    3  502    0 -0.10064372208E+04 -0.60060879555E+03 -0.14936213301E+02  0.11721219626E+04  0.25500000920E-02 0. -1.
       -2    1    3    3    0  502  0.10064372208E+04  0.60060879555E+03 -0.12733031523E+04  0.17305917261E+04  0.25500000920E-02 0.  1.
</event>
<event>
 5   0  0.1122628E-06  0.2624886E+04  0.7818609E-02  0.8359797E-01
       -1   -1    0    0    0  501  0.00000000000E+00  0.00000000000E+00  0.65673757431E+03  0.65673757433E+03  0.50400001928E-02 0.  1.
        1   -1    0    0  501    0  0.00000000000E+00  0.00000000000E+00 -0.26228239359E+04  0.26228239359E+04  0.50400001928E-02 0. -1.
    10030    2    1    2    0    0  0.00000000000E+00  0.00000000000E+00 -0.19660863616E+04  0.32795615102E+04  0.26248863057E+04 0.  0.
        2    1    3    3  502    0 -0.12388200278E+04 -0.90999487883E+02 -0.45362448701E+03  0.13223959858E+04  0.25500000920E-02 0.  1.
       -2    1    3    3    0  502  0.12388200278E+04  0.90999487883E+02 -0.15124618746E+04  0.19571655244E+04  0.25500000920E-02 0. -1.
</event>
<event>
 5   0  0.1055179E-06  0.2600792E+04  0.7818609E-02  0.8367932E-01
        1   -1    0    0  501    0  0.00000000000E+00  0.00000000000E+00  0.19850926017E+04  0.19850926017E+04  0.50400001928E-02 0. -1.
       -1   -1    0    0    0  501  0.00000000000E+00  0.00000000000E+00 -0.85186411647E+03  0.85186411648E+03  0.50400001928E-02 0.  1.
    10030    2    1    2    0    0  0.00000000000E+00  0.00000000000E+00  0.11332284852E+04  0.28369567182E+04  0.26007915374E+04 0.  0.
        3    1    3    3  502    0  0.73578292451E+03 -0.10480862719E+04  0.81335763879E+03  0.15170405413E+04  0.10100000352E+00 0. -1.
       -3    1    3    3    0  502 -0.73578292451E+03  0.10480862719E+04  0.31987084645E+03  0.13199161769E+04  0.10100000352E+00 0.  1.
</event>
<event>
 5   0  0.2586775E-06  0.2603204E+04  0.7818609E-02  0.8367114E-01
       -2   -1    0    0    0  501  0.00000000000E+00  0.00000000000E+00  0.77585886330E+03  0.77585886331E+03  0.25500000920E-02 0. -1.
        2   -1    0    0  501    0  0.00000000000E+00  0.00000000000E+00 -0.21836036543E+04  0.21836036543E+04  0.25500000920E-02 0.  1.
    10030    2    1    2    0    0  0.00000000000E+00  0.00000000000E+00 -0.14077447910E+04  0.29594625176E+04  0.26032043709E+04 0.  0.
        1    1    3    3  502    0  0.41197619391E+03 -0.12305476389E+04 -0.58907621485E+03  0.14251254902E+04  0.50400001928E-02 0.  1.
       -1    1    3    3    0  502 -0.41197619391E+03  0.12305476389E+04 -0.81866857619E+03  0.15343370274E+04  0.50400001928E-02 0. -1.
</event>
<event>
 5   0  0.1055179E-06  0.2584211E+04  0.7818609E-02  0.8373584E-01
        1   -1    0    0  501    0  0.00000000000E+00  0.00000000000E+00  0.11704632517E+04  0.11704632517E+04  0.50400001928E-02 0. -1.
       -1   -1    0    0    0  501  0.00000000000E+00  0.00000000000E+00 -0.14263899638E+04  0.14263899638E+04  0.50400001928E-02 0.  1.
    10030    2    1    2    0    0  0.00000000000E+00  0.00000000000E+00 -0.25592671213E+03  0.25968532155E+04  0.25842113190E+04 0.  0.
        3    1    3    3  502    0 -0.32961429903E+03 -0.93864532882E+03 -0.95651880983E+03  0.13800829262E+04  0.10100000352E+00 0.  1.
       -3    1    3    3    0  502  0.32961429903E+03  0.93864532882E+03  0.70059209770E+03  0.12167702893E+04  0.10100000352E+00 0. -1.
</event>
<event>
 5   0  0.2820028E-06  0.2600858E+04  0.7818609E-02  0.8367910E-01
       -2   -1    0    0    0  501  0.00000000000E+00  0.00000000000E+00  0.87760457957E+03  0.87760457958E+03  0.25500000920E-02 0.  1.
        2   -1    0    0  501    0  0.00000000000E+00  0.00000000000E+00 -0.19269678500E+04  0.19269678500E+04  0.25500000920E-02 0. -1.
    10030    2    1    2    0    0  0.00000000000E+00  0.00000000000E+00 -0.10493632704E+04  0.28045724295E+04  0.26008581736E+04 0.  0.
        3    1    3    3  502    0 -0.29003504884E+03 -0.36753471025E+03  0.78356963376E+03  0.91278884411E+03  0.10100000352E+00 0.  1.
       -3    1    3    3    0  502  0.29003504884E+03  0.36753471025E+03 -0.18329329041E+04  0.18917835854E+04  0.10100000352E+00 0. -1.
</event>
<event>
 5   0  0.1032076E-06  0.2599269E+04  0.7818609E-02  0.8368450E-01
       -1   -1    0    0    0  501  0.00000000000E+00  0.00000000000E+00  0.11024573581E+04  0.11024573581E+04  0.50400001928E-02 0. -1.
        1   -1    0    0  501    0  0.00000000000E+00  0.00000000000E+00 -0.15320767676E+04  0.15320767676E+04  0.50400001928E-02 0.  1.
    10030    2    1    2    0    0  0.00000000000E+00  0.00000000000E+00 -0.42961940953E+03  0.26345341257E+04  0.25992685937E+04 0.  0.
        1    1    3    3  502    0 -0.56966062499E+03  0.11618174008E+04 -0.91852626267E+02  0.12972161753E+04  0.50400001928E-02 0.  1.
       -1    1    3    3    0  502  0.56966062499E+03 -0.11618174008E+04 -0.33776678326E+03  0.13373179504E+04  0.50400001928E-02 0. -1.
</event>
<event>
 5   0  0.2705807E-06  0.2601625E+04  0.7818609E-02  0.8367650E-01
       -2   -1    0    0    0  501  0.00000000000E+00  0.00000000000E+00  0.68316474894E+03  0.68316474895E+03  0.25500000920E-02 0.  1.
        2   -1    0    0  501    0  0.00000000000E+00  0.00000000000E+00 -0.24768733737E+04  0.24768733737E+04  0.25500000920E-02 0. -1.
    10030    2    1    2    0    0  0.00000000000E+00  0.00000000000E+00 -0.17937086248E+04  0.31600381227E+04  0.26016245513E+04 0.  0.
        4    1    3    3  502    0 -0.22023749233E+03 -0.11515969175E+04 -0.21251366828E+03  0.11915719389E+04  0.12699999809E+01 0.  1.
       -4    1    3    3    0  502  0.22023749233E+03  0.11515969175E+04 -0.15811949565E+04  0.19684661838E+04  0.12699999809E+01 0. -1.
</event>
<event>
 5   0  0.2705807E-06  0.2578806E+04  0.7818609E-02  0.8375436E-01
        2   -1    0    0  501    0  0.00000000000E+00  0.00000000000E+00  0.13727801642E+04  0.13727801642E+04  0.25500000920E-02 0.  1.
       -2   -1    0    0    0  501  0.00000000000E+00  0.00000000000E+00 -0.12110901676E+04  0.12110901676E+04  0.25500000920E-02 0. -1.
    10030    2    1    2    0    0  0.00000000000E+00  0.00000000000E+00  0.16168999658E+03  0.25838703317E+04  0.25788063588E+04 0.  0.
        4    1    3    3  502    0 -0.90378650146E+03 -0.55882643154E+03 -0.65096031060E+03  0.12461412278E+04  0.12699999809E+01 0. -1.
       -4    1    3    3    0  502  0.90378650146E+03  0.55882643154E+03  0.81265030718E+03  0.13377291039E+04  0.12699999809E+01 0.  1.
</event>
<event>
 5   0  0.1088757E-06  0.2601749E+04  0.7818609E-02  0.8367607E-01
        1   -1    0    0  501    0  0.00000000000E+00  0.00000000000E+00  0.17157897160E+04  0.17157897160E+04  0.50400001928E-02 0.  1.
       -1   -1    0    0    0  501  0.00000000000E+00  0.00000000000E+00 -0.98629468895E+03  0.98629468896E+03  0.50400001928E-02 0. -1.
    10030    2    1    2    0    0  0.00000000000E+00  0.00000000000E+00  0.72949502701E+03  0.27020844049E+04  0.26017488612E+04 0.  0.
        5    1    3    3  502    0  0.77682559161E+03  0.24330446693E+03 -0.68907433796E+03  0.10665367301E+04  0.46999998093E+01 0. -1.
       -5    1    3    3    0  502 -0.77682559161E+03 -0.24330446693E+03  0.14185693650E+04  0.16355476748E+04  0.46999998093E+01 0.  1.
</event>
<event>
 5   0  0.1055179E-06  0.2598506E+04  0.7818609E-02  0.8368709E-01
        1   -1    0    0  501    0  0.00000000000E+00  0.00000000000E+00  0.21985453998E+04  0.21985453998E+04  0.50400001928E-02 0. -1.
       -1   -1    0    0    0  501  0.00000000000E+00  0.00000000000E+00 -0.76780720829E+03  0.76780720831E+03  0.50400001928E-02 0.  1.
    10030    2    1    2    0    0  0.00000000000E+00  0.00000000000E+00  0.14307381915E+04  0.29663526081E+04  0.25985064985E+04 0.  0.
        3    1    3    3  502    0 -0.44830912681E+03  0.77862977445E+03 -0.35600458108E+03  0.96642882345E+03  0.10100000352E+00 0.  1.
       -3    1    3    3    0  502  0.44830912681E+03 -0.77862977445E+03  0.17867427726E+04  0.19999237846E+04  0.10100000352E+00 0. -1.
</event>
<event>
 5   0  0.1122628E-06  0.2603226E+04  0.7818609E-02  0.8367106E-01
       -1   -1    0    0    0  501  0.00000000000E+00  0.00000000000E+00  0.90409605016E+03  0.90409605018E+03  0.50400001928E-02 0.  1.
        1   -1    0    0  501    0  0.00000000000E+00  0.00000000000E+00 -0.18739124539E+04  0.18739124539E+04  0.50400001928E-02 0. -1.
    10030    2    1    2    0    0  0.00000000000E+00  0.00000000000E+00 -0.96981640376E+03  0.27780085041E+04  0.26032263428E+04 0.  0.
        2    1    3    3  502    0 -0.43144426589E+03 -0.10279576159E+03  0.82097094258E+03  0.93311543323E+03  0.25500000920E-02 0.  1.
       -2    1    3    3    0  502  0.43144426589E+03  0.10279576159E+03 -0.17907873463E+04  0.18448930709E+04  0.25500000920E-02 0. -1.
</event>
<event>
 5   0  0.2705807E-06  0.2606466E+04  0.7818609E-02  0.8366008E-01
       -2   -1    0    0    0  501  0.00000000000E+00  0.00000000000E+00  0.77784203787E+03  0.77784203787E+03  0.25500000920E-02 0.  1.
        2   -1    0    0  501    0  0.00000000000E+00  0.00000000000E+00 -0.21834972569E+04  0.21834972569E+04  0.25500000920E-02 0. -1.
    10030    2    1    2    0    0  0.00000000000E+00  0.00000000000E+00 -0.14056552190E+04  0.29613392948E+04  0.26064657726E+04 0.  0.
        4    1    3    3  502    0 -0.10487121970E+02 -0.38627308040E+03 -0.21169126098E+04  0.21518916058E+04  0.12699999809E+01 0. -1.
       -4    1    3    3    0  502  0.10487121970E+02  0.38627308040E+03  0.71125739081E+03  0.80944768901E+03  0.12699999809E+01 0.  1.
</event>
<event>
 5   0  0.1055179E-06  0.2599191E+04  0.7818609E-02  0.8368476E-01
        1   -1    0    0  501    0  0.00000000000E+00  0.00000000000E+00  0.12984364497E+04  0.12984364497E+04  0.50400001928E-02 0.  1.
       -1   -1    0    0    0  501  0.00000000000E+00  0.00000000000E+00 -0.13007560031E+04  0.13007560031E+04  0.50400001928E-02 0. -1.
    10030    2    1    2    0    0  0.00000000000E+00  0.00000000000E+00 -0.23195533963E+01  0.25991924528E+04  0.25991914178E+04 0.  0.
        3    1    3    3  502    0  0.54998451102E+03  0.38636736586E+03 -0.11134489828E+04  0.13005888479E+04  0.10100000352E+00 0. -1.
       -3    1    3    3    0  502 -0.54998451102E+03 -0.38636736586E+03  0.11111294294E+04  0.12986036050E+04  0.10100000352E+00 0.  1.
</event>
<event>
 5   0  0.2746631E-06  0.2613444E+04  0.7818609E-02  0.8363649E-01
       -2   -1    0    0    0  501  0.00000000000E+00  0.00000000000E+00  0.14843965123E+04  0.14843965123E+04  0.25500000920E-02 0.  1.
        2   -1    0    0  501    0  0.00000000000E+00  0.00000000000E+00 -0.11503138317E+04  0.11503138317E+04  0.25500000920E-02 0. -1.
    10030    2    1    2    0    0  0.00000000000E+00  0.00000000000E+00  0.33408268055E+03  0.26347103440E+04  0.26134435826E+04 0.  0.
        2    1    3    3  502    0 -0.68108691986E+02  0.51253123458E+02 -0.11475081047E+04  0.11506695994E+04  0.25500000920E-02 0. -1.
       -2    1    3    3    0  502  0.68108691986E+02 -0.51253123458E+02  0.14815907853E+04  0.14840407446E+04  0.25500000920E-02 0.  1.
</event>
<event>
 5   0  0.2705807E-06  0.2600186E+04  0.7818609E-02  0.8368138E-01
        2   -1    0    0  501    0  0.00000000000E+00  0.00000000000E+00  0.25387756523E+04  0.25387756523E+04  0.25500000920E-02 0.  1.
       -2   -1    0    0    0  501  0.00000000000E+00  0.00000000000E+00 -0.66577027935E+03  0.66577027936E+03  0.25500000920E-02 0. -1.
    10030    2    1    2    0    0  0.00000000000E+00  0.00000000000E+00  0.18730053730E+04  0.32045459317E+04  0.26001856667E+04 0.  0.
        4    1    3    3  502    0  0.57093602342E+03  0.13533189752E+03  0.23663107741E+04  0.24379727147E+04  0.12699999809E+01 0. -1.
       -4    1    3    3    0  502 -0.57093602342E+03 -0.13533189752E+03 -0.49330540110E+03  0.76657321697E+03  0.12699999809E+01 0.  1.
</event>
<event>
 5   0  0.1088757E-06  0.2601970E+04  0.7818609E-02  0.8367532E-01
        1   -1    0    0  501    0  0.00000000000E+00  0.00000000000E+00  0.18725361986E+04  0.18725361986E+04  0.50400001928E-02 0.  1.
       -1   -1    0    0    0  501  0.00000000000E+00  0.00000000000E+00 -0.90388768790E+03  0.90388768791E+03  0.50400001928E-02 0. -1.
    10030    2    1    2    0    0  0.00000000000E+00  0.00000000000E+00  0.96864851074E+03  0.27764238866E+04  0.26019703420E+04 0.  0.
        5    1    3    3  502    0  0.96939778319E+03 -0.73734109102E+02 -0.43814459348E+03  0.10663777734E+04  0.46999998093E+01 0. -1.
       -5    1    3    3    0  502 -0.96939778319E+03  0.73734109102E+02  0.14067931042E+04  0.17100461131E+04  0.46999998093E+01 0.  1.
</event>
<event>
 5   0  0.1122628E-06  0.2600679E+04  0.7818609E-02  0.8367971E-01
        1   -1    0    0  501    0  0.00000000000E+00  0.00000000000E+00  0.17371130754E+04  0.17371130754E+04  0.50400001928E-02 0.  1.
       -1   -1    0    0    0  501  0.00000000000E+00  0.00000000000E+00 -0.97338666852E+03  0.97338666854E+03  0.50400001928E-02 0. -1.
    10030    2    1    2    0    0  0.00000000000E+00  0.00000000000E+00  0.76372640688E+03  0.27104997439E+04  0.26006789185E+04 0.  0.
        2    1    3    3  502    0 -0.18659598444E+03  0.12629008583E+04  0.63958248290E+03  0.14278663774E+04  0.25500000920E-02 0.  1.
       -2    1    3    3    0  502  0.18659598444E+03 -0.12629008583E+04  0.12414392397E+03  0.12826333666E+04  0.25500000920E-02 0. -1.
</event>
<event>
 5   0  0.2746631E-06  0.2597553E+04  0.7818609E-02  0.8369033E-01
       -2   -1    0    0    0  501  0.00000000000E+00  0.00000000000E+00  0.17299600458E+04  0.17299600458E+04  0.25500000920E-02 0. -1.
        2   -1    0    0  501    0  0.00000000000E+00  0.00000000000E+00 -0.97506335068E+03  0.97506335068E+03  0.25500000920E-02 0.  1.
    10030    2    1    2    0    0  0.00000000000E+00  0.00000000000E+00  0.75489669517E+03  0.27050233965E+04  0.25975531862E+04 0.  0.
        2    1    3    3  502    0 -0.60459781990E+03 -0.11157659619E+04  0.66519258979E+03  0.14328131026E+04  0.25500000920E-02 0. -1.
       -2    1    3    3    0  502  0.60459781990E+03  0.11157659619E+04  0.89704105385E+02  0.12722102939E+04  0.25500000920E-02 0.  1.
</event>
<event>
 5   0  0.2820028E-06  0.2589779E+04  0.7818609E-02  0.8371681E-01
       -2   -1    0    0    0  501  0.00000000000E+00  0.00000000000E+00  0.82734012944E+03  0.82734012944E+03  0.25500000920E-02 0.  1.
        2   -1    0    0  501    0  0.00000000000E+00  0.00000000000E+00 -0.20266625124E+04  0.20266625124E+04  0.25500000920E-02 0. -1.
    10030    2    1    2    0    0  0.00000000000E+00  0.00000000000E+00 -0.11993223830E+04  0.28540026418E+04  0.25897793152E+04 0.  0.
        3    1    3    3  502    0  0.44720641501E+03  0.51904939979E+02  0.73831363892E+03  0.86475125906E+03  0.10100000352E+00 0.  1.
       -3    1    3    3    0  502 -0.44720641501E+03 -0.51904939979E+02 -0.19376360219E+04  0.19892513828E+04  0.10100000352E+00 0. -1.
</event>
<event>
 5   0  0.2623368E-06  0.2576856E+04  0.7818609E-02  0.8376105E-01
        2   -1    0    0  501    0  0.00000000000E+00  0.00000000000E+00  0.25615937386E+04  0.25615937386E+04  0.25500000920E-02 0.  1.
       -2   -1    0    0    0  501  0.00000000000E+00  0.00000000000E+00 -0.64805240164E+03  0.64805240164E+03  0.25500000920E-02 0. -1.
    10030    2    1    2    0    0  0.00000000000E+00  0.00000000000E+00  0.19135413370E+04  0.32096461403E+04  0.25768562042E+04 0.  0.
        5    1    3    3  502    0  0.21455820301E+03 -0.12677115450E+04  0.85332787270E+03  0.15431520768E+04  0.46999998093E+01 0.  1.
       -5    1    3    3    0  502 -0.21455820301E+03  0.12677115450E+04  0.10602134643E+04  0.16664940635E+04  0.46999998093E+01 0. -1.
</event>
<event>
 5   0  0.1122628E-06  0.2653826E+04  0.7818609E-02  0.8350144E-01
        1   -1    0    0  501    0  0.00000000000E+00  0.00000000000E+00  0.70592497745E+03  0.70592497747E+03  0.50400001928E-02 0.  1.
       -1   -1    0    0    0  501  0.00000000000E+00  0.00000000000E+00 -0.24941719974E+04  0.24941719974E+04  0.50400001928E-02 0. -1.
    10030    2    1    2    0    0  0.00000000000E+00  0.00000000000E+00 -0.17882470199E+04  0.32000969749E+04  0.26538261518E+04 0.  0.
        2    1    3    3  502    0  0.58745074754E+03 -0.22370776826E+03 -0.23032345929E+04  0.23874742169E+04  0.25500000920E-02 0. -1.
       -2    1    3    3    0  502 -0.58745074754E+03  0.22370776826E+03  0.51498757300E+03  0.81262275793E+03  0.25500000920E-02 0.  1.
</event>
<event>
 5   0  0.2746631E-06  0.2598376E+04  0.7818609E-02  0.8368753E-01
       -2   -1    0    0    0  501  0.00000000000E+00  0.00000000000E+00  0.12997661864E+04  0.12997661864E+04  0.25500000920E-02 0. -1.
        2   -1    0    0  501    0  0.00000000000E+00  0.00000000000E+00 -0.12986105301E+04  0.12986105301E+04  0.25500000920E-02 0.  1.
    10030    2    1    2    0    0  0.00000000000E+00  0.00000000000E+00  0.11556562790E+01  0.25983767164E+04  0.25983764594E+04 0.  0.
        2    1    3    3  502    0  0.35625480568E+03  0.10298487404E+03  0.12457151668E+04  0.12997421466E+04  0.25500000920E-02 0. -1.
       -2    1    3    3    0  502 -0.35625480568E+03 -0.10298487404E+03 -0.12445595105E+04  0.12986345699E+04  0.25500000920E-02 0.  1.
</event>
<event>
 5   0  0.1122628E-06  0.2598590E+04  0.7818609E-02  0.8368680E-01
       -1   -1    0    0    0  501  0.00000000000E+00  0.00000000000E+00  0.13900286585E+04  0.13900286585E+04  0.50400001928E-02 0.  1.
        1   -1    0    0  501    0  0.00000000000E+00  0.00000000000E+00 -0.12144842379E+04  0.12144842379E+04  0.50400001928E-02 0. -1.
    10030    2    1    2    0    0  0.00000000000E+00  0.00000000000E+00  0.17554442062E+03  0.26045128964E+04  0.25985903070E+04 0.  0.
        2    1    3    3  502    0  0.15242571426E+03 -0.70096293425E+03 -0.99801824985E+03  0.12290740664E+04  0.25500000920E-02 0. -1.
       -2    1    3    3    0  502 -0.15242571426E+03  0.70096293425E+03  0.11735626705E+04  0.13754388300E+04  0.25500000920E-02 0.  1.
</event>
<event>
 5   0  0.2623368E-06  0.2593132E+04  0.7818609E-02  0.8370538E-01
       -2   -1    0    0    0  501  0.00000000000E+00  0.00000000000E+00  0.94767313303E+03  0.94767313304E+03  0.25500000920E-02 0.  1.
        2   -1    0    0  501    0  0.00000000000E+00  0.00000000000E+00 -0.17739068703E+04  0.17739068704E+04  0.25500000920E-02 0. -1.
    10030    2    1    2    0    0  0.00000000000E+00  0.00000000000E+00 -0.82623373732E+03  0.27215800034E+04  0.25931323773E+04 0.  0.
        5    1    3    3  502    0  0.55769399443E+03  0.84608772141E+03 -0.12619910255E+04  0.16184963584E+04  0.46999998093E+01 0. -1.
       -5    1    3    3    0  502 -0.55769399443E+03 -0.84608772141E+03  0.43575728814E+03  0.11030836450E+04  0.46999998093E+01 0.  1.
</event>
<event>
 5   0  0.1032076E-06  0.2600025E+04  0.7818609E-02  0.8368193E-01
        1   -1    0    0  501    0  0.00000000000E+00  0.00000000000E+00  0.11098415720E+04  0.11098415720E+04  0.50400001928E-02 0.  1.
       -1   -1    0    0    0  501  0.00000000000E+00  0.00000000000E+00 -0.15227689657E+04  0.15227689657E+04  0.50400001928E-02 0. -1.
    10030    2    1    2    0    0  0.00000000000E+00  0.00000000000E+00 -0.41292739371E+03  0.26326105377E+04  0.26000248481E+04 0.  0.
        1    1    3    3  502    0 -0.76645974613E+03  0.10464688778E+04 -0.11892410987E+03  0.13025746038E+04  0.50400001928E-02 0.  1.
       -1    1    3    3    0  502  0.76645974613E+03 -0.10464688778E+04 -0.29400328385E+03  0.13300359339E+04  0.50400001928E-02 0. -1.
</event>
<event>
 5   0  0.1122628E-06  0.2596376E+04  0.7818609E-02  0.8369433E-01
        1   -1    0    0  501    0  0.00000000000E+00  0.00000000000E+00  0.17347149224E+04  0.17347149224E+04  0.50400001928E-02 0. -1.
       -1   -1    0    0    0  501  0.00000000000E+00  0.00000000000E+00 -0.97150970543E+03  0.97150970544E+03  0.50400001928E-02 0.  1.
    10030    2    1    2    0    0  0.00000000000E+00  0.00000000000E+00  0.76320521693E+03  0.27062246278E+04  0.25963762310E+04 0.  0.
        2    1    3    3  502    0 -0.38317302170E+03  0.69992811743E+03  0.14489240437E+04  0.16541166279E+04  0.25500000920E-02 0. -1.
       -2    1    3    3    0  502  0.38317302170E+03 -0.69992811743E+03 -0.68571882679E+03  0.10521079999E+04  0.25500000920E-02 0.  1.
</event>
<event>
 5   0  0.1032076E-06  0.2601102E+04  0.7818609E-02  0.8367827E-01
        1   -1    0    0  501    0  0.00000000000E+00  0.00000000000E+00  0.17497550355E+04  0.17497550356E+04  0.50400001928E-02 0.  1.
       -1   -1    0    0    0  501  0.00000000000E+00  0.00000000000E+00 -0.96666858391E+03  0.96666858393E+03  0.50400001928E-02 0. -1.
    10030    2    1    2    0    0  0.00000000000E+00  0.00000000000E+00  0.78308645163E+03  0.27164236195E+04  0.26011022451E+04 0.  0.
        1    1    3    3  502    0 -0.84817732908E+03  0.96140654232E+03  0.16339497516E+03  0.12924415805E+04  0.50400001928E-02 0. -1.
       -1    1    3    3    0  502  0.84817732908E+03 -0.96140654232E+03  0.61969147648E+03  0.14239820389E+04  0.50400001928E-02 0.  1.
</event>
<event>
 5   0  0.2623368E-06  0.2598537E+04  0.7818609E-02  0.8368698E-01
       -2   -1    0    0    0  501  0.00000000000E+00  0.00000000000E+00  0.69374918659E+03  0.69374918659E+03  0.25500000920E-02 0.  1.
        2   -1    0    0  501    0  0.00000000000E+00  0.00000000000E+00 -0.24332974072E+04  0.24332974072E+04  0.25500000920E-02 0. -1.
    10030    2    1    2    0    0  0.00000000000E+00  0.00000000000E+00 -0.17395482207E+04  0.31270465938E+04  0.25985365859E+04 0.  0.
        5    1    3    3  502    0  0.12300242091E+04  0.40683692295E+03 -0.98768257375E+03  0.16291147269E+04  0.46999998093E+01 0.  1.
       -5    1    3    3    0  502 -0.12300242091E+04 -0.40683692295E+03 -0.75186564690E+03  0.14979318669E+04  0.46999998093E+01 0. -1.
</event>
<event>
 5   0  0.1088757E-06  0.2599271E+04  0.7818609E-02  0.8368449E-01
        1   -1    0    0  501    0  0.00000000000E+00  0.00000000000E+00  0.17387706492E+04  0.17387706492E+04  0.50400001928E-02 0. -1.
       -1   -1    0    0    0  501  0.00000000000E+00  0.00000000000E+00 -0.97140624488E+03  0.97140624489E+03  0.50400001928E-02 0.  1.
    10030    2    1    2    0    0  0.00000000000E+00  0.00000000000E+00  0.76736440430E+03  0.27101768941E+04  0.25992711802E+04 0.  0.
        5    1    3    3  502    0 -0.31404406932E+03  0.85417898872E+03  0.13510540200E+04  0.16289918592E+04  0.46999998093E+01 0. -1.
       -5    1    3    3    0  502  0.31404406932E+03 -0.85417898872E+03 -0.58368961570E+03  0.10811850349E+04  0.46999998093E+01 0.  1.
</event>
<event>
 5   0  0.1055179E-06  0.2596317E+04  0.7818609E-02  0.8369453E-01
       -1   -1    0    0    0  501  0.00000000000E+00  0.00000000000E+00  0.13457309227E+04  0.13457309227E+04  0.50400001928E-02 0.  1.
        1   -1    0    0  501    0  0.00000000000E+00  0.00000000000E+00 -0.12522678553E+04  0.12522678553E+04  0.50400001928E-02 0. -1.
    10030    2    1    2    0    0  0.00000000000E+00  0.00000000000E+00  0.93463067458E+02  0.25979987780E+04  0.25963170657E+04 0.  0.
        3    1    3    3  502    0 -0.55121179763E+03  0.84978639784E+03 -0.76573292666E+03  0.12697709608E+04  0.10100000352E+00 0. -1.
       -3    1    3    3    0  502  0.55121179763E+03 -0.84978639784E+03  0.85919599412E+03  0.13282278172E+04  0.10100000352E+00 0.  1.
</event>
<event>
 5   0  0.2586775E-06  0.2599515E+04  0.7818609E-02  0.8368366E-01
       -2   -1    0    0    0  501  0.00000000000E+00  0.00000000000E+00  0.92917162483E+03  0.92917162483E+03  0.25500000920E-02 0. -1.
        2   -1    0    0  501    0  0.00000000000E+00  0.00000000000E+00 -0.18181453477E+04  0.18181453477E+04  0.25500000920E-02 0.  1.
    10030    2    1    2    0    0  0.00000000000E+00  0.00000000000E+00 -0.88897372290E+03  0.27473169726E+04  0.25995146216E+04 0.  0.
        1    1    3    3  502    0 -0.58950614728E+03 -0.96156426112E+03 -0.11271594435E+04  0.15945569093E+04  0.50400001928E-02 0.  1.
       -1    1    3    3    0  502  0.58950614728E+03  0.96156426112E+03  0.23818572058E+03  0.11527600633E+04  0.50400001928E-02 0. -1.
</event>
<event>
 5   0  0.1032076E-06  0.2605036E+04  0.7818609E-02  0.8366493E-01
       -1   -1    0    0    0  501  0.00000000000E+00  0.00000000000E+00  0.13826559944E+04  0.13826559944E+04  0.50400001928E-02 0. -1.
        1   -1    0    0  501    0  0.00000000000E+00  0.00000000000E+00 -0.12270244413E+04  0.12270244413E+04  0.50400001928E-02 0.  1.
    10030    2    1    2    0    0  0.00000000000E+00  0.00000000000E+00  0.15563155316E+03  0.26096804357E+04  0.26050356612E+04 0.  0.
        1    1    3    3  502    0  0.10049134460E+04  0.17294143708E+03  0.88968838596E+03  0.13532572552E+04  0.50400001928E-02 0. -1.
       -1    1    3    3    0  502 -0.10049134460E+04 -0.17294143708E+03 -0.73405683280E+03  0.12564231805E+04  0.50400001928E-02 0.  1.
</event>
<event>
 5   0  0.2820028E-06  0.2600170E+04  0.7818609E-02  0.8368143E-01
       -2   -1    0    0    0  501  0.00000000000E+00  0.00000000000E+00  0.58337840535E+03  0.58337840535E+03  0.25500000920E-02 0.  1.
        2   -1    0    0  501    0  0.00000000000E+00  0.00000000000E+00 -0.28972978037E+04  0.28972978037E+04  0.25500000920E-02 0. -1.
    10030    2    1    2    0    0  0.00000000000E+00  0.00000000000E+00 -0.23139193983E+04  0.34806762090E+04  0.26001699733E+04 0.  0.
        3    1    3    3  502    0  0.92950531974E+03  0.74829174339E+03 -0.46616705328E+03  0.12811059302E+04  0.10100000352E+00 0.  1.
       -3    1    3    3    0  502 -0.92950531974E+03 -0.74829174339E+03 -0.18477523451E+04  0.21995702788E+04  0.10100000352E+00 0. -1.
</event>
<event>
 5   0  0.1032076E-06  0.2592629E+04  0.7818609E-02  0.8370709E-01
       -1   -1    0    0    0  501  0.00000000000E+00  0.00000000000E+00  0.90028122700E+03  0.90028122702E+03  0.50400001928E-02 0.  1.
        1   -1    0    0  501    0  0.00000000000E+00  0.00000000000E+00 -0.18665624611E+04  0.18665624611E+04  0.50400001928E-02 0. -1.
    10030    2    1    2    0    0  0.00000000000E+00  0.00000000000E+00 -0.96628123412E+03  0.27668436881E+04  0.25926288919E+04 0.  0.
        1    1    3    3  502    0 -0.55716227985E+03 -0.96694280921E+03 -0.11870234088E+04  0.16292430069E+04  0.50400001928E-02 0. -1.
       -1    1    3    3    0  502  0.55716227985E+03  0.96694280921E+03  0.22074217467E+03  0.11376006813E+04  0.50400001928E-02 0.  1.
</event>
<event>
 5   0  0.1032076E-06  0.2601080E+04  0.7818609E-02  0.8367834E-01
        1   -1    0    0  501    0  0.00000000000E+00  0.00000000000E+00  0.16608646769E+04  0.16608646769E+04  0.50400001928E-02 0.  1.
       -1   -1    0    0    0  501  0.00000000000E+00  0.00000000000E+00 -0.10183878226E+04  0.10183878226E+04  0.50400001928E-02 0. -1.
    10030    2    1    2    0    0  0.00000000000E+00  0.00000000000E+00  0.64247685429E+03  0.26792524994E+04  0.26010800540E+04 0.  0.
        1    1    3    3  502    0 -0.12306805268E+04  0.38940373394E+03  0.48473667320E+03  0.13788326473E+04  0.50400001928E-02 0. -1.
       -1    1    3    3    0  502  0.12306805268E+04 -0.38940373394E+03  0.15774018108E+03  0.13004198521E+04  0.50400001928E-02 0.  1.
</event>
<event>
 5   0  0.2586775E-06  0.2600598E+04  0.7818609E-02  0.8367998E-01
       -2   -1    0    0    0  501  0.00000000000E+00  0.00000000000E+00  0.13261245691E+04  0.13261245691E+04  0.25500000920E-02 0.  1.
        2   -1    0    0  501    0  0.00000000000E+00  0.00000000000E+00 -0.12749760416E+04  0.12749760416E+04  0.25500000920E-02 0. -1.
    10030    2    1    2    0    0  0.00000000000E+00  0.00000000000E+00  0.51148527424E+02  0.26011006107E+04  0.26005976650E+04 0.  0.
        1    1    3    3  502    0  0.29028788668E+03  0.60204968686E+03 -0.10900096217E+04  0.12786132558E+04  0.50400001928E-02 0. -1.
       -1    1    3    3    0  502 -0.29028788668E+03 -0.60204968686E+03  0.11411581491E+04  0.13224873549E+04  0.50400001928E-02 0.  1.
</event>
<event>
 5   0  0.1032076E-06  0.2601751E+04  0.7818609E-02  0.8367607E-01
        1   -1    0    0  501    0  0.00000000000E+00  0.00000000000E+00  0.30094744437E+04  0.30094744437E+04  0.50400001928E-02 0. -1.
       -1   -1    0    0    0  501  0.00000000000E+00  0.00000000000E+00 -0.56231637116E+03  0.56231637118E+03  0.50400001928E-02 0.  1.
    10030    2    1    2    0    0  0.00000000000E+00  0.00000000000E+00  0.24471580726E+04  0.35717908149E+04  0.26017507554E+04 0.  0.
        1    1    3    3  502    0  0.48236870639E+03 -0.44790035305E+03  0.27639671736E+04  0.28412688771E+04  0.50400001928E-02 0. -1.
       -1    1    3    3    0  502 -0.48236870639E+03  0.44790035305E+03 -0.31680910101E+03  0.73052193785E+03  0.50400001928E-02 0.  1.
</event>
<event>
 5   0  0.1032076E-06  0.2598207E+04  0.7818609E-02  0.8368810E-01
       -1   -1    0    0    0  501  0.00000000000E+00  0.00000000000E+00  0.14899617108E+04  0.14899617108E+04  0.50400001928E-02 0.  1.
        1   -1    0    0  501    0  0.00000000000E+00  0.00000000000E+00 -0.11326934541E+04  0.11326934542E+04  0.50400001928E-02 0. -1.
    10030    2    1    2    0    0  0.00000000000E+00  0.00000000000E+00  0.35726825666E+03  0.26226551650E+04  0.25982069793E+04 0.  0.
        1    1    3    3  502    0  0.73536745666E+03  0.95384421965E+03  0.67013037399E+03  0.13782811070E+04  0.50400001928E-02 0.  1.
       -1    1    3    3    0  502 -0.73536745666E+03 -0.95384421965E+03 -0.31286211734E+03  0.12443740580E+04  0.50400001928E-02 0. -1.
</event>
<event>
 5   0  0.2820028E-06  0.2612096E+04  0.7818609E-02  0.8364104E-01
        2   -1    0    0  501    0  0.00000000000E+00  0.00000000000E+00  0.18245175234E+04  0.18245175234E+04  0.25500000920E-02 0.  1.
       -2   -1    0    0    0  501  0.00000000000E+00  0.00000000000E+00 -0.93491125681E+03  0.93491125681E+03  0.25500000920E-02 0. -1.
    10030    2    1    2    0    0  0.00000000000E+00  0.00000000000E+00  0.88960626664E+03  0.27594287803E+04  0.26120964538E+04 0.  0.
        3    1    3    3  502    0  0.83027541137E+03  0.33625990744E+03 -0.55924412072E+03  0.10560217710E+04  0.10100000352E+00 0. -1.
       -3    1    3    3    0  502 -0.83027541137E+03 -0.33625990744E+03  0.14488503874E+04  0.17034070093E+04  0.10100000352E+00 0.  1.
</event>
<event>
 5   0  0.2623368E-06  0.2595129E+04  0.7818609E-02  0.8369858E-01
       -2   -1    0    0    0  501  0.00000000000E+00  0.00000000000E+00  0.12194794493E+04  0.12194794493E+04  0.25500000920E-02 0. -1.
        2   -1    0    0  501    0  0.00000000000E+00  0.00000000000E+00 -0.13806491269E+04  0.13806491269E+04  0.25500000920E-02 0.  1.
    10030    2    1    2    0    0  0.00000000000E+00  0.00000000000E+00 -0.16116967767E+03  0.26001285762E+04  0.25951286958E+04 0.  0.
        5    1    3    3  502    0  0.12506488329E+04 -0.94082453710E+02 -0.41390753039E+03  0.13207253859E+04  0.46999998093E+01 0.  1.
       -5    1    3    3    0  502 -0.12506488329E+04  0.94082453710E+02  0.25273785272E+03  0.12794031903E+04  0.46999998093E+01 0. -1.
</event>
<event>
 5   0  0.2746631E-06  0.2593844E+04  0.7818609E-02  0.8370295E-01
       -2   -1    0    0    0  501  0.00000000000E+00  0.00000000000E+00  0.12382254039E+04  0.12382254039E+04  0.25500000920E-02 0.  1.
        2   -1    0    0  501    0  0.00000000000E+00  0.00000000000E+00 -0.13584014641E+04  0.13584014641E+04  0.25500000920E-02 0. -1.
    10030    2    1    2    0    0  0.00000000000E+00  0.00000000000E+00 -0.12017606016E+03  0.25966268680E+04  0.25938444067E+04 0.  0.
        2    1    3    3  502    0 -0.66111208060E+03  0.10286081280E+04  0.37269891663E+03  0.12782833593E+04  0.25500000920E-02 0.  1.
       -2    1    3    3    0  502  0.66111208060E+03 -0.10286081280E+04 -0.49287497680E+03  0.13183435087E+04  0.25500000920E-02 0. -1.
</event>
<event>
 5   0  0.2746631E-06  0.2601361E+04  0.7818609E-02  0.8367739E-01
        2   -1    0    0  501    0  0.00000000000E+00  0.00000000000E+00  0.14059606128E+04  0.14059606128E+04  0.25500000920E-02 0.  1.
       -2   -1    0    0    0  501  0.00000000000E+00  0.00000000000E+00 -0.12032835877E+04  0.12032835877E+04  0.25500000920E-02 0. -1.
    10030    2    1    2    0    0  0.00000000000E+00  0.00000000000E+00  0.20267702513E+03  0.26092442005E+04  0.26013606673E+04 0.  0.
        2    1    3    3  502    0  0.11048569385E+04 -0.29109299747E+03  0.72477290460E+03  0.13530483180E+04  0.25500000920E-02 0.  1.
       -2    1    3    3    0  502 -0.11048569385E+04  0.29109299747E+03 -0.52209587947E+03  0.12561958824E+04  0.25500000920E-02 0. -1.
</event>
<event>
 5   0  0.2820028E-06  0.2589515E+04  0.7818609E-02  0.8371772E-01
       -2   -1    0    0    0  501  0.00000000000E+00  0.00000000000E+00  0.58161291771E+03  0.58161291772E+03  0.25500000920E-02 0. -1.
        2   -1    0    0  501    0  0.00000000000E+00  0.00000000000E+00 -0.28823236009E+04  0.28823236009E+04  0.25500000920E-02 0.  1.
    10030    2    1    2    0    0  0.00000000000E+00  0.00000000000E+00 -0.23007106832E+04  0.34639365186E+04  0.25895147339E+04 0.  0.
        3    1    3    3  502    0  0.16636429953E+03 -0.19006245542E+03  0.54833532955E+03  0.60371554639E+03  0.10100000352E+00 0. -1.
       -3    1    3    3    0  502 -0.16636429953E+03  0.19006245542E+03 -0.28490460128E+04  0.28602209723E+04  0.10100000352E+00 0.  1.
</event>
<event>
 5   0  0.1122628E-06  0.2595499E+04  0.7818609E-02  0.8369732E-01
       -1   -1    0    0    0  501  0.00000000000E+00  0.00000000000E+00  0.10418108498E+04  0.10418108498E+04  0.50400001928E-02 0.  1.
        1   -1    0    0  501    0  0.00000000000E+00  0.00000000000E+00 -0.16165640811E+04  0.16165640811E+04  0.50400001928E-02 0. -1.
    10030    2    1    2    0    0  0.00000000000E+00  0.00000000000E+00 -0.57475323131E+03  0.26583749309E+04  0.25954991805E+04 0.  0.
        2    1    3    3  502    0 -0.57580072196E+03  0.55527675874E+03 -0.13340298720E+04  0.15554788490E+04  0.25500000920E-02 0. -1.
       -2    1    3    3    0  502  0.57580072196E+03 -0.55527675874E+03  0.75927664073E+03  0.11028960819E+04  0.25500000920E-02 0.  1.
</event>
<event>
 5   0  0.2586775E-06  0.2608087E+04  0.7818609E-02  0.8365459E-01
       -2   -1    0    0    0  501  0.00000000000E+00  0.00000000000E+00  0.20791024892E+04  0.20791024892E+04  0.25500000920E-02 0. -1.
        2   -1    0    0  501    0  0.00000000000E+00  0.00000000000E+00 -0.81791504076E+03  0.81791504076E+03  0.25500000920E-02 0.  1.
    10030    2    1    2    0    0  0.00000000000E+00  0.00000000000E+00  0.12611874484E+04  0.28970175300E+04  0.26080868062E+04 0.  0.
        1    1    3    3  502    0  0.59052514688E+03  0.24649871765E+03  0.18927124591E+04  0.19979594640E+04  0.50400001928E-02 0. -1.
       -1    1    3    3    0  502 -0.59052514688E+03 -0.24649871765E+03 -0.63152501065E+03  0.89905806598E+03  0.50400001928E-02 0.  1.
</event>
<event>
 5   0  0.1055179E-06  0.2598505E+04  0.7818609E-02  0.8368709E-01
       -1   -1    0    0    0  501  0.00000000000E+00  0.00000000000E+00  0.12886091867E+04  0.12886091867E+04  0.50400001928E-02 0.  1.
        1   -1    0    0  501    0  0.00000000000E+00  0.00000000000E+00 -0.13099836278E+04  0.13099836279E+04  0.50400001928E-02 0. -1.
    10030    2    1    2    0    0  0.00000000000E+00  0.00000000000E+00 -0.21374441154E+02  0.25985928146E+04  0.25985049065E+04 0.  0.
        3    1    3    3  502    0  0.10437874503E+04 -0.36600692506E+03 -0.69232866024E+03  0.13049031744E+04  0.10100000352E+00 0. -1.
       -3    1    3    3    0  502 -0.10437874503E+04  0.36600692506E+03  0.67095421908E+03  0.12936896401E+04  0.10100000352E+00 0.  1.
</event>
<event>
 5   0  0.1055179E-06  0.2602809E+04  0.7818609E-02  0.8367248E-01
        1   -1    0    0  501    0  0.00000000000E+00  0.00000000000E+00  0.15421028318E+04  0.15421028318E+04  0.50400001928E-02 0. -1.
       -1   -1    0    0    0  501  0.00000000000E+00  0.00000000000E+00 -0.10982752986E+04  0.10982752986E+04  0.50400001928E-02 0.  1.
    10030    2    1    2    0    0  0.00000000000E+00  0.00000000000E+00  0.44382753322E+03  0.26403781304E+04  0.26028088275E+04 0.  0.
        3    1    3    3  502    0 -0.10072136208E+04  0.76472822195E+03  0.53353648590E+03  0.13725704803E+04  0.10100000352E+00 0.  1.
       -3    1    3    3    0  502  0.10072136208E+04 -0.76472822195E+03 -0.89708952674E+02  0.12678076501E+04  0.10100000352E+00 0. -1.
</event>
<event>
 5   0  0.1100104E-06  0.2597719E+04  0.7818609E-02  0.8368977E-01
       -1   -1    0    0    0  501  0.00000000000E+00  0.00000000000E+00  0.79073961317E+03  0.79073961318E+03  0.50400001928E-02 0.  1.
        1   -1    0    0  501    0  0.00000000000E+00  0.00000000000E+00 -0.21334907001E+04  0.21334907001E+04  0.50400001928E-02 0. -1.
    10030    2    1    2    0    0  0.00000000000E+00  0.00000000000E+00 -0.13427510869E+04  0.29242303133E+04  0.25977186999E+04 0.  0.
        4    1    3    3  502    0 -0.19015448940E+03  0.46639543876E+03  0.67633201723E+03  0.84327341092E+03  0.12699999809E+01 0.  1.
       -4    1    3    3    0  502  0.19015448940E+03 -0.46639543876E+03 -0.20190831042E+04  0.20809569024E+04  0.12699999809E+01 0. -1.
</event>
<event>
 5   0  0.2705807E-06  0.2596788E+04  0.7818609E-02  0.8369293E-01
       -2   -1    0    0    0  501  0.00000000000E+00  0.00000000000E+00  0.12912295783E+04  0.12912295783E+04  0.25500000920E-02 0. -1.
        2   -1    0    0  501    0  0.00000000000E+00  0.00000000000E+00 -0.13055985476E+04  0.13055985476E+04  0.25500000920E-02 0.  1.
    10030    2    1    2    0    0  0.00000000000E+00  0.00000000000E+00 -0.14368969308E+02  0.25968281258E+04  0.25967883718E+04 0.  0.
        4    1    3    3  502    0 -0.40507213429E+03 -0.35742622518E+03 -0.11878756339E+04  0.13049471541E+04  0.12699999809E+01 0.  1.
       -4    1    3    3    0  502  0.40507213429E+03  0.35742622518E+03  0.11735066646E+04  0.12918809718E+04  0.12699999809E+01 0. -1.
</event>
<event>
 5   0  0.1055179E-06  0.2600780E+04  0.7818609E-02  0.8367936E-01
        1   -1    0    0  501    0  0.00000000000E+00  0.00000000000E+00  0.13998734094E+04  0.13998734095E+04  0.50400001928E-02 0. -1.
       -1   -1    0    0    0  501  0.00000000000E+00  0.00000000000E+00 -0.12079760921E+04  0.12079760921E+04  0.50400001928E-02 0.  1.
    10030    2    1    2    0    0  0.00000000000E+00  0.00000000000E+00  0.19189731737E+03  0.26078495015E+04  0.26007795836E+04 0.  0.
        3    1    3    3  502    0 -0.40484578498E+03  0.10247600439E+04 -0.59656639494E+03  0.12529663726E+04  0.10100000352E+00 0.  1.
       -3    1    3    3    0  502  0.40484578498E+03 -0.10247600439E+04  0.78846371231E+03  0.13548831289E+04  0.10100000352E+00 0. -1.
</event>
<event>
 5   0  0.2623368E-06  0.2578234E+04  0.7818609E-02  0.8375633E-01
        2   -1    0    0  501    0  0.00000000000E+00  0.00000000000E+00  0.27100673065E+04  0.27100673065E+04  0.25500000920E-02 0.  1.
       -2   -1    0    0    0  501  0.00000000000E+00  0.00000000000E+00 -0.61320326961E+03  0.61320326961E+03  0.25500000920E-02 0. -1.
    10030    2    1    2    0    0  0.00000000000E+00  0.00000000000E+00  0.20968640369E+04  0.33232705761E+04  0.25782336071E+04 0.  0.
        5    1    3    3  502    0  0.19878933138E+03 -0.26104092621E+03  0.26553309925E+04  0.26755306639E+04  0.46999998093E+01 0.  1.
       -5    1    3    3    0  502 -0.19878933138E+03  0.26104092621E+03 -0.55846695562E+03  0.64773991226E+03  0.46999998093E+01 0. -1.
</event>
<event>
 5   0  0.1055179E-06  0.2596439E+04  0.7818609E-02  0.8369412E-01
        1   -1    0    0  501    0  0.00000000000E+00  0.00000000000E+00  0.10935685018E+04  0.10935685018E+04  0.50400001928E-02 0. -1.
       -1   -1    0    0    0  501  0.00000000000E+00  0.00000000000E+00 -0.15411684281E+04  0.15411684281E+04  0.50400001928E-02 0.  1.
    10030    2    1    2    0    0  0.00000000000E+00  0.00000000000E+00 -0.44759992635E+03  0.26347369299E+04  0.25964385215E+04 0.  0.
        3    1    3    3  502    0 -0.10322949368E+04 -0.17809623886E+03 -0.10019369360E+04  0.14495615685E+04  0.10100000352E+00 0.  1.
       -3    1    3    3    0  502  0.10322949368E+04  0.17809623886E+03  0.55433700969E+03  0.11851753614E+04  0.10100000352E+00 0. -1.
</event>
<event>
 5   0  0.2586775E-06  0.2603149E+04  0.7818609E-02  0.8367133E-01
       -2   -1    0    0    0  501  0.00000000000E+00  0.00000000000E+00  0.16823343608E+04  0.16823343608E+04  0.25500000920E-02 0. -1.
        2   -1    0    0  501    0  0.00000000000E+00  0.00000000000E+00 -0.10069909954E+04  0.10069909954E+04  0.25500000920E-02 0.  1.
    10030    2    1    2    0    0  0.00000000000E+00  0.00000000000E+00  0.67534336539E+03  0.26893253562E+04  0.26031485186E+04 0.  0.
        1    1    3    3  502    0 -0.10230460397E+04 -0.70921475537E+03 -0.55026111514E+02  0.12460484106E+04  0.50400001928E-02 0.  1.
       -1    1    3    3    0  502  0.10230460397E+04  0.70921475537E+03  0.73036947691E+03  0.14432769455E+04  0.50400001928E-02 0. -1.
</event>
<event>
 5   0  0.1055179E-06  0.2600441E+04  0.7818609E-02  0.8368051E-01
       -1   -1    0    0    0  501  0.00000000000E+00  0.00000000000E+00  0.82079826054E+03  0.82079826055E+03  0.50400001928E-02 0.  1.
        1   -1    0    0  501    0  0.00000000000E+00  0.00000000000E+00 -0.20596697558E+04  0.20596697558E+04  0.50400001928E-02 0. -1.
    10030    2    1    2    0    0  0.00000000000E+00  0.00000000000E+00 -0.12388714953E+04  0.28804680164E+04  0.26004410033E+04 0.  0.
        3    1    3    3  502    0  0.12198678357E+04 -0.19870957360E+03 -0.17221330352E+03  0.12478863984E+04  0.10100000352E+00 0. -1.
       -3    1    3    3    0  502 -0.12198678357E+04  0.19870957360E+03 -0.10666581918E+04  0.16325816180E+04  0.10100000352E+00 0.  1.
</event>
<event>
 5   0  0.2623368E-06  0.2597571E+04  0.7818609E-02  0.8369027E-01
        2   -1    0    0  501    0  0.00000000000E+00  0.00000000000E+00  0.87169285774E+03  0.87169285774E+03  0.25500000920E-02 0.  1.
       -2   -1    0    0    0  501  0.00000000000E+00  0.00000000000E+00 -0.19351347846E+04  0.19351347846E+04  0.25500000920E-02 0. -1.
    10030    2    1    2    0    0  0.00000000000E+00  0.00000000000E+00 -0.10634419268E+04  0.28068276423E+04  0.25975705345E+04 0.  0.
        5    1    3    3  502    0 -0.71738886765E+03 -0.62099912977E+03  0.42659174912E+03  0.10403313496E+04  0.46999998093E+01 0.  1.
       -5    1    3    3    0  502  0.71738886765E+03  0.62099912977E+03 -0.14900336759E+04  0.17664962927E+04  0.46999998093E+01 0. -1.
</event>
<event>
 5   0  0.2820028E-06  0.2595091E+04  0.7818609E-02  0.8369870E-01
        2   -1    0    0  501    0  0.00000000000E+00  0.00000000000E+00  0.19617421782E+04  0.19617421782E+04  0.25500000920E-02 0. -1.
       -2   -1    0    0    0  501  0.00000000000E+00  0.00000000000E+00 -0.85822943589E+03  0.85822943589E+03  0.25500000920E-02 0.  1.
    10030    2    1    2    0    0  0.00000000000E+00  0.00000000000E+00  0.11035127423E+04  0.28199716141E+04  0.25950914304E+04 0.  0.
        3    1    3    3  502    0 -0.17745893731E+02 -0.64569292910E+02 -0.85635052515E+03  0.85896469221E+03  0.10100000352E+00 0.  1.
       -3    1    3    3    0  502  0.17745893731E+02  0.64569292910E+02  0.19598632675E+04  0.19610069219E+04  0.10100000352E+00 0. -1.
</event>
<event>
 5   0  0.2820028E-06  0.2600291E+04  0.7818609E-02  0.8368102E-01
       -2   -1    0    0    0  501  0.00000000000E+00  0.00000000000E+00  0.95742821034E+03  0.95742821034E+03  0.25500000920E-02 0. -1.
        2   -1    0    0  501    0  0.00000000000E+00  0.00000000000E+00 -0.17655401748E+04  0.17655401748E+04  0.25500000920E-02 0.  1.
    10030    2    1    2    0    0  0.00000000000E+00  0.00000000000E+00 -0.80811196446E+03  0.27229683851E+04  0.26002907298E+04 0.  0.
        3    1    3    3  502    0 -0.10142320042E+04 -0.75719853113E+02 -0.12521915906E+04  0.16131905790E+04  0.10100000352E+00 0.  1.
       -3    1    3    3    0  502  0.10142320042E+04  0.75719853113E+02  0.44407962615E+03  0.11097778061E+04  0.10100000352E+00 0. -1.
</event>
<event>
 5   0  0.1032076E-06  0.2600645E+04  0.7818609E-02  0.8367982E-01
        1   -1    0    0  501    0  0.00000000000E+00  0.00000000000E+00  0.18986744693E+04  0.18986744693E+04  0.50400001928E-02 0. -1.
       -1   -1    0    0    0  501  0.00000000000E+00  0.00000000000E+00 -0.89053667104E+03  0.89053667106E+03  0.50400001928E-02 0.  1.
    10030    2    1    2    0    0  0.00000000000E+00  0.00000000000E+00  0.10081377983E+04  0.27892111404E+04  0.26006454901E+04 0.  0.
        1    1    3    3  502    0  0.14943080109E+03 -0.20601515452E+03  0.18717017124E+04  0.18889253846E+04  0.50400001928E-02 0. -1.
       -1    1    3    3    0  502 -0.14943080109E+03  0.20601515452E+03 -0.86356391416E+03  0.90028575579E+03  0.50400001928E-02 0.  1.
</event>
<event>
 5   0  0.1100104E-06  0.2600867E+04  0.7818609E-02  0.8367907E-01
        1   -1    0    0  501    0  0.00000000000E+00  0.00000000000E+00  0.15460154130E+04  0.15460154130E+04  0.50400001928E-02 0.  1.
       -1   -1    0    0    0  501  0.00000000000E+00  0.00000000000E+00 -0.10938617176E+04  0.10938617176E+04  0.50400001928E-02 0. -1.
    10030    2    1    2    0    0  0.00000000000E+00  0.00000000000E+00  0.45215369539E+03  0.26398771307E+04  0.26008668364E+04 0.  0.
        4    1    3    3  502    0  0.74563250161E+03 -0.94088424890E+03 -0.28131550243E+03  0.12330332607E+04  0.12699999809E+01 0. -1.
       -4    1    3    3    0  502 -0.74563250161E+03  0.94088424890E+03  0.73346919781E+03  0.14068438699E+04  0.12699999809E+01 0.  1.
</event>
<event>
 5   0  0.1032076E-06  0.2600756E+04  0.7818609E-02  0.8367944E-01
        1   -1    0    0  501    0  0.00000000000E+00  0.00000000000E+00  0.12835211817E+04  0.12835211817E+04  0.50400001928E-02 0.  1.
       -1   -1    0    0    0  501  0.00000000000E+00  0.00000000000E+00 -0.13174565202E+04  0.13174565202E+04  0.50400001928E-02 0. -1.
    10030    2    1    2    0    0  0.00000000000E+00  0.00000000000E+00 -0.33935338522E+02  0.26009777019E+04  0.26007563128E+04 0.  0.
        1    1    3    3  502    0 -0.31539446000E+03  0.17360764436E+03  0.12326866446E+04  0.12841844274E+04  0.50400001928E-02 0.  1.
       -1    1    3    3    0  502  0.31539446000E+03 -0.17360764436E+03 -0.12666219832E+04  0.13167932745E+04  0.50400001928E-02 0. -1.
</event>
<event>
 5   0  0.1088757E-06  0.2600878E+04  0.7818609E-02  0.8367903E-01
        1   -1    0    0  501    0  0.00000000000E+00  0.00000000000E+00  0.19075856257E+04  0.19075856257E+04  0.50400001928E-02 0.  1.
       -1   -1    0    0    0  501  0.00000000000E+00  0.00000000000E+00 -0.88653504409E+03  0.88653504410E+03  0.50400001928E-02 0. -1.
    10030    2    1    2    0    0  0.00000000000E+00  0.00000000000E+00  0.10210505816E+04  0.27941206698E+04  0.26008779339E+04 0.  0.
        5    1    3    3  502    0 -0.75768229409E+03  0.75850560743E+03 -0.28016624854E+03  0.11081193221E+04  0.46999998093E+01 0. -1.
       -5    1    3    3    0  502  0.75768229409E+03 -0.75850560743E+03  0.13012168301E+04  0.16860013477E+04  0.46999998093E+01 0.  1.
</event>
<event>
 5   0  0.1055179E-06  0.2608761E+04  0.7818609E-02  0.8365231E-01
       -1   -1    0    0    0  501  0.00000000000E+00  0.00000000000E+00  0.11179469497E+04  0.11179469497E+04  0.50400001928E-02 0. -1.
        1   -1    0    0  501    0  0.00000000000E+00  0.00000000000E+00 -0.15219044452E+04  0.15219044452E+04  0.50400001928E-02 0.  1.
    10030    2    1    2    0    0  0.00000000000E+00  0.00000000000E+00 -0.40395749546E+03  0.26398513949E+04  0.26087609567E+04 0.  0.
        3    1    3    3  502    0 -0.10909142794E+04  0.59730509675E+03  0.19582343612E+03  0.12590528869E+04  0.10100000352E+00 0. -1.
       -3    1    3    3    0  502  0.10909142794E+04 -0.59730509675E+03 -0.59978093158E+03  0.13807985080E+04  0.10100000352E+00 0.  1.
</event>
<event>
 5   0  0.1100104E-06  0.2597785E+04  0.7818609E-02  0.8368954E-01
        1   -1    0    0  501    0  0.00000000000E+00  0.00000000000E+00  0.17569114750E+04  0.17569114750E+04  0.50400001928E-02 0.  1.
       -1   -1    0    0    0  501  0.00000000000E+00  0.00000000000E+00 -0.96027715669E+03  0.96027715670E+03  0.50400001928E-02 0. -1.
    10030    2    1    2    0    0  0.00000000000E+00  0.00000000000E+00  0.79663431831E+03  0.27171886317E+04  0.25977851765E+04 0.  0.
        4    1    3    3  502    0 -0.67488941986E+03  0.55718289785E+03 -0.60558547529E+03  0.10642668328E+04  0.12699999809E+01 0. -1.
       -4    1    3    3    0  502  0.67488941986E+03 -0.55718289785E+03  0.14022197936E+04  0.16529217989E+04  0.12699999809E+01 0.  1.
</event>
<event>
 5   0  0.1122628E-06  0.2598742E+04  0.7818609E-02  0.8368629E-01
       -1   -1    0    0    0  501  0.00000000000E+00  0.00000000000E+00  0.18608430712E+04  0.18608430712E+04  0.50400001928E-02 0.  1.
        1   -1    0    0  501    0  0.00000000000E+00  0.00000000000E+00 -0.90731189684E+03  0.90731189686E+03  0.50400001928E-02 0. -1.
    10030    2    1    2    0    0  0.00000000000E+00  0.00000000000E+00  0.95353117434E+03  0.27681549681E+04  0.25987420470E+04 0.  0.
        2    1    3    3  502    0 -0.68478852553E+03  0.29260053127E+03  0.16109880924E+04  0.17747768957E+04  0.25500000920E-02 0.  1.
       -2    1    3    3    0  502  0.68478852553E+03 -0.29260053127E+03 -0.65745691804E+03  0.99337807238E+03  0.25500000920E-02 0. -1.
</event>
<event>
 5   0  0.2746631E-06  0.2600193E+04  0.7818609E-02  0.8368136E-01
        2   -1    0    0  501    0  0.00000000000E+00  0.00000000000E+00  0.12171461618E+04  0.12171461618E+04  0.25500000920E-02 0. -1.
       -2   -1    0    0    0  501  0.00000000000E+00  0.00000000000E+00 -0.13887003991E+04  0.13887003991E+04  0.25500000920E-02 0.  1.
    10030    2    1    2    0    0  0.00000000000E+00  0.00000000000E+00 -0.17155423733E+03  0.26058465609E+04  0.26001933471E+04 0.  0.
        2    1    3    3  502    0  0.12787807261E+04  0.22751696254E+03 -0.14253280654E+03  0.13066597548E+04  0.25500000920E-02 0.  1.
       -2    1    3    3    0  502 -0.12787807261E+04 -0.22751696254E+03 -0.29021430790E+02  0.12991868061E+04  0.25500000920E-02 0. -1.
</event>
<event>
 5   0  0.1088757E-06  0.2595479E+04  0.7818609E-02  0.8369738E-01
       -1   -1    0    0    0  501  0.00000000000E+00  0.00000000000E+00  0.10906735896E+04  0.10906735896E+04  0.50400001928E-02 0. -1.
        1   -1    0    0  501    0  0.00000000000E+00  0.00000000000E+00 -0.15441174524E+04  0.15441174524E+04  0.50400001928E-02 0.  1.
    10030    2    1    2    0    0  0.00000000000E+00  0.00000000000E+00 -0.45344386278E+03  0.26347910420E+04  0.25954792425E+04 0.  0.
        5    1    3    3  502    0 -0.56404651893E+03  0.76170921101E+03  0.67313330305E+03  0.11625316905E+04  0.46999998093E+01 0. -1.
       -5    1    3    3    0  502  0.56404651893E+03 -0.76170921101E+03 -0.11265771658E+04  0.14722593515E+04  0.46999998093E+01 0.  1.
</event>
<event>
 5   0  0.1055179E-06  0.2615035E+04  0.7818609E-02  0.8363112E-01
        1   -1    0    0  501    0  0.00000000000E+00  0.00000000000E+00  0.12231794416E+04  0.12231794416E+04  0.50400001928E-02 0. -1.
       -1   -1    0    0    0  501  0.00000000000E+00  0.00000000000E+00 -0.13976710010E+04  0.13976710010E+04  0.50400001928E-02 0.  1.
    10030    2    1    2    0    0  0.00000000000E+00  0.00000000000E+00 -0.17449155941E+03  0.26208504426E+04  0.26150353226E+04 0.  0.
        3    1    3    3  502    0  0.47775474646E+03 -0.49285964856E+03 -0.12025736363E+04  0.13846817656E+04  0.10100000352E+00 0.  1.
       -3    1    3    3    0  502 -0.47775474646E+03  0.49285964856E+03  0.10280820769E+04  0.12361686770E+04  0.10100000352E+00 0. -1.
</event>
<event>
 5   0  0.2746631E-06  0.2602830E+04  0.7818609E-02  0.8367241E-01
        2   -1    0    0  501    0  0.00000000000E+00  0.00000000000E+00  0.19499217629E+04  0.19499217629E+04  0.25500000920E-02 0.  1.
       -2   -1    0    0    0  501  0.00000000000E+00  0.00000000000E+00 -0.86858919051E+03  0.86858919052E+03  0.25500000920E-02 0. -1.
    10030    2    1    2    0    0  0.00000000000E+00  0.00000000000E+00  0.10813325724E+04  0.28185109534E+04  0.26028299719E+04 0.  0.
        2    1    3    3  502    0 -0.11234384013E+04  0.58951872571E+03  0.22675747697E+03  0.12888231542E+04  0.25500000920E-02 0.  1.
       -2    1    3    3    0  502  0.11234384013E+04 -0.58951872571E+03  0.85457509544E+03  0.15296877993E+04  0.25500000920E-02 0. -1.
</event>
<event>
 5   0  0.1122628E-06  0.2597420E+04  0.7818609E-02  0.8369078E-01
        1   -1    0    0  501    0  0.00000000000E+00  0.00000000000E+00  0.91388038091E+03  0.91388038093E+03  0.50400001928E-02 0.  1.
       -1   -1    0    0    0  501  0.00000000000E+00  0.00000000000E+00 -0.18455890012E+04  0.18455890012E+04  0.50400001928E-02 0. -1.
    10030    2    1    2    0    0  0.00000000000E+00  0.00000000000E+00 -0.93170862029E+03  0.27594693821E+04  0.25974199348E+04 0.  0.
        2    1    3    3  502    0 -0.63443742416E+03 -0.10287287982E+04 -0.97074470142E+03  0.15502061349E+04  0.25500000920E-02 0.  1.
       -2    1    3    3    0  502  0.63443742416E+03  0.10287287982E+04  0.39036081124E+02  0.12092632472E+04  0.25500000920E-02 0. -1.
</event>
<event>
 5   0  0.1088757E-06  0.2601772E+04  0.7818609E-02  0.8367600E-01
        1   -1    0    0  501    0  0.00000000000E+00  0.00000000000E+00  0.21730726645E+04  0.21730726645E+04  0.50400001928E-02 0. -1.
       -1   -1    0    0    0  501  0.00000000000E+00  0.00000000000E+00 -0.77876111069E+03  0.77876111071E+03  0.50400001928E-02 0.  1.
    10030    2    1    2    0    0  0.00000000000E+00  0.00000000000E+00  0.13943115538E+04  0.29518337752E+04  0.26017720744E+04 0.  0.
        5    1    3    3  502    0 -0.69249359180E+03  0.64731079971E+02 -0.55009575353E+03  0.88677218915E+03  0.46999998093E+01 0.  1.
       -5    1    3    3    0  502  0.69249359180E+03 -0.64731079971E+02  0.19444073073E+04  0.20650615860E+04  0.46999998093E+01 0. -1.
</event>
<event>
 5   0  0.2586775E-06  0.2605423E+04  0.7818609E-02  0.8366361E-01
       -2   -1    0    0    0  501  0.00000000000E+00  0.00000000000E+00  0.11648333771E+04  0.11648333771E+04  0.25500000920E-02 0.  1.
        2   -1    0    0  501    0  0.00000000000E+00  0.00000000000E+00 -0.14569100652E+04  0.14569100652E+04  0.25500000920E-02 0. -1.
    10030    2    1    2    0    0  0.00000000000E+00  0.00000000000E+00 -0.29207668808E+03  0.26217434423E+04  0.26054231683E+04 0.  0.
        1    1    3    3  502    0  0.10031500987E+03 -0.12837778443E+04 -0.34452710995E+03  0.13329844651E+04  0.50400001928E-02 0.  1.
       -1    1    3    3    0  502 -0.10031500987E+03  0.12837778443E+04  0.52450421861E+02  0.12887589772E+04  0.50400001928E-02 0. -1.
</event>
<event>
 5   0  0.2746631E-06  0.2600799E+04  0.7818609E-02  0.8367930E-01
       -2   -1    0    0    0  501  0.00000000000E+00  0.00000000000E+00  0.92385664924E+03  0.92385664925E+03  0.25500000920E-02 0. -1.
        2   -1    0    0  501    0  0.00000000000E+00  0.00000000000E+00 -0.18304119636E+04  0.18304119636E+04  0.25500000920E-02 0.  1.
    10030    2    1    2    0    0  0.00000000000E+00  0.00000000000E+00 -0.90655531437E+03  0.27542686129E+04  0.26007985416E+04 0.  0.
        2    1    3    3  502    0 -0.74179707052E+03 -0.60485482922E+03 -0.13855218736E+04  0.16839783610E+04  0.25500000920E-02 0.  1.
       -2    1    3    3    0  502  0.74179707052E+03  0.60485482922E+03  0.47896655922E+03  0.10702902518E+04  0.25500000920E-02 0. -1.
</event>
<event>
 5   0  0.2705807E-06  0.2607178E+04  0.7818609E-02  0.8365767E-01
       -2   -1    0    0    0  501  0.00000000000E+00  0.00000000000E+00  0.91192444239E+03  0.91192444239E+03  0.25500000920E-02 0.  1.
        2   -1    0    0  501    0  0.00000000000E+00  0.00000000000E+00 -0.18634703591E+04  0.18634703591E+04  0.25500000920E-02 0. -1.
    10030    2    1    2    0    0  0.00000000000E+00  0.00000000000E+00 -0.95154591669E+03  0.27753948015E+04  0.26071779135E+04 0.  0.
        4    1    3    3  502    0  0.30798884943E+03  0.42381802788E+03  0.79492041129E+03  0.95203935071E+03  0.12699999809E+01 0.  1.
       -4    1    3    3    0  502 -0.30798884943E+03 -0.42381802788E+03 -0.17464663280E+04  0.18233554508E+04  0.12699999809E+01 0. -1.
</event>
<event>
 5   0  0.2623368E-06  0.2673039E+04  0.7818609E-02  0.8343806E-01
       -2   -1    0    0    0  501  0.00000000000E+00  0.00000000000E+00  0.86404120470E+03  0.86404120470E+03  0.25500000920E-02 0.  1.
        2   -1    0    0  501    0  0.00000000000E+00  0.00000000000E+00 -0.20673604730E+04  0.20673604730E+04  0.25500000920E-02 0. -1.
    10030    2    1    2    0    0  0.00000000000E+00  0.00000000000E+00 -0.12033192683E+04  0.29314016777E+04  0.26730391944E+04 0.  0.
        5    1    3    3  502    0 -0.91134234197E+03  0.97659448612E+03 -0.55285061483E+03  0.14456650881E+04  0.46999998093E+01 0. -1.
       -5    1    3    3    0  502  0.91134234197E+03 -0.97659448612E+03 -0.65046865347E+03  0.14857365896E+04  0.46999998093E+01 0.  1.
</event>
<event>
 5   0  0.2705807E-06  0.2589798E+04  0.7818609E-02  0.8371675E-01
       -2   -1    0    0    0  501  0.00000000000E+00  0.00000000000E+00  0.14889687668E+04  0.14889687668E+04  0.25500000920E-02 0.  1.
        2   -1    0    0  501    0  0.00000000000E+00  0.00000000000E+00 -0.11261239368E+04  0.11261239368E+04  0.25500000920E-02 0. -1.
    10030    2    1    2    0    0  0.00000000000E+00  0.00000000000E+00  0.36284483003E+03  0.26150927036E+04  0.25897979608E+04 0.  0.
        4    1    3    3  502    0 -0.35562063648E+02  0.11542302138E+04  0.77301986547E+03  0.13896306603E+04  0.12699999809E+01 0.  1.
       -4    1    3    3    0  502  0.35562063648E+02 -0.11542302138E+04 -0.41017503544E+03  0.12254620433E+04  0.12699999809E+01 0. -1.
</event>
<event>
 5   0  0.2586775E-06  0.2604105E+04  0.7818609E-02  0.8366808E-01
        2   -1    0    0  501    0  0.00000000000E+00  0.00000000000E+00  0.15701306973E+04  0.15701306973E+04  0.25500000920E-02 0.  1.
       -2   -1    0    0    0  501  0.00000000000E+00  0.00000000000E+00 -0.10797452768E+04  0.10797452768E+04  0.25500000920E-02 0. -1.
    10030    2    1    2    0    0  0.00000000000E+00  0.00000000000E+00  0.49038542050E+03  0.26498759740E+04  0.26041053775E+04 0.  0.
        1    1    3    3  502    0 -0.20792789813E+03 -0.93673225443E+03  0.11407985528E+04  0.14906785922E+04  0.50400001928E-02 0.  1.
       -1    1    3    3    0  502  0.20792789813E+03  0.93673225443E+03 -0.65041313227E+03  0.11591973818E+04  0.50400001928E-02 0. -1.
</event>
<event>
 5   0  0.1122628E-06  0.2660961E+04  0.7818609E-02  0.8347784E-01
        1   -1    0    0  501    0  0.00000000000E+00  0.00000000000E+00  0.13559371892E+04  0.13559371892E+04  0.50400001928E-02 0. -1.
       -1   -1    0    0    0  501  0.00000000000E+00  0.00000000000E+00 -0.13055015422E+04  0.13055015423E+04  0.50400001928E-02 0.  1.
    10030    2    1    2    0    0  0.00000000000E+00  0.00000000000E+00  0.50435646948E+02  0.26614387315E+04  0.26609607977E+04 0.  0.
        2    1    3    3  502    0  0.64013466633E+03 -0.93937834371E+03 -0.66626300836E+03  0.13176154446E+04  0.25500000920E-02 0.  1.
       -2    1    3    3    0  502 -0.64013466633E+03  0.93937834371E+03  0.71669865530E+03  0.13438232868E+04  0.25500000920E-02 0. -1.
</event>
<event>
 5   0  0.2746631E-06  0.2607934E+04  0.7818609E-02  0.8365511E-01
        2   -1    0    0  501    0  0.00000000000E+00  0.00000000000E+00  0.27446734889E+04  0.27446734890E+04  0.25500000920E-02 0. -1.
       -2   -1    0    0    0  501  0.00000000000E+00  0.00000000000E+00 -0.61950150078E+03  0.61950150079E+03  0.25500000920E-02 0.  1.
    10030    2    1    2    0    0  0.00000000000E+00  0.00000000000E+00  0.21251719882E+04  0.33641749897E+04  0.26079335464E+04 0.  0.
        2    1    3    3  502    0  0.34001654136E+02 -0.13021868943E+04  0.11387113258E+04  0.17301763794E+04  0.25500000920E-02 0. -1.
       -2    1    3    3    0  502 -0.34001654136E+02  0.13021868943E+04  0.98646066240E+03  0.16339986104E+04  0.25500000920E-02 0.  1.
</event>
<event>
 5   0  0.2820028E-06  0.2586339E+04  0.7818609E-02  0.8372856E-01
        2   -1    0    0  501    0  0.00000000000E+00  0.00000000000E+00  0.13098210344E+04  0.13098210344E+04  0.25500000920E-02 0. -1.
       -2   -1    0    0    0  501  0.00000000000E+00  0.00000000000E+00 -0.12767293817E+04  0.12767293817E+04  0.25500000920E-02 0.  1.
    10030    2    1    2    0    0  0.00000000000E+00  0.00000000000E+00  0.33091652734E+02  0.25865504162E+04  0.25863387245E+04 0.  0.
        3    1    3    3  502    0 -0.37484826018E+03  0.11837589377E+04 -0.34471849609E+03  0.12886532864E+04  0.10100000352E+00 0.  1.
       -3    1    3    3    0  502  0.37484826018E+03 -0.11837589377E+04  0.37781014883E+03  0.12978971298E+04  0.10100000352E+00 0. -1.
</event>
<event>
 5   0  0.2623368E-06  0.2619835E+04  0.7818609E-02  0.8361495E-01
        2   -1    0    0  501    0  0.00000000000E+00  0.00000000000E+00  0.13202066020E+04  0.13202066020E+04  0.25500000920E-02 0.  1.
       -2   -1    0    0    0  501  0.00000000000E+00  0.00000000000E+00 -0.12997083364E+04  0.12997083364E+04  0.25500000920E-02 0. -1.
    10030    2    1    2    0    0  0.00000000000E+00  0.00000000000E+00  0.20498265599E+02  0.26199149383E+04  0.26198347477E+04 0.  0.
        5    1    3    3  502    0 -0.98751611979E+03 -0.34202669003E+03 -0.77951619598E+03  0.13037783298E+04  0.46999998093E+01 0. -1.
       -5    1    3    3    0  502  0.98751611979E+03  0.34202669003E+03  0.80001446158E+03  0.13161366085E+04  0.46999998093E+01 0.  1.
</event>
<event>
 5   0  0.2586775E-06  0.2601656E+04  0.7818609E-02  0.8367639E-01
       -2   -1    0    0    0  501  0.00000000000E+00  0.00000000000E+00  0.11818670321E+04  0.11818670321E+04  0.25500000920E-02 0.  1.
        2   -1    0    0  501    0  0.00000000000E+00  0.00000000000E+00 -0.14317630234E+04  0.14317630234E+04  0.25500000920E-02 0. -1.
    10030    2    1    2    0    0  0.00000000000E+00  0.00000000000E+00 -0.24989599123E+03  0.26136300555E+04  0.26016560227E+04 0.  0.
        1    1    3    3  502    0  0.19666328251E+03  0.12722928914E+04 -0.31221372867E+03  0.13247199932E+04  0.50400001928E-02 0.  1.
       -1    1    3    3    0  502 -0.19666328251E+03 -0.12722928914E+04  0.62317737448E+02  0.12889100622E+04  0.50400001928E-02 0. -1.
</event>
<event>
 5   0  0.1032076E-06  0.2609372E+04  0.7818609E-02  0.8365025E-01
       -1   -1    0    0    0  501  0.00000000000E+00  0.00000000000E+00  0.92061573611E+03  0.92061573613E+03  0.50400001928E-02 0. -1.
        1   -1    0    0  501    0  0.00000000000E+00  0.00000000000E+00 -0.18489857702E+04  0.18489857702E+04  0.50400001928E-02 0.  1.
    10030    2    1    2    0    0  0.00000000000E+00  0.00000000000E+00 -0.92837003411E+03  0.27696015064E+04  0.26093718753E+04 0.  0.
        1    1    3    3  502    0 -0.18446311218E+03 -0.12906719980E+04 -0.41279117958E+03  0.13675735461E+04  0.50400001928E-02 0.  1.
       -1    1    3    3    0  502  0.18446311218E+03  0.12906719980E+04 -0.51557885453E+03  0.14020279602E+04  0.50400001928E-02 0. -1.
</event>
<event>
 5   0  0.2746631E-06  0.2597866E+04  0.7818609E-02  0.8368927E-01
       -2   -1    0    0    0  501  0.00000000000E+00  0.00000000000E+00  0.95437119245E+03  0.95437119245E+03  0.25500000920E-02 0.  1.
        2   -1    0    0  501    0  0.00000000000E+00  0.00000000000E+00 -0.17678932040E+04  0.17678932040E+04  0.25500000920E-02 0. -1.
    10030    2    1    2    0    0  0.00000000000E+00  0.00000000000E+00 -0.81352201159E+03  0.27222643965E+04  0.25978655433E+04 0.  0.
        2    1    3    3  502    0  0.96984869209E+02  0.77059699196E+03 -0.14977701386E+04  0.16871695756E+04  0.25500000920E-02 0. -1.
       -2    1    3    3    0  502 -0.96984869209E+02 -0.77059699196E+03  0.68424812699E+03  0.10350948209E+04  0.25500000920E-02 0.  1.
</event>
<event>
 5   0  0.1055179E-06  0.2606355E+04  0.7818609E-02  0.8366046E-01
       -1   -1    0    0    0  501  0.00000000000E+00  0.00000000000E+00  0.94391777538E+03  0.94391777540E+03  0.50400001928E-02 0.  1.
        1   -1    0    0  501    0  0.00000000000E+00  0.00000000000E+00 -0.17991726847E+04  0.17991726847E+04  0.50400001928E-02 0. -1.
    10030    2    1    2    0    0  0.00000000000E+00  0.00000000000E+00 -0.85525490928E+03  0.27430904601E+04  0.26063546022E+04 0.  0.
        3    1    3    3  502    0 -0.11590578307E+04  0.59566829774E+03 -0.42137508375E+03  0.13695958335E+04  0.10100000352E+00 0.  1.
       -3    1    3    3    0  502  0.11590578307E+04 -0.59566829774E+03 -0.43387982553E+03  0.13734946265E+04  0.10100000352E+00 0. -1.
</event>
<event>
 5   0  0.2623368E-06  0.2596949E+04  0.7818609E-02  0.8369238E-01
        2   -1    0    0  501    0  0.00000000000E+00  0.00000000000E+00  0.15548540589E+04  0.15548540589E+04  0.25500000920E-02 0. -1.
       -2   -1    0    0    0  501  0.00000000000E+00  0.00000000000E+00 -0.10843695127E+04  0.10843695127E+04  0.25500000920E-02 0.  1.
    10030    2    1    2    0    0  0.00000000000E+00  0.00000000000E+00  0.47048454622E+03  0.26392235716E+04  0.25969492396E+04 0.  0.
        5    1    3    3  502    0  0.66292944537E+03 -0.95338889571E+03 -0.35523948572E+03  0.12143488042E+04  0.46999998093E+01 0.  1.
       -5    1    3    3    0  502 -0.66292944537E+03  0.95338889571E+03  0.82572403194E+03  0.14248747674E+04  0.46999998093E+01 0. -1.
</event>
<event>
 5   0  0.1100104E-06  0.2603565E+04  0.7818609E-02  0.8366991E-01
       -1   -1    0    0    0  501  0.00000000000E+00  0.00000000000E+00  0.82492647573E+03  0.82492647574E+03  0.50400001928E-02 0.  1.
        1   -1    0    0  501    0  0.00000000000E+00  0.00000000000E+00 -0.20542900577E+04  0.20542900577E+04  0.50400001928E-02 0. -1.
    10030    2    1    2    0    0  0.00000000000E+00  0.00000000000E+00 -0.12293635820E+04  0.28792165335E+04  0.26035654457E+04 0.  0.
        4    1    3    3  502    0 -0.40833860934E+03 -0.90625047342E+03 -0.15442785105E+04  0.18365260878E+04  0.12699999809E+01 0. -1.
       -4    1    3    3    0  502  0.40833860934E+03  0.90625047342E+03  0.31491492845E+03  0.10426904457E+04  0.12699999809E+01 0.  1.
</event>
<event>
 5   0  0.2705807E-06  0.2582923E+04  0.7818609E-02  0.8374025E-01
       -2   -1    0    0    0  501  0.00000000000E+00  0.00000000000E+00  0.80454547815E+03  0.80454547815E+03  0.25500000920E-02 0. -1.
        2   -1    0    0  501    0  0.00000000000E+00  0.00000000000E+00 -0.20730627026E+04  0.20730627026E+04  0.25500000920E-02 0.  1.
    10030    2    1    2    0    0  0.00000000000E+00  0.00000000000E+00 -0.12685172244E+04  0.28776081807E+04  0.25829233231E+04 0.  0.
        4    1    3    3  502    0 -0.12834695570E+04  0.69899557374E+02 -0.49470111045E+03  0.13772838681E+04  0.12699999809E+01 0.  1.
       -4    1    3    3    0  502  0.12834695570E+04 -0.69899557374E+02 -0.77381611398E+03  0.15003243126E+04  0.12699999809E+01 0. -1.
</event>
<event>
 5   0  0.1032076E-06  0.2598648E+04  0.7818609E-02  0.8368661E-01
        1   -1    0    0  501    0  0.00000000000E+00  0.00000000000E+00  0.10338699638E+04  0.10338699638E+04  0.50400001928E-02 0. -1.
       -1   -1    0    0    0  501  0.00000000000E+00  0.00000000000E+00 -0.16329356430E+04  0.16329356430E+04  0.50400001928E-02 0.  1.
    10030    2    1    2    0    0  0.00000000000E+00  0.00000000000E+00 -0.59906567919E+03  0.26668056069E+04  0.25986481980E+04 0.  0.
        1    1    3    3  502    0  0.10397795142E+03 -0.39119866187E+03 -0.15665796847E+04  0.16180295782E+04  0.50400001928E-02 0.  1.
       -1    1    3    3    0  502 -0.10397795142E+03  0.39119866187E+03  0.96751400549E+03  0.10487760287E+04  0.50400001928E-02 0. -1.
</event>
<event>
 5   0  0.2586775E-06  0.2599826E+04  0.7818609E-02  0.8368260E-01
       -2   -1    0    0    0  501  0.00000000000E+00  0.00000000000E+00  0.14154420082E+04  0.14154420082E+04  0.25500000920E-02 0.  1.
        2   -1    0    0  501    0  0.00000000000E+00  0.00000000000E+00 -0.11938136353E+04  0.11938136354E+04  0.25500000920E-02 0. -1.
    10030    2    1    2    0    0  0.00000000000E+00  0.00000000000E+00  0.22162837283E+03  0.26092556435E+04  0.25998261245E+04 0.  0.
        1    1    3    3  502    0  0.54266999902E+03 -0.30619915023E+03 -0.10341677601E+04  0.12073738458E+04  0.50400001928E-02 0. -1.
       -1    1    3    3    0  502 -0.54266999902E+03  0.30619915023E+03  0.12557961329E+04  0.14018817978E+04  0.50400001928E-02 0.  1.
</event>
<event>
 5   0  0.1100104E-06  0.2604225E+04  0.7818609E-02  0.8366768E-01
        1   -1    0    0  501    0  0.00000000000E+00  0.00000000000E+00  0.15159867069E+04  0.15159867069E+04  0.50400001928E-02 0.  1.
       -1   -1    0    0    0  501  0.00000000000E+00  0.00000000000E+00 -0.11184113410E+04  0.11184113411E+04  0.50400001928E-02 0. -1.
    10030    2    1    2    0    0  0.00000000000E+00  0.00000000000E+00  0.39757536586E+03  0.26343980480E+04  0.26042248182E+04 0.  0.
        4    1    3    3  502    0 -0.46831609865E+03 -0.10653976157E+04  0.78959482065E+03  0.14063618459E+04  0.12699999809E+01 0.  1.
       -4    1    3    3    0  502  0.46831609865E+03  0.10653976157E+04 -0.39201945479E+03  0.12280362021E+04  0.12699999809E+01 0. -1.
</event>
<event>
 5   0  0.2820028E-06  0.2598482E+04  0.7818609E-02  0.8368717E-01
        2   -1    0    0  501    0  0.00000000000E+00  0.00000000000E+00  0.17543168749E+04  0.17543168749E+04  0.25500000920E-02 0. -1.
       -2   -1    0    0    0  501  0.00000000000E+00  0.00000000000E+00 -0.96221345878E+03  0.96221345879E+03  0.25500000920E-02 0.  1.
    10030    2    1    2    0    0  0.00000000000E+00  0.00000000000E+00  0.79210341608E+03  0.27165303337E+04  0.25984821015E+04 0.  0.
        3    1    3    3  502    0  0.79329750199E+03 -0.13113026165E+02 -0.67953969233E+03  0.10446372968E+04  0.10100000352E+00 0.  1.
       -3    1    3    3    0  502 -0.79329750199E+03  0.13113026165E+02  0.14716431084E+04  0.16718930369E+04  0.10100000352E+00 0. -1.
</event>
<event>
 5   0  0.1055179E-06  0.2596982E+04  0.7818609E-02  0.8369227E-01
       -1   -1    0    0    0  501  0.00000000000E+00  0.00000000000E+00  0.13688217794E+04  0.13688217794E+04  0.50400001928E-02 0.  1.
        1   -1    0    0  501    0  0.00000000000E+00  0.00000000000E+00 -0.12317733924E+04  0.12317733924E+04  0.50400001928E-02 0. -1.
    10030    2    1    2    0    0  0.00000000000E+00  0.00000000000E+00  0.13704838702E+03  0.26005951718E+04  0.25969815147E+04 0.  0.
        3    1    3    3  502    0  0.93836894683E+03  0.89337999096E+03 -0.17701068046E+02  0.12957536134E+04  0.10100000352E+00 0.  1.
       -3    1    3    3    0  502 -0.93836894683E+03 -0.89337999096E+03  0.15474945507E+03  0.13048415585E+04  0.10100000352E+00 0. -1.
</event>
<event>
 5   0  0.2586775E-06  0.2600923E+04  0.7818609E-02  0.8367888E-01
       -2   -1    0    0    0  501  0.00000000000E+00  0.00000000000E+00  0.68722399746E+03  0.68722399746E+03  0.25500000920E-02 0. -1.
        2   -1    0    0  501    0  0.00000000000E+00  0.00000000000E+00 -0.24609151375E+04  0.24609151375E+04  0.25500000920E-02 0.  1.
    10030    2    1    2    0    0  0.00000000000E+00  0.00000000000E+00 -0.17736911400E+04  0.31481391350E+04  0.26009228656E+04 0.  0.
        1    1    3    3  502    0  0.32718818293E+03  0.76352452754E+03  0.32426033572E+03  0.89172113160E+03  0.50400001928E-02 0. -1.
       -1    1    3    3    0  502 -0.32718818293E+03 -0.76352452754E+03 -0.20979514758E+04  0.22564180034E+04  0.50400001928E-02 0.  1.
</event>
<event>
 5   0  0.1100104E-06  0.2594309E+04  0.7818609E-02  0.8370137E-01
       -1   -1    0    0    0  501  0.00000000000E+00  0.00000000000E+00  0.11247814240E+04  0.11247814240E+04  0.50400001928E-02 0. -1.
        1   -1    0    0  501    0  0.00000000000E+00  0.00000000000E+00 -0.14959436159E+04  0.14959436159E+04  0.50400001928E-02 0.  1.
    10030    2    1    2    0    0  0.00000000000E+00  0.00000000000E+00 -0.37116219197E+03  0.26207250399E+04  0.25943088409E+04 0.  0.
        4    1    3    3  502    0 -0.25326780410E+02 -0.85976807995E+03 -0.11664288359E+04  0.14492758327E+04  0.12699999809E+01 0.  1.
       -4    1    3    3    0  502  0.25326780410E+02  0.85976807995E+03  0.79526664395E+03  0.11714492072E+04  0.12699999809E+01 0. -1.
</event>
<event>
 5   0  0.2820028E-06  0.2599806E+04  0.7818609E-02  0.8368267E-01
        2   -1    0    0  501    0  0.00000000000E+00  0.00000000000E+00  0.20742774279E+04  0.20742774279E+04  0.25500000920E-02 0. -1.
       -2   -1    0    0    0  501  0.00000000000E+00  0.00000000000E+00 -0.81461967509E+03  0.81461967510E+03  0.25500000920E-02 0.  1.
    10030    2    1    2    0    0  0.00000000000E+00  0.00000000000E+00  0.12596577528E+04  0.28888971030E+04  0.25998055346E+04 0.  0.
        3    1    3    3  502    0 -0.68760129035E+03  0.45601123270E+03  0.17460184411E+04  0.19311453042E+04  0.10100000352E+00 0. -1.
       -3    1    3    3    0  502  0.68760129035E+03 -0.45601123270E+03 -0.48636068831E+03  0.95775179884E+03  0.10100000352E+00 0.  1.
</event>
<event>
 5   0  0.1100104E-06  0.2596793E+04  0.7818609E-02  0.8369291E-01
        1   -1    0    0  501    0  0.00000000000E+00  0.00000000000E+00  0.18909131877E+04  0.18909131877E+04  0.50400001928E-02 0. -1.
       -1   -1    0    0    0  501  0.00000000000E+00  0.00000000000E+00 -0.89154490208E+03  0.89154490209E+03  0.50400001928E-02 0.  1.
    10030    2    1    2    0    0  0.00000000000E+00  0.00000000000E+00  0.99936828558E+03  0.27824580898E+04  0.25967934171E+04 0.  0.
        4    1    3    3  502    0 -0.11449368199E+04  0.56487396047E+03  0.24641716283E+03  0.13002637978E+04  0.12699999809E+01 0.  1.
       -4    1    3    3    0  502  0.11449368199E+04 -0.56487396047E+03  0.75295112275E+03  0.14821942919E+04  0.12699999809E+01 0. -1.
</event>
<event>
 5   0  0.1088757E-06  0.2601793E+04  0.7818609E-02  0.8367592E-01
       -1   -1    0    0    0  501  0.00000000000E+00  0.00000000000E+00  0.11243247915E+04  0.11243247915E+04  0.50400001928E-02 0.  1.
        1   -1    0    0  501    0  0.00000000000E+00  0.00000000000E+00 -0.15051987573E+04  0.15051987573E+04  0.50400001928E-02 0. -1.
    10030    2    1    2    0    0  0.00000000000E+00  0.00000000000E+00 -0.38087396582E+03  0.26295235488E+04  0.26017934422E+04 0.  0.
        5    1    3    3  502    0  0.27448419524E+02 -0.99780246649E+02  0.11201495059E+04  0.11249295617E+04  0.46999998093E+01 0.  1.
       -5    1    3    3    0  502 -0.27448419524E+02  0.99780246649E+02 -0.15010234717E+04  0.15045939871E+04  0.46999998093E+01 0. -1.
</event>
<event>
 5   0  0.1100104E-06  0.2605761E+04  0.7818609E-02  0.8366247E-01
        1   -1    0    0  501    0  0.00000000000E+00  0.00000000000E+00  0.11697437225E+04  0.11697437225E+04  0.50400001928E-02 0. -1.
       -1   -1    0    0    0  501  0.00000000000E+00  0.00000000000E+00 -0.14511707238E+04  0.14511707238E+04  0.50400001928E-02 0.  1.
    10030    2    1    2    0    0  0.00000000000E+00  0.00000000000E+00 -0.28142700132E+03  0.26209144463E+04  0.26057611897E+04 0.  0.
        4    1    3    3  502    0 -0.85744756163E+03 -0.91700838718E+03 -0.49112939763E+03  0.13480839741E+04  0.12699999809E+01 0. -1.
       -4    1    3    3    0  502  0.85744756163E+03  0.91700838718E+03  0.20970239631E+03  0.12728304722E+04  0.12699999809E+01 0.  1.
</event>
<event>
 5   0  0.1088757E-06  0.2604153E+04  0.7818609E-02  0.8366792E-01
       -1   -1    0    0    0  501  0.00000000000E+00  0.00000000000E+00  0.65325898441E+03  0.65325898443E+03  0.50400001928E-02 0.  1.
        1   -1    0    0  501    0  0.00000000000E+00  0.00000000000E+00 -0.25952993456E+04  0.25952993456E+04  0.50400001928E-02 0. -1.
    10030    2    1    2    0    0  0.00000000000E+00  0.00000000000E+00 -0.19420403612E+04  0.32485583301E+04  0.26041525415E+04 0.  0.
        5    1    3    3  502    0 -0.56339177451E+03 -0.11736029104E+04 -0.93979789818E+03  0.16056139830E+04  0.46999998093E+01 0. -1.
       -5    1    3    3    0  502  0.56339177451E+03  0.11736029104E+04 -0.10022424630E+04  0.16429443471E+04  0.46999998093E+01 0.  1.
</event>
<event>
 5   0  0.2746631E-06  0.2601880E+04  0.7818609E-02  0.8367563E-01
       -2   -1    0    0    0  501  0.00000000000E+00  0.00000000000E+00  0.91176763220E+03  0.91176763220E+03  0.25500000920E-02 0. -1.
        2   -1    0    0  501    0  0.00000000000E+00  0.00000000000E+00 -0.18562237219E+04  0.18562237219E+04  0.25500000920E-02 0.  1.
    10030    2    1    2    0    0  0.00000000000E+00  0.00000000000E+00 -0.94445608969E+03  0.27679913541E+04  0.26018798648E+04 0.  0.
        2    1    3    3  502    0 -0.11625236684E+04 -0.55629370235E+03 -0.66110358713E+03  0.14484412021E+04  0.25500000920E-02 0.  1.
       -2    1    3    3    0  502  0.11625236684E+04  0.55629370235E+03 -0.28335250256E+03  0.13195501520E+04  0.25500000920E-02 0. -1.
</event>
<event>
 5   0  0.2705807E-06  0.2602137E+04  0.7818609E-02  0.8367476E-01
        2   -1    0    0  501    0  0.00000000000E+00  0.00000000000E+00  0.16925781840E+04  0.16925781840E+04  0.25500000920E-02 0. -1.
       -2   -1    0    0    0  501  0.00000000000E+00  0.00000000000E+00 -0.10001186465E+04  0.10001186465E+04  0.25500000920E-02 0.  1.
    10030    2    1    2    0    0  0.00000000000E+00  0.00000000000E+00  0.69245953749E+03  0.26926968305E+04  0.26021368161E+04 0.  0.
        4    1    3    3  502    0 -0.71741623232E+03 -0.46629681175E+02  0.14683662158E+04  0.16349193662E+04  0.12699999809E+01 0. -1.
       -4    1    3    3    0  502  0.71741623232E+03  0.46629681175E+02 -0.77590667827E+03  0.10577774642E+04  0.12699999809E+01 0.  1.
</event>
<event>
 5   0  0.2623368E-06  0.2591357E+04  0.7818609E-02  0.8371143E-01
       -2   -1    0    0    0  501  0.00000000000E+00  0.00000000000E+00  0.87141745829E+03  0.87141745830E+03  0.25500000920E-02 0. -1.
        2   -1    0    0  501    0  0.00000000000E+00  0.00000000000E+00 -0.19264971781E+04  0.19264971781E+04  0.25500000920E-02 0.  1.
    10030    2    1    2    0    0  0.00000000000E+00  0.00000000000E+00 -0.10550797198E+04  0.27979146364E+04  0.25913573851E+04 0.  0.
        5    1    3    3  502    0 -0.83952803871E+03  0.74448777530E+03  0.17193545794E+03  0.11351886482E+04  0.46999998093E+01 0. -1.
       -5    1    3    3    0  502  0.83952803871E+03 -0.74448777530E+03 -0.12270151778E+04  0.16627259882E+04  0.46999998093E+01 0.  1.
</event>
<event>
 5   0  0.2623368E-06  0.2601481E+04  0.7818609E-02  0.8367698E-01
        2   -1    0    0  501    0  0.00000000000E+00  0.00000000000E+00  0.12961693641E+04  0.12961693641E+04  0.25500000920E-02 0.  1.
       -2   -1    0    0    0  501  0.00000000000E+00  0.00000000000E+00 -0.13053279535E+04  0.13053279535E+04  0.25500000920E-02 0. -1.
    10030    2    1    2    0    0  0.00000000000E+00  0.00000000000E+00 -0.91585893286E+01  0.26014973176E+04  0.26014811961E+04 0.  0.
        5    1    3    3  502    0 -0.78725750779E+03  0.73105446477E+03 -0.73785663890E+03  0.13033301668E+04  0.46999998093E+01 0. -1.
       -5    1    3    3    0  502  0.78725750779E+03 -0.73105446477E+03  0.72869804957E+03  0.12981671508E+04  0.46999998093E+01 0.  1.
</event>
<event>
 5   0  0.1100104E-06  0.2595367E+04  0.7818609E-02  0.8369777E-01
       -1   -1    0    0    0  501  0.00000000000E+00  0.00000000000E+00  0.16039970647E+04  0.16039970647E+04  0.50400001928E-02 0.  1.
        1   -1    0    0  501    0  0.00000000000E+00  0.00000000000E+00 -0.10498660805E+04  0.10498660805E+04  0.50400001928E-02 0. -1.
    10030    2    1    2    0    0  0.00000000000E+00  0.00000000000E+00  0.55413098421E+03  0.26538631453E+04  0.25953667267E+04 0.  0.
        4    1    3    3  502    0 -0.54156501014E+03  0.83944991125E+03 -0.56986066738E+03  0.11500919993E+04  0.12699999809E+01 0. -1.
       -4    1    3    3    0  502  0.54156501014E+03 -0.83944991125E+03  0.11239916516E+04  0.15037711460E+04  0.12699999809E+01 0.  1.
</event>
<event>
 5   0  0.1032076E-06  0.2603687E+04  0.7818609E-02  0.8366950E-01
       -1   -1    0    0    0  501  0.00000000000E+00  0.00000000000E+00  0.20006994221E+04  0.20006994221E+04  0.50400001928E-02 0. -1.
        1   -1    0    0  501    0  0.00000000000E+00  0.00000000000E+00 -0.84710213253E+03  0.84710213255E+03  0.50400001928E-02 0.  1.
    10030    2    1    2    0    0  0.00000000000E+00  0.00000000000E+00  0.11535972896E+04  0.28478015547E+04  0.26036871909E+04 0.  0.
        1    1    3    3  502    0 -0.36709382640E+03 -0.12483834272E+04  0.62024281848E+03  0.14414992933E+04  0.50400001928E-02 0.  1.
       -1    1    3    3    0  502  0.36709382640E+03  0.12483834272E+04  0.53335447109E+03  0.14063022614E+04  0.50400001928E-02 0. -1.
</event>
<event>
 5   0  0.2820028E-06  0.2605146E+04  0.7818609E-02  0.8366455E-01
       -2   -1    0    0    0  501  0.00000000000E+00  0.00000000000E+00  0.87318696076E+03  0.87318696077E+03  0.25500000920E-02 0. -1.
        2   -1    0    0  501    0  0.00000000000E+00  0.00000000000E+00 -0.19431072976E+04  0.19431072976E+04  0.25500000920E-02 0.  1.
    10030    2    1    2    0    0  0.00000000000E+00  0.00000000000E+00 -0.10699203368E+04  0.28162942583E+04  0.26051456432E+04 0.  0.
        3    1    3    3  502    0  0.12458515077E+04 -0.28185831200E+03 -0.81079941353E+03  0.15129394523E+04  0.10100000352E+00 0.  1.
       -3    1    3    3    0  502 -0.12458515077E+04  0.28185831200E+03 -0.25912092326E+03  0.13033548060E+04  0.10100000352E+00 0. -1.
</event>
<event>
 5   0  0.2586775E-06  0.2598156E+04  0.7818609E-02  0.8368828E-01
        2   -1    0    0  501    0  0.00000000000E+00  0.00000000000E+00  0.12850696343E+04  0.12850696343E+04  0.25500000920E-02 0. -1.
       -2   -1    0    0    0  501  0.00000000000E+00  0.00000000000E+00 -0.13132389898E+04  0.13132389899E+04  0.25500000920E-02 0.  1.
    10030    2    1    2    0    0  0.00000000000E+00  0.00000000000E+00 -0.28169355561E+02  0.25983086241E+04  0.25981559217E+04 0.  0.
        1    1    3    3  502    0  0.14009354526E+03 -0.86768426541E+03 -0.97075020600E+03  0.13095259250E+04  0.50400001928E-02 0.  1.
       -1    1    3    3    0  502 -0.14009354526E+03  0.86768426541E+03  0.94258085044E+03  0.12887826991E+04  0.50400001928E-02 0. -1.
</event>
<event>
 5   0  0.9197000E-07  0.2605676E+04  0.7818609E-02  0.8366276E-01
        3   -1    0    0  501    0  0.00000000000E+00  0.00000000000E+00  0.25269802492E+04  0.25269802512E+04  0.10100000352E+00 0. -1.
       -3   -1    0    0    0  501  0.00000000000E+00  0.00000000000E+00 -0.67170576122E+03  0.67170576881E+03  0.10100000352E+00 0.  1.
    10030    2    1    2    0    0  0.00000000000E+00  0.00000000000E+00  0.18552744880E+04  0.31986860200E+04  0.26056762710E+04 0.  0.
        5    1    3    3  502    0 -0.19837241746E+03  0.63067180216E+03  0.23057424202E+04  0.23986597792E+04  0.46999998093E+01 0. -1.
       -5    1    3    3    0  502  0.19837241746E+03 -0.63067180216E+03 -0.45046793223E+03  0.80002624083E+03  0.46999998093E+01 0.  1.
</event>
<event>
 5   0  0.2623368E-06  0.2598863E+04  0.7818609E-02  0.8368587E-01
       -2   -1    0    0    0  501  0.00000000000E+00  0.00000000000E+00  0.64372667459E+03  0.64372667460E+03  0.25500000920E-02 0.  1.
        2   -1    0    0  501    0  0.00000000000E+00  0.00000000000E+00 -0.26230429687E+04  0.26230429687E+04  0.25500000920E-02 0. -1.
    10030    2    1    2    0    0  0.00000000000E+00  0.00000000000E+00 -0.19793162941E+04  0.32667696433E+04  0.25988633882E+04 0.  0.
        5    1    3    3  502    0 -0.72329260072E+03 -0.10786635397E+04 -0.10434809075E+04  0.16659957120E+04  0.46999998093E+01 0. -1.
       -5    1    3    3    0  502  0.72329260072E+03  0.10786635397E+04 -0.93583538662E+03  0.16007739313E+04  0.46999998093E+01 0.  1.
</event>
<event>
 5   0  0.1055179E-06  0.2605555E+04  0.7818609E-02  0.8366317E-01
        1   -1    0    0  501    0  0.00000000000E+00  0.00000000000E+00  0.25803269606E+04  0.25803269606E+04  0.50400001928E-02 0.  1.
       -1   -1    0    0    0  501  0.00000000000E+00  0.00000000000E+00 -0.65775761162E+03  0.65775761163E+03  0.50400001928E-02 0. -1.
    10030    2    1    2    0    0  0.00000000000E+00  0.00000000000E+00  0.19225693490E+04  0.32380845723E+04  0.26055553718E+04 0.  0.
        3    1    3    3  502    0  0.12871069708E+04  0.20145620705E+03  0.96022219343E+03  0.16184114522E+04  0.10100000352E+00 0. -1.
       -3    1    3    3    0  502 -0.12871069708E+04 -0.20145620705E+03  0.96234715557E+03  0.16196731200E+04  0.10100000352E+00 0.  1.
</event>
<event>
 5   0  0.2746631E-06  0.2608848E+04  0.7818609E-02  0.8365202E-01
       -2   -1    0    0    0  501  0.00000000000E+00  0.00000000000E+00  0.80721959408E+03  0.80721959409E+03  0.25500000920E-02 0.  1.
        2   -1    0    0  501    0  0.00000000000E+00  0.00000000000E+00 -0.21078801205E+04  0.21078801205E+04  0.25500000920E-02 0. -1.
    10030    2    1    2    0    0  0.00000000000E+00  0.00000000000E+00 -0.13006605264E+04  0.29150997146E+04  0.26088481253E+04 0.  0.
        2    1    3    3  502    0  0.41797769009E+03 -0.95057201888E+03 -0.15324522795E+04  0.18511354627E+04  0.25500000920E-02 0. -1.
       -2    1    3    3    0  502 -0.41797769009E+03  0.95057201888E+03  0.23179175305E+03  0.10639642519E+04  0.25500000920E-02 0.  1.
</event>
<event>
 5   0  0.1032076E-06  0.2598560E+04  0.7818609E-02  0.8368691E-01
        1   -1    0    0  501    0  0.00000000000E+00  0.00000000000E+00  0.20322977698E+04  0.20322977698E+04  0.50400001928E-02 0.  1.
       -1   -1    0    0    0  501  0.00000000000E+00  0.00000000000E+00 -0.83064997696E+03  0.83064997698E+03  0.50400001928E-02 0. -1.
    10030    2    1    2    0    0  0.00000000000E+00  0.00000000000E+00  0.12016477929E+04  0.28629477468E+04  0.25985596747E+04 0.  0.
        1    1    3    3  502    0  0.40231416365E+03  0.76453461547E+02  0.19593356819E+04  0.20016738326E+04  0.50400001928E-02 0.  1.
       -1    1    3    3    0  502 -0.40231416365E+03 -0.76453461547E+02 -0.75768788900E+03  0.86127391416E+03  0.50400001928E-02 0. -1.
</event>
<event>
 5   0  0.2820028E-06  0.2601449E+04  0.7818609E-02  0.8367709E-01
        2   -1    0    0  501    0  0.00000000000E+00  0.00000000000E+00  0.14790643288E+04  0.14790643288E+04  0.25500000920E-02 0.  1.
       -2   -1    0    0    0  501  0.00000000000E+00  0.00000000000E+00 -0.11438880973E+04  0.11438880973E+04  0.25500000920E-02 0. -1.
    10030    2    1    2    0    0  0.00000000000E+00  0.00000000000E+00  0.33517623148E+03  0.26229524260E+04  0.26014488892E+04 0.  0.
        3    1    3    3  502    0 -0.43534237368E+03 -0.91962268418E+03  0.98462904361E+03  0.14158824906E+04  0.10100000352E+00 0.  1.
       -3    1    3    3    0  502  0.43534237368E+03  0.91962268418E+03 -0.64945281213E+03  0.12070699354E+04  0.10100000352E+00 0. -1.
</event>
<event>
 5   0  0.2746631E-06  0.2604762E+04  0.7818609E-02  0.8366585E-01
       -2   -1    0    0    0  501  0.00000000000E+00  0.00000000000E+00  0.12679657635E+04  0.12679657635E+04  0.25500000920E-02 0.  1.
        2   -1    0    0  501    0  0.00000000000E+00  0.00000000000E+00 -0.13377306175E+04  0.13377306175E+04  0.25500000920E-02 0. -1.
    10030    2    1    2    0    0  0.00000000000E+00  0.00000000000E+00 -0.69764853940E+02  0.26056963810E+04  0.26047622723E+04 0.  0.
        2    1    3    3  502    0 -0.11656585662E+04 -0.28052613979E+03  0.47396669282E+03  0.12892242761E+04  0.25500000920E-02 0.  1.
       -2    1    3    3    0  502  0.11656585662E+04  0.28052613979E+03 -0.54373154676E+03  0.13164721049E+04  0.25500000920E-02 0. -1.
</event>
<event>
 5   0  0.1032076E-06  0.2599524E+04  0.7818609E-02  0.8368363E-01
       -1   -1    0    0    0  501  0.00000000000E+00  0.00000000000E+00  0.10347608448E+04  0.10347608448E+04  0.50400001928E-02 0. -1.
        1   -1    0    0  501    0  0.00000000000E+00  0.00000000000E+00 -0.16326299375E+04  0.16326299375E+04  0.50400001928E-02 0.  1.
    10030    2    1    2    0    0  0.00000000000E+00  0.00000000000E+00 -0.59786909266E+03  0.26673907823E+04  0.25995242129E+04 0.  0.
        1    1    3    3  502    0  0.12881050913E+04  0.15416859910E+03 -0.38101575695E+03  0.13520930775E+04  0.50400001928E-02 0. -1.
       -1    1    3    3    0  502 -0.12881050913E+04 -0.15416859910E+03 -0.21685333572E+03  0.13152977048E+04  0.50400001928E-02 0.  1.
</event>
<event>
 5   0  0.2623368E-06  0.2603901E+04  0.7818609E-02  0.8366877E-01
       -2   -1    0    0    0  501  0.00000000000E+00  0.00000000000E+00  0.18335230252E+04  0.18335230252E+04  0.25500000920E-02 0.  1.
        2   -1    0    0  501    0  0.00000000000E+00  0.00000000000E+00 -0.92449082037E+03  0.92449082038E+03  0.25500000920E-02 0. -1.
    10030    2    1    2    0    0  0.00000000000E+00  0.00000000000E+00  0.90903220479E+03  0.27580138455E+04  0.26039010778E+04 0.  0.
        5    1    3    3  502    0  0.70627358068E+03  0.72831910496E+03  0.13187633279E+04  0.16638599383E+04  0.46999998093E+01 0.  1.
       -5    1    3    3    0  502 -0.70627358068E+03 -0.72831910496E+03 -0.40973112309E+03  0.10941539072E+04  0.46999998093E+01 0. -1.
</event>
<event>
 5   0  0.2746631E-06  0.2578713E+04  0.7818609E-02  0.8375468E-01
       -2   -1    0    0    0  501  0.00000000000E+00  0.00000000000E+00  0.93698763193E+03  0.93698763193E+03  0.25500000920E-02 0. -1.
        2   -1    0    0  501    0  0.00000000000E+00  0.00000000000E+00 -0.17742395294E+04  0.17742395294E+04  0.25500000920E-02 0.  1.
    10030    2    1    2    0    0  0.00000000000E+00  0.00000000000E+00 -0.83725189746E+03  0.27112271613E+04  0.25787132412E+04 0.  0.
        2    1    3    3  502    0 -0.16691407280E+02 -0.85308038650E+03  0.59769980443E+03  0.10417628354E+04  0.25500000920E-02 0. -1.
       -2    1    3    3    0  502  0.16691407280E+02  0.85308038650E+03 -0.14349517019E+04  0.16694643260E+04  0.25500000920E-02 0.  1.
</event>
<event>
 5   0  0.2623368E-06  0.2602063E+04  0.7818609E-02  0.8367501E-01
        2   -1    0    0  501    0  0.00000000000E+00  0.00000000000E+00  0.22889508647E+04  0.22889508647E+04  0.25500000920E-02 0.  1.
       -2   -1    0    0    0  501  0.00000000000E+00  0.00000000000E+00 -0.73950190458E+03  0.73950190459E+03  0.25500000920E-02 0. -1.
    10030    2    1    2    0    0  0.00000000000E+00  0.00000000000E+00  0.15494489601E+04  0.30284527693E+04  0.26020634304E+04 0.  0.
        5    1    3    3  502    0  0.61436251259E+03 -0.89290441701E+03 -0.62888546961E+02  0.10856779698E+04  0.46999998093E+01 0. -1.
       -5    1    3    3    0  502 -0.61436251259E+03  0.89290441701E+03  0.16123375071E+04  0.19427747995E+04  0.46999998093E+01 0.  1.
</event>
<event>
 5   0  0.1032076E-06  0.2599558E+04  0.7818609E-02  0.8368351E-01
        1   -1    0    0  501    0  0.00000000000E+00  0.00000000000E+00  0.19683130482E+04  0.19683130482E+04  0.50400001928E-02 0. -1.
       -1   -1    0    0    0  501  0.00000000000E+00  0.00000000000E+00 -0.85831160053E+03  0.85831160054E+03  0.50400001928E-02 0.  1.
    10030    2    1    2    0    0  0.00000000000E+00  0.00000000000E+00  0.11100014476E+04  0.28266246487E+04  0.25995583646E+04 0.  0.
        1    1    3    3  502    0  0.25981488935E+03 -0.43503281190E+03 -0.74649108835E+03  0.90222295979E+03  0.50400001928E-02 0.  1.
       -1    1    3    3    0  502 -0.25981488935E+03  0.43503281190E+03  0.18564925360E+04  0.19244016889E+04  0.50400001928E-02 0. -1.
</event>
<event>
 5   0  0.2705807E-06  0.2598716E+04  0.7818609E-02  0.8368638E-01
       -2   -1    0    0    0  501  0.00000000000E+00  0.00000000000E+00  0.76246761731E+03  0.76246761732E+03  0.25500000920E-02 0. -1.
        2   -1    0    0  501    0  0.00000000000E+00  0.00000000000E+00 -0.22142987448E+04  0.22142987448E+04  0.25500000920E-02 0.  1.
    10030    2    1    2    0    0  0.00000000000E+00  0.00000000000E+00 -0.14518311275E+04  0.29767663621E+04  0.25987159044E+04 0.  0.
        4    1    3    3  502    0 -0.41102542284E+03  0.71467197504E+03 -0.18763244253E+04  0.20494616103E+04  0.12699999809E+01 0.  1.
       -4    1    3    3    0  502  0.41102542284E+03 -0.71467197504E+03  0.42449329776E+03  0.92730475189E+03  0.12699999809E+01 0. -1.
</event>
<event>
 5   0  0.2820028E-06  0.2591643E+04  0.7818609E-02  0.8371045E-01
       -2   -1    0    0    0  501  0.00000000000E+00  0.00000000000E+00  0.12907468309E+04  0.12907468309E+04  0.25500000920E-02 0. -1.
        2   -1    0    0  501    0  0.00000000000E+00  0.00000000000E+00 -0.13009164524E+04  0.13009164524E+04  0.25500000920E-02 0.  1.
    10030    2    1    2    0    0  0.00000000000E+00  0.00000000000E+00 -0.10169621572E+02  0.25916632833E+04  0.25916433306E+04 0.  0.
        3    1    3    3  502    0 -0.23140822787E+03 -0.38735408398E+03 -0.12198208085E+04  0.13005982352E+04  0.10100000352E+00 0.  1.
       -3    1    3    3    0  502  0.23140822787E+03  0.38735408398E+03  0.12096511869E+04  0.12910650481E+04  0.10100000352E+00 0. -1.
</event>
<event>
 5   0  0.2623368E-06  0.2600395E+04  0.7818609E-02  0.8368067E-01
        2   -1    0    0  501    0  0.00000000000E+00  0.00000000000E+00  0.23909225431E+04  0.23909225431E+04  0.25500000920E-02 0.  1.
       -2   -1    0    0    0  501  0.00000000000E+00  0.00000000000E+00 -0.70705469009E+03  0.70705469010E+03  0.25500000920E-02 0. -1.
    10030    2    1    2    0    0  0.00000000000E+00  0.00000000000E+00  0.16838678530E+04  0.30979772332E+04  0.26003945837E+04 0.  0.
        5    1    3    3  502    0  0.60074788130E+03 -0.10523477400E+04  0.14034589209E+04  0.18541986991E+04  0.46999998093E+01 0. -1.
       -5    1    3    3    0  502 -0.60074788130E+03  0.10523477400E+04  0.28040893212E+03  0.12437785342E+04  0.46999998093E+01 0.  1.
</event>
<event>
 5   0  0.2820028E-06  0.2593896E+04  0.7818609E-02  0.8370278E-01
       -2   -1    0    0    0  501  0.00000000000E+00  0.00000000000E+00  0.13699802020E+04  0.13699802020E+04  0.25500000920E-02 0.  1.
        2   -1    0    0  501    0  0.00000000000E+00  0.00000000000E+00 -0.12278086325E+04  0.12278086325E+04  0.25500000920E-02 0. -1.
    10030    2    1    2    0    0  0.00000000000E+00  0.00000000000E+00  0.14217156945E+03  0.25977888345E+04  0.25938955402E+04 0.  0.
        3    1    3    3  502    0  0.27414411171E+03  0.61941746594E+02 -0.11969432451E+04  0.12294978309E+04  0.10100000352E+00 0. -1.
       -3    1    3    3    0  502 -0.27414411171E+03 -0.61941746594E+02  0.13391148145E+04  0.13682910036E+04  0.10100000352E+00 0.  1.
</event>
<event>
 5   0  0.1055179E-06  0.2547926E+04  0.7818609E-02  0.8386108E-01
        1   -1    0    0  501    0  0.00000000000E+00  0.00000000000E+00  0.23795168678E+04  0.23795168678E+04  0.50400001928E-02 0. -1.
       -1   -1    0    0    0  501  0.00000000000E+00  0.00000000000E+00 -0.68206333178E+03  0.68206333180E+03  0.50400001928E-02 0.  1.
    10030    2    1    2    0    0  0.00000000000E+00  0.00000000000E+00  0.16974535360E+04  0.30615801996E+04  0.25479255899E+04 0.  0.
        3    1    3    3  502    0 -0.10817494065E+04  0.29193221174E+03  0.15772306689E+04  0.19346996635E+04  0.10100000352E+00 0. -1.
       -3    1    3    3    0  502  0.10817494065E+04 -0.29193221174E+03  0.12022286706E+03  0.11268805361E+04  0.10100000352E+00 0.  1.
</event>
<event>
 5   0  0.1055179E-06  0.2602635E+04  0.7818609E-02  0.8367307E-01
        1   -1    0    0  501    0  0.00000000000E+00  0.00000000000E+00  0.22144711426E+04  0.22144711426E+04  0.50400001928E-02 0. -1.
       -1   -1    0    0    0  501  0.00000000000E+00  0.00000000000E+00 -0.76470969258E+03  0.76470969260E+03  0.50400001928E-02 0.  1.
    10030    2    1    2    0    0  0.00000000000E+00  0.00000000000E+00  0.14497614500E+04  0.29791808352E+04  0.26026352389E+04 0.  0.
        3    1    3    3  502    0  0.70493604603E+03  0.19868675176E+03 -0.50638926695E+03  0.89041639372E+03  0.10100000352E+00 0.  1.
       -3    1    3    3    0  502 -0.70493604603E+03 -0.19868675176E+03  0.19561507169E+04  0.20887644414E+04  0.10100000352E+00 0. -1.
</event>
<event>
 5   0  0.2705807E-06  0.2605879E+04  0.7818609E-02  0.8366207E-01
        2   -1    0    0  501    0  0.00000000000E+00  0.00000000000E+00  0.10834733320E+04  0.10834733320E+04  0.25500000920E-02 0. -1.
       -2   -1    0    0    0  501  0.00000000000E+00  0.00000000000E+00 -0.15668600455E+04  0.15668600455E+04  0.25500000920E-02 0.  1.
    10030    2    1    2    0    0  0.00000000000E+00  0.00000000000E+00 -0.48338671352E+03  0.26503333775E+04  0.26058787955E+04 0.  0.
        4    1    3    3  502    0 -0.12209306002E+04 -0.30407396370E+03 -0.58586983843E+03  0.13879400514E+04  0.12699999809E+01 0.  1.
       -4    1    3    3    0  502  0.12209306002E+04  0.30407396370E+03  0.10248312491E+03  0.12623933261E+04  0.12699999809E+01 0. -1.
</event>
<event>
 5   0  0.1088757E-06  0.2525133E+04  0.7818609E-02  0.8394086E-01
        1   -1    0    0  501    0  0.00000000000E+00  0.00000000000E+00  0.11542779762E+04  0.11542779762E+04  0.50400001928E-02 0.  1.
       -1   -1    0    0    0  501  0.00000000000E+00  0.00000000000E+00 -0.13810136977E+04  0.13810136977E+04  0.50400001928E-02 0. -1.
    10030    2    1    2    0    0  0.00000000000E+00  0.00000000000E+00 -0.22673572150E+03  0.25352916739E+04  0.25251326271E+04 0.  0.
        5    1    3    3  502    0 -0.27261377780E+03 -0.12286007526E+04 -0.11601680143E+02  0.12585447033E+04  0.46999998093E+01 0. -1.
       -5    1    3    3    0  502  0.27261377780E+03  0.12286007526E+04 -0.21513404136E+03  0.12767469706E+04  0.46999998093E+01 0.  1.
</event>
<event>
 5   0  0.9197000E-07  0.2603548E+04  0.7818609E-02  0.8366997E-01
        3   -1    0    0  501    0  0.00000000000E+00  0.00000000000E+00  0.87653126115E+03  0.87653126697E+03  0.10100000352E+00 0.  1.
       -3   -1    0    0    0  501  0.00000000000E+00  0.00000000000E+00 -0.19333196385E+04  0.19333196412E+04  0.10100000352E+00 0. -1.
    10030    2    1    2    0    0  0.00000000000E+00  0.00000000000E+00 -0.10567883774E+04  0.28098509081E+04  0.26035476664E+04 0.  0.
        3    1    3    3  502    0  0.12228418143E+04  0.25645888923E+01 -0.10101587007E+04  0.15861176787E+04  0.10100000352E+00 0. -1.
       -3    1    3    3    0  502 -0.12228418143E+04 -0.25645888923E+01 -0.46629676716E+02  0.12237332294E+04  0.10100000352E+00 0.  1.
</event>
<event>
 5   0  0.1055179E-06  0.2598059E+04  0.7818609E-02  0.8368861E-01
        1   -1    0    0  501    0  0.00000000000E+00  0.00000000000E+00  0.72487816973E+03  0.72487816975E+03  0.50400001928E-02 0. -1.
       -1   -1    0    0    0  501  0.00000000000E+00  0.00000000000E+00 -0.23279470701E+04  0.23279470701E+04  0.50400001928E-02 0.  1.
    10030    2    1    2    0    0  0.00000000000E+00  0.00000000000E+00 -0.16030689004E+04  0.30528252399E+04  0.25980592845E+04 0.  0.
        3    1    3    3  502    0  0.93677954421E+02 -0.57191920831E+03 -0.21676225975E+04  0.22437590948E+04  0.10100000352E+00 0.  1.
       -3    1    3    3    0  502 -0.93677954421E+02  0.57191920831E+03  0.56455369713E+03  0.80906614509E+03  0.10100000352E+00 0. -1.
</event>
<event>
 5   0  0.9197000E-07  0.2606037E+04  0.7818609E-02  0.8366153E-01
        3   -1    0    0  501    0  0.00000000000E+00  0.00000000000E+00  0.18820599934E+04  0.18820599961E+04  0.10100000352E+00 0. -1.
       -3   -1    0    0    0  501  0.00000000000E+00  0.00000000000E+00 -0.90212733604E+03  0.90212734169E+03  0.10100000352E+00 0.  1.
    10030    2    1    2    0    0  0.00000000000E+00  0.00000000000E+00  0.97993265736E+03  0.27841873378E+04  0.26060374362E+04 0.  0.
        2    1    3    3  502    0  0.11637261172E+04 -0.25299258167E+03  0.10548795931E+04  0.15909225871E+04  0.25500000920E-02 0. -1.
       -2    1    3    3    0  502 -0.11637261172E+04  0.25299258167E+03 -0.74946935740E+02  0.11932647507E+04  0.25500000920E-02 0.  1.
</event>
<event>
 5   0  0.1055179E-06  0.2599825E+04  0.7818609E-02  0.8368261E-01
        1   -1    0    0  501    0  0.00000000000E+00  0.00000000000E+00  0.17789333191E+04  0.17789333191E+04  0.50400001928E-02 0. -1.
       -1   -1    0    0    0  501  0.00000000000E+00  0.00000000000E+00 -0.94987983457E+03  0.94987983459E+03  0.50400001928E-02 0.  1.
    10030    2    1    2    0    0  0.00000000000E+00  0.00000000000E+00  0.82905348451E+03  0.27288131537E+04  0.25998252917E+04 0.  0.
        3    1    3    3  502    0  0.51018812114E+02 -0.83517653533E+03  0.14586949709E+04  0.16816402090E+04  0.10100000352E+00 0. -1.
       -3    1    3    3    0  502 -0.51018812114E+02  0.83517653533E+03 -0.62964148639E+03  0.10471729446E+04  0.10100000352E+00 0.  1.
</event>
<event>
 5   0  0.2586775E-06  0.2581975E+04  0.7818609E-02  0.8374350E-01
        2   -1    0    0  501    0  0.00000000000E+00  0.00000000000E+00  0.15254122009E+04  0.15254122009E+04  0.25500000920E-02 0.  1.
       -2   -1    0    0    0  501  0.00000000000E+00  0.00000000000E+00 -0.10925894538E+04  0.10925894538E+04  0.25500000920E-02 0. -1.
    10030    2    1    2    0    0  0.00000000000E+00  0.00000000000E+00  0.43282274709E+03  0.26180016547E+04  0.25819754324E+04 0.  0.
        1    1    3    3  502    0  0.15748465872E+03  0.83679901023E+03 -0.76749678163E+03  0.11463356014E+04  0.50400001928E-02 0.  1.
       -1    1    3    3    0  502 -0.15748465872E+03 -0.83679901023E+03  0.12003195287E+04  0.14716660533E+04  0.50400001928E-02 0. -1.
</event>
<event>
 5   0  0.1122628E-06  0.2600422E+04  0.7818609E-02  0.8368058E-01
       -1   -1    0    0    0  501  0.00000000000E+00  0.00000000000E+00  0.11242723071E+04  0.11242723071E+04  0.50400001928E-02 0. -1.
        1   -1    0    0  501    0  0.00000000000E+00  0.00000000000E+00 -0.15036829598E+04  0.15036829598E+04  0.50400001928E-02 0.  1.
    10030    2    1    2    0    0  0.00000000000E+00  0.00000000000E+00 -0.37941065267E+03  0.26279552670E+04  0.26004223583E+04 0.  0.
        2    1    3    3  502    0  0.12799538607E+04  0.13774167705E+03 -0.37410495171E+03  0.13406003021E+04  0.25500000920E-02 0. -1.
       -2    1    3    3    0  502 -0.12799538607E+04 -0.13774167705E+03 -0.53057009655E+01  0.12873549649E+04  0.25500000920E-02 0.  1.
</event>
<event>
 5   0  0.1055179E-06  0.2557476E+04  0.7818609E-02  0.8382791E-01
        1   -1    0    0  501    0  0.00000000000E+00  0.00000000000E+00  0.12732031229E+04  0.12732031229E+04  0.50400001928E-02 0. -1.
       -1   -1    0    0    0  501  0.00000000000E+00  0.00000000000E+00 -0.12842970211E+04  0.12842970212E+04  0.50400001928E-02 0.  1.
    10030    2    1    2    0    0  0.00000000000E+00  0.00000000000E+00 -0.11093898274E+02  0.25575001440E+04  0.25574760824E+04 0.  0.
        3    1    3    3  502    0  0.19728948397E+03  0.65776021210E+03  0.10731658143E+04  0.12740708427E+04  0.10100000352E+00 0. -1.
       -3    1    3    3    0  502 -0.19728948397E+03 -0.65776021210E+03 -0.10842597125E+04  0.12834293013E+04  0.10100000352E+00 0.  1.
</event>
<event>
 5   0  0.1122628E-06  0.2606622E+04  0.7818609E-02  0.8365955E-01
        1   -1    0    0  501    0  0.00000000000E+00  0.00000000000E+00  0.16117949973E+04  0.16117949973E+04  0.50400001928E-02 0. -1.
       -1   -1    0    0    0  501  0.00000000000E+00  0.00000000000E+00 -0.10538681566E+04  0.10538681566E+04  0.50400001928E-02 0.  1.
    10030    2    1    2    0    0  0.00000000000E+00  0.00000000000E+00  0.55792684077E+03  0.26656631539E+04  0.26066218925E+04 0.  0.
        2    1    3    3  502    0  0.41259223131E+03  0.94308048276E+03 -0.53850878619E+03  0.11617335577E+04  0.25500000920E-02 0.  1.
       -2    1    3    3    0  502 -0.41259223131E+03 -0.94308048276E+03  0.10964356270E+04  0.15039295962E+04  0.25500000920E-02 0. -1.
</event>
<event>
 5   0  0.1055179E-06  0.2601134E+04  0.7818609E-02  0.8367816E-01
       -1   -1    0    0    0  501  0.00000000000E+00  0.00000000000E+00  0.81087138835E+03  0.81087138837E+03  0.50400001928E-02 0.  1.
        1   -1    0    0  501    0  0.00000000000E+00  0.00000000000E+00 -0.20859967662E+04  0.20859967662E+04  0.50400001928E-02 0. -1.
    10030    2    1    2    0    0  0.00000000000E+00  0.00000000000E+00 -0.12751253779E+04  0.28968681546E+04  0.26011344402E+04 0.  0.
        3    1    3    3  502    0 -0.28350852469E+02 -0.69638957265E+03  0.58532867951E+03  0.91014937290E+03  0.10100000352E+00 0.  1.
       -3    1    3    3    0  502  0.28350852469E+02  0.69638957265E+03 -0.18604540574E+04  0.19867187817E+04  0.10100000352E+00 0. -1.
</event>
<event>
 5   0  0.2623368E-06  0.2601089E+04  0.7818609E-02  0.8367831E-01
        2   -1    0    0  501    0  0.00000000000E+00  0.00000000000E+00  0.11393101545E+04  0.11393101545E+04  0.25500000920E-02 0.  1.
       -2   -1    0    0    0  501  0.00000000000E+00  0.00000000000E+00 -0.14845966802E+04  0.14845966802E+04  0.25500000920E-02 0. -1.
    10030    2    1    2    0    0  0.00000000000E+00  0.00000000000E+00 -0.34528652571E+03  0.26239068346E+04  0.26010890588E+04 0.  0.
        5    1    3    3  502    0  0.12630024878E+04  0.22011846262E+03 -0.39311614379E+03  0.13409660004E+04  0.46999998093E+01 0. -1.
       -5    1    3    3    0  502 -0.12630024878E+04 -0.22011846262E+03  0.47829618086E+02  0.12829408342E+04  0.46999998093E+01 0.  1.
</event>
<event>
 5   0  0.2586775E-06  0.2587909E+04  0.7818609E-02  0.8372320E-01
        2   -1    0    0  501    0  0.00000000000E+00  0.00000000000E+00  0.14373208406E+04  0.14373208406E+04  0.25500000920E-02 0. -1.
       -2   -1    0    0    0  501  0.00000000000E+00  0.00000000000E+00 -0.11648878787E+04  0.11648878787E+04  0.25500000920E-02 0.  1.
    10030    2    1    2    0    0  0.00000000000E+00  0.00000000000E+00  0.27243296184E+03  0.26022087193E+04  0.25879085185E+04 0.  0.
        1    1    3    3  502    0 -0.84762340126E+03 -0.94891330948E+03 -0.10048976626E+03  0.12763228794E+04  0.50400001928E-02 0.  1.
       -1    1    3    3    0  502  0.84762340126E+03  0.94891330948E+03  0.37292272810E+03  0.13258858399E+04  0.50400001928E-02 0. -1.
</event>
<event>
 5   0  0.1032076E-06  0.2602997E+04  0.7818609E-02  0.8367184E-01
       -1   -1    0    0    0  501  0.00000000000E+00  0.00000000000E+00  0.75801708840E+03  0.75801708842E+03  0.50400001928E-02 0.  1.
        1   -1    0    0  501    0  0.00000000000E+00  0.00000000000E+00 -0.22346442832E+04  0.22346442832E+04  0.50400001928E-02 0. -1.
    10030    2    1    2    0    0  0.00000000000E+00  0.00000000000E+00 -0.14766271948E+04  0.29926613717E+04  0.26029971596E+04 0.  0.
        1    1    3    3  502    0 -0.53872075520E+03 -0.68179151829E+03 -0.18522987557E+04  0.20459888580E+04  0.50400001928E-02 0. -1.
       -1    1    3    3    0  502  0.53872075520E+03  0.68179151829E+03  0.37567156088E+03  0.94667251369E+03  0.50400001928E-02 0.  1.
</event>
<event>
 5   0  0.2746631E-06  0.2606073E+04  0.7818609E-02  0.8366141E-01
       -2   -1    0    0    0  501  0.00000000000E+00  0.00000000000E+00  0.95784450369E+03  0.95784450369E+03  0.25500000920E-02 0. -1.
        2   -1    0    0  501    0  0.00000000000E+00  0.00000000000E+00 -0.17726299977E+04  0.17726299977E+04  0.25500000920E-02 0.  1.
    10030    2    1    2    0    0  0.00000000000E+00  0.00000000000E+00 -0.81478549397E+03  0.27304745013E+04  0.26060728312E+04 0.  0.
        2    1    3    3  502    0  0.71225563211E+03  0.94584654677E+03 -0.97739361153E+03  0.15353279934E+04  0.25500000920E-02 0.  1.
       -2    1    3    3    0  502 -0.71225563211E+03 -0.94584654677E+03  0.16260811756E+03  0.11951465079E+04  0.25500000920E-02 0. -1.
</event>
<event>
 5   0  0.2623368E-06  0.2594122E+04  0.7818609E-02  0.8370200E-01
        2   -1    0    0  501    0  0.00000000000E+00  0.00000000000E+00  0.23624886364E+04  0.23624886364E+04  0.25500000920E-02 0. -1.
       -2   -1    0    0    0  501  0.00000000000E+00  0.00000000000E+00 -0.71211675000E+03  0.71211675000E+03  0.25500000920E-02 0.  1.
    10030    2    1    2    0    0  0.00000000000E+00  0.00000000000E+00  0.16503718864E+04  0.30746053864E+04  0.25941223793E+04 0.  0.
        5    1    3    3  502    0  0.88617567911E+03 -0.14938884181E+02 -0.29722111192E+03  0.93482243441E+03  0.46999998093E+01 0.  1.
       -5    1    3    3    0  502 -0.88617567911E+03  0.14938884181E+02  0.19475929984E+04  0.21397829520E+04  0.46999998093E+01 0. -1.
</event>
<event>
 5   0  0.1122628E-06  0.2601814E+04  0.7818609E-02  0.8367585E-01
       -1   -1    0    0    0  501  0.00000000000E+00  0.00000000000E+00  0.15215744957E+04  0.15215744957E+04  0.50400001928E-02 0. -1.
        1   -1    0    0  501    0  0.00000000000E+00  0.00000000000E+00 -0.11122419252E+04  0.11122419253E+04  0.50400001928E-02 0.  1.
    10030    2    1    2    0    0  0.00000000000E+00  0.00000000000E+00  0.40933257049E+03  0.26338164210E+04  0.26018139415E+04 0.  0.
        2    1    3    3  502    0  0.35863545894E+03 -0.78973508951E+02  0.14680162544E+04  0.15132507825E+04  0.25500000920E-02 0. -1.
       -2    1    3    3    0  502 -0.35863545894E+03  0.78973508951E+02 -0.10586836839E+04  0.11205656385E+04  0.25500000920E-02 0.  1.
</event>
<event>
 5   0  0.2746631E-06  0.2597219E+04  0.7818609E-02  0.8369147E-01
        2   -1    0    0  501    0  0.00000000000E+00  0.00000000000E+00  0.20694143373E+04  0.20694143373E+04  0.25500000920E-02 0.  1.
       -2   -1    0    0    0  501  0.00000000000E+00  0.00000000000E+00 -0.81490979481E+03  0.81490979482E+03  0.25500000920E-02 0. -1.
    10030    2    1    2    0    0  0.00000000000E+00  0.00000000000E+00  0.12545045424E+04  0.28843241321E+04  0.25972185222E+04 0.  0.
        2    1    3    3  502    0 -0.11184425968E+04  0.52987809593E+01 -0.10557525571E+03  0.11234269242E+04  0.25500000920E-02 0. -1.
       -2    1    3    3    0  502  0.11184425968E+04 -0.52987809593E+01  0.13600797981E+04  0.17608972079E+04  0.25500000920E-02 0.  1.
</event>
<event>
 5   0  0.2820028E-06  0.2593411E+04  0.7818609E-02  0.8370443E-01
        2   -1    0    0  501    0  0.00000000000E+00  0.00000000000E+00  0.74595633802E+03  0.74595633803E+03  0.25500000920E-02 0.  1.
       -2   -1    0    0    0  501  0.00000000000E+00  0.00000000000E+00 -0.22540790635E+04  0.22540790635E+04  0.25500000920E-02 0. -1.
    10030    2    1    2    0    0  0.00000000000E+00  0.00000000000E+00 -0.15081227254E+04  0.30000354015E+04  0.25934105451E+04 0.  0.
        3    1    3    3  502    0  0.24851055533E+03 -0.51919621239E+03 -0.20981925891E+04  0.21757146767E+04  0.10100000352E+00 0. -1.
       -3    1    3    3    0  502 -0.24851055533E+03  0.51919621239E+03  0.59006986371E+03  0.82432072479E+03  0.10100000352E+00 0.  1.
</event>
<event>
 5   0  0.1088757E-06  0.2606561E+04  0.7818609E-02  0.8365976E-01
       -1   -1    0    0    0  501  0.00000000000E+00  0.00000000000E+00  0.11753892902E+04  0.11753892903E+04  0.50400001928E-02 0. -1.
        1   -1    0    0  501    0  0.00000000000E+00  0.00000000000E+00 -0.14450869095E+04  0.14450869095E+04  0.50400001928E-02 0.  1.
    10030    2    1    2    0    0  0.00000000000E+00  0.00000000000E+00 -0.26969761922E+03  0.26204761997E+04  0.26065607047E+04 0.  0.
        5    1    3    3  502    0 -0.77407920491E+03 -0.59405986991E+03  0.73371481354E+03  0.12208461255E+04  0.46999998093E+01 0. -1.
       -5    1    3    3    0  502  0.77407920491E+03  0.59405986991E+03 -0.10034124328E+04  0.13996300742E+04  0.46999998093E+01 0.  1.
</event>
<event>
 5   0  0.1088757E-06  0.2596805E+04  0.7818609E-02  0.8369287E-01
       -1   -1    0    0    0  501  0.00000000000E+00  0.00000000000E+00  0.10998449345E+04  0.10998449345E+04  0.50400001928E-02 0. -1.
        1   -1    0    0  501    0  0.00000000000E+00  0.00000000000E+00 -0.15328059144E+04  0.15328059145E+04  0.50400001928E-02 0.  1.
    10030    2    1    2    0    0  0.00000000000E+00  0.00000000000E+00 -0.43296097991E+03  0.26326508490E+04  0.25968048218E+04 0.  0.
        5    1    3    3  502    0 -0.83639592000E+03  0.66489025940E+03  0.53139457026E+03  0.11933312496E+04  0.46999998093E+01 0. -1.
       -5    1    3    3    0  502  0.83639592000E+03 -0.66489025940E+03 -0.96435555017E+03  0.14393195994E+04  0.46999998093E+01 0.  1.
</event>
<event>
 5   0  0.2586775E-06  0.2601056E+04  0.7818609E-02  0.8367842E-01
        2   -1    0    0  501    0  0.00000000000E+00  0.00000000000E+00  0.18562844238E+04  0.18562844238E+04  0.25500000920E-02 0.  1.
       -2   -1    0    0    0  501  0.00000000000E+00  0.00000000000E+00 -0.91116072339E+03  0.91116072339E+03  0.25500000920E-02 0. -1.
    10030    2    1    2    0    0  0.00000000000E+00  0.00000000000E+00  0.94512370039E+03  0.27674451472E+04  0.26010562919E+04 0.  0.
        1    1    3    3  502    0 -0.39150279137E+03  0.72743456450E+03 -0.59615216565E+03  0.10187408335E+04  0.50400001928E-02 0. -1.
       -1    1    3    3    0  502  0.39150279137E+03 -0.72743456450E+03  0.15412758660E+04  0.17487043136E+04  0.50400001928E-02 0.  1.
</event>
<event>
 5   0  0.1100104E-06  0.2599059E+04  0.7818609E-02  0.8368521E-01
        1   -1    0    0  501    0  0.00000000000E+00  0.00000000000E+00  0.15248547580E+04  0.15248547580E+04  0.50400001928E-02 0. -1.
       -1   -1    0    0    0  501  0.00000000000E+00  0.00000000000E+00 -0.11075004920E+04  0.11075004920E+04  0.50400001928E-02 0.  1.
    10030    2    1    2    0    0  0.00000000000E+00  0.00000000000E+00  0.41735426597E+03  0.26323552500E+04  0.25990593643E+04 0.  0.
        4    1    3    3  502    0  0.38678033785E+03 -0.10852003032E+04 -0.40028837481E+03  0.12196274529E+04  0.12699999809E+01 0.  1.
       -4    1    3    3    0  502 -0.38678033785E+03  0.10852003032E+04  0.81764264078E+03  0.14127277971E+04  0.12699999809E+01 0. -1.
</event>
<event>
 5   0  0.1122628E-06  0.2601587E+04  0.7818609E-02  0.8367662E-01
        1   -1    0    0  501    0  0.00000000000E+00  0.00000000000E+00  0.11631574288E+04  0.11631574288E+04  0.50400001928E-02 0. -1.
       -1   -1    0    0    0  501  0.00000000000E+00  0.00000000000E+00 -0.14547157788E+04  0.14547157789E+04  0.50400001928E-02 0.  1.
    10030    2    1    2    0    0  0.00000000000E+00  0.00000000000E+00 -0.29155835005E+03  0.26178732077E+04  0.26015867965E+04 0.  0.
        2    1    3    3  502    0  0.87499379910E+03 -0.80034052895E+03  0.39226839380E+03  0.12490130518E+04  0.25500000920E-02 0. -1.
       -2    1    3    3    0  502 -0.87499379910E+03  0.80034052895E+03 -0.68382674385E+03  0.13688601559E+04  0.25500000920E-02 0.  1.
</event>
<event>
 5   0  0.2705807E-06  0.2597950E+04  0.7818609E-02  0.8368898E-01
        2   -1    0    0  501    0  0.00000000000E+00  0.00000000000E+00  0.13478575706E+04  0.13478575706E+04  0.25500000920E-02 0.  1.
       -2   -1    0    0    0  501  0.00000000000E+00  0.00000000000E+00 -0.12518649955E+04  0.12518649955E+04  0.25500000920E-02 0. -1.
    10030    2    1    2    0    0  0.00000000000E+00  0.00000000000E+00  0.95992575165E+02  0.25997225661E+04  0.25979497390E+04 0.  0.
        4    1    3    3  502    0  0.23515963325E+03 -0.33596698896E+03 -0.11853869736E+04  0.12543196407E+04  0.12699999809E+01 0. -1.
       -4    1    3    3    0  502 -0.23515963325E+03  0.33596698896E+03  0.12813795488E+04  0.13454029254E+04  0.12699999809E+01 0.  1.
</event>
<event>
 5   0  0.2746631E-06  0.2597634E+04  0.7818609E-02  0.8369005E-01
       -2   -1    0    0    0  501  0.00000000000E+00  0.00000000000E+00  0.77199604560E+03  0.77199604560E+03  0.25500000920E-02 0.  1.
        2   -1    0    0  501    0  0.00000000000E+00  0.00000000000E+00 -0.21851475379E+04  0.21851475379E+04  0.25500000920E-02 0. -1.
    10030    2    1    2    0    0  0.00000000000E+00  0.00000000000E+00 -0.14131514923E+04  0.29571435835E+04  0.25976337373E+04 0.  0.
        2    1    3    3  502    0 -0.36836063195E+02 -0.89842696783E+03 -0.17735157613E+04  0.19884380975E+04  0.25500000920E-02 0. -1.
       -2    1    3    3    0  502  0.36836063195E+02  0.89842696783E+03  0.36036426905E+03  0.96870548594E+03  0.25500000920E-02 0.  1.
</event>
<event>
 5   0  0.2820028E-06  0.2602096E+04  0.7818609E-02  0.8367489E-01
       -2   -1    0    0    0  501  0.00000000000E+00  0.00000000000E+00  0.10191357280E+04  0.10191357280E+04  0.25500000920E-02 0.  1.
        2   -1    0    0  501    0  0.00000000000E+00  0.00000000000E+00 -0.16609430360E+04  0.16609430360E+04  0.25500000920E-02 0. -1.
    10030    2    1    2    0    0  0.00000000000E+00  0.00000000000E+00 -0.64180730801E+03  0.26800787641E+04  0.26020963781E+04 0.  0.
        3    1    3    3  502    0 -0.10183157905E+04 -0.46375599503E+03  0.36283578823E+03  0.11763020409E+04  0.10100000352E+00 0.  1.
       -3    1    3    3    0  502  0.10183157905E+04  0.46375599503E+03 -0.10046430962E+04  0.15037767231E+04  0.10100000352E+00 0. -1.
</event>
<event>
 5   0  0.9197000E-07  0.2600735E+04  0.7818609E-02  0.8367952E-01
       -4   -1    0    0    0  501  0.00000000000E+00  0.00000000000E+00  0.10814478066E+04  0.10814485523E+04  0.12699999809E+01 0. -1.
        4   -1    0    0  501    0  0.00000000000E+00  0.00000000000E+00 -0.15636019243E+04  0.15636024400E+04  0.12699999809E+01 0.  1.
    10030    2    1    2    0    0  0.00000000000E+00  0.00000000000E+00 -0.48215411772E+03  0.26450509923E+04  0.26007349266E+04 0.  0.
        3    1    3    3  502    0  0.11213628060E+04  0.12854662510E+03 -0.89781768089E+03  0.14422397081E+04  0.10100000352E+00 0.  1.
       -3    1    3    3    0  502 -0.11213628060E+04 -0.12854662510E+03  0.41566356317E+03  0.12028112842E+04  0.10100000352E+00 0. -1.
</event>
<event>
 5   0  0.2705807E-06  0.2600448E+04  0.7818609E-02  0.8368049E-01
        2   -1    0    0  501    0  0.00000000000E+00  0.00000000000E+00  0.20060802850E+04  0.20060802850E+04  0.25500000920E-02 0.  1.
       -2   -1    0    0    0  501  0.00000000000E+00  0.00000000000E+00 -0.84272950909E+03  0.84272950909E+03  0.25500000920E-02 0. -1.
    10030    2    1    2    0    0  0.00000000000E+00  0.00000000000E+00  0.11633507759E+04  0.28488097941E+04  0.26004484642E+04 0.  0.
        4    1    3    3  502    0  0.58312276646E+03  0.68839112733E+03  0.16074041085E+04  0.18432753690E+04  0.12699999809E+01 0.  1.
       -4    1    3    3    0  502 -0.58312276646E+03 -0.68839112733E+03 -0.44405333261E+03  0.10055344251E+04  0.12699999809E+01 0. -1.
</event>
<event>
 5   0  0.2820028E-06  0.2590888E+04  0.7818609E-02  0.8371303E-01
        2   -1    0    0  501    0  0.00000000000E+00  0.00000000000E+00  0.80595507315E+03  0.80595507315E+03  0.25500000920E-02 0.  1.
       -2   -1    0    0    0  501  0.00000000000E+00  0.00000000000E+00 -0.20822197593E+04  0.20822197593E+04  0.25500000920E-02 0. -1.
    10030    2    1    2    0    0  0.00000000000E+00  0.00000000000E+00 -0.12762646862E+04  0.28881748325E+04  0.25908883252E+04 0.  0.
        3    1    3    3  502    0 -0.27230200786E+03 -0.12638149301E+04 -0.73004970185E+03  0.14847050678E+04  0.10100000352E+00 0.  1.
       -3    1    3    3    0  502  0.27230200786E+03  0.12638149301E+04 -0.54621498433E+03  0.14034697647E+04  0.10100000352E+00 0. -1.
</event>
<event>
 5   0  0.1055179E-06  0.2594898E+04  0.7818609E-02  0.8369936E-01
        1   -1    0    0  501    0  0.00000000000E+00  0.00000000000E+00  0.16927589587E+04  0.16927589587E+04  0.50400001928E-02 0. -1.
       -1   -1    0    0    0  501  0.00000000000E+00  0.00000000000E+00 -0.99445582423E+03  0.99445582424E+03  0.50400001928E-02 0.  1.
    10030    2    1    2    0    0  0.00000000000E+00  0.00000000000E+00  0.69830313446E+03  0.26872147829E+04  0.25948980755E+04 0.  0.
        3    1    3    3  502    0 -0.60866017026E+03  0.76632642956E+03  0.12313085053E+04  0.15728458427E+04  0.10100000352E+00 0. -1.
       -3    1    3    3    0  502  0.60866017026E+03 -0.76632642956E+03 -0.53300537081E+03  0.11143689403E+04  0.10100000352E+00 0.  1.
</event>
<event>
 5   0  0.2586775E-06  0.2605187E+04  0.7818609E-02  0.8366441E-01
        2   -1    0    0  501    0  0.00000000000E+00  0.00000000000E+00  0.24826565313E+04  0.24826565313E+04  0.25500000920E-02 0. -1.
       -2   -1    0    0    0  501  0.00000000000E+00  0.00000000000E+00 -0.68344131909E+03  0.68344131910E+03  0.25500000920E-02 0.  1.
    10030    2    1    2    0    0  0.00000000000E+00  0.00000000000E+00  0.17992152122E+04  0.31660978504E+04  0.26051871753E+04 0.  0.
        1    1    3    3  502    0 -0.12678754489E+04 -0.20165525736E+03  0.11674633752E+04  0.17352647433E+04  0.50400001928E-02 0.  1.
       -1    1    3    3    0  502  0.12678754489E+04  0.20165525736E+03  0.63175183704E+03  0.14308331071E+04  0.50400001928E-02 0. -1.
</event>
<event>
 5   0  0.1122628E-06  0.2601719E+04  0.7818609E-02  0.8367617E-01
       -1   -1    0    0    0  501  0.00000000000E+00  0.00000000000E+00  0.10825313073E+04  0.10825313073E+04  0.50400001928E-02 0.  1.
        1   -1    0    0  501    0  0.00000000000E+00  0.00000000000E+00 -0.15632210637E+04  0.15632210637E+04  0.50400001928E-02 0. -1.
    10030    2    1    2    0    0  0.00000000000E+00  0.00000000000E+00 -0.48068975641E+03  0.26457523711E+04  0.26017192330E+04 0.  0.
        2    1    3    3  502    0  0.26026094773E+03  0.86671132933E+03 -0.11906724821E+04  0.14955351046E+04  0.25500000920E-02 0. -1.
       -2    1    3    3    0  502 -0.26026094773E+03 -0.86671132933E+03  0.70998272573E+03  0.11502172665E+04  0.25500000920E-02 0.  1.
</event>
<event>
 5   0  0.1032076E-06  0.2592119E+04  0.7818609E-02  0.8370883E-01
        1   -1    0    0  501    0  0.00000000000E+00  0.00000000000E+00  0.17574529314E+04  0.17574529314E+04  0.50400001928E-02 0.  1.
       -1   -1    0    0    0  501  0.00000000000E+00  0.00000000000E+00 -0.95579831585E+03  0.95579831586E+03  0.50400001928E-02 0. -1.
    10030    2    1    2    0    0  0.00000000000E+00  0.00000000000E+00  0.80165461556E+03  0.27132512473E+04  0.25921192504E+04 0.  0.
        1    1    3    3  502    0  0.12752571340E+04 -0.97064160142E+02  0.62056188132E+03  0.14215481903E+04  0.50400001928E-02 0.  1.
       -1    1    3    3    0  502 -0.12752571340E+04  0.97064160142E+02  0.18109273424E+03  0.12917030569E+04  0.50400001928E-02 0. -1.
</event>
<event>
 5   0  0.2705807E-06  0.2603129E+04  0.7818609E-02  0.8367139E-01
        2   -1    0    0  501    0  0.00000000000E+00  0.00000000000E+00  0.14588611791E+04  0.14588611791E+04  0.25500000920E-02 0.  1.
       -2   -1    0    0    0  501  0.00000000000E+00  0.00000000000E+00 -0.11612274482E+04  0.11612274482E+04  0.25500000920E-02 0. -1.
    10030    2    1    2    0    0  0.00000000000E+00  0.00000000000E+00  0.29763373095E+03  0.26200886273E+04  0.26031286132E+04 0.  0.
        4    1    3    3  502    0  0.10779443896E+04 -0.70392950686E+03  0.34134082569E+03  0.13319144229E+04  0.12699999809E+01 0.  1.
       -4    1    3    3    0  502 -0.10779443896E+04  0.70392950686E+03 -0.43707094739E+02  0.12881742044E+04  0.12699999809E+01 0. -1.
</event>
<event>
 5   0  0.2705807E-06  0.2599956E+04  0.7818609E-02  0.8368216E-01
       -2   -1    0    0    0  501  0.00000000000E+00  0.00000000000E+00  0.77585112119E+03  0.77585112120E+03  0.25500000920E-02 0.  1.
        2   -1    0    0  501    0  0.00000000000E+00  0.00000000000E+00 -0.21781786769E+04  0.21781786769E+04  0.25500000920E-02 0. -1.
    10030    2    1    2    0    0  0.00000000000E+00  0.00000000000E+00 -0.14023275558E+04  0.29540297981E+04  0.25999556678E+04 0.  0.
        4    1    3    3  502    0  0.11819741508E+04 -0.53711164188E+03 -0.62589253446E+03  0.14412823757E+04  0.12699999809E+01 0. -1.
       -4    1    3    3    0  502 -0.11819741508E+04  0.53711164188E+03 -0.77643502130E+03  0.15127474224E+04  0.12699999809E+01 0.  1.
</event>
<event>
 5   0  0.2705807E-06  0.2601235E+04  0.7818609E-02  0.8367782E-01
        2   -1    0    0  501    0  0.00000000000E+00  0.00000000000E+00  0.16681573561E+04  0.16681573561E+04  0.25500000920E-02 0.  1.
       -2   -1    0    0    0  501  0.00000000000E+00  0.00000000000E+00 -0.10140567746E+04  0.10140567746E+04  0.25500000920E-02 0. -1.
    10030    2    1    2    0    0  0.00000000000E+00  0.00000000000E+00  0.65410058149E+03  0.26822141308E+04  0.26012352974E+04 0.  0.
        4    1    3    3  502    0 -0.61943051650E+02 -0.53065770877E+03  0.15497864027E+04  0.16392907162E+04  0.12699999809E+01 0.  1.
       -4    1    3    3    0  502  0.61943051650E+02  0.53065770877E+03 -0.89568582116E+03  0.10429234146E+04  0.12699999809E+01 0. -1.
</event>
<event>
 5   0  0.9197000E-07  0.2600010E+04  0.7818609E-02  0.8368198E-01
        3   -1    0    0  501    0  0.00000000000E+00  0.00000000000E+00  0.13343936271E+04  0.13343936310E+04  0.10100000352E+00 0. -1.
       -3   -1    0    0    0  501  0.00000000000E+00  0.00000000000E+00 -0.12665028577E+04  0.12665028617E+04  0.10100000352E+00 0.  1.
    10030    2    1    2    0    0  0.00000000000E+00  0.00000000000E+00  0.67890769435E+02  0.26008964927E+04  0.26000102710E+04 0.  0.
        5    1    3    3  502    0  0.22386256077E+02  0.30898529196E+03  0.12969200657E+04  0.13334154648E+04  0.46999998093E+01 0. -1.
       -5    1    3    3    0  502 -0.22386256077E+02 -0.30898529196E+03 -0.12290292962E+04  0.12674810279E+04  0.46999998093E+01 0.  1.
</event>
<event>
 5   0  0.1032076E-06  0.2601825E+04  0.7818609E-02  0.8367582E-01
       -1   -1    0    0    0  501  0.00000000000E+00  0.00000000000E+00  0.75946293752E+03  0.75946293754E+03  0.50400001928E-02 0.  1.
        1   -1    0    0  501    0  0.00000000000E+00  0.00000000000E+00 -0.22283819309E+04  0.22283819309E+04  0.50400001928E-02 0. -1.
    10030    2    1    2    0    0  0.00000000000E+00  0.00000000000E+00 -0.14689189934E+04  0.29878448685E+04  0.26018251188E+04 0.  0.
        1    1    3    3  502    0 -0.91645871672E+03  0.88284113354E+03 -0.10448760427E+04  0.16465330216E+04  0.50400001928E-02 0. -1.
       -1    1    3    3    0  502  0.91645871672E+03 -0.88284113354E+03 -0.42404295069E+03  0.13413118469E+04  0.50400001928E-02 0.  1.
</event>
<event>
 5   0  0.2820028E-06  0.2604298E+04  0.7818609E-02  0.8366743E-01
        2   -1    0    0  501    0  0.00000000000E+00  0.00000000000E+00  0.18128445184E+04  0.18128445184E+04  0.25500000920E-02 0. -1.
       -2   -1    0    0    0  501  0.00000000000E+00  0.00000000000E+00 -0.93532123766E+03  0.93532123766E+03  0.25500000920E-02 0.  1.
    10030    2    1    2    0    0  0.00000000000E+00  0.00000000000E+00  0.87752328069E+03  0.27481657560E+04  0.26042979696E+04 0.  0.
        3    1    3    3  502    0 -0.49165282711E+03  0.34000378123E+03  0.16595028867E+04  0.17638806408E+04  0.10100000352E+00 0. -1.
       -3    1    3    3    0  502  0.49165282711E+03 -0.34000378123E+03 -0.78197960603E+03  0.98428511525E+03  0.10100000352E+00 0.  1.
</event>
<event>
 5   0  0.2586775E-06  0.2600843E+04  0.7818609E-02  0.8367915E-01
        2   -1    0    0  501    0  0.00000000000E+00  0.00000000000E+00  0.10816163200E+04  0.10816163200E+04  0.25500000920E-02 0.  1.
       -2   -1    0    0    0  501  0.00000000000E+00  0.00000000000E+00 -0.15634897066E+04  0.15634897066E+04  0.25500000920E-02 0. -1.
    10030    2    1    2    0    0  0.00000000000E+00  0.00000000000E+00 -0.48187338662E+03  0.26451060266E+04  0.26008429271E+04 0.  0.
        1    1    3    3  502    0 -0.62475618613E+03 -0.84461552559E+03 -0.10204006615E+04  0.14645522142E+04  0.50400001928E-02 0. -1.
       -1    1    3    3    0  502  0.62475618613E+03  0.84461552559E+03  0.53852727488E+03  0.11805538124E+04  0.50400001928E-02 0.  1.
</event>
<event>
 5   0  0.1122628E-06  0.2596635E+04  0.7818609E-02  0.8369345E-01
        1   -1    0    0  501    0  0.00000000000E+00  0.00000000000E+00  0.16348486857E+04  0.16348486857E+04  0.50400001928E-02 0. -1.
       -1   -1    0    0    0  501  0.00000000000E+00  0.00000000000E+00 -0.10310608200E+04  0.10310608200E+04  0.50400001928E-02 0.  1.
    10030    2    1    2    0    0  0.00000000000E+00  0.00000000000E+00  0.60378786570E+03  0.26659095057E+04  0.25966350737E+04 0.  0.
        2    1    3    3  502    0  0.48356163328E+02  0.98799032601E+03 -0.56147204726E+03  0.11374155189E+04  0.25500000920E-02 0.  1.
       -2    1    3    3    0  502 -0.48356163328E+02 -0.98799032601E+03  0.11652599130E+04  0.15284939868E+04  0.25500000920E-02 0. -1.
</event>
<event>
 5   0  0.1032076E-06  0.2597610E+04  0.7818609E-02  0.8369013E-01
        1   -1    0    0  501    0  0.00000000000E+00  0.00000000000E+00  0.12706622232E+04  0.12706622232E+04  0.50400001928E-02 0.  1.
       -1   -1    0    0    0  501  0.00000000000E+00  0.00000000000E+00 -0.13275714247E+04  0.13275714247E+04  0.50400001928E-02 0. -1.
    10030    2    1    2    0    0  0.00000000000E+00  0.00000000000E+00 -0.56909201476E+02  0.25982336479E+04  0.25976103311E+04 0.  0.
        1    1    3    3  502    0 -0.12701515414E+04 -0.23497641867E+03 -0.16411901043E+03  0.13020882862E+04  0.50400001928E-02 0.  1.
       -1    1    3    3    0  502  0.12701515414E+04  0.23497641867E+03  0.10720980896E+03  0.12961453617E+04  0.50400001928E-02 0. -1.
</event>
<event>
 5   0  0.1122628E-06  0.2602121E+04  0.7818609E-02  0.8367481E-01
        1   -1    0    0  501    0  0.00000000000E+00  0.00000000000E+00  0.10071855585E+04  0.10071855585E+04  0.50400001928E-02 0.  1.
       -1   -1    0    0    0  501  0.00000000000E+00  0.00000000000E+00 -0.16806813859E+04  0.16806813860E+04  0.50400001928E-02 0. -1.
    10030    2    1    2    0    0  0.00000000000E+00  0.00000000000E+00 -0.67349582746E+03  0.26878669445E+04  0.26021206893E+04 0.  0.
        2    1    3    3  502    0 -0.11604443099E+04  0.50661701039E+03 -0.27782478890E+02  0.12665163472E+04  0.25500000920E-02 0.  1.
       -2    1    3    3    0  502  0.11604443099E+04 -0.50661701039E+03 -0.64571334857E+03  0.14213505972E+04  0.25500000920E-02 0. -1.
</event>
<event>
 5   0  0.2820028E-06  0.2598091E+04  0.7818609E-02  0.8368850E-01
       -2   -1    0    0    0  501  0.00000000000E+00  0.00000000000E+00  0.10728471877E+04  0.10728471877E+04  0.25500000920E-02 0. -1.
        2   -1    0    0  501    0  0.00000000000E+00  0.00000000000E+00 -0.15729357588E+04  0.15729357588E+04  0.25500000920E-02 0.  1.
    10030    2    1    2    0    0  0.00000000000E+00  0.00000000000E+00 -0.50008857113E+03  0.26457829465E+04  0.25980913805E+04 0.  0.
        3    1    3    3  502    0  0.94848108740E+03 -0.28505729370E+03  0.60600868606E+03  0.11610859450E+04  0.10100000352E+00 0. -1.
       -3    1    3    3    0  502 -0.94848108740E+03  0.28505729370E+03 -0.11060972572E+04  0.14846970016E+04  0.10100000352E+00 0.  1.
</event>
<event>
 5   0  0.1122628E-06  0.2587463E+04  0.7818609E-02  0.8372472E-01
       -1   -1    0    0    0  501  0.00000000000E+00  0.00000000000E+00  0.11060873735E+04  0.11060873735E+04  0.50400001928E-02 0.  1.
        1   -1    0    0  501    0  0.00000000000E+00  0.00000000000E+00 -0.15132091231E+04  0.15132091231E+04  0.50400001928E-02 0. -1.
    10030    2    1    2    0    0  0.00000000000E+00  0.00000000000E+00 -0.40712174956E+03  0.26192964966E+04  0.25874632400E+04 0.  0.
        2    1    3    3  502    0  0.10935594443E+04  0.34301630996E+03  0.40399718701E+03  0.12152144561E+04  0.25500000920E-02 0.  1.
       -2    1    3    3    0  502 -0.10935594443E+04 -0.34301630996E+03 -0.81111893657E+03  0.14040820405E+04  0.25500000920E-02 0. -1.
</event>
<event>
 5   0  0.2705807E-06  0.2604263E+04  0.7818609E-02  0.8366755E-01
       -2   -1    0    0    0  501  0.00000000000E+00  0.00000000000E+00  0.77299598547E+03  0.77299598547E+03  0.25500000920E-02 0.  1.
        2   -1    0    0  501    0  0.00000000000E+00  0.00000000000E+00 -0.21934739605E+04  0.21934739605E+04  0.25500000920E-02 0. -1.
    10030    2    1    2    0    0  0.00000000000E+00  0.00000000000E+00 -0.14204779750E+04  0.29664699459E+04  0.26042630940E+04 0.  0.
        4    1    3    3  502    0  0.32456863769E+03  0.52730290234E+03 -0.20150485680E+04  0.21080359332E+04  0.12699999809E+01 0. -1.
       -4    1    3    3    0  502 -0.32456863769E+03 -0.52730290234E+03  0.59457059295E+03  0.85843401278E+03  0.12699999809E+01 0.  1.
</event>
<event>
 5   0  0.1055179E-06  0.2604068E+04  0.7818609E-02  0.8366821E-01
       -1   -1    0    0    0  501  0.00000000000E+00  0.00000000000E+00  0.74115357522E+03  0.74115357523E+03  0.50400001928E-02 0. -1.
        1   -1    0    0  501    0  0.00000000000E+00  0.00000000000E+00 -0.22873700613E+04  0.22873700613E+04  0.50400001928E-02 0.  1.
    10030    2    1    2    0    0  0.00000000000E+00  0.00000000000E+00 -0.15462164861E+04  0.30285236365E+04  0.26040679705E+04 0.  0.
        3    1    3    3  502    0 -0.67739829148E+02  0.91667053637E+03 -0.18456028366E+04  0.20618252586E+04  0.10100000352E+00 0.  1.
       -3    1    3    3    0  502  0.67739829148E+02 -0.91667053637E+03  0.29938635050E+03  0.96669837786E+03  0.10100000352E+00 0. -1.
</event>
<event>
 5   0  0.1032076E-06  0.2599863E+04  0.7818609E-02  0.8368248E-01
       -1   -1    0    0    0  501  0.00000000000E+00  0.00000000000E+00  0.80710618562E+03  0.80710618564E+03  0.50400001928E-02 0.  1.
        1   -1    0    0  501    0  0.00000000000E+00  0.00000000000E+00 -0.20936791357E+04  0.20936791357E+04  0.50400001928E-02 0. -1.
    10030    2    1    2    0    0  0.00000000000E+00  0.00000000000E+00 -0.12865729501E+04  0.29007853214E+04  0.25998625973E+04 0.  0.
        1    1    3    3  502    0 -0.11601375657E+04 -0.26862696277E+03 -0.12249119080E+04  0.17083585100E+04  0.50400001928E-02 0. -1.
       -1    1    3    3    0  502  0.11601375657E+04  0.26862696277E+03 -0.61661042146E+02  0.11924268114E+04  0.50400001928E-02 0.  1.
</event>
<event>
 5   0  0.2705807E-06  0.2594612E+04  0.7818609E-02  0.8370034E-01
       -2   -1    0    0    0  501  0.00000000000E+00  0.00000000000E+00  0.13694657217E+04  0.13694657217E+04  0.25500000920E-02 0. -1.
        2   -1    0    0  501    0  0.00000000000E+00  0.00000000000E+00 -0.12289484475E+04  0.12289484475E+04  0.25500000920E-02 0.  1.
    10030    2    1    2    0    0  0.00000000000E+00  0.00000000000E+00  0.14051727413E+03  0.25984141692E+04  0.25946119345E+04 0.  0.
        4    1    3    3  502    0  0.73916776828E+02  0.79585166663E+03 -0.95307910128E+03  0.12438669348E+04  0.12699999809E+01 0.  1.
       -4    1    3    3    0  502 -0.73916776828E+02 -0.79585166663E+03  0.10935963754E+04  0.13545472345E+04  0.12699999809E+01 0. -1.
</event>
<event>
 5   0  0.2623368E-06  0.2599619E+04  0.7818609E-02  0.8368331E-01
        2   -1    0    0  501    0  0.00000000000E+00  0.00000000000E+00  0.21407350306E+04  0.21407350306E+04  0.25500000920E-02 0.  1.
       -2   -1    0    0    0  501  0.00000000000E+00  0.00000000000E+00 -0.78921729665E+03  0.78921729665E+03  0.25500000920E-02 0. -1.
    10030    2    1    2    0    0  0.00000000000E+00  0.00000000000E+00  0.13515177340E+04  0.29299523273E+04  0.25996192904E+04 0.  0.
        5    1    3    3  502    0  0.95714618127E+03  0.85757506252E+03  0.89523157437E+03  0.15662137344E+04  0.46999998093E+01 0.  1.
       -5    1    3    3    0  502 -0.95714618127E+03 -0.85757506252E+03  0.45628615962E+03  0.13637385929E+04  0.46999998093E+01 0. -1.
</event>
<event>
 5   0  0.1122628E-06  0.2598856E+04  0.7818609E-02  0.8368590E-01
        1   -1    0    0  501    0  0.00000000000E+00  0.00000000000E+00  0.22388051360E+04  0.22388051360E+04  0.50400001928E-02 0.  1.
       -1   -1    0    0    0  501  0.00000000000E+00  0.00000000000E+00 -0.75420297851E+03  0.75420297853E+03  0.50400001928E-02 0. -1.
    10030    2    1    2    0    0  0.00000000000E+00  0.00000000000E+00  0.14846021574E+04  0.29930081145E+04  0.25988562883E+04 0.  0.
        2    1    3    3  502    0 -0.84536465761E+03  0.62480048073E+03  0.16220216374E+04  0.19328660681E+04  0.25500000920E-02 0.  1.
       -2    1    3    3    0  502  0.84536465761E+03 -0.62480048073E+03 -0.13741947994E+03  0.10601420464E+04  0.25500000920E-02 0. -1.
</event>
<event>
 5   0  0.1122628E-06  0.2602053E+04  0.7818609E-02  0.8367504E-01
        1   -1    0    0  501    0  0.00000000000E+00  0.00000000000E+00  0.19391757069E+04  0.19391757069E+04  0.50400001928E-02 0.  1.
       -1   -1    0    0    0  501  0.00000000000E+00  0.00000000000E+00 -0.87288118790E+03  0.87288118791E+03  0.50400001928E-02 0. -1.
    10030    2    1    2    0    0  0.00000000000E+00  0.00000000000E+00  0.10662945190E+04  0.28120568948E+04  0.26020530314E+04 0.  0.
        2    1    3    3  502    0  0.10824394661E+04 -0.16241685543E+03 -0.22690218850E+03  0.11178278203E+04  0.25500000920E-02 0. -1.
       -2    1    3    3    0  502 -0.10824394661E+04  0.16241685543E+03  0.12931967075E+04  0.16942290745E+04  0.25500000920E-02 0.  1.
</event>
<event>
 5   0  0.1032076E-06  0.2600183E+04  0.7818609E-02  0.8368139E-01
       -1   -1    0    0    0  501  0.00000000000E+00  0.00000000000E+00  0.14566907494E+04  0.14566907494E+04  0.50400001928E-02 0.  1.
        1   -1    0    0  501    0  0.00000000000E+00  0.00000000000E+00 -0.11603274081E+04  0.11603274081E+04  0.50400001928E-02 0. -1.
    10030    2    1    2    0    0  0.00000000000E+00  0.00000000000E+00  0.29636334131E+03  0.26170181576E+04  0.26001832257E+04 0.  0.
        1    1    3    3  502    0 -0.75063181828E+03  0.63691895722E+03 -0.70650681658E+03  0.12117201684E+04  0.50400001928E-02 0. -1.
       -1    1    3    3    0  502  0.75063181828E+03 -0.63691895722E+03  0.10028701579E+04  0.14052979891E+04  0.50400001928E-02 0.  1.
</event>
<event>
 5   0  0.1088757E-06  0.2599105E+04  0.7818609E-02  0.8368505E-01
        1   -1    0    0  501    0  0.00000000000E+00  0.00000000000E+00  0.16876112815E+04  0.16876112815E+04  0.50400001928E-02 0. -1.
       -1   -1    0    0    0  501  0.00000000000E+00  0.00000000000E+00 -0.10007262231E+04  0.10007262231E+04  0.50400001928E-02 0.  1.
    10030    2    1    2    0    0  0.00000000000E+00  0.00000000000E+00  0.68688505835E+03  0.26883375046E+04  0.25991051259E+04 0.  0.
        5    1    3    3  502    0  0.86306530472E+03 -0.68261869417E+02  0.13458769024E+04  0.16002962630E+04  0.46999998093E+01 0. -1.
       -5    1    3    3    0  502 -0.86306530472E+03  0.68261869417E+02 -0.65899184401E+03  0.10880412416E+04  0.46999998093E+01 0.  1.
</event>
<event>
 5   0  0.1055179E-06  0.2598408E+04  0.7818609E-02  0.8368742E-01
       -1   -1    0    0    0  501  0.00000000000E+00  0.00000000000E+00  0.94008516744E+03  0.94008516746E+03  0.50400001928E-02 0.  1.
        1   -1    0    0  501    0  0.00000000000E+00  0.00000000000E+00 -0.17955082792E+04  0.17955082792E+04  0.50400001928E-02 0. -1.
    10030    2    1    2    0    0  0.00000000000E+00  0.00000000000E+00 -0.85542311175E+03  0.27355934467E+04  0.25984077442E+04 0.  0.
        3    1    3    3  502    0 -0.52193524704E+03  0.99135050066E+03  0.26484781072E+03  0.11512326395E+04  0.10100000352E+00 0.  1.
       -3    1    3    3    0  502  0.52193524704E+03 -0.99135050066E+03 -0.11202709225E+04  0.15843608071E+04  0.10100000352E+00 0. -1.
</event>
<event>
 5   0  0.2586775E-06  0.2590900E+04  0.7818609E-02  0.8371299E-01
       -2   -1    0    0    0  501  0.00000000000E+00  0.00000000000E+00  0.17619753208E+04  0.17619753208E+04  0.25500000920E-02 0.  1.
        2   -1    0    0  501    0  0.00000000000E+00  0.00000000000E+00 -0.95244871771E+03  0.95244871772E+03  0.25500000920E-02 0. -1.
    10030    2    1    2    0    0  0.00000000000E+00  0.00000000000E+00  0.80952660306E+03  0.27144240385E+04  0.25909003338E+04 0.  0.
        1    1    3    3  502    0 -0.11569206934E+04 -0.51662466897E+03  0.68748948201E+03  0.14415298566E+04  0.50400001928E-02 0.  1.
       -1    1    3    3    0  502  0.11569206934E+04  0.51662466897E+03  0.12203712105E+03  0.12728941819E+04  0.50400001928E-02 0. -1.
</event>
<event>
 5   0  0.1088757E-06  0.2579647E+04  0.7818609E-02  0.8375148E-01
        1   -1    0    0  501    0  0.00000000000E+00  0.00000000000E+00  0.18072955212E+04  0.18072955212E+04  0.50400001928E-02 0.  1.
       -1   -1    0    0    0  501  0.00000000000E+00  0.00000000000E+00 -0.92051598386E+03  0.92051598388E+03  0.50400001928E-02 0. -1.
    10030    2    1    2    0    0  0.00000000000E+00  0.00000000000E+00  0.88677953735E+03  0.27278115051E+04  0.25796468091E+04 0.  0.
        5    1    3    3  502    0 -0.59357443357E+03 -0.10544072932E+04  0.91571814261E+03  0.15174541690E+04  0.46999998093E+01 0.  1.
       -5    1    3    3    0  502  0.59357443357E+03  0.10544072932E+04 -0.28938605260E+02  0.12103573361E+04  0.46999998093E+01 0. -1.
</event>
<event>
 5   0  0.1032076E-06  0.2600925E+04  0.7818609E-02  0.8367887E-01
        1   -1    0    0  501    0  0.00000000000E+00  0.00000000000E+00  0.11979890819E+04  0.11979890819E+04  0.50400001928E-02 0. -1.
       -1   -1    0    0    0  501  0.00000000000E+00  0.00000000000E+00 -0.14117015054E+04  0.14117015054E+04  0.50400001928E-02 0.  1.
    10030    2    1    2    0    0  0.00000000000E+00  0.00000000000E+00 -0.21371242356E+03  0.26096905873E+04  0.26009252126E+04 0.  0.
        1    1    3    3  502    0 -0.88253258072E+03 -0.13446143196E+02  0.85143232693E+03  0.12263692601E+04  0.50400001928E-02 0. -1.
       -1    1    3    3    0  502  0.88253258072E+03  0.13446143196E+02 -0.10651447505E+04  0.13833213272E+04  0.50400001928E-02 0.  1.
</event>
<event>
 5   0  0.1032076E-06  0.2594446E+04  0.7818609E-02  0.8370090E-01
        1   -1    0    0  501    0  0.00000000000E+00  0.00000000000E+00  0.23992090010E+04  0.23992090010E+04  0.50400001928E-02 0.  1.
       -1   -1    0    0    0  501  0.00000000000E+00  0.00000000000E+00 -0.70139240148E+03  0.70139240150E+03  0.50400001928E-02 0. -1.
    10030    2    1    2    0    0  0.00000000000E+00  0.00000000000E+00  0.16978165995E+04  0.31006014025E+04  0.25944455769E+04 0.  0.
        1    1    3    3  502    0  0.95048299943E+03  0.92394599493E+01  0.19039002842E+04  0.21279895658E+04  0.50400001928E-02 0.  1.
       -1    1    3    3    0  502 -0.95048299943E+03 -0.92394599493E+01 -0.20608368469E+03  0.97261183673E+03  0.50400001928E-02 0. -1.
</event>
<event>
 5   0  0.1100104E-06  0.2614594E+04  0.7818609E-02  0.8363261E-01
        1   -1    0    0  501    0  0.00000000000E+00  0.00000000000E+00  0.22798341471E+04  0.22798341471E+04  0.50400001928E-02 0.  1.
       -1   -1    0    0    0  501  0.00000000000E+00  0.00000000000E+00 -0.74962736634E+03  0.74962736636E+03  0.50400001928E-02 0. -1.
    10030    2    1    2    0    0  0.00000000000E+00  0.00000000000E+00  0.15302067807E+04  0.30294615134E+04  0.26145944752E+04 0.  0.
        4    1    3    3  502    0  0.21945378351E+03  0.11663060404E+04  0.12984301302E+03  0.11938553362E+04  0.12699999809E+01 0. -1.
       -4    1    3    3    0  502 -0.21945378351E+03 -0.11663060404E+04  0.14003637677E+04  0.18356061772E+04  0.12699999809E+01 0.  1.
</event>
<event>
 5   0  0.1055179E-06  0.2595988E+04  0.7818609E-02  0.8369565E-01
        1   -1    0    0  501    0  0.00000000000E+00  0.00000000000E+00  0.15742649326E+04  0.15742649326E+04  0.50400001928E-02 0. -1.
       -1   -1    0    0    0  501  0.00000000000E+00  0.00000000000E+00 -0.10702063239E+04  0.10702063239E+04  0.50400001928E-02 0.  1.
    10030    2    1    2    0    0  0.00000000000E+00  0.00000000000E+00  0.50405860868E+03  0.26444712565E+04  0.25959878940E+04 0.  0.
        3    1    3    3  502    0  0.13517609644E+03  0.84560214157E+03  0.12456814117E+04  0.15116341319E+04  0.10100000352E+00 0. -1.
       -3    1    3    3    0  502 -0.13517609644E+03 -0.84560214157E+03 -0.74162280304E+03  0.11328371247E+04  0.10100000352E+00 0.  1.
</event>
<event>
 5   0  0.2586775E-06  0.2597457E+04  0.7818609E-02  0.8369066E-01
       -2   -1    0    0    0  501  0.00000000000E+00  0.00000000000E+00  0.76922239277E+03  0.76922239277E+03  0.25500000920E-02 0.  1.
        2   -1    0    0  501    0  0.00000000000E+00  0.00000000000E+00 -0.21927275606E+04  0.21927275606E+04  0.25500000920E-02 0. -1.
    10030    2    1    2    0    0  0.00000000000E+00  0.00000000000E+00 -0.14235051678E+04  0.29619499533E+04  0.25974565566E+04 0.  0.
        1    1    3    3  502    0 -0.26951882061E+03 -0.12704390985E+04 -0.71889608439E+03  0.14844081238E+04  0.50400001928E-02 0. -1.
       -1    1    3    3    0  502  0.26951882061E+03  0.12704390985E+04 -0.70460908340E+03  0.14775418296E+04  0.50400001928E-02 0.  1.
</event>
<event>
 5   0  0.2820028E-06  0.2600333E+04  0.7818609E-02  0.8368088E-01
       -2   -1    0    0    0  501  0.00000000000E+00  0.00000000000E+00  0.21562343234E+04  0.21562343234E+04  0.25500000920E-02 0.  1.
        2   -1    0    0  501    0  0.00000000000E+00  0.00000000000E+00 -0.78397439270E+03  0.78397439270E+03  0.25500000920E-02 0. -1.
    10030    2    1    2    0    0  0.00000000000E+00  0.00000000000E+00  0.13722599307E+04  0.29402087161E+04  0.26003326666E+04 0.  0.
        3    1    3    3  502    0  0.47511254825E+03 -0.23144476600E+03 -0.65704737620E+03  0.84321401672E+03  0.10100000352E+00 0. -1.
       -3    1    3    3    0  502 -0.47511254825E+03  0.23144476600E+03  0.20293073069E+04  0.20969946994E+04  0.10100000352E+00 0.  1.
</event>
<event>
 5   0  0.1055179E-06  0.2610583E+04  0.7818609E-02  0.8364615E-01
        1   -1    0    0  501    0  0.00000000000E+00  0.00000000000E+00  0.21174016222E+04  0.21174016222E+04  0.50400001928E-02 0. -1.
       -1   -1    0    0    0  501  0.00000000000E+00  0.00000000000E+00 -0.80465881115E+03  0.80465881117E+03  0.50400001928E-02 0.  1.
    10030    2    1    2    0    0  0.00000000000E+00  0.00000000000E+00  0.13127428111E+04  0.29220604334E+04  0.26105829786E+04 0.  0.
        3    1    3    3  502    0 -0.72577690570E+02 -0.25830428861E+02  0.21148548228E+04  0.21162574663E+04  0.10100000352E+00 0. -1.
       -3    1    3    3    0  502  0.72577690570E+02  0.25830428861E+02 -0.80211201169E+03  0.80580296706E+03  0.10100000352E+00 0.  1.
</event>
<event>
 5   0  0.2623368E-06  0.2597852E+04  0.7818609E-02  0.8368931E-01
       -2   -1    0    0    0  501  0.00000000000E+00  0.00000000000E+00  0.12463471973E+04  0.12463471973E+04  0.25500000920E-02 0. -1.
        2   -1    0    0  501    0  0.00000000000E+00  0.00000000000E+00 -0.13537227278E+04  0.13537227278E+04  0.25500000920E-02 0.  1.
    10030    2    1    2    0    0  0.00000000000E+00  0.00000000000E+00 -0.10737553051E+03  0.26000699251E+04  0.25978518262E+04 0.  0.
        5    1    3    3  502    0  0.12162987494E+04  0.25792615806E+02 -0.50920110225E+03  0.13188463744E+04  0.46999998093E+01 0.  1.
       -5    1    3    3    0  502 -0.12162987494E+04 -0.25792615806E+02  0.40182557174E+03  0.12812235507E+04  0.46999998093E+01 0. -1.
</event>
<event>
 5   0  0.1100104E-06  0.2601273E+04  0.7818609E-02  0.8367769E-01
       -1   -1    0    0    0  501  0.00000000000E+00  0.00000000000E+00  0.10659279563E+04  0.10659279563E+04  0.50400001928E-02 0. -1.
        1   -1    0    0  501    0  0.00000000000E+00  0.00000000000E+00 -0.15870258327E+04  0.15870258327E+04  0.50400001928E-02 0.  1.
    10030    2    1    2    0    0  0.00000000000E+00  0.00000000000E+00 -0.52109787641E+03  0.26529537890E+04  0.26012729211E+04 0.  0.
        4    1    3    3  502    0 -0.12688030762E+04 -0.20839293459E+03 -0.60788341167E+02  0.12872395646E+04  0.12699999809E+01 0.  1.
       -4    1    3    3    0  502  0.12688030762E+04  0.20839293459E+03 -0.46030953524E+03  0.13657142244E+04  0.12699999809E+01 0. -1.
</event>
<event>
 5   0  0.1122628E-06  0.2598448E+04  0.7818609E-02  0.8368729E-01
       -1   -1    0    0    0  501  0.00000000000E+00  0.00000000000E+00  0.10329606576E+04  0.10329606576E+04  0.50400001928E-02 0. -1.
        1   -1    0    0  501    0  0.00000000000E+00  0.00000000000E+00 -0.16341210962E+04  0.16341210962E+04  0.50400001928E-02 0.  1.
    10030    2    1    2    0    0  0.00000000000E+00  0.00000000000E+00 -0.60116043860E+03  0.26670817538E+04  0.25984478460E+04 0.  0.
        2    1    3    3  502    0  0.11406546605E+04 -0.52233734137E+03  0.46058072598E+02  0.12554085784E+04  0.25500000920E-02 0. -1.
       -2    1    3    3    0  502 -0.11406546605E+04  0.52233734137E+03 -0.64721851120E+03  0.14116731753E+04  0.25500000920E-02 0.  1.
</event>
<event>
 5   0  0.1032076E-06  0.2598468E+04  0.7818609E-02  0.8368722E-01
       -1   -1    0    0    0  501  0.00000000000E+00  0.00000000000E+00  0.15487736157E+04  0.15487736157E+04  0.50400001928E-02 0. -1.
        1   -1    0    0  501    0  0.00000000000E+00  0.00000000000E+00 -0.10899003011E+04  0.10899003011E+04  0.50400001928E-02 0.  1.
    10030    2    1    2    0    0  0.00000000000E+00  0.00000000000E+00  0.45887331457E+03  0.26386739168E+04  0.25984678794E+04 0.  0.
        1    1    3    3  502    0 -0.19318424200E+03 -0.59326969238E+03  0.13866837383E+04  0.15205856995E+04  0.50400001928E-02 0. -1.
       -1    1    3    3    0  502  0.19318424200E+03  0.59326969238E+03 -0.92781042377E+03  0.11180882173E+04  0.50400001928E-02 0.  1.
</event>
<event>
 5   0  0.1088757E-06  0.2598237E+04  0.7818609E-02  0.8368800E-01
        1   -1    0    0  501    0  0.00000000000E+00  0.00000000000E+00  0.15487266719E+04  0.15487266719E+04  0.50400001928E-02 0. -1.
       -1   -1    0    0    0  501  0.00000000000E+00  0.00000000000E+00 -0.10897399358E+04  0.10897399358E+04  0.50400001928E-02 0.  1.
    10030    2    1    2    0    0  0.00000000000E+00  0.00000000000E+00  0.45898673607E+03  0.26384666077E+04  0.25982373286E+04 0.  0.
        5    1    3    3  502    0 -0.11012545051E+04 -0.63791253213E+03  0.49428602711E+03  0.13652965430E+04  0.46999998093E+01 0.  1.
       -5    1    3    3    0  502  0.11012545051E+04  0.63791253213E+03 -0.35299291042E+02  0.12731700647E+04  0.46999998093E+01 0. -1.
</event>
<event>
 5   0  0.2623368E-06  0.2593326E+04  0.7818609E-02  0.8370472E-01
        2   -1    0    0  501    0  0.00000000000E+00  0.00000000000E+00  0.21184640405E+04  0.21184640405E+04  0.25500000920E-02 0. -1.
       -2   -1    0    0    0  501  0.00000000000E+00  0.00000000000E+00 -0.79365750980E+03  0.79365750980E+03  0.25500000920E-02 0.  1.
    10030    2    1    2    0    0  0.00000000000E+00  0.00000000000E+00  0.13248065307E+04  0.29121215503E+04  0.25933259687E+04 0.  0.
        5    1    3    3  502    0 -0.96724766440E+03 -0.65487864201E+03  0.12945223903E+04  0.17436296594E+04  0.46999998093E+01 0. -1.
       -5    1    3    3    0  502  0.96724766440E+03  0.65487864201E+03  0.30284140413E+02  0.11684918910E+04  0.46999998093E+01 0.  1.
</event>
<event>
 5   0  0.2705807E-06  0.2569829E+04  0.7818609E-02  0.8378522E-01
        2   -1    0    0  501    0  0.00000000000E+00  0.00000000000E+00  0.25335210323E+04  0.25335210323E+04  0.25500000920E-02 0.  1.
       -2   -1    0    0    0  501  0.00000000000E+00  0.00000000000E+00 -0.65166446663E+03  0.65166446663E+03  0.25500000920E-02 0. -1.
    10030    2    1    2    0    0  0.00000000000E+00  0.00000000000E+00  0.18818565657E+04  0.31851854989E+04  0.25698292801E+04 0.  0.
        4    1    3    3  502    0  0.38262725840E+03 -0.27754949560E+03 -0.53998169030E+03  0.71764836803E+03  0.12699999809E+01 0. -1.
       -4    1    3    3    0  502 -0.38262725840E+03  0.27754949560E+03  0.24218382560E+04  0.24675371309E+04  0.12699999809E+01 0.  1.
</event>
<event>
 5   0  0.1088757E-06  0.2617560E+04  0.7818609E-02  0.8362261E-01
       -1   -1    0    0    0  501  0.00000000000E+00  0.00000000000E+00  0.13769158612E+04  0.13769158612E+04  0.50400001928E-02 0. -1.
        1   -1    0    0  501    0  0.00000000000E+00  0.00000000000E+00 -0.12440153579E+04  0.12440153579E+04  0.50400001928E-02 0.  1.
    10030    2    1    2    0    0  0.00000000000E+00  0.00000000000E+00  0.13290050335E+03  0.26209312191E+04  0.26175595336E+04 0.  0.
        5    1    3    3  502    0 -0.96917701629E+03  0.31198788522E+02  0.94656195231E+03  0.13550937506E+04  0.46999998093E+01 0. -1.
       -5    1    3    3    0  502  0.96917701629E+03 -0.31198788522E+02 -0.81366144896E+03  0.12658374686E+04  0.46999998093E+01 0.  1.
</event>
<event>
 5   0  0.9197000E-07  0.2599638E+04  0.7818609E-02  0.8368324E-01
       -3   -1    0    0    0  501  0.00000000000E+00  0.00000000000E+00  0.13418704218E+04  0.13418704256E+04  0.10100000352E+00 0. -1.
        3   -1    0    0  501    0  0.00000000000E+00  0.00000000000E+00 -0.12590852684E+04  0.12590852724E+04  0.10100000352E+00 0.  1.
    10030    2    1    2    0    0  0.00000000000E+00  0.00000000000E+00  0.82785153438E+02  0.26009556981E+04  0.25996378905E+04 0.  0.
        2    1    3    3  502    0 -0.11856869463E+04 -0.48495958435E+02  0.57206119953E+03  0.13173683649E+04  0.25500000920E-02 0. -1.
       -2    1    3    3    0  502  0.11856869463E+04  0.48495958435E+02 -0.48927604609E+03  0.12835873332E+04  0.25500000920E-02 0.  1.
</event>
<event>
 5   0  0.2586775E-06  0.2600694E+04  0.7818609E-02  0.8367966E-01
       -2   -1    0    0    0  501  0.00000000000E+00  0.00000000000E+00  0.15107842097E+04  0.15107842097E+04  0.25500000920E-02 0.  1.
        2   -1    0    0  501    0  0.00000000000E+00  0.00000000000E+00 -0.11192214636E+04  0.11192214636E+04  0.25500000920E-02 0. -1.
    10030    2    1    2    0    0  0.00000000000E+00  0.00000000000E+00  0.39156274612E+03  0.26300056733E+04  0.26006938416E+04 0.  0.
        1    1    3    3  502    0 -0.52491591472E+03  0.11194693354E+04  0.60300317993E+03  0.13756311808E+04  0.50400001928E-02 0. -1.
       -1    1    3    3    0  502  0.52491591472E+03 -0.11194693354E+04 -0.21144043381E+03  0.12543744926E+04  0.50400001928E-02 0.  1.
</event>
<event>
 5   0  0.2705807E-06  0.2607649E+04  0.7818609E-02  0.8365608E-01
        2   -1    0    0  501    0  0.00000000000E+00  0.00000000000E+00  0.11842809641E+04  0.11842809641E+04  0.25500000920E-02 0. -1.
       -2   -1    0    0    0  501  0.00000000000E+00  0.00000000000E+00 -0.14354347058E+04  0.14354347058E+04  0.25500000920E-02 0.  1.
    10030    2    1    2    0    0  0.00000000000E+00  0.00000000000E+00 -0.25115374174E+03  0.26197156700E+04  0.26076487473E+04 0.  0.
        4    1    3    3  502    0 -0.11346723195E+04  0.55983776619E+03 -0.44176618320E+03  0.13401710975E+04  0.12699999809E+01 0. -1.
       -4    1    3    3    0  502  0.11346723195E+04 -0.55983776619E+03  0.19061244146E+03  0.12795445724E+04  0.12699999809E+01 0.  1.
</event>
<event>
 5   0  0.2705807E-06  0.2599044E+04  0.7818609E-02  0.8368526E-01
       -2   -1    0    0    0  501  0.00000000000E+00  0.00000000000E+00  0.14885683616E+04  0.14885683616E+04  0.25500000920E-02 0.  1.
        2   -1    0    0  501    0  0.00000000000E+00  0.00000000000E+00 -0.11344847249E+04  0.11344847249E+04  0.25500000920E-02 0. -1.
    10030    2    1    2    0    0  0.00000000000E+00  0.00000000000E+00  0.35408363677E+03  0.26230530865E+04  0.25990444923E+04 0.  0.
        4    1    3    3  502    0 -0.38013323225E+03  0.12267022135E+04 -0.23430599581E+02  0.12844649473E+04  0.12699999809E+01 0.  1.
       -4    1    3    3    0  502  0.38013323225E+03 -0.12267022135E+04  0.37751423635E+03  0.13385881392E+04  0.12699999809E+01 0. -1.
</event>
<event>
 5   0  0.1100104E-06  0.2619804E+04  0.7818609E-02  0.8361505E-01
       -1   -1    0    0    0  501  0.00000000000E+00  0.00000000000E+00  0.72851205314E+03  0.72851205315E+03  0.50400001928E-02 0. -1.
        1   -1    0    0  501    0  0.00000000000E+00  0.00000000000E+00 -0.23552712798E+04  0.23552712798E+04  0.50400001928E-02 0.  1.
    10030    2    1    2    0    0  0.00000000000E+00  0.00000000000E+00 -0.16267592266E+04  0.30837833329E+04  0.26198042032E+04 0.  0.
        4    1    3    3  502    0 -0.87489092800E+03  0.33471632159E+03  0.26440902089E+03  0.97333596207E+03  0.12699999809E+01 0. -1.
       -4    1    3    3    0  502  0.87489092800E+03 -0.33471632159E+03 -0.18911682475E+04  0.21104473709E+04  0.12699999809E+01 0.  1.
</event>
<event>
 5   0  0.1055179E-06  0.2582814E+04  0.7818609E-02  0.8374062E-01
       -1   -1    0    0    0  501  0.00000000000E+00  0.00000000000E+00  0.87538734940E+03  0.87538734941E+03  0.50400001928E-02 0. -1.
        1   -1    0    0  501    0  0.00000000000E+00  0.00000000000E+00 -0.19051365607E+04  0.19051365607E+04  0.50400001928E-02 0.  1.
    10030    2    1    2    0    0  0.00000000000E+00  0.00000000000E+00 -0.10297492113E+04  0.27805239101E+04  0.25828143132E+04 0.  0.
        3    1    3    3  502    0  0.11709341373E+04 -0.11447047847E+03 -0.10881222700E+04  0.16025605539E+04  0.10100000352E+00 0.  1.
       -3    1    3    3    0  502 -0.11709341373E+04  0.11447047847E+03  0.58373058685E+02  0.11779633562E+04  0.10100000352E+00 0. -1.
</event>
<event>
 5   0  0.1055179E-06  0.2602574E+04  0.7818609E-02  0.8367327E-01
        1   -1    0    0  501    0  0.00000000000E+00  0.00000000000E+00  0.86998227888E+03  0.86998227889E+03  0.50400001928E-02 0. -1.
       -1   -1    0    0    0  501  0.00000000000E+00  0.00000000000E+00 -0.19464168863E+04  0.19464168863E+04  0.50400001928E-02 0.  1.
    10030    2    1    2    0    0  0.00000000000E+00  0.00000000000E+00 -0.10764346074E+04  0.28163991652E+04  0.26025742629E+04 0.  0.
        3    1    3    3  502    0 -0.58396375243E+03 -0.52171031716E+03  0.58647490866E+03  0.97833948498E+03  0.10100000352E+00 0. -1.
       -3    1    3    3    0  502  0.58396375243E+03  0.52171031716E+03 -0.16629095161E+04  0.18380596802E+04  0.10100000352E+00 0.  1.
</event>
<event>
 5   0  0.2705807E-06  0.2600851E+04  0.7818609E-02  0.8367912E-01
        2   -1    0    0  501    0  0.00000000000E+00  0.00000000000E+00  0.18985772012E+04  0.18985772012E+04  0.25500000920E-02 0. -1.
       -2   -1    0    0    0  501  0.00000000000E+00  0.00000000000E+00 -0.89072306377E+03  0.89072306377E+03  0.25500000920E-02 0.  1.
    10030    2    1    2    0    0  0.00000000000E+00  0.00000000000E+00  0.10078541374E+04  0.27893002650E+04  0.26008510157E+04 0.  0.
        4    1    3    3  502    0  0.60413042727E+03  0.61580217873E+03 -0.53967806400E+03  0.10175656844E+04  0.12699999809E+01 0.  1.
       -4    1    3    3    0  502 -0.60413042727E+03 -0.61580217873E+03  0.15475322014E+04  0.17717345805E+04  0.12699999809E+01 0. -1.
</event>
<event>
 5   0  0.1100104E-06  0.2598618E+04  0.7818609E-02  0.8368671E-01
        1   -1    0    0  501    0  0.00000000000E+00  0.00000000000E+00  0.17786399509E+04  0.17786399509E+04  0.50400001928E-02 0. -1.
       -1   -1    0    0    0  501  0.00000000000E+00  0.00000000000E+00 -0.94915432247E+03  0.94915432248E+03  0.50400001928E-02 0.  1.
    10030    2    1    2    0    0  0.00000000000E+00  0.00000000000E+00  0.82948562839E+03  0.27277942733E+04  0.25986179384E+04 0.  0.
        4    1    3    3  502    0  0.85150951434E+03 -0.98115349324E+03  0.39194805404E+03  0.13569655560E+04  0.12699999809E+01 0. -1.
       -4    1    3    3    0  502 -0.85150951434E+03  0.98115349324E+03  0.43753757435E+03  0.13708287173E+04  0.12699999809E+01 0.  1.
</event>
<event>
 5   0  0.2586775E-06  0.2592372E+04  0.7818609E-02  0.8370797E-01
       -2   -1    0    0    0  501  0.00000000000E+00  0.00000000000E+00  0.97502830657E+03  0.97502830658E+03  0.25500000920E-02 0.  1.
        2   -1    0    0  501    0  0.00000000000E+00  0.00000000000E+00 -0.17231277167E+04  0.17231277167E+04  0.25500000920E-02 0. -1.
    10030    2    1    2    0    0  0.00000000000E+00  0.00000000000E+00 -0.74809941013E+03  0.26981560233E+04  0.25923721181E+04 0.  0.
        1    1    3    3  502    0  0.50016253420E+03 -0.10865903508E+04 -0.89367888258E+03  0.14931520673E+04  0.50400001928E-02 0.  1.
       -1    1    3    3    0  502 -0.50016253420E+03  0.10865903508E+04  0.14557947245E+03  0.12050039559E+04  0.50400001928E-02 0. -1.
</event>
<event>
 5   0  0.1088757E-06  0.2594330E+04  0.7818609E-02  0.8370130E-01
       -1   -1    0    0    0  501  0.00000000000E+00  0.00000000000E+00  0.10914237577E+04  0.10914237577E+04  0.50400001928E-02 0.  1.
        1   -1    0    0  501    0  0.00000000000E+00  0.00000000000E+00 -0.15416894891E+04  0.15416894891E+04  0.50400001928E-02 0. -1.
    10030    2    1    2    0    0  0.00000000000E+00  0.00000000000E+00 -0.45026573141E+03  0.26331132468E+04  0.25943296131E+04 0.  0.
        5    1    3    3  502    0  0.41710369579E+03  0.94978973066E+03 -0.10155812985E+04  0.14517243159E+04  0.46999998093E+01 0. -1.
       -5    1    3    3    0  502 -0.41710369579E+03 -0.94978973066E+03  0.56531556713E+03  0.11813889309E+04  0.46999998093E+01 0.  1.
</event>
<event>
 5   0  0.2820028E-06  0.2599388E+04  0.7818609E-02  0.8368409E-01
        2   -1    0    0  501    0  0.00000000000E+00  0.00000000000E+00  0.17674852368E+04  0.17674852368E+04  0.25500000920E-02 0. -1.
       -2   -1    0    0    0  501  0.00000000000E+00  0.00000000000E+00 -0.95571066279E+03  0.95571066279E+03  0.25500000920E-02 0.  1.
    10030    2    1    2    0    0  0.00000000000E+00  0.00000000000E+00  0.81177457404E+03  0.27231958996E+04  0.25993879950E+04 0.  0.
        3    1    3    3  502    0 -0.80805346747E+03  0.94406007369E+03  0.80481916112E+03  0.14805180584E+04  0.10100000352E+00 0. -1.
       -3    1    3    3    0  502  0.80805346747E+03 -0.94406007369E+03  0.69554129274E+01  0.12426778412E+04  0.10100000352E+00 0.  1.
</event>
<event>
 5   0  0.2586775E-06  0.2595735E+04  0.7818609E-02  0.8369651E-01
       -2   -1    0    0    0  501  0.00000000000E+00  0.00000000000E+00  0.80885793745E+03  0.80885793745E+03  0.25500000920E-02 0.  1.
        2   -1    0    0  501    0  0.00000000000E+00  0.00000000000E+00 -0.20825169881E+04  0.20825169881E+04  0.25500000920E-02 0. -1.
    10030    2    1    2    0    0  0.00000000000E+00  0.00000000000E+00 -0.12736590507E+04  0.28913749256E+04  0.25957352682E+04 0.  0.
        1    1    3    3  502    0 -0.24554439042E+03 -0.68096239967E+03  0.56310853954E+03  0.91711126084E+03  0.50400001928E-02 0.  1.
       -1    1    3    3    0  502  0.24554439042E+03  0.68096239967E+03 -0.18367675902E+04  0.19742636647E+04  0.50400001928E-02 0. -1.
</event>
<event>
 5   0  0.1088757E-06  0.2595652E+04  0.7818609E-02  0.8369680E-01
        1   -1    0    0  501    0  0.00000000000E+00  0.00000000000E+00  0.12326839692E+04  0.12326839693E+04  0.50400001928E-02 0.  1.
       -1   -1    0    0    0  501  0.00000000000E+00  0.00000000000E+00 -0.13664107276E+04  0.13664107276E+04  0.50400001928E-02 0. -1.
    10030    2    1    2    0    0  0.00000000000E+00  0.00000000000E+00 -0.13372675831E+03  0.25990946968E+04  0.25956522104E+04 0.  0.
        5    1    3    3  502    0 -0.88607740200E+02  0.65424818307E+03  0.10519539313E+04  0.12419827617E+04  0.46999998093E+01 0.  1.
       -5    1    3    3    0  502  0.88607740200E+02 -0.65424818307E+03 -0.11856806897E+04  0.13571119351E+04  0.46999998093E+01 0. -1.
</event>
<event>
 5   0  0.1122628E-06  0.2596055E+04  0.7818609E-02  0.8369543E-01
       -1   -1    0    0    0  501  0.00000000000E+00  0.00000000000E+00  0.13679838730E+04  0.13679838730E+04  0.50400001928E-02 0. -1.
        1   -1    0    0  501    0  0.00000000000E+00  0.00000000000E+00 -0.12316483819E+04  0.12316483819E+04  0.50400001928E-02 0.  1.
    10030    2    1    2    0    0  0.00000000000E+00  0.00000000000E+00  0.13633549103E+03  0.25996322549E+04  0.25960547943E+04 0.  0.
        2    1    3    3  502    0  0.10657637542E+04  0.72801176541E+03  0.20627666794E+03  0.13070591318E+04  0.25500000920E-02 0. -1.
       -2    1    3    3    0  502 -0.10657637542E+04 -0.72801176541E+03 -0.69941176910E+02  0.12925731231E+04  0.25500000920E-02 0.  1.
</event>
<event>
 5   0  0.2746631E-06  0.2600502E+04  0.7818609E-02  0.8368031E-01
       -2   -1    0    0    0  501  0.00000000000E+00  0.00000000000E+00  0.14799414458E+04  0.14799414458E+04  0.25500000920E-02 0.  1.
        2   -1    0    0  501    0  0.00000000000E+00  0.00000000000E+00 -0.11423779426E+04  0.11423779426E+04  0.25500000920E-02 0. -1.
    10030    2    1    2    0    0  0.00000000000E+00  0.00000000000E+00  0.33756350321E+03  0.26223193884E+04  0.26005018470E+04 0.  0.
        2    1    3    3  502    0  0.45677611617E+03  0.11961789301E+04 -0.59310594027E+02  0.12817980339E+04  0.25500000920E-02 0.  1.
       -2    1    3    3    0  502 -0.45677611617E+03 -0.11961789301E+04  0.39687409724E+03  0.13405213546E+04  0.25500000920E-02 0. -1.
</event>
<event>
 5   0  0.2746631E-06  0.2598789E+04  0.7818609E-02  0.8368613E-01
        2   -1    0    0  501    0  0.00000000000E+00  0.00000000000E+00  0.12627887004E+04  0.12627887004E+04  0.25500000920E-02 0. -1.
       -2   -1    0    0    0  501  0.00000000000E+00  0.00000000000E+00 -0.13370616079E+04  0.13370616079E+04  0.25500000920E-02 0.  1.
    10030    2    1    2    0    0  0.00000000000E+00  0.00000000000E+00 -0.74272907506E+02  0.25998503084E+04  0.25987891721E+04 0.  0.
        2    1    3    3  502    0 -0.23448780388E+03  0.65016404285E+03  0.10636439092E+04  0.12684778982E+04  0.25500000920E-02 0. -1.
       -2    1    3    3    0  502  0.23448780388E+03 -0.65016404285E+03 -0.11379168167E+04  0.13313724101E+04  0.25500000920E-02 0.  1.
</event>
<event>
 5   0  0.1055179E-06  0.2601718E+04  0.7818609E-02  0.8367618E-01
        1   -1    0    0  501    0  0.00000000000E+00  0.00000000000E+00  0.20360512030E+04  0.20360512030E+04  0.50400001928E-02 0. -1.
       -1   -1    0    0    0  501  0.00000000000E+00  0.00000000000E+00 -0.83113528839E+03  0.83113528841E+03  0.50400001928E-02 0.  1.
    10030    2    1    2    0    0  0.00000000000E+00  0.00000000000E+00  0.12049159146E+04  0.28671864914E+04  0.26017178969E+04 0.  0.
        3    1    3    3  502    0 -0.51671629575E+03  0.10932887261E+04  0.11309275722E+04  0.16556790609E+04  0.10100000352E+00 0.  1.
       -3    1    3    3    0  502  0.51671629575E+03 -0.10932887261E+04  0.73988342345E+02  0.12115074304E+04  0.10100000352E+00 0. -1.
</event>
<event>
 5   0  0.1122628E-06  0.2631472E+04  0.7818609E-02  0.8357589E-01
        1   -1    0    0  501    0  0.00000000000E+00  0.00000000000E+00  0.16130962109E+04  0.16130962109E+04  0.50400001928E-02 0.  1.
       -1   -1    0    0    0  501  0.00000000000E+00  0.00000000000E+00 -0.10731914613E+04  0.10731914613E+04  0.50400001928E-02 0. -1.
    10030    2    1    2    0    0  0.00000000000E+00  0.00000000000E+00  0.53990474967E+03  0.26862876722E+04  0.26314718921E+04 0.  0.
        2    1    3    3  502    0  0.10969600685E+04 -0.67696548527E+03  0.72109570007E+00  0.12890322650E+04  0.25500000920E-02 0. -1.
       -2    1    3    3    0  502 -0.10969600685E+04  0.67696548527E+03  0.53918365397E+03  0.13972554072E+04  0.25500000920E-02 0.  1.
</event>
<event>
 5   0  0.2586775E-06  0.2604256E+04  0.7818609E-02  0.8366757E-01
        2   -1    0    0  501    0  0.00000000000E+00  0.00000000000E+00  0.29582033395E+04  0.29582033395E+04  0.25500000920E-02 0. -1.
       -2   -1    0    0    0  501  0.00000000000E+00  0.00000000000E+00 -0.57316461746E+03  0.57316461747E+03  0.25500000920E-02 0.  1.
    10030    2    1    2    0    0  0.00000000000E+00  0.00000000000E+00  0.23850387220E+04  0.35313679570E+04  0.26042561206E+04 0.  0.
        1    1    3    3  502    0  0.85787867036E+03  0.55143026673E+03  0.94657433662E+02  0.10242027055E+04  0.50400001928E-02 0.  1.
       -1    1    3    3    0  502 -0.85787867036E+03 -0.55143026673E+03  0.22903812884E+04  0.25071652515E+04  0.50400001928E-02 0. -1.
</event>
<event>
 5   0  0.1100104E-06  0.2596821E+04  0.7818609E-02  0.8369282E-01
       -1   -1    0    0    0  501  0.00000000000E+00  0.00000000000E+00  0.10775668648E+04  0.10775668648E+04  0.50400001928E-02 0.  1.
        1   -1    0    0  501    0  0.00000000000E+00  0.00000000000E+00 -0.15645153097E+04  0.15645153097E+04  0.50400001928E-02 0. -1.
    10030    2    1    2    0    0  0.00000000000E+00  0.00000000000E+00 -0.48694844495E+03  0.26420821745E+04  0.25968210236E+04 0.  0.
        4    1    3    3  502    0 -0.75081300724E+03  0.54768747065E+03 -0.11660232918E+04  0.14910713153E+04  0.12699999809E+01 0. -1.
       -4    1    3    3    0  502  0.75081300724E+03 -0.54768747065E+03  0.67907484688E+03  0.11510108592E+04  0.12699999809E+01 0.  1.
</event>
<event>
 5   0  0.2586775E-06  0.2614480E+04  0.7818609E-02  0.8363299E-01
        2   -1    0    0  501    0  0.00000000000E+00  0.00000000000E+00  0.15850317126E+04  0.15850317126E+04  0.25500000920E-02 0. -1.
       -2   -1    0    0    0  501  0.00000000000E+00  0.00000000000E+00 -0.10781341743E+04  0.10781341743E+04  0.25500000920E-02 0.  1.
    10030    2    1    2    0    0  0.00000000000E+00  0.00000000000E+00  0.50689753827E+03  0.26631658869E+04  0.26144803359E+04 0.  0.
        1    1    3    3  502    0  0.81578624831E+03  0.76640130885E+03 -0.43440264713E+03  0.12006597474E+04  0.50400001928E-02 0. -1.
       -1    1    3    3    0  502 -0.81578624831E+03 -0.76640130885E+03  0.94130018540E+03  0.14625061395E+04  0.50400001928E-02 0.  1.
</event>
<event>
 5   0  0.1032076E-06  0.2587463E+04  0.7818609E-02  0.8372472E-01
        1   -1    0    0  501    0  0.00000000000E+00  0.00000000000E+00  0.17641281638E+04  0.17641281638E+04  0.50400001928E-02 0.  1.
       -1   -1    0    0    0  501  0.00000000000E+00  0.00000000000E+00 -0.94876372811E+03  0.94876372812E+03  0.50400001928E-02 0. -1.
    10030    2    1    2    0    0  0.00000000000E+00  0.00000000000E+00  0.81536443567E+03  0.27128918919E+04  0.25874627059E+04 0.  0.
        1    1    3    3  502    0 -0.12425284560E+04 -0.16719717296E+03  0.74238903859E+03  0.14570426704E+04  0.50400001928E-02 0.  1.
       -1    1    3    3    0  502  0.12425284560E+04  0.16719717296E+03  0.72975397080E+02  0.12558492215E+04  0.50400001928E-02 0. -1.
</event>
<event>
 5   0  0.2705807E-06  0.2604321E+04  0.7818609E-02  0.8366735E-01
        2   -1    0    0  501    0  0.00000000000E+00  0.00000000000E+00  0.88918663318E+03  0.88918663319E+03  0.25500000920E-02 0. -1.
       -2   -1    0    0    0  501  0.00000000000E+00  0.00000000000E+00 -0.19069362282E+04  0.19069362282E+04  0.25500000920E-02 0.  1.
    10030    2    1    2    0    0  0.00000000000E+00  0.00000000000E+00 -0.10177495950E+04  0.27961228614E+04  0.26043211818E+04 0.  0.
        4    1    3    3  502    0 -0.87506037294E+03  0.96242848397E+03 -0.44426522469E+03  0.13745444503E+04  0.12699999809E+01 0. -1.
       -4    1    3    3    0  502  0.87506037294E+03 -0.96242848397E+03 -0.57348437035E+03  0.14215784111E+04  0.12699999809E+01 0.  1.
</event>
<event>
 5   0  0.1088757E-06  0.2607723E+04  0.7818609E-02  0.8365583E-01
       -1   -1    0    0    0  501  0.00000000000E+00  0.00000000000E+00  0.88114637205E+03  0.88114637206E+03  0.50400001928E-02 0.  1.
        1   -1    0    0  501    0  0.00000000000E+00  0.00000000000E+00 -0.19293671481E+04  0.19293671481E+04  0.50400001928E-02 0. -1.
    10030    2    1    2    0    0  0.00000000000E+00  0.00000000000E+00 -0.10482207761E+04  0.28105135202E+04  0.26077230397E+04 0.  0.
        5    1    3    3  502    0  0.70483303340E+03 -0.60527211213E+03 -0.15100676783E+04  0.17729834793E+04  0.46999998093E+01 0. -1.
       -5    1    3    3    0  502 -0.70483303340E+03  0.60527211213E+03  0.46184690224E+03  0.10375300409E+04  0.46999998093E+01 0.  1.
</event>
<event>
 5   0  0.2820028E-06  0.2602773E+04  0.7818609E-02  0.8367260E-01
       -2   -1    0    0    0  501  0.00000000000E+00  0.00000000000E+00  0.10194708053E+04  0.10194708054E+04  0.25500000920E-02 0.  1.
        2   -1    0    0  501    0  0.00000000000E+00  0.00000000000E+00 -0.16612610041E+04  0.16612610041E+04  0.25500000920E-02 0. -1.
    10030    2    1    2    0    0  0.00000000000E+00  0.00000000000E+00 -0.64179019871E+03  0.26807318094E+04  0.26027732085E+04 0.  0.
        3    1    3    3  502    0 -0.81817383774E+03 -0.94539966375E+03 -0.69284635167E+03  0.14294142263E+04  0.10100000352E+00 0. -1.
       -3    1    3    3    0  502  0.81817383774E+03  0.94539966375E+03  0.51056152960E+02  0.12513175832E+04  0.10100000352E+00 0.  1.
</event>
<event>
 5   0  0.2746631E-06  0.2606345E+04  0.7818609E-02  0.8366049E-01
        2   -1    0    0  501    0  0.00000000000E+00  0.00000000000E+00  0.20989169675E+04  0.20989169675E+04  0.25500000920E-02 0.  1.
       -2   -1    0    0    0  501  0.00000000000E+00  0.00000000000E+00 -0.80911188900E+03  0.80911188900E+03  0.25500000920E-02 0. -1.
    10030    2    1    2    0    0  0.00000000000E+00  0.00000000000E+00  0.12898050785E+04  0.29080288565E+04  0.26063450826E+04 0.  0.
        2    1    3    3  502    0 -0.21002256419E+03 -0.12491039741E+03  0.20731260978E+04  0.20874778806E+04  0.25500000920E-02 0.  1.
       -2    1    3    3    0  502  0.21002256419E+03  0.12491039741E+03 -0.78332101924E+03  0.82055097590E+03  0.25500000920E-02 0. -1.
</event>
<event>
 5   0  0.2586775E-06  0.2588241E+04  0.7818609E-02  0.8372206E-01
        2   -1    0    0  501    0  0.00000000000E+00  0.00000000000E+00  0.23774351258E+04  0.23774351258E+04  0.25500000920E-02 0. -1.
       -2   -1    0    0    0  501  0.00000000000E+00  0.00000000000E+00 -0.70443476186E+03  0.70443476186E+03  0.25500000920E-02 0.  1.
    10030    2    1    2    0    0  0.00000000000E+00  0.00000000000E+00  0.16730003640E+04  0.30818698877E+04  0.25882410604E+04 0.  0.
        1    1    3    3  502    0 -0.62919369252E+03  0.17486927098E+03 -0.49385092593E+03  0.81875069570E+03  0.50400001928E-02 0.  1.
       -1    1    3    3    0  502  0.62919369252E+03 -0.17486927098E+03  0.21668512899E+04  0.22631191920E+04  0.50400001928E-02 0. -1.
</event>
<event>
 5   0  0.1100104E-06  0.2604261E+04  0.7818609E-02  0.8366755E-01
        1   -1    0    0  501    0  0.00000000000E+00  0.00000000000E+00  0.24499024272E+04  0.24499024272E+04  0.50400001928E-02 0.  1.
       -1   -1    0    0    0  501  0.00000000000E+00  0.00000000000E+00 -0.69208641184E+03  0.69208641186E+03  0.50400001928E-02 0. -1.
    10030    2    1    2    0    0  0.00000000000E+00  0.00000000000E+00  0.17578160154E+04  0.31419888391E+04  0.26042612620E+04 0.  0.
        4    1    3    3  502    0  0.54519207880E+03 -0.36457944473E+03 -0.47825584804E+03  0.81171598690E+03  0.12699999809E+01 0. -1.
       -4    1    3    3    0  502 -0.54519207880E+03  0.36457944473E+03  0.22360718634E+04  0.23302728522E+04  0.12699999809E+01 0.  1.
</event>
<event>
 5   0  0.2746631E-06  0.2600281E+04  0.7818609E-02  0.8368106E-01
       -2   -1    0    0    0  501  0.00000000000E+00  0.00000000000E+00  0.16378775686E+04  0.16378775686E+04  0.25500000920E-02 0. -1.
        2   -1    0    0  501    0  0.00000000000E+00  0.00000000000E+00 -0.10320465548E+04  0.10320465548E+04  0.25500000920E-02 0.  1.
    10030    2    1    2    0    0  0.00000000000E+00  0.00000000000E+00  0.60583101371E+03  0.26699241234E+04  0.26002814478E+04 0.  0.
        2    1    3    3  502    0  0.74673867885E+03 -0.83513989440E+03 -0.37451883757E+03  0.11812458074E+04  0.25500000920E-02 0.  1.
       -2    1    3    3    0  502 -0.74673867885E+03  0.83513989440E+03  0.98034985129E+03  0.14886783160E+04  0.25500000920E-02 0. -1.
</event>
<event>
 5   0  0.1055179E-06  0.2605239E+04  0.7818609E-02  0.8366424E-01
        1   -1    0    0  501    0  0.00000000000E+00  0.00000000000E+00  0.23938275622E+04  0.23938275622E+04  0.50400001928E-02 0. -1.
       -1   -1    0    0    0  501  0.00000000000E+00  0.00000000000E+00 -0.70883057384E+03  0.70883057386E+03  0.50400001928E-02 0.  1.
    10030    2    1    2    0    0  0.00000000000E+00  0.00000000000E+00  0.16849969884E+04  0.31026581361E+04  0.26052394628E+04 0.  0.
        3    1    3    3  502    0  0.59910926579E+03 -0.70598895716E+03  0.19336568696E+04  0.21439172604E+04  0.10100000352E+00 0. -1.
       -3    1    3    3    0  502 -0.59910926579E+03  0.70598895716E+03 -0.24865988119E+03  0.95874087568E+03  0.10100000352E+00 0.  1.
</event>
<event>
 5   0  0.1100104E-06  0.2600274E+04  0.7818609E-02  0.8368108E-01
        1   -1    0    0  501    0  0.00000000000E+00  0.00000000000E+00  0.14716838025E+04  0.14716838025E+04  0.50400001928E-02 0.  1.
       -1   -1    0    0    0  501  0.00000000000E+00  0.00000000000E+00 -0.11485863560E+04  0.11485863560E+04  0.50400001928E-02 0. -1.
    10030    2    1    2    0    0  0.00000000000E+00  0.00000000000E+00  0.32309744644E+03  0.26202701585E+04  0.26002737825E+04 0.  0.
        4    1    3    3  502    0 -0.81035230727E+03  0.36319001838E+03  0.11184705124E+04  0.14281301591E+04  0.12699999809E+01 0.  1.
       -4    1    3    3    0  502  0.81035230727E+03 -0.36319001838E+03 -0.79537306593E+03  0.11921399994E+04  0.12699999809E+01 0. -1.
</event>
<event>
 5   0  0.1122628E-06  0.2589404E+04  0.7818609E-02  0.8371809E-01
        1   -1    0    0  501    0  0.00000000000E+00  0.00000000000E+00  0.11078126771E+04  0.11078126771E+04  0.50400001928E-02 0.  1.
       -1   -1    0    0    0  501  0.00000000000E+00  0.00000000000E+00 -0.15131192548E+04  0.15131192548E+04  0.50400001928E-02 0. -1.
    10030    2    1    2    0    0  0.00000000000E+00  0.00000000000E+00 -0.40530657773E+03  0.26209319319E+04  0.25894035549E+04 0.  0.
        2    1    3    3  502    0  0.12469939698E+04  0.29114360463E+01  0.14979656338E+03  0.12559623592E+04  0.25500000920E-02 0. -1.
       -2    1    3    3    0  502 -0.12469939698E+04 -0.29114360463E+01 -0.55510314111E+03  0.13649695728E+04  0.25500000920E-02 0.  1.
</event>
<event>
 5   0  0.1088757E-06  0.2599268E+04  0.7818609E-02  0.8368450E-01
       -1   -1    0    0    0  501  0.00000000000E+00  0.00000000000E+00  0.17977823033E+04  0.17977823033E+04  0.50400001928E-02 0. -1.
        1   -1    0    0  501    0  0.00000000000E+00  0.00000000000E+00 -0.93951798199E+03  0.93951798200E+03  0.50400001928E-02 0.  1.
    10030    2    1    2    0    0  0.00000000000E+00  0.00000000000E+00  0.85826432135E+03  0.27373002853E+04  0.25992682060E+04 0.  0.
        5    1    3    3  502    0  0.11477789414E+04 -0.46928798081E+03  0.19369050210E+02  0.12401713419E+04  0.46999998093E+01 0.  1.
       -5    1    3    3    0  502 -0.11477789414E+04  0.46928798081E+03  0.83889527114E+03  0.14971289434E+04  0.46999998093E+01 0. -1.
</event>
<event>
 5   0  0.2586775E-06  0.2670539E+04  0.7818609E-02  0.8344628E-01
       -2   -1    0    0    0  501  0.00000000000E+00  0.00000000000E+00  0.98517294455E+03  0.98517294455E+03  0.25500000920E-02 0. -1.
        2   -1    0    0  501    0  0.00000000000E+00  0.00000000000E+00 -0.18097783766E+04  0.18097783766E+04  0.25500000920E-02 0.  1.
    10030    2    1    2    0    0  0.00000000000E+00  0.00000000000E+00 -0.82460543204E+03  0.27949513211E+04  0.26705390409E+04 0.  0.
        1    1    3    3  502    0 -0.39809046438E+03 -0.75429188712E+03 -0.14875466264E+04  0.17147090816E+04  0.50400001928E-02 0.  1.
       -1    1    3    3    0  502  0.39809046438E+03  0.75429188712E+03  0.66294119438E+03  0.10802422395E+04  0.50400001928E-02 0. -1.
</event>
<event>
 5   0  0.2705807E-06  0.2602604E+04  0.7818609E-02  0.8367317E-01
        2   -1    0    0  501    0  0.00000000000E+00  0.00000000000E+00  0.14602553238E+04  0.14602553238E+04  0.25500000920E-02 0.  1.
       -2   -1    0    0    0  501  0.00000000000E+00  0.00000000000E+00 -0.11596508669E+04  0.11596508669E+04  0.25500000920E-02 0. -1.
    10030    2    1    2    0    0  0.00000000000E+00  0.00000000000E+00  0.30060445685E+03  0.26199061907E+04  0.26026035827E+04 0.  0.
        4    1    3    3  502    0 -0.11754161968E+03  0.10242992592E+04 -0.64894076796E+03  0.12182490459E+04  0.12699999809E+01 0. -1.
       -4    1    3    3    0  502  0.11754161968E+03 -0.10242992592E+04  0.94954522481E+03  0.14016571448E+04  0.12699999809E+01 0.  1.
</event>
<event>
 5   0  0.2820028E-06  0.2598814E+04  0.7818609E-02  0.8368604E-01
        2   -1    0    0  501    0  0.00000000000E+00  0.00000000000E+00  0.27985745253E+04  0.27985745253E+04  0.25500000920E-02 0.  1.
       -2   -1    0    0    0  501  0.00000000000E+00  0.00000000000E+00 -0.60332787146E+03  0.60332787147E+03  0.25500000920E-02 0. -1.
    10030    2    1    2    0    0  0.00000000000E+00  0.00000000000E+00  0.21952466539E+04  0.34019023968E+04  0.25988135843E+04 0.  0.
        3    1    3    3  502    0 -0.68703370656E+02  0.46153528022E+03  0.26851176029E+04  0.27253608054E+04  0.10100000352E+00 0.  1.
       -3    1    3    3    0  502  0.68703370656E+02 -0.46153528022E+03 -0.48987094901E+03  0.67654159141E+03  0.10100000352E+00 0. -1.
</event>
<event>
 5   0  0.1122628E-06  0.2612220E+04  0.7818609E-02  0.8364062E-01
        1   -1    0    0  501    0  0.00000000000E+00  0.00000000000E+00  0.24069085200E+04  0.24069085200E+04  0.50400001928E-02 0.  1.
       -1   -1    0    0    0  501  0.00000000000E+00  0.00000000000E+00 -0.70876093324E+03  0.70876093325E+03  0.50400001928E-02 0. -1.
    10030    2    1    2    0    0  0.00000000000E+00  0.00000000000E+00  0.16981475867E+04  0.31156694532E+04  0.26122195381E+04 0.  0.
        2    1    3    3  502    0  0.19936009453E+03  0.17469993543E+03  0.23744886872E+04  0.23892385901E+04  0.25500000920E-02 0.  1.
       -2    1    3    3    0  502 -0.19936009453E+03 -0.17469993543E+03 -0.67634110047E+03  0.72643086314E+03  0.25500000920E-02 0. -1.
</event>
<event>
 5   0  0.9197000E-07  0.2598385E+04  0.7818609E-02  0.8368750E-01
        4   -1    0    0  501    0  0.00000000000E+00  0.00000000000E+00  0.73073430720E+03  0.73073541082E+03  0.12699999809E+01 0. -1.
       -4   -1    0    0    0  501  0.00000000000E+00  0.00000000000E+00 -0.23098660320E+04  0.23098663812E+04  0.12699999809E+01 0.  1.
    10030    2    1    2    0    0  0.00000000000E+00  0.00000000000E+00 -0.15791317248E+04  0.30406017920E+04  0.25983845468E+04 0.  0.
        5    1    3    3  502    0  0.16171878880E+03  0.12044868626E+04 -0.13270088573E+04  0.17994210641E+04  0.46999998093E+01 0.  1.
       -5    1    3    3    0  502 -0.16171878880E+03 -0.12044868626E+04 -0.25212286754E+03  0.12411807278E+04  0.46999998093E+01 0. -1.
</event>
<event>
 5   0  0.9197000E-07  0.2603397E+04  0.7818609E-02  0.8367048E-01
        3   -1    0    0  501    0  0.00000000000E+00  0.00000000000E+00  0.17170171253E+04  0.17170171283E+04  0.10100000352E+00 0.  1.
       -3   -1    0    0    0  501  0.00000000000E+00  0.00000000000E+00 -0.98683860445E+03  0.98683860962E+03  0.10100000352E+00 0. -1.
    10030    2    1    2    0    0  0.00000000000E+00  0.00000000000E+00  0.73017852087E+03  0.27038557379E+04  0.26033968539E+04 0.  0.
        4    1    3    3  502    0  0.53792245292E+03 -0.15453278253E+03  0.15856733074E+04  0.16815476196E+04  0.12699999809E+01 0.  1.
       -4    1    3    3    0  502 -0.53792245292E+03  0.15453278253E+03 -0.85549478650E+03  0.10223081184E+04  0.12699999809E+01 0. -1.
</event>
<event>
 5   0  0.1088757E-06  0.2600519E+04  0.7818609E-02  0.8368025E-01
       -1   -1    0    0    0  501  0.00000000000E+00  0.00000000000E+00  0.83245288280E+03  0.83245288282E+03  0.50400001928E-02 0. -1.
        1   -1    0    0  501    0  0.00000000000E+00  0.00000000000E+00 -0.20309562077E+04  0.20309562077E+04  0.50400001928E-02 0.  1.
    10030    2    1    2    0    0  0.00000000000E+00  0.00000000000E+00 -0.11985033249E+04  0.28634090905E+04  0.26005194481E+04 0.  0.
        5    1    3    3  502    0 -0.94374956111E+02 -0.57749763314E+03 -0.18777712864E+04  0.19668394044E+04  0.46999998093E+01 0.  1.
       -5    1    3    3    0  502  0.94374956111E+02  0.57749763314E+03  0.67926796149E+03  0.89656968615E+03  0.46999998093E+01 0. -1.
</event>
<event>
 5   0  0.1100104E-06  0.2609242E+04  0.7818609E-02  0.8365069E-01
        1   -1    0    0  501    0  0.00000000000E+00  0.00000000000E+00  0.17028567582E+04  0.17028567582E+04  0.50400001928E-02 0. -1.
       -1   -1    0    0    0  501  0.00000000000E+00  0.00000000000E+00 -0.99951834612E+03  0.99951834613E+03  0.50400001928E-02 0.  1.
    10030    2    1    2    0    0  0.00000000000E+00  0.00000000000E+00  0.70333841210E+03  0.27023751044E+04  0.26092424730E+04 0.  0.
        4    1    3    3  502    0 -0.51858067361E+03 -0.11882625293E+04  0.50225917766E+03  0.13903811161E+04  0.12699999809E+01 0.  1.
       -4    1    3    3    0  502  0.51858067361E+03  0.11882625293E+04  0.20107923444E+03  0.13119939882E+04  0.12699999809E+01 0. -1.
</event>
<event>
 5   0  0.1032076E-06  0.2613677E+04  0.7818609E-02  0.8363570E-01
        1   -1    0    0  501    0  0.00000000000E+00  0.00000000000E+00  0.13091975714E+04  0.13091975714E+04  0.50400001928E-02 0. -1.
       -1   -1    0    0    0  501  0.00000000000E+00  0.00000000000E+00 -0.13044841096E+04  0.13044841096E+04  0.50400001928E-02 0.  1.
    10030    2    1    2    0    0  0.00000000000E+00  0.00000000000E+00  0.47134617441E+01  0.26136816810E+04  0.26136774309E+04 0.  0.
        1    1    3    3  502    0 -0.91576348422E+03  0.72706671157E+02  0.93183035543E+03  0.13085170348E+04  0.50400001928E-02 0. -1.
       -1    1    3    3    0  502  0.91576348422E+03 -0.72706671157E+02 -0.92711689368E+03  0.13051646462E+04  0.50400001928E-02 0.  1.
</event>
<event>
 5   0  0.2705807E-06  0.2606059E+04  0.7818609E-02  0.8366146E-01
        2   -1    0    0  501    0  0.00000000000E+00  0.00000000000E+00  0.13920910130E+04  0.13920910130E+04  0.25500000920E-02 0. -1.
       -2   -1    0    0    0  501  0.00000000000E+00  0.00000000000E+00 -0.12196655983E+04  0.12196655983E+04  0.25500000920E-02 0.  1.
    10030    2    1    2    0    0  0.00000000000E+00  0.00000000000E+00  0.17242541465E+03  0.26117566113E+04  0.26060587240E+04 0.  0.
        4    1    3    3  502    0  0.11305644336E+04  0.30510290463E+03  0.65896919202E+03  0.13436910842E+04  0.12699999809E+01 0. -1.
       -4    1    3    3    0  502 -0.11305644336E+04 -0.30510290463E+03 -0.48654377736E+03  0.12680655271E+04  0.12699999809E+01 0.  1.
</event>
<event>
 5   0  0.2623368E-06  0.2579507E+04  0.7818609E-02  0.8375196E-01
       -2   -1    0    0    0  501  0.00000000000E+00  0.00000000000E+00  0.11663806882E+04  0.11663806882E+04  0.25500000920E-02 0. -1.
        2   -1    0    0  501    0  0.00000000000E+00  0.00000000000E+00 -0.14261758916E+04  0.14261758916E+04  0.25500000920E-02 0.  1.
    10030    2    1    2    0    0  0.00000000000E+00  0.00000000000E+00 -0.25979520342E+03  0.25925565798E+04  0.25795069435E+04 0.  0.
        5    1    3    3  502    0 -0.11387708987E+04  0.20675369787E+03  0.44209988085E+03  0.12389595014E+04  0.46999998093E+01 0. -1.
       -5    1    3    3    0  502  0.11387708987E+04 -0.20675369787E+03 -0.70189508427E+03  0.13535970784E+04  0.46999998093E+01 0.  1.
</event>
<event>
 5   0  0.1088757E-06  0.2594277E+04  0.7818609E-02  0.8370148E-01
        1   -1    0    0  501    0  0.00000000000E+00  0.00000000000E+00  0.16341491148E+04  0.16341491148E+04  0.50400001928E-02 0. -1.
       -1   -1    0    0    0  501  0.00000000000E+00  0.00000000000E+00 -0.10296293908E+04  0.10296293908E+04  0.50400001928E-02 0.  1.
    10030    2    1    2    0    0  0.00000000000E+00  0.00000000000E+00  0.60451972405E+03  0.26637785056E+04  0.25942767451E+04 0.  0.
        5    1    3    3  502    0 -0.73563037042E+03 -0.59468103253E+03  0.12135896029E+04  0.15387070503E+04  0.46999998093E+01 0. -1.
       -5    1    3    3    0  502  0.73563037042E+03  0.59468103253E+03 -0.60906987885E+03  0.11250714554E+04  0.46999998093E+01 0.  1.
</event>
<event>
 5   0  0.2586775E-06  0.2595051E+04  0.7818609E-02  0.8369884E-01
       -2   -1    0    0    0  501  0.00000000000E+00  0.00000000000E+00  0.18659094636E+04  0.18659094636E+04  0.25500000920E-02 0.  1.
        2   -1    0    0  501    0  0.00000000000E+00  0.00000000000E+00 -0.90227975630E+03  0.90227975630E+03  0.25500000920E-02 0. -1.
    10030    2    1    2    0    0  0.00000000000E+00  0.00000000000E+00  0.96362970734E+03  0.27681892199E+04  0.25950509329E+04 0.  0.
        1    1    3    3  502    0  0.94955310860E+03  0.83731264289E+03  0.78508723877E+03  0.14896662514E+04  0.50400001928E-02 0.  1.
       -1    1    3    3    0  502 -0.94955310860E+03 -0.83731264289E+03  0.17854246857E+03  0.12785229686E+04  0.50400001928E-02 0. -1.
</event>
<event>
 5   0  0.2746631E-06  0.2601384E+04  0.7818609E-02  0.8367731E-01
        2   -1    0    0  501    0  0.00000000000E+00  0.00000000000E+00  0.13740949738E+04  0.13740949738E+04  0.25500000920E-02 0. -1.
       -2   -1    0    0    0  501  0.00000000000E+00  0.00000000000E+00 -0.12312105670E+04  0.12312105670E+04  0.25500000920E-02 0.  1.
    10030    2    1    2    0    0  0.00000000000E+00  0.00000000000E+00  0.14288440676E+03  0.26053055408E+04  0.26013844405E+04 0.  0.
        2    1    3    3  502    0  0.82950128693E+03  0.70701847267E+03  0.78233798920E+03  0.13416408741E+04  0.25500000920E-02 0. -1.
       -2    1    3    3    0  502 -0.82950128693E+03 -0.70701847267E+03 -0.63945358244E+03  0.12636646667E+04  0.25500000920E-02 0.  1.
</event>
<event>
 5   0  0.2746631E-06  0.2602907E+04  0.7818609E-02  0.8367215E-01
       -2   -1    0    0    0  501  0.00000000000E+00  0.00000000000E+00  0.73401576141E+03  0.73401576141E+03  0.25500000920E-02 0. -1.
        2   -1    0    0  501    0  0.00000000000E+00  0.00000000000E+00 -0.23075537047E+04  0.23075537047E+04  0.25500000920E-02 0.  1.
    10030    2    1    2    0    0  0.00000000000E+00  0.00000000000E+00 -0.15735379433E+04  0.30415694661E+04  0.26029066749E+04 0.  0.
        2    1    3    3  502    0  0.54631548412E+03  0.37230027881E+03 -0.20967262788E+04  0.21984833850E+04  0.25500000920E-02 0.  1.
       -2    1    3    3    0  502 -0.54631548412E+03 -0.37230027881E+03  0.52318833551E+03  0.84308608114E+03  0.25500000920E-02 0. -1.
</event>
<event>
 5   0  0.1100104E-06  0.2601340E+04  0.7818609E-02  0.8367746E-01
        1   -1    0    0  501    0  0.00000000000E+00  0.00000000000E+00  0.18839026625E+04  0.18839026625E+04  0.50400001928E-02 0. -1.
       -1   -1    0    0    0  501  0.00000000000E+00  0.00000000000E+00 -0.89799884977E+03  0.89799884979E+03  0.50400001928E-02 0.  1.
    10030    2    1    2    0    0  0.00000000000E+00  0.00000000000E+00  0.98590381272E+03  0.27819015123E+04  0.26013399809E+04 0.  0.
        4    1    3    3  502    0  0.74384858932E+03  0.22959889473E+03  0.16072527023E+04  0.17858581238E+04  0.12699999809E+01 0. -1.
       -4    1    3    3    0  502 -0.74384858932E+03 -0.22959889473E+03 -0.62134888959E+03  0.99604338851E+03  0.12699999809E+01 0.  1.
</event>
<event>
 5   0  0.1032076E-06  0.2601682E+04  0.7818609E-02  0.8367630E-01
       -1   -1    0    0    0  501  0.00000000000E+00  0.00000000000E+00  0.11377279486E+04  0.11377279486E+04  0.50400001928E-02 0.  1.
        1   -1    0    0  501    0  0.00000000000E+00  0.00000000000E+00 -0.14873388198E+04  0.14873388198E+04  0.50400001928E-02 0. -1.
    10030    2    1    2    0    0  0.00000000000E+00  0.00000000000E+00 -0.34961087122E+03  0.26250667684E+04  0.26016817210E+04 0.  0.
        1    1    3    3  502    0 -0.17921135791E+03 -0.21084788439E+03  0.11076872951E+04  0.11417288141E+04  0.50400001928E-02 0.  1.
       -1    1    3    3    0  502  0.17921135791E+03  0.21084788439E+03 -0.14572981663E+04  0.14833379543E+04  0.50400001928E-02 0. -1.
</event>
<event>
 5   0  0.2623368E-06  0.2599137E+04  0.7818609E-02  0.8368494E-01
       -2   -1    0    0    0  501  0.00000000000E+00  0.00000000000E+00  0.10907486367E+04  0.10907486367E+04  0.25500000920E-02 0. -1.
        2   -1    0    0  501    0  0.00000000000E+00  0.00000000000E+00 -0.15483666950E+04  0.15483666950E+04  0.25500000920E-02 0.  1.
    10030    2    1    2    0    0  0.00000000000E+00  0.00000000000E+00 -0.45761805834E+03  0.26391153317E+04  0.25991374428E+04 0.  0.
        5    1    3    3  502    0  0.85981790798E+03 -0.58906093441E+03 -0.10170072575E+04  0.14562298827E+04  0.46999998093E+01 0.  1.
       -5    1    3    3    0  502 -0.85981790798E+03  0.58906093441E+03  0.55938919916E+03  0.11828854490E+04  0.46999998093E+01 0. -1.
</event>
<event>
 5   0  0.1088757E-06  0.2589917E+04  0.7818609E-02  0.8371634E-01
        1   -1    0    0  501    0  0.00000000000E+00  0.00000000000E+00  0.12675137994E+04  0.12675137994E+04  0.50400001928E-02 0. -1.
       -1   -1    0    0    0  501  0.00000000000E+00  0.00000000000E+00 -0.13229972669E+04  0.13229972669E+04  0.50400001928E-02 0.  1.
    10030    2    1    2    0    0  0.00000000000E+00  0.00000000000E+00 -0.55483467514E+02  0.25905110663E+04  0.25899168267E+04 0.  0.
        5    1    3    3  502    0  0.74144520612E+03  0.28350904935E+03  0.99561413540E+03  0.12733373360E+04  0.46999998093E+01 0. -1.
       -5    1    3    3    0  502 -0.74144520612E+03 -0.28350904935E+03 -0.10510976029E+04  0.13171737302E+04  0.46999998093E+01 0.  1.
</event>
<event>
 5   0  0.2746631E-06  0.2603812E+04  0.7818609E-02  0.8366907E-01
       -2   -1    0    0    0  501  0.00000000000E+00  0.00000000000E+00  0.17430946259E+04  0.17430946259E+04  0.25500000920E-02 0. -1.
        2   -1    0    0  501    0  0.00000000000E+00  0.00000000000E+00 -0.97238539549E+03  0.97238539550E+03  0.25500000920E-02 0.  1.
    10030    2    1    2    0    0  0.00000000000E+00  0.00000000000E+00  0.77070923039E+03  0.27154800214E+04  0.26038124027E+04 0.  0.
        2    1    3    3  502    0 -0.57290321072E+02  0.73961030425E+03  0.15011230441E+04  0.16744181009E+04  0.25500000920E-02 0. -1.
       -2    1    3    3    0  502  0.57290321072E+02 -0.73961030425E+03 -0.73041381371E+03  0.10410619205E+04  0.25500000920E-02 0.  1.
</event>
<event>
 5   0  0.2705807E-06  0.2602812E+04  0.7818609E-02  0.8367247E-01
        2   -1    0    0  501    0  0.00000000000E+00  0.00000000000E+00  0.90099165474E+03  0.90099165475E+03  0.25500000920E-02 0.  1.
       -2   -1    0    0    0  501  0.00000000000E+00  0.00000000000E+00 -0.18797703999E+04  0.18797704000E+04  0.25500000920E-02 0. -1.
    10030    2    1    2    0    0  0.00000000000E+00  0.00000000000E+00 -0.97877874521E+03  0.27807620547E+04  0.26028118973E+04 0.  0.
        4    1    3    3  502    0  0.31321572147E+03 -0.59453386147E+03 -0.16800720758E+04  0.18094801445E+04  0.12699999809E+01 0. -1.
       -4    1    3    3    0  502 -0.31321572147E+03  0.59453386147E+03  0.70129333060E+03  0.97128191018E+03  0.12699999809E+01 0.  1.
</event>
<event>
 5   0  0.1100104E-06  0.2603285E+04  0.7818609E-02  0.8367086E-01
       -1   -1    0    0    0  501  0.00000000000E+00  0.00000000000E+00  0.14441521006E+04  0.14441521006E+04  0.50400001928E-02 0. -1.
        1   -1    0    0  501    0  0.00000000000E+00  0.00000000000E+00 -0.11731957102E+04  0.11731957102E+04  0.50400001928E-02 0.  1.
    10030    2    1    2    0    0  0.00000000000E+00  0.00000000000E+00  0.27095639042E+03  0.26173478109E+04  0.26032848860E+04 0.  0.
        4    1    3    3  502    0 -0.16776433493E+03  0.10747745473E+04  0.85417273092E+03  0.13830755101E+04  0.12699999809E+01 0. -1.
       -4    1    3    3    0  502  0.16776433493E+03 -0.10747745473E+04 -0.58321634049E+03  0.12342723007E+04  0.12699999809E+01 0.  1.
</event>
<event>
 5   0  0.2623368E-06  0.2603796E+04  0.7818609E-02  0.8366913E-01
       -2   -1    0    0    0  501  0.00000000000E+00  0.00000000000E+00  0.10816753768E+04  0.10816753768E+04  0.25500000920E-02 0. -1.
        2   -1    0    0  501    0  0.00000000000E+00  0.00000000000E+00 -0.15669562006E+04  0.15669562006E+04  0.25500000920E-02 0.  1.
    10030    2    1    2    0    0  0.00000000000E+00  0.00000000000E+00 -0.48528082377E+03  0.26486315774E+04  0.26037956438E+04 0.  0.
        5    1    3    3  502    0 -0.97459317741E+03  0.20848345225E+03  0.60940985105E+03  0.11682036072E+04  0.46999998093E+01 0. -1.
       -5    1    3    3    0  502  0.97459317741E+03 -0.20848345225E+03 -0.10946906748E+04  0.14804279702E+04  0.46999998093E+01 0.  1.
</event>
<event>
 5   0  0.2820028E-06  0.2596502E+04  0.7818609E-02  0.8369390E-01
       -2   -1    0    0    0  501  0.00000000000E+00  0.00000000000E+00  0.92185274373E+03  0.92185274374E+03  0.25500000920E-02 0. -1.
        2   -1    0    0  501    0  0.00000000000E+00  0.00000000000E+00 -0.18283345085E+04  0.18283345085E+04  0.25500000920E-02 0.  1.
    10030    2    1    2    0    0  0.00000000000E+00  0.00000000000E+00 -0.90648176472E+03  0.27501872522E+04  0.25965016334E+04 0.  0.
        3    1    3    3  502    0 -0.11254154180E+04  0.41434719967E+03  0.73392254266E+02  0.12015115056E+04  0.10100000352E+00 0. -1.
       -3    1    3    3    0  502  0.11254154180E+04 -0.41434719967E+03 -0.97987401898E+03  0.15486757466E+04  0.10100000352E+00 0.  1.
</event>
<event>
 5   0  0.2705807E-06  0.2602950E+04  0.7818609E-02  0.8367200E-01
        2   -1    0    0  501    0  0.00000000000E+00  0.00000000000E+00  0.11146502316E+04  0.11146502316E+04  0.25500000920E-02 0.  1.
       -2   -1    0    0    0  501  0.00000000000E+00  0.00000000000E+00 -0.15196130200E+04  0.15196130200E+04  0.25500000920E-02 0. -1.
    10030    2    1    2    0    0  0.00000000000E+00  0.00000000000E+00 -0.40496278843E+03  0.26342632515E+04  0.26029498686E+04 0.  0.
        4    1    3    3  502    0  0.34852344050E+03  0.11001904456E+04 -0.81133983627E+03  0.14107308560E+04  0.12699999809E+01 0. -1.
       -4    1    3    3    0  502 -0.34852344050E+03 -0.11001904456E+04  0.40637704784E+03  0.12235323956E+04  0.12699999809E+01 0.  1.
</event>
<event>
 5   0  0.1122628E-06  0.2599337E+04  0.7818609E-02  0.8368426E-01
       -1   -1    0    0    0  501  0.00000000000E+00  0.00000000000E+00  0.14181470875E+04  0.14181470875E+04  0.50400001928E-02 0. -1.
        1   -1    0    0  501    0  0.00000000000E+00  0.00000000000E+00 -0.11910885340E+04  0.11910885340E+04  0.50400001928E-02 0.  1.
    10030    2    1    2    0    0  0.00000000000E+00  0.00000000000E+00  0.22705855344E+03  0.26092356215E+04  0.25993374044E+04 0.  0.
        2    1    3    3  502    0 -0.10678729423E+04  0.35203885765E+03  0.76782018464E+03  0.13615549252E+04  0.25500000920E-02 0.  1.
       -2    1    3    3    0  502  0.10678729423E+04 -0.35203885765E+03 -0.54076163119E+03  0.12476806963E+04  0.25500000920E-02 0. -1.
</event>
<event>
 5   0  0.2820028E-06  0.2600456E+04  0.7818609E-02  0.8368046E-01
        2   -1    0    0  501    0  0.00000000000E+00  0.00000000000E+00  0.17767004103E+04  0.17767004103E+04  0.25500000920E-02 0. -1.
       -2   -1    0    0    0  501  0.00000000000E+00  0.00000000000E+00 -0.95153547613E+03  0.95153547614E+03  0.25500000920E-02 0.  1.
    10030    2    1    2    0    0  0.00000000000E+00  0.00000000000E+00  0.82516493419E+03  0.27282358865E+04  0.26004564760E+04 0.  0.
        3    1    3    3  502    0 -0.53906555526E+03 -0.59797431004E+03  0.14837452347E+04  0.16880950447E+04  0.10100000352E+00 0. -1.
       -3    1    3    3    0  502  0.53906555526E+03  0.59797431004E+03 -0.65858030048E+03  0.10401408418E+04  0.10100000352E+00 0.  1.
</event>
<event>
 5   0  0.1055179E-06  0.2617549E+04  0.7818609E-02  0.8362264E-01
        1   -1    0    0  501    0  0.00000000000E+00  0.00000000000E+00  0.12025031826E+04  0.12025031827E+04  0.50400001928E-02 0.  1.
       -1   -1    0    0    0  501  0.00000000000E+00  0.00000000000E+00 -0.14244379229E+04  0.14244379229E+04  0.50400001928E-02 0. -1.
    10030    2    1    2    0    0  0.00000000000E+00  0.00000000000E+00 -0.22193474026E+03  0.26269411056E+04  0.26175493392E+04 0.  0.
        3    1    3    3  502    0 -0.40772160182E+03 -0.51275833342E+03  0.10261173704E+04  0.12174049783E+04  0.10100000352E+00 0.  1.
       -3    1    3    3    0  502  0.40772160182E+03  0.51275833342E+03 -0.12480521106E+04  0.14095361273E+04  0.10100000352E+00 0. -1.
</event>
<event>
 5   0  0.2705807E-06  0.2597426E+04  0.7818609E-02  0.8369076E-01
       -2   -1    0    0    0  501  0.00000000000E+00  0.00000000000E+00  0.19185658035E+04  0.19185658035E+04  0.25500000920E-02 0.  1.
        2   -1    0    0  501    0  0.00000000000E+00  0.00000000000E+00 -0.87912280359E+03  0.87912280359E+03  0.25500000920E-02 0. -1.
    10030    2    1    2    0    0  0.00000000000E+00  0.00000000000E+00  0.10394429999E+04  0.27976886071E+04  0.25974256086E+04 0.  0.
        4    1    3    3  502    0  0.31165225327E+03 -0.48361463272E+03 -0.73436917755E+03  0.93290403675E+03  0.12699999809E+01 0. -1.
       -4    1    3    3    0  502 -0.31165225327E+03  0.48361463272E+03  0.17738121775E+04  0.18647845703E+04  0.12699999809E+01 0.  1.
</event>
<event>
 5   0  0.1032076E-06  0.2587592E+04  0.7818609E-02  0.8372428E-01
       -1   -1    0    0    0  501  0.00000000000E+00  0.00000000000E+00  0.84593513312E+03  0.84593513313E+03  0.50400001928E-02 0.  1.
        1   -1    0    0  501    0  0.00000000000E+00  0.00000000000E+00 -0.19787664848E+04  0.19787664848E+04  0.50400001928E-02 0. -1.
    10030    2    1    2    0    0  0.00000000000E+00  0.00000000000E+00 -0.11328313517E+04  0.28247016179E+04  0.25875920001E+04 0.  0.
        1    1    3    3  502    0  0.52679691113E+03 -0.10814188385E+04 -0.10864347701E+04  0.16209016625E+04  0.50400001928E-02 0. -1.
       -1    1    3    3    0  502 -0.52679691113E+03  0.10814188385E+04 -0.46396581557E+02  0.12037999554E+04  0.50400001928E-02 0.  1.
</event>
<event>
 5   0  0.2623368E-06  0.2600716E+04  0.7818609E-02  0.8367958E-01
       -2   -1    0    0    0  501  0.00000000000E+00  0.00000000000E+00  0.74744924186E+03  0.74744924187E+03  0.25500000920E-02 0.  1.
        2   -1    0    0  501    0  0.00000000000E+00  0.00000000000E+00 -0.22622685705E+04  0.22622685705E+04  0.25500000920E-02 0. -1.
    10030    2    1    2    0    0  0.00000000000E+00  0.00000000000E+00 -0.15148193286E+04  0.30097178124E+04  0.26007159998E+04 0.  0.
        5    1    3    3  502    0 -0.96655571311E+03  0.28935718862E+03  0.19193665317E+03  0.10270439611E+04  0.46999998093E+01 0.  1.
       -5    1    3    3    0  502  0.96655571311E+03 -0.28935718862E+03 -0.17067559818E+04  0.19826738513E+04  0.46999998093E+01 0. -1.
</event>
<event>
 5   0  0.1088757E-06  0.2600818E+04  0.7818609E-02  0.8367923E-01
        1   -1    0    0  501    0  0.00000000000E+00  0.00000000000E+00  0.14142234785E+04  0.14142234785E+04  0.50400001928E-02 0. -1.
       -1   -1    0    0    0  501  0.00000000000E+00  0.00000000000E+00 -0.11957542056E+04  0.11957542057E+04  0.50400001928E-02 0.  1.
    10030    2    1    2    0    0  0.00000000000E+00  0.00000000000E+00  0.21846927288E+03  0.26099776842E+04  0.26008180807E+04 0.  0.
        5    1    3    3  502    0 -0.10185912441E+04 -0.75962867124E+03  0.38675467381E+03  0.13282187728E+04  0.46999998093E+01 0. -1.
       -5    1    3    3    0  502  0.10185912441E+04  0.75962867124E+03 -0.16828540092E+03  0.12817589114E+04  0.46999998093E+01 0.  1.
</event>
<event>
 5   0  0.1088757E-06  0.2622799E+04  0.7818609E-02  0.8360498E-01
       -1   -1    0    0    0  501  0.00000000000E+00  0.00000000000E+00  0.22914745686E+04  0.22914745686E+04  0.50400001928E-02 0. -1.
        1   -1    0    0  501    0  0.00000000000E+00  0.00000000000E+00 -0.75050722239E+03  0.75050722240E+03  0.50400001928E-02 0.  1.
    10030    2    1    2    0    0  0.00000000000E+00  0.00000000000E+00  0.15409673462E+04  0.30419817910E+04  0.26227986683E+04 0.  0.
        5    1    3    3  502    0 -0.79429341506E+03  0.99858364341E+03  0.11216530564E+04  0.16988816883E+04  0.46999998093E+01 0.  1.
       -5    1    3    3    0  502  0.79429341506E+03 -0.99858364341E+03  0.41931428983E+03  0.13431001027E+04  0.46999998093E+01 0. -1.
</event>
<event>
 5   0  0.2623368E-06  0.2595267E+04  0.7818609E-02  0.8369811E-01
       -2   -1    0    0    0  501  0.00000000000E+00  0.00000000000E+00  0.13650742525E+04  0.13650742525E+04  0.25500000920E-02 0.  1.
        2   -1    0    0  501    0  0.00000000000E+00  0.00000000000E+00 -0.12335243721E+04  0.12335243721E+04  0.25500000920E-02 0. -1.
    10030    2    1    2    0    0  0.00000000000E+00  0.00000000000E+00  0.13154988039E+03  0.25985986246E+04  0.25952667379E+04 0.  0.
        5    1    3    3  502    0  0.25865481885E+03 -0.62464413094E+03 -0.10432334288E+04  0.12431575454E+04  0.46999998093E+01 0. -1.
       -5    1    3    3    0  502 -0.25865481885E+03  0.62464413094E+03  0.11747833092E+04  0.13554410792E+04  0.46999998093E+01 0.  1.
</event>
<event>
 5   0  0.1100104E-06  0.2656683E+04  0.7818609E-02  0.8349198E-01
       -1   -1    0    0    0  501  0.00000000000E+00  0.00000000000E+00  0.84589315300E+03  0.84589315302E+03  0.50400001928E-02 0.  1.
        1   -1    0    0  501    0  0.00000000000E+00  0.00000000000E+00 -0.20859499976E+04  0.20859499976E+04  0.50400001928E-02 0. -1.
    10030    2    1    2    0    0  0.00000000000E+00  0.00000000000E+00 -0.12400568446E+04  0.29318431506E+04  0.26566827590E+04 0.  0.
        4    1    3    3  502    0 -0.58185484363E+03 -0.68351367445E+03 -0.17005966276E+04  0.19229603493E+04  0.12699999809E+01 0. -1.
       -4    1    3    3    0  502  0.58185484363E+03  0.68351367445E+03  0.46053978300E+03  0.10088828013E+04  0.12699999809E+01 0.  1.
</event>
<event>
 5   0  0.1100104E-06  0.2594331E+04  0.7818609E-02  0.8370129E-01
       -1   -1    0    0    0  501  0.00000000000E+00  0.00000000000E+00  0.65311809490E+03  0.65311809492E+03  0.50400001928E-02 0.  1.
        1   -1    0    0  501    0  0.00000000000E+00  0.00000000000E+00 -0.25763150685E+04  0.25763150685E+04  0.50400001928E-02 0. -1.
    10030    2    1    2    0    0  0.00000000000E+00  0.00000000000E+00 -0.19231969736E+04  0.32294331634E+04  0.25943307341E+04 0.  0.
        4    1    3    3  502    0  0.66205627105E+03 -0.51887376376E+03 -0.21907993062E+04  0.23467321325E+04  0.12699999809E+01 0. -1.
       -4    1    3    3    0  502 -0.66205627105E+03  0.51887376376E+03  0.26760233258E+03  0.88270103096E+03  0.12699999809E+01 0.  1.
</event>
<event>
 5   0  0.1088757E-06  0.2599681E+04  0.7818609E-02  0.8368310E-01
        1   -1    0    0  501    0  0.00000000000E+00  0.00000000000E+00  0.14470529856E+04  0.14470529856E+04  0.50400001928E-02 0. -1.
       -1   -1    0    0    0  501  0.00000000000E+00  0.00000000000E+00 -0.11676043368E+04  0.11676043368E+04  0.50400001928E-02 0.  1.
    10030    2    1    2    0    0  0.00000000000E+00  0.00000000000E+00  0.27944864880E+03  0.26146573224E+04  0.25996810124E+04 0.  0.
        5    1    3    3  502    0  0.12097136897E+04  0.25949549099E+03  0.54054005325E+03  0.13501669379E+04  0.46999998093E+01 0. -1.
       -5    1    3    3    0  502 -0.12097136897E+04 -0.25949549099E+03 -0.26109140445E+03  0.12644903845E+04  0.46999998093E+01 0.  1.
</event>
<event>
 5   0  0.1100104E-06  0.2598126E+04  0.7818609E-02  0.8368838E-01
       -1   -1    0    0    0  501  0.00000000000E+00  0.00000000000E+00  0.12379757354E+04  0.12379757354E+04  0.50400001928E-02 0. -1.
        1   -1    0    0  501    0  0.00000000000E+00  0.00000000000E+00 -0.13631642689E+04  0.13631642689E+04  0.50400001928E-02 0.  1.
    10030    2    1    2    0    0  0.00000000000E+00  0.00000000000E+00 -0.12518853345E+03  0.26011400043E+04  0.25981257000E+04 0.  0.
        4    1    3    3  502    0  0.32966059008E+03  0.78814449413E+03 -0.10423587116E+04  0.13477244321E+04  0.12699999809E+01 0.  1.
       -4    1    3    3    0  502 -0.32966059008E+03 -0.78814449413E+03  0.91717017813E+03  0.12534155723E+04  0.12699999809E+01 0. -1.
</event>
<event>
 5   0  0.1100104E-06  0.2583958E+04  0.7818609E-02  0.8373671E-01
        1   -1    0    0  501    0  0.00000000000E+00  0.00000000000E+00  0.11889754477E+04  0.11889754477E+04  0.50400001928E-02 0.  1.
       -1   -1    0    0    0  501  0.00000000000E+00  0.00000000000E+00 -0.14039055495E+04  0.14039055495E+04  0.50400001928E-02 0. -1.
    10030    2    1    2    0    0  0.00000000000E+00  0.00000000000E+00 -0.21493010177E+03  0.25928809972E+04  0.25839576075E+04 0.  0.
        4    1    3    3  502    0 -0.32209080256E+03 -0.10481168416E+03  0.11436283114E+04  0.11927343802E+04  0.12699999809E+01 0.  1.
       -4    1    3    3    0  502  0.32209080256E+03  0.10481168416E+03 -0.13585584132E+04  0.14001466170E+04  0.12699999809E+01 0. -1.
</event>
<event>
 5   0  0.1100104E-06  0.2600511E+04  0.7818609E-02  0.8368028E-01
       -1   -1    0    0    0  501  0.00000000000E+00  0.00000000000E+00  0.15106782418E+04  0.15106782418E+04  0.50400001928E-02 0. -1.
        1   -1    0    0  501    0  0.00000000000E+00  0.00000000000E+00 -0.11191427715E+04  0.11191427715E+04  0.50400001928E-02 0.  1.
    10030    2    1    2    0    0  0.00000000000E+00  0.00000000000E+00  0.39153547029E+03  0.26298210133E+04  0.26005112070E+04 0.  0.
        4    1    3    3  502    0  0.12827216476E+04 -0.14679309209E+03  0.35158216536E+03  0.13381086163E+04  0.12699999809E+01 0.  1.
       -4    1    3    3    0  502 -0.12827216476E+04  0.14679309209E+03  0.39953304938E+02  0.12917123970E+04  0.12699999809E+01 0. -1.
</event>
<event>
 5   0  0.1032076E-06  0.2595325E+04  0.7818609E-02  0.8369791E-01
        1   -1    0    0  501    0  0.00000000000E+00  0.00000000000E+00  0.14447516574E+04  0.14447516574E+04  0.50400001928E-02 0. -1.
       -1   -1    0    0    0  501  0.00000000000E+00  0.00000000000E+00 -0.11655483829E+04  0.11655483829E+04  0.50400001928E-02 0.  1.
    10030    2    1    2    0    0  0.00000000000E+00  0.00000000000E+00  0.27920327447E+03  0.26103000403E+04  0.25953249954E+04 0.  0.
        1    1    3    3  502    0  0.60448085465E+03 -0.24754700341E+03  0.12673435813E+04  0.14257757102E+04  0.50400001928E-02 0. -1.
       -1    1    3    3    0  502 -0.60448085465E+03  0.24754700341E+03 -0.98814030687E+03  0.11845243301E+04  0.50400001928E-02 0.  1.
</event>
<event>
 5   0  0.2746631E-06  0.2600846E+04  0.7818609E-02  0.8367914E-01
       -2   -1    0    0    0  501  0.00000000000E+00  0.00000000000E+00  0.81149479797E+03  0.81149479798E+03  0.25500000920E-02 0. -1.
        2   -1    0    0  501    0  0.00000000000E+00  0.00000000000E+00 -0.20839315909E+04  0.20839315909E+04  0.25500000920E-02 0.  1.
    10030    2    1    2    0    0  0.00000000000E+00  0.00000000000E+00 -0.12724367929E+04  0.28954263888E+04  0.26008457435E+04 0.  0.
        2    1    3    3  502    0 -0.32447514041E+03  0.47714669278E+02  0.76469824134E+03  0.83206021821E+03  0.25500000920E-02 0. -1.
       -2    1    3    3    0  502  0.32447514041E+03 -0.47714669278E+02 -0.20371350342E+04  0.20633661706E+04  0.25500000920E-02 0.  1.
</event>
<event>
 5   0  0.1032076E-06  0.2592951E+04  0.7818609E-02  0.8370600E-01
       -1   -1    0    0    0  501  0.00000000000E+00  0.00000000000E+00  0.11204295068E+04  0.11204295068E+04  0.50400001928E-02 0. -1.
        1   -1    0    0  501    0  0.00000000000E+00  0.00000000000E+00 -0.15001823847E+04  0.15001823847E+04  0.50400001928E-02 0.  1.
    10030    2    1    2    0    0  0.00000000000E+00  0.00000000000E+00 -0.37975287791E+03  0.26206118915E+04  0.25929509130E+04 0.  0.
        1    1    3    3  502    0  0.37645264036E+03  0.96410873350E+03 -0.97899141207E+03  0.14246565991E+04  0.50400001928E-02 0. -1.
       -1    1    3    3    0  502 -0.37645264036E+03 -0.96410873350E+03  0.59923853416E+03  0.11959552923E+04  0.50400001928E-02 0.  1.
</event>
<event>
 5   0  0.1032076E-06  0.2600217E+04  0.7818609E-02  0.8368128E-01
        1   -1    0    0  501    0  0.00000000000E+00  0.00000000000E+00  0.14609935905E+04  0.14609935905E+04  0.50400001928E-02 0. -1.
       -1   -1    0    0    0  501  0.00000000000E+00  0.00000000000E+00 -0.11569397286E+04  0.11569397286E+04  0.50400001928E-02 0.  1.
    10030    2    1    2    0    0  0.00000000000E+00  0.00000000000E+00  0.30405386184E+03  0.26179333191E+04  0.26002165511E+04 0.  0.
        1    1    3    3  502    0  0.54391189195E+03  0.10822835475E+04 -0.32352993150E+03  0.12537341983E+04  0.50400001928E-02 0.  1.
       -1    1    3    3    0  502 -0.54391189195E+03 -0.10822835475E+04  0.62758379334E+03  0.13641991208E+04  0.50400001928E-02 0. -1.
</event>
<event>
 5   0  0.2623368E-06  0.2595747E+04  0.7818609E-02  0.8369647E-01
       -2   -1    0    0    0  501  0.00000000000E+00  0.00000000000E+00  0.78547838141E+03  0.78547838141E+03  0.25500000920E-02 0. -1.
        2   -1    0    0  501    0  0.00000000000E+00  0.00000000000E+00 -0.21445224731E+04  0.21445224732E+04  0.25500000920E-02 0.  1.
    10030    2    1    2    0    0  0.00000000000E+00  0.00000000000E+00 -0.13590440917E+04  0.29300008546E+04  0.25957473229E+04 0.  0.
        5    1    3    3  502    0  0.53593438665E+02  0.85215425334E+03  0.42379751958E+03  0.95323950598E+03  0.46999998093E+01 0. -1.
       -5    1    3    3    0  502 -0.53593438665E+02 -0.85215425334E+03 -0.17828416113E+04  0.19767613486E+04  0.46999998093E+01 0.  1.
</event>
<event>
 5   0  0.2623368E-06  0.2601054E+04  0.7818609E-02  0.8367843E-01
       -2   -1    0    0    0  501  0.00000000000E+00  0.00000000000E+00  0.98814392917E+03  0.98814392918E+03  0.25500000920E-02 0.  1.
        2   -1    0    0  501    0  0.00000000000E+00  0.00000000000E+00 -0.17116646850E+04  0.17116646850E+04  0.25500000920E-02 0. -1.
    10030    2    1    2    0    0  0.00000000000E+00  0.00000000000E+00 -0.72352075585E+03  0.26998086142E+04  0.26010544533E+04 0.  0.
        5    1    3    3  502    0 -0.35511885946E+03  0.31358044837E+03  0.89538298384E+03  0.10130029021E+04  0.46999998093E+01 0.  1.
       -5    1    3    3    0  502  0.35511885946E+03 -0.31358044837E+03 -0.16189037397E+04  0.16868057121E+04  0.46999998093E+01 0. -1.
</event>
<event>
 5   0  0.1055179E-06  0.2600243E+04  0.7818609E-02  0.8368119E-01
        1   -1    0    0  501    0  0.00000000000E+00  0.00000000000E+00  0.22511450644E+04  0.22511450644E+04  0.50400001928E-02 0.  1.
       -1   -1    0    0    0  501  0.00000000000E+00  0.00000000000E+00 -0.75086943166E+03  0.75086943168E+03  0.50400001928E-02 0. -1.
    10030    2    1    2    0    0  0.00000000000E+00  0.00000000000E+00  0.15002756327E+04  0.30020144961E+04  0.26002430772E+04 0.  0.
        3    1    3    3  502    0  0.95880995562E+03 -0.87703802554E+03  0.79917100096E+03  0.15255118906E+04  0.10100000352E+00 0.  1.
       -3    1    3    3    0  502 -0.95880995562E+03  0.87703802554E+03  0.70110463178E+03  0.14765026055E+04  0.10100000352E+00 0. -1.
</event>
<event>
 5   0  0.1100104E-06  0.2566663E+04  0.7818609E-02  0.8379614E-01
        1   -1    0    0  501    0  0.00000000000E+00  0.00000000000E+00  0.16062852020E+04  0.16062852020E+04  0.50400001928E-02 0. -1.
       -1   -1    0    0    0  501  0.00000000000E+00  0.00000000000E+00 -0.10253093415E+04  0.10253093416E+04  0.50400001928E-02 0.  1.
    10030    2    1    2    0    0  0.00000000000E+00  0.00000000000E+00  0.58097586043E+03  0.26315945435E+04  0.25666625978E+04 0.  0.
        4    1    3    3  502    0  0.85024723563E+03 -0.10184637063E+03  0.12705167174E+04  0.15321577553E+04  0.12699999809E+01 0. -1.
       -4    1    3    3    0  502 -0.85024723563E+03  0.10184637063E+03 -0.68954085702E+03  0.10994367882E+04  0.12699999809E+01 0.  1.
</event>
<event>
 5   0  0.1100104E-06  0.2603776E+04  0.7818609E-02  0.8366920E-01
       -1   -1    0    0    0  501  0.00000000000E+00  0.00000000000E+00  0.11560168346E+04  0.11560168346E+04  0.50400001928E-02 0. -1.
        1   -1    0    0  501    0  0.00000000000E+00  0.00000000000E+00 -0.14661657371E+04  0.14661657371E+04  0.50400001928E-02 0.  1.
    10030    2    1    2    0    0  0.00000000000E+00  0.00000000000E+00 -0.31014890257E+03  0.26221825717E+04  0.26037759308E+04 0.  0.
        4    1    3    3  502    0  0.38525782423E+03 -0.68677374132E+03 -0.11991429337E+04  0.14345825704E+04  0.12699999809E+01 0.  1.
       -4    1    3    3    0  502 -0.38525782423E+03  0.68677374132E+03  0.88899403112E+03  0.11876000013E+04  0.12699999809E+01 0. -1.
</event>
<event>
 5   0  0.2705807E-06  0.2581555E+04  0.7818609E-02  0.8374494E-01
       -2   -1    0    0    0  501  0.00000000000E+00  0.00000000000E+00  0.75922974304E+03  0.75922974305E+03  0.25500000920E-02 0.  1.
        2   -1    0    0  501    0  0.00000000000E+00  0.00000000000E+00 -0.21944700952E+04  0.21944700952E+04  0.25500000920E-02 0. -1.
    10030    2    1    2    0    0  0.00000000000E+00  0.00000000000E+00 -0.14352403522E+04  0.29536998383E+04  0.25815553192E+04 0.  0.
        4    1    3    3  502    0  0.56168165766E+02 -0.12306582204E+04 -0.11584256603E+04  0.16910429154E+04  0.12699999809E+01 0. -1.
       -4    1    3    3    0  502 -0.56168165766E+02  0.12306582204E+04 -0.27681469184E+03  0.12626569229E+04  0.12699999809E+01 0.  1.
</event>
<event>
 5   0  0.9197000E-07  0.2597405E+04  0.7818609E-02  0.8369083E-01
       -3   -1    0    0    0  501  0.00000000000E+00  0.00000000000E+00  0.12805979471E+04  0.12805979511E+04  0.10100000352E+00 0.  1.
        3   -1    0    0  501    0  0.00000000000E+00  0.00000000000E+00 -0.13170629259E+04  0.13170629297E+04  0.10100000352E+00 0. -1.
    10030    2    1    2    0    0  0.00000000000E+00  0.00000000000E+00 -0.36464978724E+02  0.25976608809E+04  0.25974049275E+04 0.  0.
        4    1    3    3  502    0  0.15746946107E+03  0.64734786820E+03 -0.11331385504E+04  0.13144810691E+04  0.12699999809E+01 0. -1.
       -4    1    3    3    0  502 -0.15746946107E+03 -0.64734786820E+03  0.10966735717E+04  0.12831798118E+04  0.12699999809E+01 0.  1.
</event>
<event>
 5   0  0.1055179E-06  0.2602346E+04  0.7818609E-02  0.8367405E-01
       -1   -1    0    0    0  501  0.00000000000E+00  0.00000000000E+00  0.11188402961E+04  0.11188402961E+04  0.50400001928E-02 0. -1.
        1   -1    0    0  501    0  0.00000000000E+00  0.00000000000E+00 -0.15132196310E+04  0.15132196310E+04  0.50400001928E-02 0.  1.
    10030    2    1    2    0    0  0.00000000000E+00  0.00000000000E+00 -0.39437933497E+03  0.26320599271E+04  0.26023459417E+04 0.  0.
        3    1    3    3  502    0 -0.58340164177E+03 -0.74816107807E+03 -0.10978338889E+04  0.14509795768E+04  0.10100000352E+00 0.  1.
       -3    1    3    3    0  502  0.58340164177E+03  0.74816107807E+03  0.70345455393E+03  0.11810803504E+04  0.10100000352E+00 0. -1.
</event>
<event>
 5   0  0.2746631E-06  0.2592510E+04  0.7818609E-02  0.8370750E-01
        2   -1    0    0  501    0  0.00000000000E+00  0.00000000000E+00  0.16065343248E+04  0.16065343248E+04  0.25500000920E-02 0.  1.
       -2   -1    0    0    0  501  0.00000000000E+00  0.00000000000E+00 -0.10459015955E+04  0.10459015955E+04  0.25500000920E-02 0. -1.
    10030    2    1    2    0    0  0.00000000000E+00  0.00000000000E+00  0.56063272931E+03  0.26524359202E+04  0.25925098368E+04 0.  0.
        2    1    3    3  502    0  0.12459147894E+04  0.27558092769E+03  0.51368598466E+03  0.13755441836E+04  0.25500000920E-02 0. -1.
       -2    1    3    3    0  502 -0.12459147894E+04 -0.27558092769E+03  0.46946744651E+02  0.12768917366E+04  0.25500000920E-02 0.  1.
</event>
<event>
 5   0  0.2623368E-06  0.2599205E+04  0.7818609E-02  0.8368471E-01
       -2   -1    0    0    0  501  0.00000000000E+00  0.00000000000E+00  0.95100824611E+03  0.95100824611E+03  0.25500000920E-02 0. -1.
        2   -1    0    0  501    0  0.00000000000E+00  0.00000000000E+00 -0.17759741836E+04  0.17759741836E+04  0.25500000920E-02 0.  1.
    10030    2    1    2    0    0  0.00000000000E+00  0.00000000000E+00 -0.82496593750E+03  0.27269824297E+04  0.25992045656E+04 0.  0.
        5    1    3    3  502    0  0.53532814326E+03 -0.10290397184E+04  0.20236890838E+03  0.11774864025E+04  0.46999998093E+01 0. -1.
       -5    1    3    3    0  502 -0.53532814326E+03  0.10290397184E+04 -0.10273348459E+04  0.15494960273E+04  0.46999998093E+01 0.  1.
</event>
<event>
 5   0  0.2820028E-06  0.2590082E+04  0.7818609E-02  0.8371578E-01
        2   -1    0    0  501    0  0.00000000000E+00  0.00000000000E+00  0.12500059188E+04  0.12500059188E+04  0.25500000920E-02 0.  1.
       -2   -1    0    0    0  501  0.00000000000E+00  0.00000000000E+00 -0.13416987468E+04  0.13416987468E+04  0.25500000920E-02 0. -1.
    10030    2    1    2    0    0  0.00000000000E+00  0.00000000000E+00 -0.91692828075E+02  0.25917046656E+04  0.25900821414E+04 0.  0.
        3    1    3    3  502    0  0.52093953880E+03 -0.85492227597E+03  0.77616760348E+03  0.12667700107E+04  0.10100000352E+00 0.  1.
       -3    1    3    3    0  502 -0.52093953880E+03  0.85492227597E+03 -0.86786043155E+03  0.13249346550E+04  0.10100000352E+00 0. -1.
</event>
<event>
 5   0  0.1122628E-06  0.2599519E+04  0.7818609E-02  0.8368365E-01
       -1   -1    0    0    0  501  0.00000000000E+00  0.00000000000E+00  0.87728278573E+03  0.87728278575E+03  0.50400001928E-02 0.  1.
        1   -1    0    0  501    0  0.00000000000E+00  0.00000000000E+00 -0.19256893816E+04  0.19256893816E+04  0.50400001928E-02 0. -1.
    10030    2    1    2    0    0  0.00000000000E+00  0.00000000000E+00 -0.10484065958E+04  0.28029721673E+04  0.25995185286E+04 0.  0.
        2    1    3    3  502    0 -0.11776098492E+04  0.54615828494E+03 -0.59507675684E+03  0.14279951595E+04  0.25500000920E-02 0.  1.
       -2    1    3    3    0  502  0.11776098492E+04 -0.54615828494E+03 -0.45332983898E+03  0.13749770078E+04  0.25500000920E-02 0. -1.
</event>
<event>
 5   0  0.2820028E-06  0.2601382E+04  0.7818609E-02  0.8367732E-01
       -2   -1    0    0    0  501  0.00000000000E+00  0.00000000000E+00  0.10879281347E+04  0.10879281347E+04  0.25500000920E-02 0. -1.
        2   -1    0    0  501    0  0.00000000000E+00  0.00000000000E+00 -0.15550628494E+04  0.15550628494E+04  0.25500000920E-02 0.  1.
    10030    2    1    2    0    0  0.00000000000E+00  0.00000000000E+00 -0.46713471467E+03  0.26429909842E+04  0.26013816523E+04 0.  0.
        3    1    3    3  502    0 -0.12732413796E+04  0.41602537346E+02 -0.50029699773E+03  0.13686385490E+04  0.10100000352E+00 0.  1.
       -3    1    3    3    0  502  0.12732413796E+04 -0.41602537346E+02  0.33162283053E+02  0.12743524351E+04  0.10100000352E+00 0. -1.
</event>
<event>
 5   0  0.1088757E-06  0.2600559E+04  0.7818609E-02  0.8368011E-01
        1   -1    0    0  501    0  0.00000000000E+00  0.00000000000E+00  0.20166825973E+04  0.20166825973E+04  0.50400001928E-02 0. -1.
       -1   -1    0    0    0  501  0.00000000000E+00  0.00000000000E+00 -0.83837055292E+03  0.83837055293E+03  0.50400001928E-02 0.  1.
    10030    2    1    2    0    0  0.00000000000E+00  0.00000000000E+00  0.11783120444E+04  0.28550531503E+04  0.26005594046E+04 0.  0.
        5    1    3    3  502    0 -0.29115160311E+03 -0.23565491118E+03 -0.77784764527E+03  0.86334902699E+03  0.46999998093E+01 0.  1.
       -5    1    3    3    0  502  0.29115160311E+03  0.23565491118E+03  0.19561596897E+04  0.19917041233E+04  0.46999998093E+01 0. -1.
</event>
<event>
 5   0  0.1055179E-06  0.2603316E+04  0.7818609E-02  0.8367076E-01
        1   -1    0    0  501    0  0.00000000000E+00  0.00000000000E+00  0.19485908044E+04  0.19485908044E+04  0.50400001928E-02 0. -1.
       -1   -1    0    0    0  501  0.00000000000E+00  0.00000000000E+00 -0.86950689848E+03  0.86950689850E+03  0.50400001928E-02 0.  1.
    10030    2    1    2    0    0  0.00000000000E+00  0.00000000000E+00  0.10790839059E+04  0.28180977029E+04  0.26033156910E+04 0.  0.
        3    1    3    3  502    0 -0.32443763142E+03 -0.29495424890E+03  0.18662402703E+04  0.19170577827E+04  0.10100000352E+00 0. -1.
       -3    1    3    3    0  502  0.32443763142E+03  0.29495424890E+03 -0.78715636436E+03  0.90103992020E+03  0.10100000352E+00 0.  1.
</event>
<event>
 5   0  0.1100104E-06  0.2603885E+04  0.7818609E-02  0.8366883E-01
       -1   -1    0    0    0  501  0.00000000000E+00  0.00000000000E+00  0.10323380994E+04  0.10323380994E+04  0.50400001928E-02 0.  1.
        1   -1    0    0  501    0  0.00000000000E+00  0.00000000000E+00 -0.16419568251E+04  0.16419568251E+04  0.50400001928E-02 0. -1.
    10030    2    1    2    0    0  0.00000000000E+00  0.00000000000E+00 -0.60961872571E+03  0.26742949244E+04  0.26038852417E+04 0.  0.
        4    1    3    3  502    0  0.27269234934E+03 -0.95990940315E+03  0.55402339805E+03  0.11413722960E+04  0.12699999809E+01 0.  1.
       -4    1    3    3    0  502 -0.27269234934E+03  0.95990940315E+03 -0.11636421238E+04  0.15329226284E+04  0.12699999809E+01 0. -1.
</event>
<event>
 5   0  0.2705807E-06  0.2608543E+04  0.7818609E-02  0.8365305E-01
        2   -1    0    0  501    0  0.00000000000E+00  0.00000000000E+00  0.16786757394E+04  0.16786757394E+04  0.25500000920E-02 0. -1.
       -2   -1    0    0    0  501  0.00000000000E+00  0.00000000000E+00 -0.10133723049E+04  0.10133723049E+04  0.25500000920E-02 0.  1.
    10030    2    1    2    0    0  0.00000000000E+00  0.00000000000E+00  0.66530343450E+03  0.26920480444E+04  0.26085425075E+04 0.  0.
        4    1    3    3  502    0 -0.91142717041E+03  0.90438686697E+03  0.96172675482E+02  0.12875814104E+04  0.12699999809E+01 0. -1.
       -4    1    3    3    0  502  0.91142717041E+03 -0.90438686697E+03  0.56913075902E+03  0.14044666339E+04  0.12699999809E+01 0.  1.
</event>
<event>
 5   0  0.1100104E-06  0.2594769E+04  0.7818609E-02  0.8369980E-01
        1   -1    0    0  501    0  0.00000000000E+00  0.00000000000E+00  0.17060632223E+04  0.17060632223E+04  0.50400001928E-02 0. -1.
       -1   -1    0    0    0  501  0.00000000000E+00  0.00000000000E+00 -0.98660265299E+03  0.98660265301E+03  0.50400001928E-02 0.  1.
    10030    2    1    2    0    0  0.00000000000E+00  0.00000000000E+00  0.71946056935E+03  0.26926658754E+04  0.25947689696E+04 0.  0.
        4    1    3    3  502    0  0.61728255413E+03 -0.18334303064E+03 -0.80906375568E+03  0.10340397440E+04  0.12699999809E+01 0.  1.
       -4    1    3    3    0  502 -0.61728255413E+03  0.18334303064E+03  0.15285243250E+04  0.16586261314E+04  0.12699999809E+01 0. -1.
</event>
<event>
 5   0  0.2623368E-06  0.2611457E+04  0.7818609E-02  0.8364320E-01
       -2   -1    0    0    0  501  0.00000000000E+00  0.00000000000E+00  0.72415959775E+03  0.72415959776E+03  0.25500000920E-02 0.  1.
        2   -1    0    0  501    0  0.00000000000E+00  0.00000000000E+00 -0.23543516135E+04  0.23543516135E+04  0.25500000920E-02 0. -1.
    10030    2    1    2    0    0  0.00000000000E+00  0.00000000000E+00 -0.16301920158E+04  0.30785112113E+04  0.26114565418E+04 0.  0.
        5    1    3    3  502    0  0.46596954571E+03  0.11441306391E+04 -0.13134877836E+04  0.18031735315E+04  0.46999998093E+01 0. -1.
       -5    1    3    3    0  502 -0.46596954571E+03 -0.11441306391E+04 -0.31670423220E+03  0.12753376798E+04  0.46999998093E+01 0.  1.
</event>
<event>
 5   0  0.1055179E-06  0.2585307E+04  0.7818609E-02  0.8373209E-01
       -1   -1    0    0    0  501  0.00000000000E+00  0.00000000000E+00  0.68241571623E+03  0.68241571625E+03  0.50400001928E-02 0. -1.
        1   -1    0    0  501    0  0.00000000000E+00  0.00000000000E+00 -0.24485861804E+04  0.24485861804E+04  0.50400001928E-02 0.  1.
    10030    2    1    2    0    0  0.00000000000E+00  0.00000000000E+00 -0.17661704642E+04  0.31310018967E+04  0.25853074804E+04 0.  0.
        3    1    3    3  502    0 -0.30391047214E+03  0.12501711138E+04 -0.73151059861E+03  0.14799990388E+04  0.10100000352E+00 0. -1.
       -3    1    3    3    0  502  0.30391047214E+03 -0.12501711138E+04 -0.10346598656E+04  0.16510028578E+04  0.10100000352E+00 0.  1.
</event>
<event>
 5   0  0.2746631E-06  0.2599030E+04  0.7818609E-02  0.8368531E-01
       -2   -1    0    0    0  501  0.00000000000E+00  0.00000000000E+00  0.11532434248E+04  0.11532434248E+04  0.25500000920E-02 0. -1.
        2   -1    0    0  501    0  0.00000000000E+00  0.00000000000E+00 -0.14643393938E+04  0.14643393938E+04  0.25500000920E-02 0.  1.
    10030    2    1    2    0    0  0.00000000000E+00  0.00000000000E+00 -0.31109596904E+03  0.26175828186E+04  0.25990304174E+04 0.  0.
        2    1    3    3  502    0 -0.15008691780E+03  0.47036536635E+03  0.10551017244E+04  0.11649074253E+04  0.25500000920E-02 0. -1.
       -2    1    3    3    0  502  0.15008691780E+03 -0.47036536635E+03 -0.13661976934E+04  0.14526753933E+04  0.25500000920E-02 0.  1.
</event>
<event>
 5   0  0.2705807E-06  0.2596741E+04  0.7818609E-02  0.8369309E-01
        2   -1    0    0  501    0  0.00000000000E+00  0.00000000000E+00  0.24714241077E+04  0.24714241077E+04  0.25500000920E-02 0. -1.
       -2   -1    0    0    0  501  0.00000000000E+00  0.00000000000E+00 -0.68210297711E+03  0.68210297712E+03  0.25500000920E-02 0.  1.
    10030    2    1    2    0    0  0.00000000000E+00  0.00000000000E+00  0.17893211306E+04  0.31535270848E+04  0.25967408354E+04 0.  0.
        4    1    3    3  502    0 -0.45137263745E+03  0.39492093848E+02 -0.58297508115E+03  0.73834845531E+03  0.12699999809E+01 0.  1.
       -4    1    3    3    0  502  0.45137263745E+03 -0.39492093848E+02  0.23722962117E+04  0.24151786295E+04  0.12699999809E+01 0. -1.
</event>
<event>
 5   0  0.2746631E-06  0.2598184E+04  0.7818609E-02  0.8368818E-01
       -2   -1    0    0    0  501  0.00000000000E+00  0.00000000000E+00  0.11448947528E+04  0.11448947528E+04  0.25500000920E-02 0. -1.
        2   -1    0    0  501    0  0.00000000000E+00  0.00000000000E+00 -0.14740563926E+04  0.14740563926E+04  0.25500000920E-02 0.  1.
    10030    2    1    2    0    0  0.00000000000E+00  0.00000000000E+00 -0.32916163983E+03  0.26189511455E+04  0.25981835418E+04 0.  0.
        2    1    3    3  502    0  0.11910024894E+04  0.24857973949E+02 -0.68692610588E+03  0.13751262937E+04  0.25500000920E-02 0.  1.
       -2    1    3    3    0  502 -0.11910024894E+04 -0.24857973949E+02  0.35776446605E+03  0.12438248518E+04  0.25500000920E-02 0. -1.
</event>
<event>
 5   0  0.1100104E-06  0.2602996E+04  0.7818609E-02  0.8367184E-01
        1   -1    0    0  501    0  0.00000000000E+00  0.00000000000E+00  0.15979705686E+04  0.15979705686E+04  0.50400001928E-02 0. -1.
       -1   -1    0    0    0  501  0.00000000000E+00  0.00000000000E+00 -0.10600298764E+04  0.10600298764E+04  0.50400001928E-02 0.  1.
    10030    2    1    2    0    0  0.00000000000E+00  0.00000000000E+00  0.53794069223E+03  0.26580004450E+04  0.26029956161E+04 0.  0.
        4    1    3    3  502    0  0.48605788052E+03 -0.71003247741E+03 -0.72813530004E+03  0.11272005191E+04  0.12699999809E+01 0.  1.
       -4    1    3    3    0  502 -0.48605788052E+03  0.71003247741E+03  0.12660759923E+04  0.15307999260E+04  0.12699999809E+01 0. -1.
</event>
<event>
 5   0  0.2623368E-06  0.2599967E+04  0.7818609E-02  0.8368213E-01
       -2   -1    0    0    0  501  0.00000000000E+00  0.00000000000E+00  0.11455549693E+04  0.11455549693E+04  0.25500000920E-02 0. -1.
        2   -1    0    0  501    0  0.00000000000E+00  0.00000000000E+00 -0.14752296328E+04  0.14752296328E+04  0.25500000920E-02 0.  1.
    10030    2    1    2    0    0  0.00000000000E+00  0.00000000000E+00 -0.32967466344E+03  0.26207846021E+04  0.25999666434E+04 0.  0.
        5    1    3    3  502    0 -0.10896664481E+04 -0.45241494688E+03 -0.71499338701E+03  0.13795977261E+04  0.46999998093E+01 0. -1.
       -5    1    3    3    0  502  0.10896664481E+04  0.45241494688E+03  0.38531872357E+03  0.12411868760E+04  0.46999998093E+01 0.  1.
</event>
<event>
 5   0  0.1122628E-06  0.2593917E+04  0.7818609E-02  0.8370270E-01
        1   -1    0    0  501    0  0.00000000000E+00  0.00000000000E+00  0.92567011881E+03  0.92567011882E+03  0.50400001928E-02 0.  1.
       -1   -1    0    0    0  501  0.00000000000E+00  0.00000000000E+00 -0.18171712340E+04  0.18171712340E+04  0.50400001928E-02 0. -1.
    10030    2    1    2    0    0  0.00000000000E+00  0.00000000000E+00 -0.89150111523E+03  0.27428413529E+04  0.25939168160E+04 0.  0.
        2    1    3    3  502    0 -0.19388993848E+03 -0.34402690271E+03  0.86055183745E+03  0.94683540437E+03  0.25500000920E-02 0.  1.
       -2    1    3    3    0  502  0.19388993848E+03  0.34402690271E+03 -0.17520529527E+04  0.17960059485E+04  0.25500000920E-02 0. -1.
</event>
<event>
 5   0  0.1032076E-06  0.2596940E+04  0.7818609E-02  0.8369241E-01
        1   -1    0    0  501    0  0.00000000000E+00  0.00000000000E+00  0.94244760351E+03  0.94244760352E+03  0.50400001928E-02 0.  1.
       -1   -1    0    0    0  501  0.00000000000E+00  0.00000000000E+00 -0.17889849153E+04  0.17889849153E+04  0.50400001928E-02 0. -1.
    10030    2    1    2    0    0  0.00000000000E+00  0.00000000000E+00 -0.84653731175E+03  0.27314325188E+04  0.25969401581E+04 0.  0.
        1    1    3    3  502    0 -0.86079678297E+02  0.11436367534E+04 -0.10636601776E+04  0.15641891536E+04  0.50400001928E-02 0. -1.
       -1    1    3    3    0  502  0.86079678297E+02 -0.11436367534E+04  0.21712286580E+03  0.11672433652E+04  0.50400001928E-02 0.  1.
</event>
<event>
 5   0  0.1088757E-06  0.2596279E+04  0.7818609E-02  0.8369466E-01
       -1   -1    0    0    0  501  0.00000000000E+00  0.00000000000E+00  0.14557386737E+04  0.14557386737E+04  0.50400001928E-02 0. -1.
        1   -1    0    0  501    0  0.00000000000E+00  0.00000000000E+00 -0.11576018711E+04  0.11576018711E+04  0.50400001928E-02 0.  1.
    10030    2    1    2    0    0  0.00000000000E+00  0.00000000000E+00  0.29813680259E+03  0.26133405448E+04  0.25962787312E+04 0.  0.
        5    1    3    3  502    0  0.31835207921E+03 -0.11618662205E+04  0.63583978859E+03  0.13622024399E+04  0.46999998093E+01 0. -1.
       -5    1    3    3    0  502 -0.31835207921E+03  0.11618662205E+04 -0.33770298600E+03  0.12511381048E+04  0.46999998093E+01 0.  1.
</event>
<event>
 5   0  0.1100104E-06  0.2595737E+04  0.7818609E-02  0.8369651E-01
        1   -1    0    0  501    0  0.00000000000E+00  0.00000000000E+00  0.10568380866E+04  0.10568380866E+04  0.50400001928E-02 0. -1.
       -1   -1    0    0    0  501  0.00000000000E+00  0.00000000000E+00 -0.15938702674E+04  0.15938702674E+04  0.50400001928E-02 0.  1.
    10030    2    1    2    0    0  0.00000000000E+00  0.00000000000E+00 -0.53703218075E+03  0.26507083540E+04  0.25957371236E+04 0.  0.
        4    1    3    3  502    0 -0.39661239151E+02  0.10353119889E+04 -0.10667459666E+04  0.14870751489E+04  0.12699999809E+01 0.  1.
       -4    1    3    3    0  502  0.39661239151E+02 -0.10353119889E+04  0.52971378590E+03  0.11636332051E+04  0.12699999809E+01 0. -1.
</event>
<event>
 5   0  0.2586775E-06  0.2602843E+04  0.7818609E-02  0.8367236E-01
       -2   -1    0    0    0  501  0.00000000000E+00  0.00000000000E+00  0.81697170426E+03  0.81697170427E+03  0.25500000920E-02 0. -1.
        2   -1    0    0  501    0  0.00000000000E+00  0.00000000000E+00 -0.20731421966E+04  0.20731421966E+04  0.25500000920E-02 0.  1.
    10030    2    1    2    0    0  0.00000000000E+00  0.00000000000E+00 -0.12561704923E+04  0.28901139009E+04  0.26028434556E+04 0.  0.
        1    1    3    3  502    0  0.58085367305E+03 -0.53329994721E+03  0.52150687896E+03  0.94539370001E+03  0.50400001928E-02 0. -1.
       -1    1    3    3    0  502 -0.58085367305E+03  0.53329994721E+03 -0.17776773713E+04  0.19447202009E+04  0.50400001928E-02 0.  1.
</event>
<event>
 5   0  0.1032076E-06  0.2603570E+04  0.7818609E-02  0.8366989E-01
       -1   -1    0    0    0  501  0.00000000000E+00  0.00000000000E+00  0.12460043445E+04  0.12460043445E+04  0.50400001928E-02 0.  1.
        1   -1    0    0  501    0  0.00000000000E+00  0.00000000000E+00 -0.13600631625E+04  0.13600631626E+04  0.50400001928E-02 0. -1.
    10030    2    1    2    0    0  0.00000000000E+00  0.00000000000E+00 -0.11405881809E+03  0.26060675070E+04  0.26035703250E+04 0.  0.
        1    1    3    3  502    0 -0.14259606759E+03  0.40272230952E+03  0.11738352368E+04  0.12491629438E+04  0.50400001928E-02 0.  1.
       -1    1    3    3    0  502  0.14259606759E+03 -0.40272230952E+03 -0.12878940549E+04  0.13569045632E+04  0.50400001928E-02 0. -1.
</event>
<event>
 5   0  0.2820028E-06  0.2598329E+04  0.7818609E-02  0.8368769E-01
       -2   -1    0    0    0  501  0.00000000000E+00  0.00000000000E+00  0.16572229455E+04  0.16572229455E+04  0.25500000920E-02 0.  1.
        2   -1    0    0  501    0  0.00000000000E+00  0.00000000000E+00 -0.10184679250E+04  0.10184679250E+04  0.25500000920E-02 0. -1.
    10030    2    1    2    0    0  0.00000000000E+00  0.00000000000E+00  0.63875502052E+03  0.26756908706E+04  0.25983290128E+04 0.  0.
        3    1    3    3  502    0 -0.12444742223E+03  0.80999708116E+03 -0.71872732241E+03  0.10900235807E+04  0.10100000352E+00 0. -1.
       -3    1    3    3    0  502  0.12444742223E+03 -0.80999708116E+03  0.13574823429E+04  0.15856672898E+04  0.10100000352E+00 0.  1.
</event>
<event>
 5   0  0.2586775E-06  0.2580116E+04  0.7818609E-02  0.8374987E-01
       -2   -1    0    0    0  501  0.00000000000E+00  0.00000000000E+00  0.79489263253E+03  0.79489263253E+03  0.25500000920E-02 0. -1.
        2   -1    0    0  501    0  0.00000000000E+00  0.00000000000E+00 -0.20936788273E+04  0.20936788273E+04  0.25500000920E-02 0.  1.
    10030    2    1    2    0    0  0.00000000000E+00  0.00000000000E+00 -0.12987861948E+04  0.28885714599E+04  0.25801161794E+04 0.  0.
        1    1    3    3  502    0  0.57848270385E+03  0.64147679113E+03 -0.17221280558E+04  0.19266187357E+04  0.50400001928E-02 0.  1.
       -1    1    3    3    0  502 -0.57848270385E+03 -0.64147679113E+03  0.42334186099E+03  0.96195272415E+03  0.50400001928E-02 0. -1.
</event>
<event>
 5   0  0.2586775E-06  0.2601088E+04  0.7818609E-02  0.8367832E-01
       -2   -1    0    0    0  501  0.00000000000E+00  0.00000000000E+00  0.17068513854E+04  0.17068513854E+04  0.25500000920E-02 0.  1.
        2   -1    0    0  501    0  0.00000000000E+00  0.00000000000E+00 -0.99095605573E+03  0.99095605574E+03  0.25500000920E-02 0. -1.
    10030    2    1    2    0    0  0.00000000000E+00  0.00000000000E+00  0.71589532968E+03  0.26978074411E+04  0.26010880159E+04 0.  0.
        1    1    3    3  502    0 -0.20411174752E+03 -0.10730717744E+04 -0.37418250541E+03  0.11546242618E+04  0.50400001928E-02 0. -1.
       -1    1    3    3    0  502  0.20411174752E+03  0.10730717744E+04  0.10900778351E+04  0.15431831794E+04  0.50400001928E-02 0.  1.
</event>
<event>
 5   0  0.2623368E-06  0.2599589E+04  0.7818609E-02  0.8368341E-01
       -2   -1    0    0    0  501  0.00000000000E+00  0.00000000000E+00  0.10571830248E+04  0.10571830248E+04  0.25500000920E-02 0.  1.
        2   -1    0    0  501    0  0.00000000000E+00  0.00000000000E+00 -0.15980823460E+04  0.15980823460E+04  0.25500000920E-02 0. -1.
    10030    2    1    2    0    0  0.00000000000E+00  0.00000000000E+00 -0.54089932121E+03  0.26552653708E+04  0.25995888355E+04 0.  0.
        5    1    3    3  502    0  0.93161263471E+02 -0.71038405574E+03  0.83726750297E+03  0.11019816193E+04  0.46999998093E+01 0.  1.
       -5    1    3    3    0  502 -0.93161263471E+02  0.71038405574E+03 -0.13781668242E+04  0.15532837516E+04  0.46999998093E+01 0. -1.
</event>
<event>
 5   0  0.1088757E-06  0.2601314E+04  0.7818609E-02  0.8367755E-01
        1   -1    0    0  501    0  0.00000000000E+00  0.00000000000E+00  0.17170293593E+04  0.17170293593E+04  0.50400001928E-02 0.  1.
       -1   -1    0    0    0  501  0.00000000000E+00  0.00000000000E+00 -0.98525296929E+03  0.98525296931E+03  0.50400001928E-02 0. -1.
    10030    2    1    2    0    0  0.00000000000E+00  0.00000000000E+00  0.73177639004E+03  0.27022823286E+04  0.26013137255E+04 0.  0.
        5    1    3    3  502    0  0.65810091769E+03 -0.51187503143E+03  0.14029212907E+04  0.16319690879E+04  0.46999998093E+01 0.  1.
       -5    1    3    3    0  502 -0.65810091769E+03  0.51187503143E+03 -0.67114490071E+03  0.10703132408E+04  0.46999998093E+01 0. -1.
</event>
<event>
 5   0  0.2820028E-06  0.2594990E+04  0.7818609E-02  0.8369905E-01
       -2   -1    0    0    0  501  0.00000000000E+00  0.00000000000E+00  0.86214289787E+03  0.86214289788E+03  0.25500000920E-02 0. -1.
        2   -1    0    0  501    0  0.00000000000E+00  0.00000000000E+00 -0.19526849206E+04  0.19526849206E+04  0.25500000920E-02 0.  1.
    10030    2    1    2    0    0  0.00000000000E+00  0.00000000000E+00 -0.10905420227E+04  0.28148278184E+04  0.25949901241E+04 0.  0.
        3    1    3    3  502    0  0.65096816091E+03  0.10866857332E+04 -0.84985807666E+03  0.15254193489E+04  0.10100000352E+00 0.  1.
       -3    1    3    3    0  502 -0.65096816091E+03 -0.10866857332E+04 -0.24068394603E+03  0.12894084696E+04  0.10100000352E+00 0. -1.
</event>
<event>
 5   0  0.1122628E-06  0.2604870E+04  0.7818609E-02  0.8366549E-01
        1   -1    0    0  501    0  0.00000000000E+00  0.00000000000E+00  0.12539876949E+04  0.12539876949E+04  0.50400001928E-02 0.  1.
       -1   -1    0    0    0  501  0.00000000000E+00  0.00000000000E+00 -0.13527543596E+04  0.13527543596E+04  0.50400001928E-02 0. -1.
    10030    2    1    2    0    0  0.00000000000E+00  0.00000000000E+00 -0.98766664681E+02  0.26067420546E+04  0.26048703010E+04 0.  0.
        2    1    3    3  502    0  0.72561387025E+03 -0.86348502237E+03  0.60240291755E+03  0.12786755443E+04  0.25500000920E-02 0.  1.
       -2    1    3    3    0  502 -0.72561387025E+03  0.86348502237E+03 -0.70116958223E+03  0.13280665102E+04  0.25500000920E-02 0. -1.
</event>
<event>
 5   0  0.1032076E-06  0.2601081E+04  0.7818609E-02  0.8367834E-01
        1   -1    0    0  501    0  0.00000000000E+00  0.00000000000E+00  0.17852688135E+04  0.17852688135E+04  0.50400001928E-02 0. -1.
       -1   -1    0    0    0  501  0.00000000000E+00  0.00000000000E+00 -0.94742325780E+03  0.94742325781E+03  0.50400001928E-02 0.  1.
    10030    2    1    2    0    0  0.00000000000E+00  0.00000000000E+00  0.83784555574E+03  0.27326920714E+04  0.26010806949E+04 0.  0.
        1    1    3    3  502    0  0.69575012155E+03  0.94704026856E+03 -0.16645184033E+03  0.11868697136E+04  0.50400001928E-02 0.  1.
       -1    1    3    3    0  502 -0.69575012155E+03 -0.94704026856E+03  0.10042973961E+04  0.15458223577E+04  0.50400001928E-02 0. -1.
</event>
<event>
 5   0  0.1055179E-06  0.2600708E+04  0.7818609E-02  0.8367961E-01
       -1   -1    0    0    0  501  0.00000000000E+00  0.00000000000E+00  0.13986169254E+04  0.13986169254E+04  0.50400001928E-02 0.  1.
        1   -1    0    0  501    0  0.00000000000E+00  0.00000000000E+00 -0.12089945313E+04  0.12089945313E+04  0.50400001928E-02 0. -1.
    10030    2    1    2    0    0  0.00000000000E+00  0.00000000000E+00  0.18962239406E+03  0.26076114567E+04  0.26007077607E+04 0.  0.
        3    1    3    3  502    0 -0.12283809734E+04 -0.14520589042E+03 -0.30739656904E+03  0.12745576595E+04  0.10100000352E+00 0.  1.
       -3    1    3    3    0  502  0.12283809734E+04  0.14520589042E+03  0.49701896310E+03  0.13330537972E+04  0.10100000352E+00 0. -1.
</event>
<event>
 5   0  0.1055179E-06  0.2599987E+04  0.7818609E-02  0.8368206E-01
        1   -1    0    0  501    0  0.00000000000E+00  0.00000000000E+00  0.91414385907E+03  0.91414385908E+03  0.50400001928E-02 0.  1.
       -1   -1    0    0    0  501  0.00000000000E+00  0.00000000000E+00 -0.18487059810E+04  0.18487059810E+04  0.50400001928E-02 0. -1.
    10030    2    1    2    0    0  0.00000000000E+00  0.00000000000E+00 -0.93456212194E+03  0.27628498401E+04  0.25999870921E+04 0.  0.
        3    1    3    3  502    0 -0.89375830352E+03 -0.71096508364E+03 -0.11272376779E+04  0.16046619731E+04  0.10100000352E+00 0. -1.
       -3    1    3    3    0  502  0.89375830352E+03  0.71096508364E+03  0.19267555592E+03  0.11581878670E+04  0.10100000352E+00 0.  1.
</event>
<event>
 5   0  0.2746631E-06  0.2605684E+04  0.7818609E-02  0.8366273E-01
        2   -1    0    0  501    0  0.00000000000E+00  0.00000000000E+00  0.14788724051E+04  0.14788724051E+04  0.25500000920E-02 0.  1.
       -2   -1    0    0    0  501  0.00000000000E+00  0.00000000000E+00 -0.11477641405E+04  0.11477641405E+04  0.25500000920E-02 0. -1.
    10030    2    1    2    0    0  0.00000000000E+00  0.00000000000E+00  0.33110826462E+03  0.26266365456E+04  0.26056835686E+04 0.  0.
        2    1    3    3  502    0 -0.23693418733E+03  0.21507330644E+03  0.14386437480E+04  0.14738012654E+04  0.25500000920E-02 0.  1.
       -2    1    3    3    0  502  0.23693418733E+03 -0.21507330644E+03 -0.11075354834E+04  0.11528352802E+04  0.25500000920E-02 0. -1.
</event>
<event>
 5   0  0.1088757E-06  0.2599952E+04  0.7818609E-02  0.8368218E-01
       -1   -1    0    0    0  501  0.00000000000E+00  0.00000000000E+00  0.65353042850E+03  0.65353042852E+03  0.50400001928E-02 0. -1.
        1   -1    0    0  501    0  0.00000000000E+00  0.00000000000E+00 -0.25858583432E+04  0.25858583432E+04  0.50400001928E-02 0.  1.
    10030    2    1    2    0    0  0.00000000000E+00  0.00000000000E+00 -0.19323279147E+04  0.32393887717E+04  0.25999516235E+04 0.  0.
        5    1    3    3  502    0 -0.11578217580E+04 -0.46621791566E+03 -0.51348279203E+03  0.13496655274E+04  0.46999998093E+01 0. -1.
       -5    1    3    3    0  502  0.11578217580E+04  0.46621791566E+03 -0.14188451226E+04  0.18897232443E+04  0.46999998093E+01 0.  1.
</event>
<event>
 5   0  0.2623368E-06  0.2564491E+04  0.7818609E-02  0.8380364E-01
       -2   -1    0    0    0  501  0.00000000000E+00  0.00000000000E+00  0.12646791056E+04  0.12646791056E+04  0.25500000920E-02 0.  1.
        2   -1    0    0  501    0  0.00000000000E+00  0.00000000000E+00 -0.13000560169E+04  0.13000560169E+04  0.25500000920E-02 0. -1.
    10030    2    1    2    0    0  0.00000000000E+00  0.00000000000E+00 -0.35376911304E+02  0.25647351225E+04  0.25644911236E+04 0.  0.
        5    1    3    3  502    0 -0.48739127096E+03  0.37341019538E+03  0.11080945176E+04  0.12668389696E+04  0.46999998093E+01 0.  1.
       -5    1    3    3    0  502  0.48739127096E+03 -0.37341019538E+03 -0.11434714289E+04  0.12978961529E+04  0.46999998093E+01 0. -1.
</event>
<event>
 5   0  0.1122628E-06  0.2636010E+04  0.7818609E-02  0.8356071E-01
        1   -1    0    0  501    0  0.00000000000E+00  0.00000000000E+00  0.14601238037E+04  0.14601238037E+04  0.50400001928E-02 0.  1.
       -1   -1    0    0    0  501  0.00000000000E+00  0.00000000000E+00 -0.11897188888E+04  0.11897188888E+04  0.50400001928E-02 0. -1.
    10030    2    1    2    0    0  0.00000000000E+00  0.00000000000E+00  0.27040491483E+03  0.26498426925E+04  0.26360097642E+04 0.  0.
        2    1    3    3  502    0 -0.65719720485E+03 -0.11006672792E+04 -0.17260734223E+03  0.12935106958E+04  0.25500000920E-02 0. -1.
       -2    1    3    3    0  502  0.65719720485E+03  0.11006672792E+04  0.44301225706E+03  0.13563319967E+04  0.25500000920E-02 0.  1.
</event>
<event>
 5   0  0.9197000E-07  0.2601558E+04  0.7818609E-02  0.8367672E-01
        4   -1    0    0  501    0  0.00000000000E+00  0.00000000000E+00  0.12316146313E+04  0.12316152861E+04  0.12699999809E+01 0.  1.
       -4   -1    0    0    0  501  0.00000000000E+00  0.00000000000E+00 -0.13738265565E+04  0.13738271435E+04  0.12699999809E+01 0. -1.
    10030    2    1    2    0    0  0.00000000000E+00  0.00000000000E+00 -0.14221192522E+03  0.26054424296E+04  0.26015583834E+04 0.  0.
        4    1    3    3  502    0 -0.11623496226E+04 -0.57158786650E+03  0.48468935694E+02  0.12961945012E+04  0.12699999809E+01 0. -1.
       -4    1    3    3    0  502  0.11623496226E+04  0.57158786650E+03 -0.19068086092E+03  0.13092479284E+04  0.12699999809E+01 0.  1.
</event>
<event>
 5   0  0.1032076E-06  0.2590005E+04  0.7818609E-02  0.8371604E-01
       -1   -1    0    0    0  501  0.00000000000E+00  0.00000000000E+00  0.14358511139E+04  0.14358511139E+04  0.50400001928E-02 0.  1.
        1   -1    0    0  501    0  0.00000000000E+00  0.00000000000E+00 -0.11679704754E+04  0.11679704754E+04  0.50400001928E-02 0. -1.
    10030    2    1    2    0    0  0.00000000000E+00  0.00000000000E+00  0.26788063849E+03  0.26038215894E+04  0.25900051801E+04 0.  0.
        1    1    3    3  502    0 -0.53358830254E+03  0.11792350102E+04  0.17563471047E+03  0.13062003052E+04  0.50400001928E-02 0.  1.
       -1    1    3    3    0  502  0.53358830254E+03 -0.11792350102E+04  0.92245928020E+02  0.12976212842E+04  0.50400001928E-02 0. -1.
</event>
<event>
 5   0  0.1122628E-06  0.2601976E+04  0.7818609E-02  0.8367530E-01
        1   -1    0    0  501    0  0.00000000000E+00  0.00000000000E+00  0.17980252919E+04  0.17980252919E+04  0.50400001928E-02 0. -1.
       -1   -1    0    0    0  501  0.00000000000E+00  0.00000000000E+00 -0.94134906371E+03  0.94134906373E+03  0.50400001928E-02 0.  1.
    10030    2    1    2    0    0  0.00000000000E+00  0.00000000000E+00  0.85667622821E+03  0.27393743557E+04  0.26019757302E+04 0.  0.
        2    1    3    3  502    0 -0.66191175988E+03 -0.78742860827E+03 -0.41021233454E+03  0.11074498410E+04  0.25500000920E-02 0.  1.
       -2    1    3    3    0  502  0.66191175988E+03  0.78742860827E+03  0.12668885628E+04  0.16319245146E+04  0.25500000920E-02 0. -1.
</event>
<event>
 5   0  0.2586775E-06  0.2596807E+04  0.7818609E-02  0.8369287E-01
       -2   -1    0    0    0  501  0.00000000000E+00  0.00000000000E+00  0.19120996193E+04  0.19120996193E+04  0.25500000920E-02 0.  1.
        2   -1    0    0  501    0  0.00000000000E+00  0.00000000000E+00 -0.88167575562E+03  0.88167575562E+03  0.25500000920E-02 0. -1.
    10030    2    1    2    0    0  0.00000000000E+00  0.00000000000E+00  0.10304238636E+04  0.27937753749E+04  0.25968071755E+04 0.  0.
        1    1    3    3  502    0  0.31057114334E+03  0.55311301611E+03 -0.70361918256E+03  0.94734808691E+03  0.50400001928E-02 0. -1.
       -1    1    3    3    0  502 -0.31057114334E+03 -0.55311301611E+03  0.17340430462E+04  0.18464272880E+04  0.50400001928E-02 0.  1.
</event>
<event>
 5   0  0.2586775E-06  0.2600839E+04  0.7818609E-02  0.8367916E-01
        2   -1    0    0  501    0  0.00000000000E+00  0.00000000000E+00  0.13939070254E+04  0.13939070254E+04  0.25500000920E-02 0.  1.
       -2   -1    0    0    0  501  0.00000000000E+00  0.00000000000E+00 -0.12132016987E+04  0.12132016987E+04  0.25500000920E-02 0. -1.
    10030    2    1    2    0    0  0.00000000000E+00  0.00000000000E+00  0.18070532671E+03  0.26071087241E+04  0.26008386117E+04 0.  0.
        1    1    3    3  502    0  0.11061820092E+04  0.40903209490E+03 -0.45882253848E+03  0.12654896341E+04  0.50400001928E-02 0. -1.
       -1    1    3    3    0  502 -0.11061820092E+04 -0.40903209490E+03  0.63952786519E+03  0.13416190900E+04  0.50400001928E-02 0.  1.
</event>
<event>
 5   0  0.9197000E-07  0.2601212E+04  0.7818609E-02  0.8367790E-01
       -3   -1    0    0    0  501  0.00000000000E+00  0.00000000000E+00  0.94352799218E+03  0.94352799758E+03  0.10100000352E+00 0. -1.
        3   -1    0    0  501    0  0.00000000000E+00  0.00000000000E+00 -0.17928204467E+04  0.17928204495E+04  0.10100000352E+00 0.  1.
    10030    2    1    2    0    0  0.00000000000E+00  0.00000000000E+00 -0.84929245452E+03  0.27363484471E+04  0.26012122464E+04 0.  0.
        4    1    3    3  502    0  0.87002886825E+03  0.83271814599E+02  0.58855826203E+03  0.10537015077E+04  0.12699999809E+01 0.  1.
       -4    1    3    3    0  502 -0.87002886825E+03 -0.83271814599E+02 -0.14378507165E+04  0.16826469394E+04  0.12699999809E+01 0. -1.
</event>
<event>
 5   0  0.1100104E-06  0.2604781E+04  0.7818609E-02  0.8366579E-01
        1   -1    0    0  501    0  0.00000000000E+00  0.00000000000E+00  0.31265598596E+04  0.31265598596E+04  0.50400001928E-02 0.  1.
       -1   -1    0    0    0  501  0.00000000000E+00  0.00000000000E+00 -0.54251992662E+03  0.54251992664E+03  0.50400001928E-02 0. -1.
    10030    2    1    2    0    0  0.00000000000E+00  0.00000000000E+00  0.25840399329E+04  0.36690797862E+04  0.26047810086E+04 0.  0.
        4    1    3    3  502    0  0.90273158163E+03  0.12402405844E+02 -0.30215231829E+02  0.90332314334E+03  0.12699999809E+01 0. -1.
       -4    1    3    3    0  502 -0.90273158163E+03 -0.12402405844E+02  0.26142551648E+04  0.27657566429E+04  0.12699999809E+01 0.  1.
</event>
<event>
 5   0  0.2623368E-06  0.2601435E+04  0.7818609E-02  0.8367714E-01
       -2   -1    0    0    0  501  0.00000000000E+00  0.00000000000E+00  0.12243073135E+04  0.12243073135E+04  0.25500000920E-02 0.  1.
        2   -1    0    0  501    0  0.00000000000E+00  0.00000000000E+00 -0.13818964090E+04  0.13818964090E+04  0.25500000920E-02 0. -1.
    10030    2    1    2    0    0  0.00000000000E+00  0.00000000000E+00 -0.15758909550E+03  0.26062037225E+04  0.26014348964E+04 0.  0.
        5    1    3    3  502    0  0.66323561817E+03  0.53448788453E+03 -0.10635945011E+04  0.13626496750E+04  0.46999998093E+01 0. -1.
       -5    1    3    3    0  502 -0.66323561817E+03 -0.53448788453E+03  0.90600540564E+03  0.12435540475E+04  0.46999998093E+01 0.  1.
</event>
<event>
 5   0  0.1088757E-06  0.2600504E+04  0.7818609E-02  0.8368030E-01
       -1   -1    0    0    0  501  0.00000000000E+00  0.00000000000E+00  0.95994132624E+03  0.95994132626E+03  0.50400001928E-02 0. -1.
        1   -1    0    0  501    0  0.00000000000E+00  0.00000000000E+00 -0.17612068591E+04  0.17612068591E+04  0.50400001928E-02 0.  1.
    10030    2    1    2    0    0  0.00000000000E+00  0.00000000000E+00 -0.80126553282E+03  0.27211481853E+04  0.26005039882E+04 0.  0.
        5    1    3    3  502    0  0.10404893978E+04 -0.74267947741E+03 -0.64923011972E+03  0.14337757256E+04  0.46999998093E+01 0.  1.
       -5    1    3    3    0  502 -0.10404893978E+04  0.74267947741E+03 -0.15203541310E+03  0.12873724597E+04  0.46999998093E+01 0. -1.
</event>
<event>
 5   0  0.1122628E-06  0.2599712E+04  0.7818609E-02  0.8368299E-01
       -1   -1    0    0    0  501  0.00000000000E+00  0.00000000000E+00  0.33388808851E+04  0.33388808851E+04  0.50400001928E-02 0. -1.
        1   -1    0    0  501    0  0.00000000000E+00  0.00000000000E+00 -0.50604555940E+03  0.50604555943E+03  0.50400001928E-02 0.  1.
    10030    2    1    2    0    0  0.00000000000E+00  0.00000000000E+00  0.28328353257E+04  0.38449264445E+04  0.25997121728E+04 0.  0.
        2    1    3    3  502    0  0.54996887102E+03 -0.92733524512E+03  0.34254112781E+03  0.11312607304E+04  0.25500000920E-02 0.  1.
       -2    1    3    3    0  502 -0.54996887102E+03  0.92733524512E+03  0.24902941979E+04  0.27136657141E+04  0.25500000920E-02 0. -1.
</event>
<event>
 5   0  0.2623368E-06  0.2598083E+04  0.7818609E-02  0.8368853E-01
        2   -1    0    0  501    0  0.00000000000E+00  0.00000000000E+00  0.59758356719E+03  0.59758356720E+03  0.25500000920E-02 0.  1.
       -2   -1    0    0    0  501  0.00000000000E+00  0.00000000000E+00 -0.28238872190E+04  0.28238872190E+04  0.25500000920E-02 0. -1.
    10030    2    1    2    0    0  0.00000000000E+00  0.00000000000E+00 -0.22263036518E+04  0.34214707862E+04  0.25980828299E+04 0.  0.
        5    1    3    3  502    0 -0.12962157497E+04 -0.38057233470E+02 -0.12139878060E+04  0.17763479687E+04  0.46999998093E+01 0. -1.
       -5    1    3    3    0  502  0.12962157497E+04  0.38057233470E+02 -0.10123158458E+04  0.16451228175E+04  0.46999998093E+01 0.  1.
</event>
<event>
 5   0  0.2586775E-06  0.2603900E+04  0.7818609E-02  0.8366878E-01
       -2   -1    0    0    0  501  0.00000000000E+00  0.00000000000E+00  0.96687086169E+03  0.96687086169E+03  0.25500000920E-02 0. -1.
        2   -1    0    0  501    0  0.00000000000E+00  0.00000000000E+00 -0.17531541313E+04  0.17531541313E+04  0.25500000920E-02 0.  1.
    10030    2    1    2    0    0  0.00000000000E+00  0.00000000000E+00 -0.78628326960E+03  0.27200249930E+04  0.26038998795E+04 0.  0.
        1    1    3    3  502    0 -0.69814869161E+03 -0.10647685185E+04 -0.67716830254E+03  0.14421166748E+04  0.50400001928E-02 0.  1.
       -1    1    3    3    0  502  0.69814869161E+03  0.10647685185E+04 -0.10911496707E+03  0.12779083182E+04  0.50400001928E-02 0. -1.
</event>
<event>
 5   0  0.1122628E-06  0.2598073E+04  0.7818609E-02  0.8368856E-01
       -1   -1    0    0    0  501  0.00000000000E+00  0.00000000000E+00  0.63715705043E+03  0.63715705045E+03  0.50400001928E-02 0. -1.
        1   -1    0    0  501    0  0.00000000000E+00  0.00000000000E+00 -0.26484771989E+04  0.26484771989E+04  0.50400001928E-02 0.  1.
    10030    2    1    2    0    0  0.00000000000E+00  0.00000000000E+00 -0.20113201485E+04  0.32856342494E+04  0.25980730707E+04 0.  0.
        2    1    3    3  502    0  0.50078095888E+03 -0.10272179554E+04 -0.17868138578E+04  0.21210049644E+04  0.25500000920E-02 0.  1.
       -2    1    3    3    0  502 -0.50078095888E+03  0.10272179554E+04 -0.22450629069E+03  0.11646292849E+04  0.25500000920E-02 0. -1.
</event>
<event>
 5   0  0.1088757E-06  0.2602563E+04  0.7818609E-02  0.8367331E-01
        1   -1    0    0  501    0  0.00000000000E+00  0.00000000000E+00  0.16088513737E+04  0.16088513737E+04  0.50400001928E-02 0. -1.
       -1   -1    0    0    0  501  0.00000000000E+00  0.00000000000E+00 -0.10525104749E+04  0.10525104749E+04  0.50400001928E-02 0.  1.
    10030    2    1    2    0    0  0.00000000000E+00  0.00000000000E+00  0.55634089880E+03  0.26613618486E+04  0.26025625244E+04 0.  0.
        5    1    3    3  502    0  0.73235042006E+03 -0.10670181556E+04  0.41705479059E+03  0.13597138193E+04  0.46999998093E+01 0.  1.
       -5    1    3    3    0  502 -0.73235042006E+03  0.10670181556E+04  0.13928610821E+03  0.13016480292E+04  0.46999998093E+01 0. -1.
</event>
<event>
 5   0  0.1055179E-06  0.2614467E+04  0.7818609E-02  0.8363304E-01
        1   -1    0    0  501    0  0.00000000000E+00  0.00000000000E+00  0.16729189875E+04  0.16729189875E+04  0.50400001928E-02 0. -1.
       -1   -1    0    0    0  501  0.00000000000E+00  0.00000000000E+00 -0.10214833117E+04  0.10214833117E+04  0.50400001928E-02 0.  1.
    10030    2    1    2    0    0  0.00000000000E+00  0.00000000000E+00  0.65143567583E+03  0.26944022993E+04  0.26144665442E+04 0.  0.
        3    1    3    3  502    0 -0.14677024658E+03 -0.89979180607E+02 -0.10097495521E+04  0.10243202265E+04  0.10100000352E+00 0.  1.
       -3    1    3    3    0  502  0.14677024658E+03  0.89979180607E+02  0.16611852279E+04  0.16700820728E+04  0.10100000352E+00 0. -1.
</event>
<event>
 5   0  0.1055179E-06  0.2599197E+04  0.7818609E-02  0.8368474E-01
       -1   -1    0    0    0  501  0.00000000000E+00  0.00000000000E+00  0.92210110419E+03  0.92210110421E+03  0.50400001928E-02 0.  1.
        1   -1    0    0  501    0  0.00000000000E+00  0.00000000000E+00 -0.18316392973E+04  0.18316392973E+04  0.50400001928E-02 0. -1.
    10030    2    1    2    0    0  0.00000000000E+00  0.00000000000E+00 -0.90953819313E+03  0.27537404015E+04  0.25991972750E+04 0.  0.
        3    1    3    3  502    0 -0.39895107295E+03  0.96573233064E+03 -0.12734742988E+04  0.16472819106E+04  0.10100000352E+00 0. -1.
       -3    1    3    3    0  502  0.39895107295E+03 -0.96573233064E+03  0.36393610564E+03  0.11064584910E+04  0.10100000352E+00 0.  1.
</event>
<event>
 5   0  0.1088757E-06  0.2599717E+04  0.7818609E-02  0.8368297E-01
        1   -1    0    0  501    0  0.00000000000E+00  0.00000000000E+00  0.13586429380E+04  0.13586429380E+04  0.50400001928E-02 0. -1.
       -1   -1    0    0    0  501  0.00000000000E+00  0.00000000000E+00 -0.12436176736E+04  0.12436176736E+04  0.50400001928E-02 0.  1.
    10030    2    1    2    0    0  0.00000000000E+00  0.00000000000E+00  0.11502526444E+03  0.26022606116E+04  0.25997171921E+04 0.  0.
        5    1    3    3  502    0 -0.18481469090E+03  0.12499486438E+04 -0.24787960696E+03  0.12876313415E+04  0.46999998093E+01 0.  1.
       -5    1    3    3    0  502  0.18481469090E+03 -0.12499486438E+04  0.36290487140E+03  0.13146292701E+04  0.46999998093E+01 0. -1.
</event>
<event>
 5   0  0.1100104E-06  0.2603939E+04  0.7818609E-02  0.8366864E-01
       -1   -1    0    0    0  501  0.00000000000E+00  0.00000000000E+00  0.18697326187E+04  0.18697326187E+04  0.50400001928E-02 0.  1.
        1   -1    0    0  501    0  0.00000000000E+00  0.00000000000E+00 -0.90661369034E+03  0.90661369036E+03  0.50400001928E-02 0. -1.
    10030    2    1    2    0    0  0.00000000000E+00  0.00000000000E+00  0.96311892836E+03  0.27763463091E+04  0.26039394689E+04 0.  0.
        4    1    3    3  502    0 -0.48539978481E+03  0.71579630837E+03  0.15192103937E+04  0.17481359041E+04  0.12699999809E+01 0.  1.
       -4    1    3    3    0  502  0.48539978481E+03 -0.71579630837E+03 -0.55609146530E+03  0.10282104050E+04  0.12699999809E+01 0. -1.
</event>
<event>
 5   0  0.1088757E-06  0.2598065E+04  0.7818609E-02  0.8368859E-01
        1   -1    0    0  501    0  0.00000000000E+00  0.00000000000E+00  0.16001644121E+04  0.16001644121E+04  0.50400001928E-02 0. -1.
       -1   -1    0    0    0  501  0.00000000000E+00  0.00000000000E+00 -0.10545698856E+04  0.10545698856E+04  0.50400001928E-02 0.  1.
    10030    2    1    2    0    0  0.00000000000E+00  0.00000000000E+00  0.54559452648E+03  0.26547342977E+04  0.25980648191E+04 0.  0.
        5    1    3    3  502    0 -0.24903023395E+03 -0.14927324927E+03 -0.10209818309E+04  0.10614728208E+04  0.46999998093E+01 0.  1.
       -5    1    3    3    0  502  0.24903023395E+03  0.14927324927E+03  0.15665763573E+04  0.15932614769E+04  0.46999998093E+01 0. -1.
</event>
<event>
 5   0  0.2705807E-06  0.2601796E+04  0.7818609E-02  0.8367592E-01
        2   -1    0    0  501    0  0.00000000000E+00  0.00000000000E+00  0.20614872233E+04  0.20614872233E+04  0.25500000920E-02 0.  1.
       -2   -1    0    0    0  501  0.00000000000E+00  0.00000000000E+00 -0.82092927271E+03  0.82092927272E+03  0.25500000920E-02 0. -1.
    10030    2    1    2    0    0  0.00000000000E+00  0.00000000000E+00  0.12405579506E+04  0.28824164960E+04  0.26017956929E+04 0.  0.
        4    1    3    3  502    0 -0.54635709661E+03  0.11435732636E+04  0.29526378252E+03  0.13013255551E+04  0.12699999809E+01 0. -1.
       -4    1    3    3    0  502  0.54635709661E+03 -0.11435732636E+04  0.94529416808E+03  0.15810909409E+04  0.12699999809E+01 0.  1.
</event>
<event>
 5   0  0.1055179E-06  0.2597839E+04  0.7818609E-02  0.8368935E-01
       -1   -1    0    0    0  501  0.00000000000E+00  0.00000000000E+00  0.87004845816E+03  0.87004845818E+03  0.50400001928E-02 0.  1.
        1   -1    0    0  501    0  0.00000000000E+00  0.00000000000E+00 -0.19391936599E+04  0.19391936599E+04  0.50400001928E-02 0. -1.
    10030    2    1    2    0    0  0.00000000000E+00  0.00000000000E+00 -0.10691452017E+04  0.28092421180E+04  0.25978394514E+04 0.  0.
        3    1    3    3  502    0 -0.12798688384E+04  0.19939091444E+03 -0.63925666319E+03  0.14444618624E+04  0.10100000352E+00 0. -1.
       -3    1    3    3    0  502  0.12798688384E+04 -0.19939091444E+03 -0.42988853850E+03  0.13647802556E+04  0.10100000352E+00 0.  1.
</event>
<event>
 5   0  0.2820028E-06  0.2598983E+04  0.7818609E-02  0.8368547E-01
        2   -1    0    0  501    0  0.00000000000E+00  0.00000000000E+00  0.20821069199E+04  0.20821069199E+04  0.25500000920E-02 0.  1.
       -2   -1    0    0    0  501  0.00000000000E+00  0.00000000000E+00 -0.81104283856E+03  0.81104283856E+03  0.25500000920E-02 0. -1.
    10030    2    1    2    0    0  0.00000000000E+00  0.00000000000E+00  0.12710640813E+04  0.28931497585E+04  0.25989828060E+04 0.  0.
        3    1    3    3  502    0  0.59968157608E+03 -0.73070455655E+03 -0.35709655948E+03  0.10104776616E+04  0.10100000352E+00 0. -1.
       -3    1    3    3    0  502 -0.59968157608E+03  0.73070455655E+03  0.16281606408E+04  0.18826720968E+04  0.10100000352E+00 0.  1.
</event>
<event>
 5   0  0.2820028E-06  0.2596491E+04  0.7818609E-02  0.8369394E-01
        2   -1    0    0  501    0  0.00000000000E+00  0.00000000000E+00  0.12610087970E+04  0.12610087970E+04  0.25500000920E-02 0.  1.
       -2   -1    0    0    0  501  0.00000000000E+00  0.00000000000E+00 -0.13365820518E+04  0.13365820518E+04  0.25500000920E-02 0. -1.
    10030    2    1    2    0    0  0.00000000000E+00  0.00000000000E+00 -0.75573254773E+02  0.25975908487E+04  0.25964912672E+04 0.  0.
        3    1    3    3  502    0 -0.26334588338E+03  0.61619710840E+03 -0.11501890720E+04  0.13311592100E+04  0.10100000352E+00 0. -1.
       -3    1    3    3    0  502  0.26334588338E+03 -0.61619710840E+03  0.10746158173E+04  0.12664316387E+04  0.10100000352E+00 0.  1.
</event>
<event>
 5   0  0.9197000E-07  0.2597356E+04  0.7818609E-02  0.8369100E-01
        4   -1    0    0  501    0  0.00000000000E+00  0.00000000000E+00  0.12832615526E+04  0.12832621810E+04  0.12699999809E+01 0.  1.
       -4   -1    0    0    0  501  0.00000000000E+00  0.00000000000E+00 -0.13142787380E+04  0.13142793516E+04  0.12699999809E+01 0. -1.
    10030    2    1    2    0    0  0.00000000000E+00  0.00000000000E+00 -0.31017185412E+02  0.25975415327E+04  0.25973563383E+04 0.  0.
        1    1    3    3  502    0 -0.39246248335E+03  0.83632466322E+03  0.89729919094E+03  0.12878709490E+04  0.50400001928E-02 0.  1.
       -1    1    3    3    0  502  0.39246248335E+03 -0.83632466322E+03 -0.92831637635E+03  0.13096705837E+04  0.50400001928E-02 0. -1.
</event>
<event>
 5   0  0.2623368E-06  0.2580733E+04  0.7818609E-02  0.8374775E-01
        2   -1    0    0  501    0  0.00000000000E+00  0.00000000000E+00  0.19124830200E+04  0.19124830200E+04  0.25500000920E-02 0.  1.
       -2   -1    0    0    0  501  0.00000000000E+00  0.00000000000E+00 -0.87061973358E+03  0.87061973358E+03  0.25500000920E-02 0. -1.
    10030    2    1    2    0    0  0.00000000000E+00  0.00000000000E+00  0.10418632865E+04  0.27831027536E+04  0.25807328086E+04 0.  0.
        5    1    3    3  502    0  0.59846812090E+03  0.55865444617E+03 -0.55465731195E+03  0.98890126184E+03  0.46999998093E+01 0. -1.
       -5    1    3    3    0  502 -0.59846812090E+03 -0.55865444617E+03  0.15965205984E+04  0.17942014918E+04  0.46999998093E+01 0.  1.
</event>
<event>
 5   0  0.1088757E-06  0.2574400E+04  0.7818609E-02  0.8376949E-01
        1   -1    0    0  501    0  0.00000000000E+00  0.00000000000E+00  0.78756027490E+03  0.78756027491E+03  0.50400001928E-02 0. -1.
       -1   -1    0    0    0  501  0.00000000000E+00  0.00000000000E+00 -0.21038182212E+04  0.21038182212E+04  0.50400001928E-02 0.  1.
    10030    2    1    2    0    0  0.00000000000E+00  0.00000000000E+00 -0.13162579463E+04  0.28913784961E+04  0.25743998575E+04 0.  0.
        5    1    3    3  502    0  0.44542207786E+03 -0.65140017991E+03  0.48400830540E+03  0.92574788767E+03  0.46999998093E+01 0. -1.
       -5    1    3    3    0  502 -0.44542207786E+03  0.65140017991E+03 -0.18002662517E+04  0.19656306084E+04  0.46999998093E+01 0.  1.
</event>
<event>
 5   0  0.1122628E-06  0.2601381E+04  0.7818609E-02  0.8367732E-01
        1   -1    0    0  501    0  0.00000000000E+00  0.00000000000E+00  0.14765967661E+04  0.14765967661E+04  0.50400001928E-02 0.  1.
       -1   -1    0    0    0  501  0.00000000000E+00  0.00000000000E+00 -0.11457399823E+04  0.11457399823E+04  0.50400001928E-02 0. -1.
    10030    2    1    2    0    0  0.00000000000E+00  0.00000000000E+00  0.33085678385E+03  0.26223367484E+04  0.26013811352E+04 0.  0.
        2    1    3    3  502    0  0.22268543090E+03 -0.59804669513E+03 -0.97708033271E+03  0.11670195488E+04  0.25500000920E-02 0. -1.
       -2    1    3    3    0  502 -0.22268543090E+03  0.59804669513E+03  0.13079371166E+04  0.14553171996E+04  0.25500000920E-02 0.  1.
</event>
<event>
 5   0  0.2623368E-06  0.2596848E+04  0.7818609E-02  0.8369273E-01
       -2   -1    0    0    0  501  0.00000000000E+00  0.00000000000E+00  0.74120178473E+03  0.74120178474E+03  0.25500000920E-02 0.  1.
        2   -1    0    0  501    0  0.00000000000E+00  0.00000000000E+00 -0.22745556975E+04  0.22745556975E+04  0.25500000920E-02 0. -1.
    10030    2    1    2    0    0  0.00000000000E+00  0.00000000000E+00 -0.15333539128E+04  0.30157574822E+04  0.25968478912E+04 0.  0.
        5    1    3    3  502    0  0.10886468744E+03  0.46335751429E+03 -0.21695772245E+04  0.22211796707E+04  0.46999998093E+01 0. -1.
       -5    1    3    3    0  502 -0.10886468744E+03 -0.46335751429E+03  0.63622331175E+03  0.79457781157E+03  0.46999998093E+01 0.  1.
</event>
<event>
 5   0  0.2586775E-06  0.2600532E+04  0.7818609E-02  0.8368021E-01
       -2   -1    0    0    0  501  0.00000000000E+00  0.00000000000E+00  0.84601974424E+03  0.84601974424E+03  0.25500000920E-02 0.  1.
        2   -1    0    0  501    0  0.00000000000E+00  0.00000000000E+00 -0.19984063260E+04  0.19984063260E+04  0.25500000920E-02 0. -1.
    10030    2    1    2    0    0  0.00000000000E+00  0.00000000000E+00 -0.11523865818E+04  0.28444260702E+04  0.26005316447E+04 0.  0.
        1    1    3    3  502    0 -0.10227648536E+04 -0.71408577635E+03 -0.17472039712E+03  0.12595608992E+04  0.50400001928E-02 0. -1.
       -1    1    3    3    0  502  0.10227648536E+04  0.71408577635E+03 -0.97766618463E+03  0.15848651710E+04  0.50400001928E-02 0.  1.
</event>
<event>
 5   0  0.1122628E-06  0.2598217E+04  0.7818609E-02  0.8368807E-01
       -1   -1    0    0    0  501  0.00000000000E+00  0.00000000000E+00  0.12218415696E+04  0.12218415696E+04  0.50400001928E-02 0. -1.
        1   -1    0    0  501    0  0.00000000000E+00  0.00000000000E+00 -0.13812616289E+04  0.13812616289E+04  0.50400001928E-02 0.  1.
    10030    2    1    2    0    0  0.00000000000E+00  0.00000000000E+00 -0.15942005930E+03  0.26031031984E+04  0.25982169860E+04 0.  0.
        2    1    3    3  502    0  0.91118899166E+03 -0.70201872968E+03 -0.68465612446E+03  0.13385998969E+04  0.25500000920E-02 0.  1.
       -2    1    3    3    0  502 -0.91118899166E+03  0.70201872968E+03  0.52523606516E+03  0.12645033015E+04  0.25500000920E-02 0. -1.
</event>
<event>
 5   0  0.2586775E-06  0.2602978E+04  0.7818609E-02  0.8367190E-01
       -2   -1    0    0    0  501  0.00000000000E+00  0.00000000000E+00  0.95504366505E+03  0.95504366506E+03  0.25500000920E-02 0.  1.
        2   -1    0    0  501    0  0.00000000000E+00  0.00000000000E+00 -0.17736088836E+04  0.17736088836E+04  0.25500000920E-02 0. -1.
    10030    2    1    2    0    0  0.00000000000E+00  0.00000000000E+00 -0.81856521856E+03  0.27286525487E+04  0.26029782393E+04 0.  0.
        1    1    3    3  502    0 -0.39798600349E+03  0.10146859275E+04 -0.11548849575E+04  0.15879986321E+04  0.50400001928E-02 0. -1.
       -1    1    3    3    0  502  0.39798600349E+03 -0.10146859275E+04  0.33631973898E+03  0.11406539165E+04  0.50400001928E-02 0.  1.
</event>
<event>
 5   0  0.1100104E-06  0.2610728E+04  0.7818609E-02  0.8364566E-01
        1   -1    0    0  501    0  0.00000000000E+00  0.00000000000E+00  0.12037873869E+04  0.12037873870E+04  0.50400001928E-02 0. -1.
       -1   -1    0    0    0  501  0.00000000000E+00  0.00000000000E+00 -0.14155117522E+04  0.14155117522E+04  0.50400001928E-02 0.  1.
    10030    2    1    2    0    0  0.00000000000E+00  0.00000000000E+00 -0.21172436529E+03  0.26192991392E+04  0.26107280160E+04 0.  0.
        4    1    3    3  502    0 -0.54461953612E+02  0.83818566858E+03 -0.11083685114E+04  0.13906846118E+04  0.12699999809E+01 0.  1.
       -4    1    3    3    0  502  0.54461953612E+02 -0.83818566858E+03  0.89664414611E+03  0.12286145274E+04  0.12699999809E+01 0. -1.
</event>
<event>
 5   0  0.2820028E-06  0.2558619E+04  0.7818609E-02  0.8382395E-01
       -2   -1    0    0    0  501  0.00000000000E+00  0.00000000000E+00  0.78380467577E+03  0.78380467577E+03  0.25500000920E-02 0.  1.
        2   -1    0    0  501    0  0.00000000000E+00  0.00000000000E+00 -0.20880616841E+04  0.20880616841E+04  0.25500000920E-02 0. -1.
    10030    2    1    2    0    0  0.00000000000E+00  0.00000000000E+00 -0.13042570083E+04  0.28718663599E+04  0.25586187768E+04 0.  0.
        3    1    3    3  502    0 -0.10820064997E+03  0.95116683750E+03  0.30042031460E+03  0.10033334984E+04  0.10100000352E+00 0.  1.
       -3    1    3    3    0  502  0.10820064997E+03 -0.95116683750E+03 -0.16046773229E+04  0.18685328614E+04  0.10100000352E+00 0. -1.
</event>
<event>
 5   0  0.1100104E-06  0.2650007E+04  0.7818609E-02  0.8351411E-01
        1   -1    0    0  501    0  0.00000000000E+00  0.00000000000E+00  0.18316329738E+04  0.18316329738E+04  0.50400001928E-02 0.  1.
       -1   -1    0    0    0  501  0.00000000000E+00  0.00000000000E+00 -0.95850798150E+03  0.95850798151E+03  0.50400001928E-02 0. -1.
    10030    2    1    2    0    0  0.00000000000E+00  0.00000000000E+00  0.87312499235E+03  0.27901409554E+04  0.26500074148E+04 0.  0.
        4    1    3    3  502    0 -0.27236140436E+03  0.10387724891E+04  0.12537525045E+04  0.16507955579E+04  0.12699999809E+01 0.  1.
       -4    1    3    3    0  502  0.27236140436E+03 -0.10387724891E+04 -0.38062751211E+03  0.11393453974E+04  0.12699999809E+01 0. -1.
</event>
<event>
 5   0  0.2820028E-06  0.2590603E+04  0.7818609E-02  0.8371400E-01
        2   -1    0    0  501    0  0.00000000000E+00  0.00000000000E+00  0.13491138813E+04  0.13491138813E+04  0.25500000920E-02 0. -1.
       -2   -1    0    0    0  501  0.00000000000E+00  0.00000000000E+00 -0.12436352500E+04  0.12436352500E+04  0.25500000920E-02 0.  1.
    10030    2    1    2    0    0  0.00000000000E+00  0.00000000000E+00  0.10547863130E+03  0.25927491313E+04  0.25906026936E+04 0.  0.
        3    1    3    3  502    0 -0.12423060561E+04  0.10190165566E+03  0.40530563639E+03  0.13107177246E+04  0.10100000352E+00 0. -1.
       -3    1    3    3    0  502  0.12423060561E+04 -0.10190165566E+03 -0.29982700509E+03  0.12820314067E+04  0.10100000352E+00 0.  1.
</event>
<event>
 5   0  0.2705807E-06  0.2598740E+04  0.7818609E-02  0.8368629E-01
        2   -1    0    0  501    0  0.00000000000E+00  0.00000000000E+00  0.25009658292E+04  0.25009658292E+04  0.25500000920E-02 0.  1.
       -2   -1    0    0    0  501  0.00000000000E+00  0.00000000000E+00 -0.67508390423E+03  0.67508390424E+03  0.25500000920E-02 0. -1.
    10030    2    1    2    0    0  0.00000000000E+00  0.00000000000E+00  0.18258819250E+04  0.31760497335E+04  0.25987395224E+04 0.  0.
        4    1    3    3  502    0 -0.56532647701E+03 -0.71515220397E+03 -0.21866935318E+03  0.93747245259E+03  0.12699999809E+01 0. -1.
       -4    1    3    3    0  502  0.56532647701E+03  0.71515220397E+03  0.20445512782E+04  0.22385772809E+04  0.12699999809E+01 0.  1.
</event>
<event>
 5   0  0.2746631E-06  0.2585966E+04  0.7818609E-02  0.8372984E-01
       -2   -1    0    0    0  501  0.00000000000E+00  0.00000000000E+00  0.12607721698E+04  0.12607721698E+04  0.25500000920E-02 0. -1.
        2   -1    0    0  501    0  0.00000000000E+00  0.00000000000E+00 -0.13260167250E+04  0.13260167250E+04  0.25500000920E-02 0.  1.
    10030    2    1    2    0    0  0.00000000000E+00  0.00000000000E+00 -0.65244555216E+02  0.25867888948E+04  0.25859659577E+04 0.  0.
        2    1    3    3  502    0 -0.32626129586E+03 -0.57153978424E+03 -0.11459458332E+04  0.13214749376E+04  0.25500000920E-02 0.  1.
       -2    1    3    3    0  502  0.32626129586E+03  0.57153978424E+03  0.10807012779E+04  0.12653139572E+04  0.25500000920E-02 0. -1.
</event>
<event>
 5   0  0.2746631E-06  0.2600762E+04  0.7818609E-02  0.8367942E-01
        2   -1    0    0  501    0  0.00000000000E+00  0.00000000000E+00  0.21582769919E+04  0.21582769919E+04  0.25500000920E-02 0.  1.
       -2   -1    0    0    0  501  0.00000000000E+00  0.00000000000E+00 -0.78349125362E+03  0.78349125362E+03  0.25500000920E-02 0. -1.
    10030    2    1    2    0    0  0.00000000000E+00  0.00000000000E+00  0.13747857383E+04  0.29417682455E+04  0.26007623083E+04 0.  0.
        2    1    3    3  502    0 -0.56000730622E+03  0.58128094224E+03  0.18406312435E+04  0.20098306126E+04  0.25500000920E-02 0.  1.
       -2    1    3    3    0  502  0.56000730622E+03 -0.58128094224E+03 -0.46584550524E+03  0.93193763289E+03  0.25500000920E-02 0. -1.
</event>
<event>
 5   0  0.1100104E-06  0.2596423E+04  0.7818609E-02  0.8369417E-01
       -1   -1    0    0    0  501  0.00000000000E+00  0.00000000000E+00  0.13522349085E+04  0.13522349085E+04  0.50400001928E-02 0.  1.
        1   -1    0    0  501    0  0.00000000000E+00  0.00000000000E+00 -0.12463464829E+04  0.12463464830E+04  0.50400001928E-02 0. -1.
    10030    2    1    2    0    0  0.00000000000E+00  0.00000000000E+00  0.10588842551E+03  0.25985813914E+04  0.25964230952E+04 0.  0.
        4    1    3    3  502    0 -0.90778914559E+03  0.16484256905E+02 -0.87572729222E+03  0.12614486778E+04  0.12699999809E+01 0.  1.
       -4    1    3    3    0  502  0.90778914559E+03 -0.16484256905E+02  0.98161571773E+03  0.13371327136E+04  0.12699999809E+01 0. -1.
</event>
<event>
 5   0  0.2746631E-06  0.2606094E+04  0.7818609E-02  0.8366134E-01
       -2   -1    0    0    0  501  0.00000000000E+00  0.00000000000E+00  0.14354959114E+04  0.14354959114E+04  0.25500000920E-02 0.  1.
        2   -1    0    0  501    0  0.00000000000E+00  0.00000000000E+00 -0.11828188520E+04  0.11828188520E+04  0.25500000920E-02 0. -1.
    10030    2    1    2    0    0  0.00000000000E+00  0.00000000000E+00  0.25267705941E+03  0.26183147635E+04  0.26060941089E+04 0.  0.
        2    1    3    3  502    0 -0.90150073839E+03 -0.75337369888E+03 -0.43991427974E+03  0.12545118911E+04  0.25500000920E-02 0. -1.
       -2    1    3    3    0  502  0.90150073839E+03  0.75337369888E+03  0.69259133915E+03  0.13638028723E+04  0.25500000920E-02 0.  1.
</event>
<event>
 5   0  0.2623368E-06  0.2601507E+04  0.7818609E-02  0.8367690E-01
       -2   -1    0    0    0  501  0.00000000000E+00  0.00000000000E+00  0.13167687232E+04  0.13167687232E+04  0.25500000920E-02 0. -1.
        2   -1    0    0  501    0  0.00000000000E+00  0.00000000000E+00 -0.12849329358E+04  0.12849329358E+04  0.25500000920E-02 0.  1.
    10030    2    1    2    0    0  0.00000000000E+00  0.00000000000E+00  0.31835787408E+02  0.26017016590E+04  0.26015068720E+04 0.  0.
        5    1    3    3  502    0 -0.76565647917E+03 -0.10342164313E+04 -0.17410670216E+03  0.12985255888E+04  0.46999998093E+01 0. -1.
       -5    1    3    3    0  502  0.76565647917E+03  0.10342164313E+04  0.20594248956E+03  0.13031760702E+04  0.46999998093E+01 0.  1.
</event>
<event>
 5   0  0.2623368E-06  0.2520971E+04  0.7818609E-02  0.8395553E-01
       -2   -1    0    0    0  501  0.00000000000E+00  0.00000000000E+00  0.82755449366E+03  0.82755449367E+03  0.25500000920E-02 0. -1.
        2   -1    0    0  501    0  0.00000000000E+00  0.00000000000E+00 -0.19199015040E+04  0.19199015040E+04  0.25500000920E-02 0.  1.
    10030    2    1    2    0    0  0.00000000000E+00  0.00000000000E+00 -0.10923470103E+04  0.27474559977E+04  0.25209705409E+04 0.  0.
        5    1    3    3  502    0  0.93516588354E+02  0.81412444735E+03  0.49760537781E+03  0.95873727897E+03  0.46999998093E+01 0. -1.
       -5    1    3    3    0  502 -0.93516588354E+02 -0.81412444735E+03 -0.15899523881E+04  0.17887187187E+04  0.46999998093E+01 0.  1.
</event>
<event>
 5   0  0.2820028E-06  0.2602255E+04  0.7818609E-02  0.8367436E-01
       -2   -1    0    0    0  501  0.00000000000E+00  0.00000000000E+00  0.12176976707E+04  0.12176976707E+04  0.25500000920E-02 0.  1.
        2   -1    0    0  501    0  0.00000000000E+00  0.00000000000E+00 -0.13902731168E+04  0.13902731168E+04  0.25500000920E-02 0. -1.
    10030    2    1    2    0    0  0.00000000000E+00  0.00000000000E+00 -0.17257544618E+03  0.26079707875E+04  0.26022546655E+04 0.  0.
        3    1    3    3  502    0  0.76056062999E+03 -0.81774472237E+03 -0.75541696983E+03  0.13482632204E+04  0.10100000352E+00 0. -1.
       -3    1    3    3    0  502 -0.76056062999E+03  0.81774472237E+03  0.58284152365E+03  0.12597075672E+04  0.10100000352E+00 0.  1.
</event>
<event>
 5   0  0.1088757E-06  0.2600470E+04  0.7818609E-02  0.8368042E-01
       -1   -1    0    0    0  501  0.00000000000E+00  0.00000000000E+00  0.10110936070E+04  0.10110936070E+04  0.50400001928E-02 0.  1.
        1   -1    0    0  501    0  0.00000000000E+00  0.00000000000E+00 -0.16720612278E+04  0.16720612278E+04  0.50400001928E-02 0. -1.
    10030    2    1    2    0    0  0.00000000000E+00  0.00000000000E+00 -0.66096762083E+03  0.26831548348E+04  0.26004695099E+04 0.  0.
        5    1    3    3  502    0  0.12646170153E+04 -0.61807157255E+02 -0.25253405563E+02  0.12663870438E+04  0.46999998093E+01 0. -1.
       -5    1    3    3    0  502 -0.12646170153E+04  0.61807157255E+02 -0.63571421527E+03  0.14167677910E+04  0.46999998093E+01 0.  1.
</event>
<event>
 5   0  0.1032076E-06  0.2593745E+04  0.7818609E-02  0.8370329E-01
        1   -1    0    0  501    0  0.00000000000E+00  0.00000000000E+00  0.22578594776E+04  0.22578594776E+04  0.50400001928E-02 0.  1.
       -1   -1    0    0    0  501  0.00000000000E+00  0.00000000000E+00 -0.74489922519E+03  0.74489922520E+03  0.50400001928E-02 0. -1.
    10030    2    1    2    0    0  0.00000000000E+00  0.00000000000E+00  0.15129602524E+04  0.30027587028E+04  0.25937446100E+04 0.  0.
        1    1    3    3  502    0  0.84900804168E+03  0.90479972191E+02 -0.37360596538E+03  0.93197784179E+03  0.50400001928E-02 0. -1.
       -1    1    3    3    0  502 -0.84900804168E+03 -0.90479972191E+02  0.18865662178E+04  0.20707808610E+04  0.50400001928E-02 0.  1.
</event>
<event>
 5   0  0.2820028E-06  0.2595402E+04  0.7818609E-02  0.8369765E-01
       -2   -1    0    0    0  501  0.00000000000E+00  0.00000000000E+00  0.10360194427E+04  0.10360194427E+04  0.25500000920E-02 0.  1.
        2   -1    0    0  501    0  0.00000000000E+00  0.00000000000E+00 -0.16254787112E+04  0.16254787112E+04  0.25500000920E-02 0. -1.
    10030    2    1    2    0    0  0.00000000000E+00  0.00000000000E+00 -0.58945926849E+03  0.26614981539E+04  0.25954017404E+04 0.  0.
        3    1    3    3  502    0 -0.10629451921E+04  0.19219778332E+03  0.44277636789E+03  0.11674088365E+04  0.10100000352E+00 0.  1.
       -3    1    3    3    0  502  0.10629451921E+04 -0.19219778332E+03 -0.10322356364E+04  0.14940893174E+04  0.10100000352E+00 0. -1.
</event>
<event>
 5   0  0.1122628E-06  0.2595206E+04  0.7818609E-02  0.8369831E-01
        1   -1    0    0  501    0  0.00000000000E+00  0.00000000000E+00  0.15005175123E+04  0.15005175123E+04  0.50400001928E-02 0.  1.
       -1   -1    0    0    0  501  0.00000000000E+00  0.00000000000E+00 -0.11221288880E+04  0.11221288880E+04  0.50400001928E-02 0. -1.
    10030    2    1    2    0    0  0.00000000000E+00  0.00000000000E+00  0.37838862422E+03  0.26226464003E+04  0.25952063868E+04 0.  0.
        2    1    3    3  502    0 -0.67821289785E+03  0.17651817939E+03  0.12928230642E+04  0.14705518957E+04  0.25500000920E-02 0.  1.
       -2    1    3    3    0  502  0.67821289785E+03 -0.17651817939E+03 -0.91443444002E+03  0.11520945046E+04  0.25500000920E-02 0. -1.
</event>
<event>
 5   0  0.2705807E-06  0.2593321E+04  0.7818609E-02  0.8370473E-01
       -2   -1    0    0    0  501  0.00000000000E+00  0.00000000000E+00  0.13658197216E+04  0.13658197217E+04  0.25500000920E-02 0.  1.
        2   -1    0    0  501    0  0.00000000000E+00  0.00000000000E+00 -0.12310032229E+04  0.12310032229E+04  0.25500000920E-02 0. -1.
    10030    2    1    2    0    0  0.00000000000E+00  0.00000000000E+00  0.13481649874E+03  0.25968229446E+04  0.25933210208E+04 0.  0.
        4    1    3    3  502    0  0.35838631229E+03 -0.74035355374E+03 -0.93632386290E+03  0.12463017783E+04  0.12699999809E+01 0. -1.
       -4    1    3    3    0  502 -0.35838631229E+03  0.74035355374E+03  0.10711403616E+04  0.13505211663E+04  0.12699999809E+01 0.  1.
</event>
<event>
 5   0  0.1100104E-06  0.2524646E+04  0.7818609E-02  0.8394258E-01
       -1   -1    0    0    0  501  0.00000000000E+00  0.00000000000E+00  0.97127928119E+03  0.97127928120E+03  0.50400001928E-02 0. -1.
        1   -1    0    0  501    0  0.00000000000E+00  0.00000000000E+00 -0.16405776752E+04  0.16405776752E+04  0.50400001928E-02 0.  1.
    10030    2    1    2    0    0  0.00000000000E+00  0.00000000000E+00 -0.66929839402E+03  0.26118569564E+04  0.25246458010E+04 0.  0.
        4    1    3    3  502    0 -0.60115222752E+03 -0.47036362616E+03  0.70548248734E+03  0.10393907323E+04  0.12699999809E+01 0. -1.
       -4    1    3    3    0  502  0.60115222752E+03  0.47036362616E+03 -0.13747808814E+04  0.15724662242E+04  0.12699999809E+01 0.  1.
</event>
<event>
 5   0  0.2705807E-06  0.2576694E+04  0.7818609E-02  0.8376161E-01
       -2   -1    0    0    0  501  0.00000000000E+00  0.00000000000E+00  0.14152848612E+04  0.14152848612E+04  0.25500000920E-02 0.  1.
        2   -1    0    0  501    0  0.00000000000E+00  0.00000000000E+00 -0.11727944532E+04  0.11727944532E+04  0.25500000920E-02 0. -1.
    10030    2    1    2    0    0  0.00000000000E+00  0.00000000000E+00  0.24249040806E+03  0.25880793144E+04  0.25766941882E+04 0.  0.
        4    1    3    3  502    0 -0.11926076142E+04 -0.47160584337E+03 -0.22273253029E+01  0.12824708835E+04  0.12699999809E+01 0.  1.
       -4    1    3    3    0  502  0.11926076142E+04  0.47160584337E+03  0.24471773336E+03  0.13056084310E+04  0.12699999809E+01 0. -1.
</event>
<event>
 5   0  0.2586775E-06  0.2595192E+04  0.7818609E-02  0.8369836E-01
        2   -1    0    0  501    0  0.00000000000E+00  0.00000000000E+00  0.16728195269E+04  0.16728195269E+04  0.25500000920E-02 0. -1.
       -2   -1    0    0    0  501  0.00000000000E+00  0.00000000000E+00 -0.10065370512E+04  0.10065370512E+04  0.25500000920E-02 0.  1.
    10030    2    1    2    0    0  0.00000000000E+00  0.00000000000E+00  0.66628247572E+03  0.26793565781E+04  0.25951915797E+04 0.  0.
        1    1    3    3  502    0 -0.43921710291E+03 -0.10142799416E+04 -0.36866848616E+03  0.11651574641E+04  0.50400001928E-02 0.  1.
       -1    1    3    3    0  502  0.43921710291E+03  0.10142799416E+04  0.10349509619E+04  0.15141991140E+04  0.50400001928E-02 0. -1.
</event>
<event>
 5   0  0.2746631E-06  0.2601966E+04  0.7818609E-02  0.8367534E-01
       -2   -1    0    0    0  501  0.00000000000E+00  0.00000000000E+00  0.72696981204E+03  0.72696981204E+03  0.25500000920E-02 0.  1.
        2   -1    0    0  501    0  0.00000000000E+00  0.00000000000E+00 -0.23282358304E+04  0.23282358304E+04  0.25500000920E-02 0. -1.
    10030    2    1    2    0    0  0.00000000000E+00  0.00000000000E+00 -0.16012660184E+04  0.30552056425E+04  0.26019663057E+04 0.  0.
        2    1    3    3  502    0  0.24058087079E+03  0.94712133841E+03 -0.18090978626E+04  0.20561500581E+04  0.25500000920E-02 0. -1.
       -2    1    3    3    0  502 -0.24058087079E+03 -0.94712133841E+03  0.20783184424E+03  0.99905558432E+03  0.25500000920E-02 0.  1.
</event>
<event>
 5   0  0.1055179E-06  0.2599182E+04  0.7818609E-02  0.8368479E-01
       -1   -1    0    0    0  501  0.00000000000E+00  0.00000000000E+00  0.11499514816E+04  0.11499514816E+04  0.50400001928E-02 0.  1.
        1   -1    0    0  501    0  0.00000000000E+00  0.00000000000E+00 -0.14687025221E+04  0.14687025221E+04  0.50400001928E-02 0. -1.
    10030    2    1    2    0    0  0.00000000000E+00  0.00000000000E+00 -0.31875104051E+03  0.26186540037E+04  0.25991819030E+04 0.  0.
        3    1    3    3  502    0  0.35942955095E+03 -0.72900268747E+03  0.86227370268E+03  0.11849685519E+04  0.10100000352E+00 0.  1.
       -3    1    3    3    0  502 -0.35942955095E+03  0.72900268747E+03 -0.11810247432E+04  0.14336854518E+04  0.10100000352E+00 0. -1.
</event>
<event>
 5   0  0.9197000E-07  0.2600392E+04  0.7818609E-02  0.8368068E-01
        3   -1    0    0  501    0  0.00000000000E+00  0.00000000000E+00  0.20329699841E+04  0.20329699866E+04  0.10100000352E+00 0.  1.
       -3   -1    0    0    0  501  0.00000000000E+00  0.00000000000E+00 -0.83154698515E+03  0.83154699128E+03  0.10100000352E+00 0. -1.
    10030    2    1    2    0    0  0.00000000000E+00  0.00000000000E+00  0.12014229990E+04  0.28645169779E+04  0.26003923347E+04 0.  0.
        5    1    3    3  502    0 -0.24286563209E+02  0.12998072779E+04  0.57870248923E+03  0.14230275675E+04  0.46999998093E+01 0.  1.
       -5    1    3    3    0  502  0.24286563209E+02 -0.12998072779E+04  0.62272050973E+03  0.14414894104E+04  0.46999998093E+01 0. -1.
</event>
<event>
 5   0  0.1032076E-06  0.2585066E+04  0.7818609E-02  0.8373292E-01
       -1   -1    0    0    0  501  0.00000000000E+00  0.00000000000E+00  0.19566677849E+04  0.19566677849E+04  0.50400001928E-02 0.  1.
        1   -1    0    0  501    0  0.00000000000E+00  0.00000000000E+00 -0.85381967607E+03  0.85381967608E+03  0.50400001928E-02 0. -1.
    10030    2    1    2    0    0  0.00000000000E+00  0.00000000000E+00  0.11028481089E+04  0.28104874610E+04  0.25850659213E+04 0.  0.
        1    1    3    3  502    0 -0.23248112750E+03  0.99946884485E+03 -0.30301947374E+03  0.10699561897E+04  0.50400001928E-02 0. -1.
       -1    1    3    3    0  502  0.23248112750E+03 -0.99946884485E+03  0.14058675826E+04  0.17405312713E+04  0.50400001928E-02 0.  1.
</event>
<event>
 5   0  0.1122628E-06  0.2602376E+04  0.7818609E-02  0.8367394E-01
        1   -1    0    0  501    0  0.00000000000E+00  0.00000000000E+00  0.13984319593E+04  0.13984319593E+04  0.50400001928E-02 0.  1.
       -1   -1    0    0    0  501  0.00000000000E+00  0.00000000000E+00 -0.12107064275E+04  0.12107064275E+04  0.50400001928E-02 0. -1.
    10030    2    1    2    0    0  0.00000000000E+00  0.00000000000E+00  0.18772553181E+03  0.26091383869E+04  0.26023762692E+04 0.  0.
        2    1    3    3  502    0 -0.11413346401E+04  0.60903090607E+03 -0.46239940958E+02  0.12944889097E+04  0.25500000920E-02 0. -1.
       -2    1    3    3    0  502  0.11413346401E+04 -0.60903090607E+03  0.23396547277E+03  0.13146494771E+04  0.25500000920E-02 0.  1.
</event>
<event>
 5   0  0.2746631E-06  0.2602938E+04  0.7818609E-02  0.8367204E-01
        2   -1    0    0  501    0  0.00000000000E+00  0.00000000000E+00  0.15825257457E+04  0.15825257457E+04  0.25500000920E-02 0.  1.
       -2   -1    0    0    0  501  0.00000000000E+00  0.00000000000E+00 -0.10703277485E+04  0.10703277485E+04  0.25500000920E-02 0. -1.
    10030    2    1    2    0    0  0.00000000000E+00  0.00000000000E+00  0.51219799725E+03  0.26528534942E+04  0.26029377391E+04 0.  0.
        2    1    3    3  502    0  0.24485455637E+03  0.12778504094E+04  0.22442578285E+03  0.13203114612E+04  0.25500000920E-02 0. -1.
       -2    1    3    3    0  502 -0.24485455637E+03 -0.12778504094E+04  0.28777221440E+03  0.13325420331E+04  0.25500000920E-02 0.  1.
</event>
<event>
 5   0  0.2623368E-06  0.2601095E+04  0.7818609E-02  0.8367829E-01
       -2   -1    0    0    0  501  0.00000000000E+00  0.00000000000E+00  0.10277110376E+04  0.10277110376E+04  0.25500000920E-02 0.  1.
        2   -1    0    0  501    0  0.00000000000E+00  0.00000000000E+00 -0.16458169910E+04  0.16458169910E+04  0.25500000920E-02 0. -1.
    10030    2    1    2    0    0  0.00000000000E+00  0.00000000000E+00 -0.61810595340E+03  0.26735280285E+04  0.26010953750E+04 0.  0.
        5    1    3    3  502    0  0.11525742579E+04  0.59075359683E+03 -0.43060415137E+03  0.13648660218E+04  0.46999998093E+01 0. -1.
       -5    1    3    3    0  502 -0.11525742579E+04 -0.59075359683E+03 -0.18750180203E+03  0.13086620068E+04  0.46999998093E+01 0.  1.
</event>
<event>
 5   0  0.1032076E-06  0.2599999E+04  0.7818609E-02  0.8368202E-01
       -1   -1    0    0    0  501  0.00000000000E+00  0.00000000000E+00  0.80514365391E+03  0.80514365392E+03  0.50400001928E-02 0.  1.
        1   -1    0    0  501    0  0.00000000000E+00  0.00000000000E+00 -0.20990019277E+04  0.20990019277E+04  0.50400001928E-02 0. -1.
    10030    2    1    2    0    0  0.00000000000E+00  0.00000000000E+00 -0.12938582738E+04  0.29041455816E+04  0.25999985244E+04 0.  0.
        1    1    3    3  502    0  0.12882919626E+04 -0.17041058392E+03 -0.60724673408E+03  0.14343934412E+04  0.50400001928E-02 0.  1.
       -1    1    3    3    0  502 -0.12882919626E+04  0.17041058392E+03 -0.68661153973E+03  0.14697521405E+04  0.50400001928E-02 0. -1.
</event>
<event>
 5   0  0.2586775E-06  0.2606896E+04  0.7818609E-02  0.8365862E-01
        2   -1    0    0  501    0  0.00000000000E+00  0.00000000000E+00  0.96149123214E+03  0.96149123215E+03  0.25500000920E-02 0.  1.
       -2   -1    0    0    0  501  0.00000000000E+00  0.00000000000E+00 -0.17670231375E+04  0.17670231375E+04  0.25500000920E-02 0. -1.
    10030    2    1    2    0    0  0.00000000000E+00  0.00000000000E+00 -0.80553190534E+03  0.27285143696E+04  0.26068964335E+04 0.  0.
        1    1    3    3  502    0 -0.10353998719E+04 -0.54480088642E+03  0.19859605443E+03  0.11867187087E+04  0.50400001928E-02 0.  1.
       -1    1    3    3    0  502  0.10353998719E+04  0.54480088642E+03 -0.10041279598E+04  0.15417956610E+04  0.50400001928E-02 0. -1.
</event>
<event>
 5   0  0.1032076E-06  0.2597927E+04  0.7818609E-02  0.8368906E-01
       -1   -1    0    0    0  501  0.00000000000E+00  0.00000000000E+00  0.84353592631E+03  0.84353592633E+03  0.50400001928E-02 0.  1.
        1   -1    0    0  501    0  0.00000000000E+00  0.00000000000E+00 -0.20002778251E+04  0.20002778251E+04  0.50400001928E-02 0. -1.
    10030    2    1    2    0    0  0.00000000000E+00  0.00000000000E+00 -0.11567418988E+04  0.28438137514E+04  0.25979270260E+04 0.  0.
        1    1    3    3  502    0 -0.53996196026E+03 -0.10741142678E+04 -0.11168949463E+04  0.16409554229E+04  0.50400001928E-02 0. -1.
       -1    1    3    3    0  502  0.53996196026E+03  0.10741142678E+04 -0.39846952528E+02  0.12028583285E+04  0.50400001928E-02 0.  1.
</event>
<event>
 5   0  0.2623368E-06  0.2604305E+04  0.7818609E-02  0.8366740E-01
       -2   -1    0    0    0  501  0.00000000000E+00  0.00000000000E+00  0.14986888194E+04  0.14986888194E+04  0.25500000920E-02 0. -1.
        2   -1    0    0  501    0  0.00000000000E+00  0.00000000000E+00 -0.11313901155E+04  0.11313901155E+04  0.25500000920E-02 0.  1.
    10030    2    1    2    0    0  0.00000000000E+00  0.00000000000E+00  0.36729870390E+03  0.26300789350E+04  0.26043054480E+04 0.  0.
        5    1    3    3  502    0  0.12307258844E+03 -0.90555352753E+03 -0.75311093490E+03  0.11842179797E+04  0.46999998093E+01 0.  1.
       -5    1    3    3    0  502 -0.12307258844E+03  0.90555352753E+03  0.11204096388E+04  0.14458609553E+04  0.46999998093E+01 0. -1.
</event>
<event>
 5   0  0.2586775E-06  0.2609453E+04  0.7818609E-02  0.8364997E-01
        2   -1    0    0  501    0  0.00000000000E+00  0.00000000000E+00  0.12340142334E+04  0.12340142334E+04  0.25500000920E-02 0. -1.
       -2   -1    0    0    0  501  0.00000000000E+00  0.00000000000E+00 -0.13794912466E+04  0.13794912466E+04  0.25500000920E-02 0.  1.
    10030    2    1    2    0    0  0.00000000000E+00  0.00000000000E+00 -0.14547701319E+03  0.26135054800E+04  0.26094534547E+04 0.  0.
        1    1    3    3  502    0  0.45705118929E+02  0.13039196581E+04 -0.68682482507E+02  0.13065269673E+04  0.50400001928E-02 0.  1.
       -1    1    3    3    0  502 -0.45705118929E+02 -0.13039196581E+04 -0.76794530687E+02  0.13069785127E+04  0.50400001928E-02 0. -1.
</event>
<event>
 5   0  0.2623368E-06  0.2604055E+04  0.7818609E-02  0.8366825E-01
        2   -1    0    0  501    0  0.00000000000E+00  0.00000000000E+00  0.14792147489E+04  0.14792147489E+04  0.25500000920E-02 0. -1.
       -2   -1    0    0    0  501  0.00000000000E+00  0.00000000000E+00 -0.11460645827E+04  0.11460645827E+04  0.25500000920E-02 0.  1.
    10030    2    1    2    0    0  0.00000000000E+00  0.00000000000E+00  0.33315016620E+03  0.26252793316E+04  0.26040550178E+04 0.  0.
        5    1    3    3  502    0 -0.12093327372E+04 -0.39406915920E+03 -0.11404115993E+03  0.12770292274E+04  0.46999998093E+01 0.  1.
       -5    1    3    3    0  502  0.12093327372E+04  0.39406915920E+03  0.44719132614E+03  0.13482501042E+04  0.46999998093E+01 0. -1.
</event>
<event>
 5   0  0.2623368E-06  0.2602533E+04  0.7818609E-02  0.8367341E-01
       -2   -1    0    0    0  501  0.00000000000E+00  0.00000000000E+00  0.86641724158E+03  0.86641724158E+03  0.25500000920E-02 0.  1.
        2   -1    0    0  501    0  0.00000000000E+00  0.00000000000E+00 -0.19543635398E+04  0.19543635398E+04  0.25500000920E-02 0. -1.
    10030    2    1    2    0    0  0.00000000000E+00  0.00000000000E+00 -0.10879462982E+04  0.28207807814E+04  0.26025328180E+04 0.  0.
        5    1    3    3  502    0  0.60855330528E+03 -0.32327987318E+03  0.65241624199E+03  0.94895523846E+03  0.46999998093E+01 0.  1.
       -5    1    3    3    0  502 -0.60855330528E+03  0.32327987318E+03 -0.17403625402E+04  0.18718255429E+04  0.46999998093E+01 0. -1.
</event>
<event>
 5   0  0.9197000E-07  0.2606707E+04  0.7818609E-02  0.8365927E-01
        4   -1    0    0  501    0  0.00000000000E+00  0.00000000000E+00  0.18231497177E+04  0.18231501600E+04  0.12699999809E+01 0. -1.
       -4   -1    0    0    0  501  0.00000000000E+00  0.00000000000E+00 -0.93175485525E+03  0.93175572077E+03  0.12699999809E+01 0.  1.
    10030    2    1    2    0    0  0.00000000000E+00  0.00000000000E+00  0.89139486244E+03  0.27549058808E+04  0.26067070436E+04 0.  0.
        1    1    3    3  502    0 -0.86717703330E+03  0.91902258135E+03  0.10794753326E+03  0.12681684360E+04  0.50400001928E-02 0. -1.
       -1    1    3    3    0  502  0.86717703330E+03 -0.91902258135E+03  0.78344732918E+03  0.14867374448E+04  0.50400001928E-02 0.  1.
</event>
<event>
 5   0  0.2586775E-06  0.2602216E+04  0.7818609E-02  0.8367449E-01
        2   -1    0    0  501    0  0.00000000000E+00  0.00000000000E+00  0.12214691331E+04  0.12214691331E+04  0.25500000920E-02 0. -1.
       -2   -1    0    0    0  501  0.00000000000E+00  0.00000000000E+00 -0.13859396435E+04  0.13859396436E+04  0.25500000920E-02 0.  1.
    10030    2    1    2    0    0  0.00000000000E+00  0.00000000000E+00 -0.16447051049E+03  0.26074087766E+04  0.26022163591E+04 0.  0.
        1    1    3    3  502    0  0.74572000593E+03 -0.61646044610E+03 -0.95389100923E+03  0.13586868169E+04  0.50400001928E-02 0.  1.
       -1    1    3    3    0  502 -0.74572000593E+03  0.61646044610E+03  0.78942049874E+03  0.12487219597E+04  0.50400001928E-02 0. -1.
</event>
<event>
 5   0  0.1122628E-06  0.2600896E+04  0.7818609E-02  0.8367897E-01
       -1   -1    0    0    0  501  0.00000000000E+00  0.00000000000E+00  0.91889852050E+03  0.91889852052E+03  0.50400001928E-02 0. -1.
        1   -1    0    0  501    0  0.00000000000E+00  0.00000000000E+00 -0.18404269492E+04  0.18404269492E+04  0.50400001928E-02 0.  1.
    10030    2    1    2    0    0  0.00000000000E+00  0.00000000000E+00 -0.92152842871E+03  0.27593254697E+04  0.26008964614E+04 0.  0.
        2    1    3    3  502    0 -0.94146363058E+03 -0.79581016067E+03 -0.90011299215E+03  0.15263914892E+04  0.25500000920E-02 0.  1.
       -2    1    3    3    0  502  0.94146363058E+03  0.79581016067E+03 -0.21415436559E+02  0.12329339806E+04  0.25500000920E-02 0. -1.
</event>
<event>
 5   0  0.2705807E-06  0.2602342E+04  0.7818609E-02  0.8367406E-01
        2   -1    0    0  501    0  0.00000000000E+00  0.00000000000E+00  0.22384712386E+04  0.22384712386E+04  0.25500000920E-02 0. -1.
       -2   -1    0    0    0  501  0.00000000000E+00  0.00000000000E+00 -0.75634032755E+03  0.75634032755E+03  0.25500000920E-02 0.  1.
    10030    2    1    2    0    0  0.00000000000E+00  0.00000000000E+00  0.14821309111E+04  0.29948115662E+04  0.26023420758E+04 0.  0.
        4    1    3    3  502    0 -0.48288983962E+02 -0.80910725209E+03 -0.43031283343E+03  0.91769118927E+03  0.12699999809E+01 0.  1.
       -4    1    3    3    0  502  0.48288983962E+02  0.80910725209E+03  0.19124437445E+04  0.20771203769E+04  0.12699999809E+01 0. -1.
</event>
<event>
 5   0  0.1055179E-06  0.2606655E+04  0.7818609E-02  0.8365944E-01
        1   -1    0    0  501    0  0.00000000000E+00  0.00000000000E+00  0.11037354264E+04  0.11037354264E+04  0.50400001928E-02 0.  1.
       -1   -1    0    0    0  501  0.00000000000E+00  0.00000000000E+00 -0.15390118841E+04  0.15390118841E+04  0.50400001928E-02 0. -1.
    10030    2    1    2    0    0  0.00000000000E+00  0.00000000000E+00 -0.43527645768E+03  0.26427473105E+04  0.26066545135E+04 0.  0.
        3    1    3    3  502    0 -0.58989236028E+03 -0.16575221000E+03  0.94860032959E+03  0.11292871147E+04  0.10100000352E+00 0.  1.
       -3    1    3    3    0  502  0.58989236028E+03  0.16575221000E+03 -0.13838767873E+04  0.15134601958E+04  0.10100000352E+00 0. -1.
</event>
<event>
 5   0  0.2820028E-06  0.2597713E+04  0.7818609E-02  0.8368979E-01
       -2   -1    0    0    0  501  0.00000000000E+00  0.00000000000E+00  0.76515868992E+03  0.76515868992E+03  0.25500000920E-02 0. -1.
        2   -1    0    0  501    0  0.00000000000E+00  0.00000000000E+00 -0.22048080161E+04  0.22048080161E+04  0.25500000920E-02 0.  1.
    10030    2    1    2    0    0  0.00000000000E+00  0.00000000000E+00 -0.14396493262E+04  0.29699667060E+04  0.25977128503E+04 0.  0.
        3    1    3    3  502    0  0.89631364818E+03 -0.41223173531E+03 -0.16857038384E+04  0.19531796129E+04  0.10100000352E+00 0. -1.
       -3    1    3    3    0  502 -0.89631364818E+03  0.41223173531E+03  0.24605451218E+03  0.10167870931E+04  0.10100000352E+00 0.  1.
</event>
<event>
 5   0  0.1100104E-06  0.2601684E+04  0.7818609E-02  0.8367629E-01
       -1   -1    0    0    0  501  0.00000000000E+00  0.00000000000E+00  0.14395715938E+04  0.14395715938E+04  0.50400001928E-02 0.  1.
        1   -1    0    0  501    0  0.00000000000E+00  0.00000000000E+00 -0.11754819330E+04  0.11754819330E+04  0.50400001928E-02 0. -1.
    10030    2    1    2    0    0  0.00000000000E+00  0.00000000000E+00  0.26408966080E+03  0.26150535268E+04  0.26016843773E+04 0.  0.
        4    1    3    3  502    0 -0.11141069768E+04  0.64704282314E+03  0.31266244592E+03  0.13257670190E+04  0.12699999809E+01 0.  1.
       -4    1    3    3    0  502  0.11141069768E+04 -0.64704282314E+03 -0.48572785122E+02  0.12892865078E+04  0.12699999809E+01 0. -1.
</event>
<event>
 5   0  0.2586775E-06  0.2598465E+04  0.7818609E-02  0.8368723E-01
       -2   -1    0    0    0  501  0.00000000000E+00  0.00000000000E+00  0.11712329360E+04  0.11712329360E+04  0.25500000920E-02 0.  1.
        2   -1    0    0  501    0  0.00000000000E+00  0.00000000000E+00 -0.14412203247E+04  0.14412203247E+04  0.25500000920E-02 0. -1.
    10030    2    1    2    0    0  0.00000000000E+00  0.00000000000E+00 -0.26998738868E+03  0.26124532608E+04  0.25984647101E+04 0.  0.
        1    1    3    3  502    0 -0.72606280643E+03  0.47168561710E+03 -0.11088932773E+04  0.14068755527E+04  0.50400001928E-02 0. -1.
       -1    1    3    3    0  502  0.72606280643E+03 -0.47168561710E+03  0.83890588863E+03  0.12055777081E+04  0.50400001928E-02 0.  1.
</event>
<event>
 5   0  0.1088757E-06  0.2600972E+04  0.7818609E-02  0.8367871E-01
        1   -1    0    0  501    0  0.00000000000E+00  0.00000000000E+00  0.80876079734E+03  0.80876079735E+03  0.50400001928E-02 0.  1.
       -1   -1    0    0    0  501  0.00000000000E+00  0.00000000000E+00 -0.20911795560E+04  0.20911795561E+04  0.50400001928E-02 0. -1.
    10030    2    1    2    0    0  0.00000000000E+00  0.00000000000E+00 -0.12824187587E+04  0.28999403534E+04  0.26009721607E+04 0.  0.
        5    1    3    3  502    0  0.11552968513E+04 -0.10949249771E+03  0.13238075365E+02  0.11605588129E+04  0.46999998093E+01 0. -1.
       -5    1    3    3    0  502 -0.11552968513E+04  0.10949249771E+03 -0.12956568341E+04  0.17393815405E+04  0.46999998093E+01 0.  1.
</event>
<event>
 5   0  0.1100104E-06  0.2595382E+04  0.7818609E-02  0.8369771E-01
        1   -1    0    0  501    0  0.00000000000E+00  0.00000000000E+00  0.19041349117E+04  0.19041349117E+04  0.50400001928E-02 0. -1.
       -1   -1    0    0    0  501  0.00000000000E+00  0.00000000000E+00 -0.88439217096E+03  0.88439217098E+03  0.50400001928E-02 0.  1.
    10030    2    1    2    0    0  0.00000000000E+00  0.00000000000E+00  0.10197427407E+04  0.27885270827E+04  0.25953820592E+04 0.  0.
        4    1    3    3  502    0  0.14172742021E+03  0.12787457492E+04  0.32778024011E+03  0.13276742264E+04  0.12699999809E+01 0.  1.
       -4    1    3    3    0  502 -0.14172742021E+03 -0.12787457492E+04  0.69196250060E+03  0.14608528563E+04  0.12699999809E+01 0. -1.
</event>
<event>
 5   0  0.2820028E-06  0.2624171E+04  0.7818609E-02  0.8360037E-01
       -2   -1    0    0    0  501  0.00000000000E+00  0.00000000000E+00  0.10459520307E+04  0.10459520307E+04  0.25500000920E-02 0. -1.
        2   -1    0    0  501    0  0.00000000000E+00  0.00000000000E+00 -0.16459345949E+04  0.16459345949E+04  0.25500000920E-02 0.  1.
    10030    2    1    2    0    0  0.00000000000E+00  0.00000000000E+00 -0.59998256420E+03  0.26918866256E+04  0.26241712078E+04 0.  0.
        3    1    3    3  502    0 -0.30433350176E+03 -0.66692765168E+03 -0.14162613705E+04  0.15947437577E+04  0.10100000352E+00 0.  1.
       -3    1    3    3    0  502  0.30433350176E+03  0.66692765168E+03  0.81627880627E+03  0.10971428679E+04  0.10100000352E+00 0. -1.
</event>
<event>
 5   0  0.1088757E-06  0.2604232E+04  0.7818609E-02  0.8366765E-01
       -1   -1    0    0    0  501  0.00000000000E+00  0.00000000000E+00  0.14091629301E+04  0.14091629301E+04  0.50400001928E-02 0. -1.
        1   -1    0    0  501    0  0.00000000000E+00  0.00000000000E+00 -0.12032005396E+04  0.12032005396E+04  0.50400001928E-02 0.  1.
    10030    2    1    2    0    0  0.00000000000E+00  0.00000000000E+00  0.20596239048E+03  0.26123634698E+04  0.26042316318E+04 0.  0.
        5    1    3    3  502    0 -0.24463586060E+03  0.11925787188E+04  0.56636822826E+03  0.13427158168E+04  0.46999998093E+01 0. -1.
       -5    1    3    3    0  502  0.24463586060E+03 -0.11925787188E+04 -0.36040583778E+03  0.12696476530E+04  0.46999998093E+01 0.  1.
</event>
<event>
 5   0  0.1055179E-06  0.2601723E+04  0.7818609E-02  0.8367616E-01
        1   -1    0    0  501    0  0.00000000000E+00  0.00000000000E+00  0.15535317008E+04  0.15535317008E+04  0.50400001928E-02 0. -1.
       -1   -1    0    0    0  501  0.00000000000E+00  0.00000000000E+00 -0.10892865492E+04  0.10892865492E+04  0.50400001928E-02 0.  1.
    10030    2    1    2    0    0  0.00000000000E+00  0.00000000000E+00  0.46424515159E+03  0.26428182500E+04  0.26017234176E+04 0.  0.
        3    1    3    3  502    0  0.59790510922E+03 -0.39188244741E+03  0.13361096626E+04  0.15153387123E+04  0.10100000352E+00 0. -1.
       -3    1    3    3    0  502 -0.59790510922E+03  0.39188244741E+03 -0.87186451102E+03  0.11274795377E+04  0.10100000352E+00 0.  1.
</event>
<event>
 5   0  0.1122628E-06  0.2564720E+04  0.7818609E-02  0.8380285E-01
       -1   -1    0    0    0  501  0.00000000000E+00  0.00000000000E+00  0.96277893608E+03  0.96277893610E+03  0.50400001928E-02 0. -1.
        1   -1    0    0  501    0  0.00000000000E+00  0.00000000000E+00 -0.17080215908E+04  0.17080215908E+04  0.50400001928E-02 0.  1.
    10030    2    1    2    0    0  0.00000000000E+00  0.00000000000E+00 -0.74524265475E+03  0.26708005269E+04  0.25647200316E+04 0.  0.
        2    1    3    3  502    0  0.10739618374E+04  0.60183299766E+03  0.11827891380E+01  0.12310964155E+04  0.25500000920E-02 0.  1.
       -2    1    3    3    0  502 -0.10739618374E+04 -0.60183299766E+03 -0.74642544389E+03  0.14397041115E+04  0.25500000920E-02 0. -1.
</event>
<event>
 5   0  0.2746631E-06  0.2601695E+04  0.7818609E-02  0.8367626E-01
        2   -1    0    0  501    0  0.00000000000E+00  0.00000000000E+00  0.11465616889E+04  0.11465616889E+04  0.25500000920E-02 0.  1.
       -2   -1    0    0    0  501  0.00000000000E+00  0.00000000000E+00 -0.14758946827E+04  0.14758946827E+04  0.25500000920E-02 0. -1.
    10030    2    1    2    0    0  0.00000000000E+00  0.00000000000E+00 -0.32933299387E+03  0.26224563716E+04  0.26016950629E+04 0.  0.
        2    1    3    3  502    0  0.62264978684E+03 -0.11412354519E+04 -0.11855005324E+03  0.13054367962E+04  0.25500000920E-02 0. -1.
       -2    1    3    3    0  502 -0.62264978684E+03  0.11412354519E+04 -0.21078294062E+03  0.13170195754E+04  0.25500000920E-02 0.  1.
</event>
<event>
 5   0  0.1122628E-06  0.2603356E+04  0.7818609E-02  0.8367062E-01
       -1   -1    0    0    0  501  0.00000000000E+00  0.00000000000E+00  0.12139750318E+04  0.12139750318E+04  0.50400001928E-02 0. -1.
        1   -1    0    0  501    0  0.00000000000E+00  0.00000000000E+00 -0.13957172092E+04  0.13957172092E+04  0.50400001928E-02 0.  1.
    10030    2    1    2    0    0  0.00000000000E+00  0.00000000000E+00 -0.18174217737E+03  0.26096922410E+04  0.26033561749E+04 0.  0.
        2    1    3    3  502    0 -0.29799483496E+03  0.21961894826E+03 -0.13418395762E+04  0.13919651046E+04  0.25500000920E-02 0.  1.
       -2    1    3    3    0  502  0.29799483496E+03 -0.21961894826E+03  0.11600973988E+04  0.12177271364E+04  0.25500000920E-02 0. -1.
</event>
<event>
 5   0  0.1122628E-06  0.2597624E+04  0.7818609E-02  0.8369009E-01
        1   -1    0    0  501    0  0.00000000000E+00  0.00000000000E+00  0.10976724706E+04  0.10976724706E+04  0.50400001928E-02 0.  1.
       -1   -1    0    0    0  501  0.00000000000E+00  0.00000000000E+00 -0.15368088010E+04  0.15368088011E+04  0.50400001928E-02 0. -1.
    10030    2    1    2    0    0  0.00000000000E+00  0.00000000000E+00 -0.43913633045E+03  0.26344812717E+04  0.25976240787E+04 0.  0.
        2    1    3    3  502    0  0.10561104121E+04  0.41519055834E+03  0.42118755291E+03  0.12104343671E+04  0.25500000920E-02 0.  1.
       -2    1    3    3    0  502 -0.10561104121E+04 -0.41519055834E+03 -0.86032388335E+03  0.14240469046E+04  0.25500000920E-02 0. -1.
</event>
<event>
 5   0  0.1055179E-06  0.2599667E+04  0.7818609E-02  0.8368314E-01
       -1   -1    0    0    0  501  0.00000000000E+00  0.00000000000E+00  0.13311761107E+04  0.13311761107E+04  0.50400001928E-02 0.  1.
        1   -1    0    0  501    0  0.00000000000E+00  0.00000000000E+00 -0.12692286133E+04  0.12692286133E+04  0.50400001928E-02 0. -1.
    10030    2    1    2    0    0  0.00000000000E+00  0.00000000000E+00  0.61947497433E+02  0.26004047240E+04  0.25996667548E+04 0.  0.
        3    1    3    3  502    0 -0.11164992796E+04 -0.35609476839E+03  0.59344349411E+03  0.13136016582E+04  0.10100000352E+00 0. -1.
       -3    1    3    3    0  502  0.11164992796E+04  0.35609476839E+03 -0.53149599668E+03  0.12868030658E+04  0.10100000352E+00 0.  1.
</event>
<event>
 5   0  0.2586775E-06  0.2599692E+04  0.7818609E-02  0.8368306E-01
        2   -1    0    0  501    0  0.00000000000E+00  0.00000000000E+00  0.20486242585E+04  0.20486242585E+04  0.25500000920E-02 0. -1.
       -2   -1    0    0    0  501  0.00000000000E+00  0.00000000000E+00 -0.82474819129E+03  0.82474819129E+03  0.25500000920E-02 0.  1.
    10030    2    1    2    0    0  0.00000000000E+00  0.00000000000E+00  0.12238760672E+04  0.28733724498E+04  0.25996916370E+04 0.  0.
        1    1    3    3  502    0  0.40779369027E+03  0.48676855896E+03 -0.64163984807E+03  0.90274083683E+03  0.50400001928E-02 0.  1.
       -1    1    3    3    0  502 -0.40779369027E+03 -0.48676855896E+03  0.18655159153E+04  0.19706316130E+04  0.50400001928E-02 0. -1.
</event>
<event>
 5   0  0.2705807E-06  0.2605988E+04  0.7818609E-02  0.8366170E-01
       -2   -1    0    0    0  501  0.00000000000E+00  0.00000000000E+00  0.87549661215E+03  0.87549661216E+03  0.25500000920E-02 0.  1.
        2   -1    0    0  501    0  0.00000000000E+00  0.00000000000E+00 -0.19392340911E+04  0.19392340911E+04  0.25500000920E-02 0. -1.
    10030    2    1    2    0    0  0.00000000000E+00  0.00000000000E+00 -0.10637374789E+04  0.28147307032E+04  0.26059876261E+04 0.  0.
        4    1    3    3  502    0  0.11420925425E+03 -0.30330413278E+02 -0.19334339536E+04  0.19370421145E+04  0.12699999809E+01 0. -1.
       -4    1    3    3    0  502 -0.11420925425E+03  0.30330413278E+02  0.86969647468E+03  0.87768858868E+03  0.12699999809E+01 0.  1.
</event>
<event>
 5   0  0.1032076E-06  0.2603219E+04  0.7818609E-02  0.8367109E-01
        1   -1    0    0  501    0  0.00000000000E+00  0.00000000000E+00  0.13357517626E+04  0.13357517626E+04  0.50400001928E-02 0. -1.
       -1   -1    0    0    0  501  0.00000000000E+00  0.00000000000E+00 -0.12683401115E+04  0.12683401115E+04  0.50400001928E-02 0.  1.
    10030    2    1    2    0    0  0.00000000000E+00  0.00000000000E+00  0.67411651056E+02  0.26040918741E+04  0.26032191913E+04 0.  0.
        1    1    3    3  502    0 -0.15495490151E+02 -0.30785396135E+03  0.12987140216E+04  0.13347929733E+04  0.50400001928E-02 0. -1.
       -1    1    3    3    0  502  0.15495490151E+02  0.30785396135E+03 -0.12313023705E+04  0.12692989008E+04  0.50400001928E-02 0.  1.
</event>
<event>
 5   0  0.2586775E-06  0.2596797E+04  0.7818609E-02  0.8369290E-01
       -2   -1    0    0    0  501  0.00000000000E+00  0.00000000000E+00  0.14761377340E+04  0.14761377340E+04  0.25500000920E-02 0. -1.
        2   -1    0    0  501    0  0.00000000000E+00  0.00000000000E+00 -0.11420605750E+04  0.11420605750E+04  0.25500000920E-02 0.  1.
    10030    2    1    2    0    0  0.00000000000E+00  0.00000000000E+00  0.33407715894E+03  0.26181983090E+04  0.25967970343E+04 0.  0.
        1    1    3    3  502    0 -0.97909795009E+02  0.28848545270E+03 -0.11055156764E+04  0.11467236351E+04  0.50400001928E-02 0.  1.
       -1    1    3    3    0  502  0.97909795009E+02 -0.28848545270E+03  0.14395928354E+04  0.14714746739E+04  0.50400001928E-02 0. -1.
</event>
<event>
 5   0  0.2705807E-06  0.2598751E+04  0.7818609E-02  0.8368626E-01
        2   -1    0    0  501    0  0.00000000000E+00  0.00000000000E+00  0.15711895316E+04  0.15711895316E+04  0.25500000920E-02 0.  1.
       -2   -1    0    0    0  501  0.00000000000E+00  0.00000000000E+00 -0.10745849254E+04  0.10745849255E+04  0.25500000920E-02 0. -1.
    10030    2    1    2    0    0  0.00000000000E+00  0.00000000000E+00  0.49660460614E+03  0.26457744570E+04  0.25987509197E+04 0.  0.
        4    1    3    3  502    0 -0.70734653086E+03 -0.10887683971E+04  0.30040682726E+03  0.13326671047E+04  0.12699999809E+01 0. -1.
       -4    1    3    3    0  502  0.70734653086E+03  0.10887683971E+04  0.19619777888E+03  0.13131073523E+04  0.12699999809E+01 0.  1.
</event>
<event>
 5   0  0.2623368E-06  0.2605019E+04  0.7818609E-02  0.8366499E-01
       -2   -1    0    0    0  501  0.00000000000E+00  0.00000000000E+00  0.15460784326E+04  0.15460784326E+04  0.25500000920E-02 0. -1.
        2   -1    0    0  501    0  0.00000000000E+00  0.00000000000E+00 -0.10973120235E+04  0.10973120235E+04  0.25500000920E-02 0.  1.
    10030    2    1    2    0    0  0.00000000000E+00  0.00000000000E+00  0.44876640913E+03  0.26433904561E+04  0.26050185822E+04 0.  0.
        5    1    3    3  502    0  0.42305130990E+02  0.73817587139E+03  0.13124723585E+04  0.15064193052E+04  0.46999998093E+01 0. -1.
       -5    1    3    3    0  502 -0.42305130990E+02 -0.73817587139E+03 -0.86370594934E+03  0.11369711510E+04  0.46999998093E+01 0.  1.
</event>
<event>
 5   0  0.2586775E-06  0.2600067E+04  0.7818609E-02  0.8368178E-01
       -2   -1    0    0    0  501  0.00000000000E+00  0.00000000000E+00  0.14402426848E+04  0.14402426848E+04  0.25500000920E-02 0.  1.
        2   -1    0    0  501    0  0.00000000000E+00  0.00000000000E+00 -0.11734740135E+04  0.11734740135E+04  0.25500000920E-02 0. -1.
    10030    2    1    2    0    0  0.00000000000E+00  0.00000000000E+00  0.26676867124E+03  0.26137166983E+04  0.26000672020E+04 0.  0.
        1    1    3    3  502    0  0.62382828631E+03 -0.57149851617E+03 -0.85887147641E+03  0.12055838825E+04  0.50400001928E-02 0. -1.
       -1    1    3    3    0  502 -0.62382828631E+03  0.57149851617E+03  0.11256401476E+04  0.14081328158E+04  0.50400001928E-02 0.  1.
</event>
<event>
 5   0  0.2623368E-06  0.2606176E+04  0.7818609E-02  0.8366107E-01
        2   -1    0    0  501    0  0.00000000000E+00  0.00000000000E+00  0.97619536250E+03  0.97619536251E+03  0.25500000920E-02 0.  1.
       -2   -1    0    0    0  501  0.00000000000E+00  0.00000000000E+00 -0.17394446807E+04  0.17394446807E+04  0.25500000920E-02 0. -1.
    10030    2    1    2    0    0  0.00000000000E+00  0.00000000000E+00 -0.76324931817E+03  0.27156400432E+04  0.26061756124E+04 0.  0.
        5    1    3    3  502    0 -0.18486430072E+03 -0.26506667074E+03  0.93376839186E+03  0.98811975451E+03  0.46999998093E+01 0.  1.
       -5    1    3    3    0  502  0.18486430072E+03  0.26506667074E+03 -0.16970177100E+04  0.17275202887E+04  0.46999998093E+01 0. -1.
</event>
<event>
 5   0  0.2586775E-06  0.2609093E+04  0.7818609E-02  0.8365119E-01
        2   -1    0    0  501    0  0.00000000000E+00  0.00000000000E+00  0.17285981005E+04  0.17285981005E+04  0.25500000920E-02 0.  1.
       -2   -1    0    0    0  501  0.00000000000E+00  0.00000000000E+00 -0.98452145717E+03  0.98452145717E+03  0.25500000920E-02 0. -1.
    10030    2    1    2    0    0  0.00000000000E+00  0.00000000000E+00  0.74407664328E+03  0.27131195576E+04  0.26090932683E+04 0.  0.
        1    1    3    3  502    0  0.30732260731E+03 -0.12632866323E+04  0.26051676025E+03  0.13259748424E+04  0.50400001928E-02 0.  1.
       -1    1    3    3    0  502 -0.30732260731E+03  0.12632866323E+04  0.48355988303E+03  0.13871447152E+04  0.50400001928E-02 0. -1.
</event>
<event>
 5   0  0.1100104E-06  0.2581443E+04  0.7818609E-02  0.8374532E-01
        1   -1    0    0  501    0  0.00000000000E+00  0.00000000000E+00  0.12294571337E+04  0.12294571337E+04  0.50400001928E-02 0. -1.
       -1   -1    0    0    0  501  0.00000000000E+00  0.00000000000E+00 -0.13550383927E+04  0.13550383927E+04  0.50400001928E-02 0.  1.
    10030    2    1    2    0    0  0.00000000000E+00  0.00000000000E+00 -0.12558125904E+03  0.25844955264E+04  0.25814427116E+04 0.  0.
        4    1    3    3  502    0  0.57887720375E+03  0.33348947479E+03 -0.11684724877E+04  0.13459731105E+04  0.12699999809E+01 0.  1.
       -4    1    3    3    0  502 -0.57887720375E+03 -0.33348947479E+03  0.10428912287E+04  0.12385224159E+04  0.12699999809E+01 0. -1.
</event>
<event>
 5   0  0.1055179E-06  0.2601038E+04  0.7818609E-02  0.8367849E-01
       -1   -1    0    0    0  501  0.00000000000E+00  0.00000000000E+00  0.15737984655E+04  0.15737984655E+04  0.50400001928E-02 0. -1.
        1   -1    0    0  501    0  0.00000000000E+00  0.00000000000E+00 -0.10746923094E+04  0.10746923094E+04  0.50400001928E-02 0.  1.
    10030    2    1    2    0    0  0.00000000000E+00  0.00000000000E+00  0.49910615611E+03  0.26484907750E+04  0.26010375680E+04 0.  0.
        3    1    3    3  502    0 -0.92816517065E+03  0.90499341491E+03  0.35559443428E+03  0.13442288038E+04  0.10100000352E+00 0.  1.
       -3    1    3    3    0  502  0.92816517065E+03 -0.90499341491E+03  0.14351172183E+03  0.13042619712E+04  0.10100000352E+00 0. -1.
</event>
<event>
 5   0  0.2586775E-06  0.2600065E+04  0.7818609E-02  0.8368179E-01
       -2   -1    0    0    0  501  0.00000000000E+00  0.00000000000E+00  0.13725604072E+04  0.13725604072E+04  0.25500000920E-02 0. -1.
        2   -1    0    0  501    0  0.00000000000E+00  0.00000000000E+00 -0.12313372074E+04  0.12313372074E+04  0.25500000920E-02 0.  1.
    10030    2    1    2    0    0  0.00000000000E+00  0.00000000000E+00  0.14122319985E+03  0.26038976146E+04  0.26000651521E+04 0.  0.
        1    1    3    3  502    0  0.84904519238E+03 -0.73372342371E+03  0.72797602601E+03  0.13376011721E+04  0.50400001928E-02 0. -1.
       -1    1    3    3    0  502 -0.84904519238E+03  0.73372342371E+03 -0.58675282616E+03  0.12662964425E+04  0.50400001928E-02 0.  1.
</event>
<event>
 5   0  0.1122628E-06  0.2601509E+04  0.7818609E-02  0.8367689E-01
        1   -1    0    0  501    0  0.00000000000E+00  0.00000000000E+00  0.14173274060E+04  0.14173274060E+04  0.50400001928E-02 0.  1.
       -1   -1    0    0    0  501  0.00000000000E+00  0.00000000000E+00 -0.11937691659E+04  0.11937691660E+04  0.50400001928E-02 0. -1.
    10030    2    1    2    0    0  0.00000000000E+00  0.00000000000E+00  0.22355824005E+03  0.26110965720E+04  0.26015086049E+04 0.  0.
        2    1    3    3  502    0  0.11396496999E+04  0.29772841237E+03 -0.44208627306E+03  0.12581271474E+04  0.25500000920E-02 0. -1.
       -2    1    3    3    0  502 -0.11396496999E+04 -0.29772841237E+03  0.66564451311E+03  0.13529694246E+04  0.25500000920E-02 0.  1.
</event>
<event>
 5   0  0.2746631E-06  0.2600758E+04  0.7818609E-02  0.8367944E-01
       -2   -1    0    0    0  501  0.00000000000E+00  0.00000000000E+00  0.10018029520E+04  0.10018029520E+04  0.25500000920E-02 0. -1.
        2   -1    0    0  501    0  0.00000000000E+00  0.00000000000E+00 -0.16879417997E+04  0.16879417997E+04  0.25500000920E-02 0.  1.
    10030    2    1    2    0    0  0.00000000000E+00  0.00000000000E+00 -0.68613884772E+03  0.26897447517E+04  0.26007576417E+04 0.  0.
        2    1    3    3  502    0  0.99800075447E+03  0.58455525051E+03  0.27163660513E+03  0.11880643047E+04  0.25500000920E-02 0. -1.
       -2    1    3    3    0  502 -0.99800075447E+03 -0.58455525051E+03 -0.95777545285E+03  0.15016804470E+04  0.25500000920E-02 0.  1.
</event>
<event>
 5   0  0.1100104E-06  0.2601074E+04  0.7818609E-02  0.8367836E-01
       -1   -1    0    0    0  501  0.00000000000E+00  0.00000000000E+00  0.12021567977E+04  0.12021567977E+04  0.50400001928E-02 0.  1.
        1   -1    0    0  501    0  0.00000000000E+00  0.00000000000E+00 -0.14069685797E+04  0.14069685797E+04  0.50400001928E-02 0. -1.
    10030    2    1    2    0    0  0.00000000000E+00  0.00000000000E+00 -0.20481178199E+03  0.26091253774E+04  0.26010742721E+04 0.  0.
        4    1    3    3  502    0  0.10104934158E+04  0.81831243744E+03 -0.12823516914E+03  0.13065902419E+04  0.12699999809E+01 0. -1.
       -4    1    3    3    0  502 -0.10104934158E+04 -0.81831243744E+03 -0.76576612849E+02  0.13025351355E+04  0.12699999809E+01 0.  1.
</event>
<event>
 5   0  0.2623368E-06  0.2598136E+04  0.7818609E-02  0.8368835E-01
       -2   -1    0    0    0  501  0.00000000000E+00  0.00000000000E+00  0.13325947641E+04  0.13325947641E+04  0.25500000920E-02 0.  1.
        2   -1    0    0  501    0  0.00000000000E+00  0.00000000000E+00 -0.12663850271E+04  0.12663850271E+04  0.25500000920E-02 0. -1.
    10030    2    1    2    0    0  0.00000000000E+00  0.00000000000E+00  0.66209737002E+02  0.25989797913E+04  0.25981362986E+04 0.  0.
        5    1    3    3  502    0 -0.42183806625E+03  0.10332961454E+04 -0.63187232522E+03  0.12825494157E+04  0.46999998093E+01 0. -1.
       -5    1    3    3    0  502  0.42183806625E+03 -0.10332961454E+04  0.69808206222E+03  0.13164303756E+04  0.46999998093E+01 0.  1.
</event>
<event>
 5   0  0.1100104E-06  0.2599446E+04  0.7818609E-02  0.8368389E-01
        1   -1    0    0  501    0  0.00000000000E+00  0.00000000000E+00  0.18232553954E+04  0.18232553954E+04  0.50400001928E-02 0. -1.
       -1   -1    0    0    0  501  0.00000000000E+00  0.00000000000E+00 -0.92651884679E+03  0.92651884680E+03  0.50400001928E-02 0.  1.
    10030    2    1    2    0    0  0.00000000000E+00  0.00000000000E+00  0.89673654862E+03  0.27497742422E+04  0.25994464691E+04 0.  0.
        4    1    3    3  502    0  0.42108352728E+03  0.85067665732E+02  0.17459825042E+04  0.17980557173E+04  0.12699999809E+01 0. -1.
       -4    1    3    3    0  502 -0.42108352728E+03 -0.85067665732E+02 -0.84924595557E+03  0.95171852491E+03  0.12699999809E+01 0.  1.
</event>
<event>
 5   0  0.2586775E-06  0.2587113E+04  0.7818609E-02  0.8372592E-01
       -2   -1    0    0    0  501  0.00000000000E+00  0.00000000000E+00  0.16092816506E+04  0.16092816506E+04  0.25500000920E-02 0.  1.
        2   -1    0    0  501    0  0.00000000000E+00  0.00000000000E+00 -0.10397735077E+04  0.10397735077E+04  0.25500000920E-02 0. -1.
    10030    2    1    2    0    0  0.00000000000E+00  0.00000000000E+00  0.56950814284E+03  0.26490551583E+04  0.25871130062E+04 0.  0.
        1    1    3    3  502    0  0.64889042931E+03 -0.10048513691E+04 -0.21948266727E+03  0.12161240498E+04  0.50400001928E-02 0. -1.
       -1    1    3    3    0  502 -0.64889042931E+03  0.10048513691E+04  0.78899081012E+03  0.14329311085E+04  0.50400001928E-02 0.  1.
</event>
<event>
 5   0  0.1122628E-06  0.2602068E+04  0.7818609E-02  0.8367499E-01
       -1   -1    0    0    0  501  0.00000000000E+00  0.00000000000E+00  0.88175067945E+03  0.88175067947E+03  0.50400001928E-02 0.  1.
        1   -1    0    0  501    0  0.00000000000E+00  0.00000000000E+00 -0.19196915862E+04  0.19196915862E+04  0.50400001928E-02 0. -1.
    10030    2    1    2    0    0  0.00000000000E+00  0.00000000000E+00 -0.10379409068E+04  0.28014422657E+04  0.26020679165E+04 0.  0.
        2    1    3    3  502    0 -0.63567666704E+03  0.92285723120E+03  0.19269107154E+03  0.11370488746E+04  0.25500000920E-02 0.  1.
       -2    1    3    3    0  502  0.63567666704E+03 -0.92285723120E+03 -0.12306319783E+04  0.16643933911E+04  0.25500000920E-02 0. -1.
</event>
<event>
 5   0  0.1122628E-06  0.2597633E+04  0.7818609E-02  0.8369006E-01
        1   -1    0    0  501    0  0.00000000000E+00  0.00000000000E+00  0.17883792109E+04  0.17883792109E+04  0.50400001928E-02 0. -1.
       -1   -1    0    0    0  501  0.00000000000E+00  0.00000000000E+00 -0.94326984497E+03  0.94326984498E+03  0.50400001928E-02 0.  1.
    10030    2    1    2    0    0  0.00000000000E+00  0.00000000000E+00  0.84510936594E+03  0.27316490559E+04  0.25976329079E+04 0.  0.
        2    1    3    3  502    0 -0.70815938116E+03 -0.78119645266E+03  0.12200790212E+04  0.16125602081E+04  0.25500000920E-02 0. -1.
       -2    1    3    3    0  502  0.70815938116E+03  0.78119645266E+03 -0.37496965530E+03  0.11190888478E+04  0.25500000920E-02 0.  1.
</event>
<event>
 5   0  0.1055179E-06  0.2601839E+04  0.7818609E-02  0.8367577E-01
        1   -1    0    0  501    0  0.00000000000E+00  0.00000000000E+00  0.11259913949E+04  0.11259913949E+04  0.50400001928E-02 0. -1.
       -1   -1    0    0    0  501  0.00000000000E+00  0.00000000000E+00 -0.15030232029E+04  0.15030232029E+04  0.50400001928E-02 0.  1.
    10030    2    1    2    0    0  0.00000000000E+00  0.00000000000E+00 -0.37703180801E+03  0.26290145977E+04  0.26018387288E+04 0.  0.
        3    1    3    3  502    0 -0.81627136814E+03  0.33396009919E+02 -0.12115018599E+04  0.14612155921E+04  0.10100000352E+00 0.  1.
       -3    1    3    3    0  502  0.81627136814E+03 -0.33396009919E+02  0.83447005186E+03  0.11677990056E+04  0.10100000352E+00 0. -1.
</event>
<event>
 5   0  0.1088757E-06  0.2600399E+04  0.7818609E-02  0.8368066E-01
        1   -1    0    0  501    0  0.00000000000E+00  0.00000000000E+00  0.12650588300E+04  0.12650588300E+04  0.50400001928E-02 0. -1.
       -1   -1    0    0    0  501  0.00000000000E+00  0.00000000000E+00 -0.13363158978E+04  0.13363158978E+04  0.50400001928E-02 0.  1.
    10030    2    1    2    0    0  0.00000000000E+00  0.00000000000E+00 -0.71257067784E+02  0.26013747278E+04  0.26003986049E+04 0.  0.
        5    1    3    3  502    0  0.88659078160E+03 -0.89725839646E+03 -0.35099326833E+03  0.13093258603E+04  0.46999998093E+01 0.  1.
       -5    1    3    3    0  502 -0.88659078160E+03  0.89725839646E+03  0.27973620054E+03  0.12920488675E+04  0.46999998093E+01 0. -1.
</event>
<event>
 5   0  0.1100104E-06  0.2607108E+04  0.7818609E-02  0.8365791E-01
        1   -1    0    0  501    0  0.00000000000E+00  0.00000000000E+00  0.13860592730E+04  0.13860592730E+04  0.50400001928E-02 0.  1.
       -1   -1    0    0    0  501  0.00000000000E+00  0.00000000000E+00 -0.12259597217E+04  0.12259597217E+04  0.50400001928E-02 0. -1.
    10030    2    1    2    0    0  0.00000000000E+00  0.00000000000E+00  0.16009955127E+03  0.26120189947E+04  0.26071078540E+04 0.  0.
        4    1    3    3  502    0 -0.80493555200E+02  0.77906724372E+03 -0.96394301627E+03  0.12420196191E+04  0.12699999809E+01 0. -1.
       -4    1    3    3    0  502  0.80493555200E+02 -0.77906724372E+03  0.11240425675E+04  0.13699993756E+04  0.12699999809E+01 0.  1.
</event>
<event>
 5   0  0.2705807E-06  0.2576013E+04  0.7818609E-02  0.8376395E-01
       -2   -1    0    0    0  501  0.00000000000E+00  0.00000000000E+00  0.11622536452E+04  0.11622536452E+04  0.25500000920E-02 0.  1.
        2   -1    0    0  501    0  0.00000000000E+00  0.00000000000E+00 -0.14273660263E+04  0.14273660264E+04  0.25500000920E-02 0. -1.
    10030    2    1    2    0    0  0.00000000000E+00  0.00000000000E+00 -0.26511238114E+03  0.25896196716E+04  0.25760134838E+04 0.  0.
        4    1    3    3  502    0  0.13403819191E+02 -0.10525038445E+04  0.61366892095E+03  0.12184150206E+04  0.12699999809E+01 0.  1.
       -4    1    3    3    0  502 -0.13403819191E+02  0.10525038445E+04 -0.87878130209E+03  0.13712046510E+04  0.12699999809E+01 0. -1.
</event>
<event>
 5   0  0.2586775E-06  0.2598975E+04  0.7818609E-02  0.8368550E-01
        2   -1    0    0  501    0  0.00000000000E+00  0.00000000000E+00  0.19866060939E+04  0.19866060939E+04  0.25500000920E-02 0.  1.
       -2   -1    0    0    0  501  0.00000000000E+00  0.00000000000E+00 -0.85002628723E+03  0.85002628724E+03  0.25500000920E-02 0. -1.
    10030    2    1    2    0    0  0.00000000000E+00  0.00000000000E+00  0.11365798067E+04  0.28366323811E+04  0.25989747226E+04 0.  0.
        1    1    3    3  502    0  0.75935686575E+03 -0.62725844032E+03 -0.35692369834E+03  0.10476022752E+04  0.50400001928E-02 0. -1.
       -1    1    3    3    0  502 -0.75935686575E+03  0.62725844032E+03  0.14935035050E+04  0.17890301060E+04  0.50400001928E-02 0.  1.
</event>
<event>
 5   0  0.2623368E-06  0.2598517E+04  0.7818609E-02  0.8368705E-01
        2   -1    0    0  501    0  0.00000000000E+00  0.00000000000E+00  0.18719912960E+04  0.18719912960E+04  0.25500000920E-02 0.  1.
       -2   -1    0    0    0  501  0.00000000000E+00  0.00000000000E+00 -0.90175214857E+03  0.90175214858E+03  0.25500000920E-02 0. -1.
    10030    2    1    2    0    0  0.00000000000E+00  0.00000000000E+00  0.97023914744E+03  0.27737434446E+04  0.25985166332E+04 0.  0.
        5    1    3    3  502    0  0.38567592579E+03  0.12128530372E+04  0.20617066533E+03  0.12892970343E+04  0.46999998093E+01 0. -1.
       -5    1    3    3    0  502 -0.38567592579E+03 -0.12128530372E+04  0.76406848211E+03  0.14844464102E+04  0.46999998093E+01 0.  1.
</event>
<event>
 5   0  0.2746631E-06  0.2589994E+04  0.7818609E-02  0.8371608E-01
       -2   -1    0    0    0  501  0.00000000000E+00  0.00000000000E+00  0.95440212766E+03  0.95440212766E+03  0.25500000920E-02 0. -1.
        2   -1    0    0  501    0  0.00000000000E+00  0.00000000000E+00 -0.17571392612E+04  0.17571392612E+04  0.25500000920E-02 0.  1.
    10030    2    1    2    0    0  0.00000000000E+00  0.00000000000E+00 -0.80273713352E+03  0.27115413889E+04  0.25899941695E+04 0.  0.
        2    1    3    3  502    0 -0.15378792555E+03 -0.41291776461E+03  0.87350862953E+03  0.97835020940E+03  0.25500000920E-02 0. -1.
       -2    1    3    3    0  502  0.15378792555E+03  0.41291776461E+03 -0.16762457630E+04  0.17331911794E+04  0.25500000920E-02 0.  1.
</event>
<event>
 5   0  0.1122628E-06  0.2601764E+04  0.7818609E-02  0.8367602E-01
        1   -1    0    0  501    0  0.00000000000E+00  0.00000000000E+00  0.21596922392E+04  0.21596922392E+04  0.50400001928E-02 0.  1.
       -1   -1    0    0    0  501  0.00000000000E+00  0.00000000000E+00 -0.78358087678E+03  0.78358087680E+03  0.50400001928E-02 0. -1.
    10030    2    1    2    0    0  0.00000000000E+00  0.00000000000E+00  0.13761113624E+04  0.29432731160E+04  0.26017636621E+04 0.  0.
        2    1    3    3  502    0  0.48704257133E+03 -0.92834425875E+03  0.15593908773E+04  0.18790245973E+04  0.25500000920E-02 0.  1.
       -2    1    3    3    0  502 -0.48704257133E+03  0.92834425875E+03 -0.18327951487E+03  0.10642485187E+04  0.25500000920E-02 0. -1.
</event>
<event>
 5   0  0.1032076E-06  0.2597638E+04  0.7818609E-02  0.8369004E-01
       -1   -1    0    0    0  501  0.00000000000E+00  0.00000000000E+00  0.11568124438E+04  0.11568124438E+04  0.50400001928E-02 0.  1.
        1   -1    0    0  501    0  0.00000000000E+00  0.00000000000E+00 -0.14582577327E+04  0.14582577327E+04  0.50400001928E-02 0. -1.
    10030    2    1    2    0    0  0.00000000000E+00  0.00000000000E+00 -0.30144528888E+03  0.26150701765E+04  0.25976379205E+04 0.  0.
        1    1    3    3  502    0  0.18370880610E+03 -0.98110528323E+03 -0.98733154533E+03  0.14039729636E+04  0.50400001928E-02 0. -1.
       -1    1    3    3    0  502 -0.18370880610E+03  0.98110528323E+03  0.68588625645E+03  0.12110972129E+04  0.50400001928E-02 0.  1.
</event>
<event>
 5   0  0.2623368E-06  0.2601306E+04  0.7818609E-02  0.8367758E-01
        2   -1    0    0  501    0  0.00000000000E+00  0.00000000000E+00  0.27117336002E+04  0.27117336002E+04  0.25500000920E-02 0.  1.
       -2   -1    0    0    0  501  0.00000000000E+00  0.00000000000E+00 -0.62384378682E+03  0.62384378683E+03  0.25500000920E-02 0. -1.
    10030    2    1    2    0    0  0.00000000000E+00  0.00000000000E+00  0.20878898134E+04  0.33355773870E+04  0.26013059474E+04 0.  0.
        5    1    3    3  502    0  0.67666274810E+03 -0.75183421882E+03  0.20923911710E+04  0.23240589643E+04  0.46999998093E+01 0. -1.
       -5    1    3    3    0  502 -0.67666274810E+03  0.75183421882E+03 -0.45013575990E+01  0.10115184227E+04  0.46999998093E+01 0.  1.
</event>
<event>
 5   0  0.2586775E-06  0.2600856E+04  0.7818609E-02  0.8367910E-01
       -2   -1    0    0    0  501  0.00000000000E+00  0.00000000000E+00  0.15254111904E+04  0.15254111904E+04  0.25500000920E-02 0.  1.
        2   -1    0    0  501    0  0.00000000000E+00  0.00000000000E+00 -0.11086279614E+04  0.11086279614E+04  0.25500000920E-02 0. -1.
    10030    2    1    2    0    0  0.00000000000E+00  0.00000000000E+00  0.41678322895E+03  0.26340391518E+04  0.26008563961E+04 0.  0.
        1    1    3    3  502    0  0.73266222168E+02  0.12969863559E+04  0.26891993615E+03  0.13265969542E+04  0.50400001928E-02 0. -1.
       -1    1    3    3    0  502 -0.73266222168E+02 -0.12969863559E+04  0.14786329281E+03  0.13074421976E+04  0.50400001928E-02 0.  1.
</event>
<event>
 5   0  0.1088757E-06  0.2597778E+04  0.7818609E-02  0.8368956E-01
        1   -1    0    0  501    0  0.00000000000E+00  0.00000000000E+00  0.16457607433E+04  0.16457607433E+04  0.50400001928E-02 0. -1.
       -1   -1    0    0    0  501  0.00000000000E+00  0.00000000000E+00 -0.10251261810E+04  0.10251261810E+04  0.50400001928E-02 0.  1.
    10030    2    1    2    0    0  0.00000000000E+00  0.00000000000E+00  0.62063456228E+03  0.26708869243E+04  0.25977778393E+04 0.  0.
        5    1    3    3  502    0  0.31148945055E+03  0.80847136602E+03 -0.68461420007E+03  0.11042510224E+04  0.46999998093E+01 0.  1.
       -5    1    3    3    0  502 -0.31148945055E+03 -0.80847136602E+03  0.13052487624E+04  0.15666359019E+04  0.46999998093E+01 0. -1.
</event>
<event>
 5   0  0.1055179E-06  0.2597800E+04  0.7818609E-02  0.8368949E-01
        1   -1    0    0  501    0  0.00000000000E+00  0.00000000000E+00  0.16985928330E+04  0.16985928330E+04  0.50400001928E-02 0. -1.
       -1   -1    0    0    0  501  0.00000000000E+00  0.00000000000E+00 -0.99325848734E+03  0.99325848735E+03  0.50400001928E-02 0.  1.
    10030    2    1    2    0    0  0.00000000000E+00  0.00000000000E+00  0.70533434569E+03  0.26918513204E+04  0.25978004142E+04 0.  0.
        3    1    3    3  502    0  0.79428499047E+03  0.66268840739E+03 -0.46132843800E+03  0.11326378544E+04  0.10100000352E+00 0.  1.
       -3    1    3    3    0  502 -0.79428499047E+03 -0.66268840739E+03  0.11666627837E+04  0.15592134660E+04  0.10100000352E+00 0. -1.
</event>
<event>
 5   0  0.2623368E-06  0.2603594E+04  0.7818609E-02  0.8366981E-01
       -2   -1    0    0    0  501  0.00000000000E+00  0.00000000000E+00  0.99970843332E+03  0.99970843332E+03  0.25500000920E-02 0. -1.
        2   -1    0    0  501    0  0.00000000000E+00  0.00000000000E+00 -0.16951700192E+04  0.16951700192E+04  0.25500000920E-02 0.  1.
    10030    2    1    2    0    0  0.00000000000E+00  0.00000000000E+00 -0.69546158589E+03  0.26948784525E+04  0.26035942573E+04 0.  0.
        5    1    3    3  502    0 -0.47763097635E+03 -0.31022570169E+03  0.86390168761E+03  0.10347557931E+04  0.46999998093E+01 0. -1.
       -5    1    3    3    0  502  0.47763097635E+03  0.31022570169E+03 -0.15593632735E+04  0.16601226594E+04  0.46999998093E+01 0.  1.
</event>
<event>
 5   0  0.1055179E-06  0.2596807E+04  0.7818609E-02  0.8369287E-01
        1   -1    0    0  501    0  0.00000000000E+00  0.00000000000E+00  0.13002798861E+04  0.13002798861E+04  0.50400001928E-02 0. -1.
       -1   -1    0    0    0  501  0.00000000000E+00  0.00000000000E+00 -0.12965297389E+04  0.12965297389E+04  0.50400001928E-02 0.  1.
    10030    2    1    2    0    0  0.00000000000E+00  0.00000000000E+00  0.37501472516E+01  0.25968096250E+04  0.25968069172E+04 0.  0.
        3    1    3    3  502    0  0.99197693298E+02 -0.55683894536E+03  0.11706113939E+04  0.13000926272E+04  0.10100000352E+00 0. -1.
       -3    1    3    3    0  502 -0.99197693298E+02  0.55683894536E+03 -0.11668612467E+04  0.12967169979E+04  0.10100000352E+00 0.  1.
</event>
<event>
 5   0  0.2623368E-06  0.2596549E+04  0.7818609E-02  0.8369374E-01
        2   -1    0    0  501    0  0.00000000000E+00  0.00000000000E+00  0.12358171869E+04  0.12358171869E+04  0.25500000920E-02 0. -1.
       -2   -1    0    0    0  501  0.00000000000E+00  0.00000000000E+00 -0.13638882155E+04  0.13638882155E+04  0.25500000920E-02 0.  1.
    10030    2    1    2    0    0  0.00000000000E+00  0.00000000000E+00 -0.12807102861E+03  0.25997054023E+04  0.25965488616E+04 0.  0.
        5    1    3    3  502    0  0.41676955735E+03  0.25646575460E+03  0.11399332412E+04  0.12405407819E+04  0.46999998093E+01 0. -1.
       -5    1    3    3    0  502 -0.41676955735E+03 -0.25646575460E+03 -0.12680042698E+04  0.13591646204E+04  0.46999998093E+01 0.  1.
</event>
<event>
 5   0  0.1122628E-06  0.2608834E+04  0.7818609E-02  0.8365207E-01
       -1   -1    0    0    0  501  0.00000000000E+00  0.00000000000E+00  0.11662188054E+04  0.11662188054E+04  0.50400001928E-02 0. -1.
        1   -1    0    0  501    0  0.00000000000E+00  0.00000000000E+00 -0.14589916888E+04  0.14589916888E+04  0.50400001928E-02 0.  1.
    10030    2    1    2    0    0  0.00000000000E+00  0.00000000000E+00 -0.29277288345E+03  0.26252104942E+04  0.26088338731E+04 0.  0.
        2    1    3    3  502    0 -0.12179076856E+04  0.44494628775E+03 -0.32712454026E+01  0.12966445275E+04  0.25500000920E-02 0. -1.
       -2    1    3    3    0  502  0.12179076856E+04 -0.44494628775E+03 -0.28950163805E+03  0.13285659667E+04  0.25500000920E-02 0.  1.
</event>
<event>
 5   0  0.2586775E-06  0.2601558E+04  0.7818609E-02  0.8367672E-01
       -2   -1    0    0    0  501  0.00000000000E+00  0.00000000000E+00  0.13484335035E+04  0.13484335035E+04  0.25500000920E-02 0.  1.
        2   -1    0    0  501    0  0.00000000000E+00  0.00000000000E+00 -0.12548088868E+04  0.12548088869E+04  0.25500000920E-02 0. -1.
    10030    2    1    2    0    0  0.00000000000E+00  0.00000000000E+00  0.93624616680E+02  0.26032423904E+04  0.26015582589E+04 0.  0.
        1    1    3    3  502    0 -0.35183121098E+03  0.11558481285E+04  0.52905399890E+03  0.13189648331E+04  0.50400001928E-02 0.  1.
       -1    1    3    3    0  502  0.35183121098E+03 -0.11558481285E+04 -0.43542938222E+03  0.12842775573E+04  0.50400001928E-02 0. -1.
</event>
<event>
 5   0  0.1122628E-06  0.2606798E+04  0.7818609E-02  0.8365896E-01
        1   -1    0    0  501    0  0.00000000000E+00  0.00000000000E+00  0.20453788581E+04  0.20453788581E+04  0.50400001928E-02 0. -1.
       -1   -1    0    0    0  501  0.00000000000E+00  0.00000000000E+00 -0.83057923443E+03  0.83057923445E+03  0.50400001928E-02 0.  1.
    10030    2    1    2    0    0  0.00000000000E+00  0.00000000000E+00  0.12147996236E+04  0.28759580925E+04  0.26067981940E+04 0.  0.
        2    1    3    3  502    0  0.19235128090E+03  0.22658097693E+03 -0.79269363727E+03  0.84658204384E+03  0.25500000920E-02 0.  1.
       -2    1    3    3    0  502 -0.19235128090E+03 -0.22658097693E+03  0.20074932609E+04  0.20293760487E+04  0.25500000920E-02 0. -1.
</event>
<event>
 5   0  0.2705807E-06  0.2599169E+04  0.7818609E-02  0.8368484E-01
       -2   -1    0    0    0  501  0.00000000000E+00  0.00000000000E+00  0.12930301303E+04  0.12930301303E+04  0.25500000920E-02 0.  1.
        2   -1    0    0  501    0  0.00000000000E+00  0.00000000000E+00 -0.13061720892E+04  0.13061720892E+04  0.25500000920E-02 0. -1.
    10030    2    1    2    0    0  0.00000000000E+00  0.00000000000E+00 -0.13141958934E+02  0.25992022195E+04  0.25991689955E+04 0.  0.
        4    1    3    3  502    0  0.10660783962E+04  0.29286974781E+03  0.67653541569E+03  0.12961472207E+04  0.12699999809E+01 0.  1.
       -4    1    3    3    0  502 -0.10660783962E+04 -0.29286974781E+03 -0.68967737462E+03  0.13030549989E+04  0.12699999809E+01 0. -1.
</event>
<event>
 5   0  0.1100104E-06  0.2602472E+04  0.7818609E-02  0.8367362E-01
        1   -1    0    0  501    0  0.00000000000E+00  0.00000000000E+00  0.80358990469E+03  0.80358990470E+03  0.50400001928E-02 0.  1.
       -1   -1    0    0    0  501  0.00000000000E+00  0.00000000000E+00 -0.21070629144E+04  0.21070629144E+04  0.50400001928E-02 0. -1.
    10030    2    1    2    0    0  0.00000000000E+00  0.00000000000E+00 -0.13034730097E+04  0.29106528191E+04  0.26024715073E+04 0.  0.
        4    1    3    3  502    0  0.81903849652E+03 -0.97174736344E+03 -0.33918724506E+03  0.13153579730E+04  0.12699999809E+01 0.  1.
       -4    1    3    3    0  502 -0.81903849652E+03  0.97174736344E+03 -0.96428576469E+03  0.15952948461E+04  0.12699999809E+01 0. -1.
</event>
<event>
 5   0  0.9197000E-07  0.2599462E+04  0.7818609E-02  0.8368384E-01
        4   -1    0    0  501    0  0.00000000000E+00  0.00000000000E+00  0.82237872671E+03  0.82237970734E+03  0.12699999809E+01 0. -1.
       -4   -1    0    0    0  501  0.00000000000E+00  0.00000000000E+00 -0.20541610639E+04  0.20541614565E+04  0.12699999809E+01 0.  1.
    10030    2    1    2    0    0  0.00000000000E+00  0.00000000000E+00 -0.12317823372E+04  0.28765411638E+04  0.25994617406E+04 0.  0.
        5    1    3    3  502    0  0.15155879173E+03  0.73813519117E+03  0.55598022117E+03  0.93645593817E+03  0.46999998093E+01 0. -1.
       -5    1    3    3    0  502 -0.15155879173E+03 -0.73813519117E+03 -0.17877625583E+04  0.19400852256E+04  0.46999998093E+01 0.  1.
</event>
<event>
 5   0  0.1088757E-06  0.2602747E+04  0.7818609E-02  0.8367269E-01
       -1   -1    0    0    0  501  0.00000000000E+00  0.00000000000E+00  0.96596548391E+03  0.96596548393E+03  0.50400001928E-02 0.  1.
        1   -1    0    0  501    0  0.00000000000E+00  0.00000000000E+00 -0.17532440301E+04  0.17532440302E+04  0.50400001928E-02 0. -1.
    10030    2    1    2    0    0  0.00000000000E+00  0.00000000000E+00 -0.78727854623E+03  0.27192095141E+04  0.26027471779E+04 0.  0.
        5    1    3    3  502    0 -0.12088482524E+04 -0.19771288333E+03 -0.85278893932E+03  0.14925399648E+04  0.46999998093E+01 0. -1.
       -5    1    3    3    0  502  0.12088482524E+04  0.19771288333E+03  0.65510393090E+02  0.12266695493E+04  0.46999998093E+01 0.  1.
</event>
<event>
 5   0  0.1122628E-06  0.2603529E+04  0.7818609E-02  0.8367003E-01
       -1   -1    0    0    0  501  0.00000000000E+00  0.00000000000E+00  0.90858214369E+03  0.90858214370E+03  0.50400001928E-02 0. -1.
        1   -1    0    0  501    0  0.00000000000E+00  0.00000000000E+00 -0.18650943388E+04  0.18650943388E+04  0.50400001928E-02 0.  1.
    10030    2    1    2    0    0  0.00000000000E+00  0.00000000000E+00 -0.95651219514E+03  0.27736764825E+04  0.26035294602E+04 0.  0.
        2    1    3    3  502    0  0.21815564743E+03 -0.11417771969E+04 -0.11025056879E+04  0.16021129316E+04  0.25500000920E-02 0.  1.
       -2    1    3    3    0  502 -0.21815564743E+03  0.11417771969E+04  0.14599349277E+03  0.11715635509E+04  0.25500000920E-02 0. -1.
</event>
<event>
 5   0  0.1055179E-06  0.2565386E+04  0.7818609E-02  0.8380055E-01
        1   -1    0    0  501    0  0.00000000000E+00  0.00000000000E+00  0.17405872015E+04  0.17405872015E+04  0.50400001928E-02 0. -1.
       -1   -1    0    0    0  501  0.00000000000E+00  0.00000000000E+00 -0.94525677064E+03  0.94525677065E+03  0.50400001928E-02 0.  1.
    10030    2    1    2    0    0  0.00000000000E+00  0.00000000000E+00  0.79533043086E+03  0.26858439722E+04  0.25653863936E+04 0.  0.
        3    1    3    3  502    0 -0.62286766822E+03  0.35608148828E+03  0.15108612838E+04  0.16725609070E+04  0.10100000352E+00 0. -1.
       -3    1    3    3    0  502  0.62286766822E+03 -0.35608148828E+03 -0.71553085297E+03  0.10132830652E+04  0.10100000352E+00 0.  1.
</event>
<event>
 5   0  0.1088757E-06  0.2597978E+04  0.7818609E-02  0.8368888E-01
       -1   -1    0    0    0  501  0.00000000000E+00  0.00000000000E+00  0.93908955056E+03  0.93908955057E+03  0.50400001928E-02 0. -1.
        1   -1    0    0  501    0  0.00000000000E+00  0.00000000000E+00 -0.17968171369E+04  0.17968171369E+04  0.50400001928E-02 0.  1.
    10030    2    1    2    0    0  0.00000000000E+00  0.00000000000E+00 -0.85772758638E+03  0.27359066875E+04  0.25979778271E+04 0.  0.
        5    1    3    3  502    0  0.13849191039E+03  0.11965145064E+04 -0.94102025144E+03  0.15285182946E+04  0.46999998093E+01 0. -1.
       -5    1    3    3    0  502 -0.13849191039E+03 -0.11965145064E+04  0.83292665062E+02  0.12073883929E+04  0.46999998093E+01 0.  1.
</event>
<event>
 5   0  0.1088757E-06  0.2595338E+04  0.7818609E-02  0.8369786E-01
       -1   -1    0    0    0  501  0.00000000000E+00  0.00000000000E+00  0.19401795607E+04  0.19401795607E+04  0.50400001928E-02 0. -1.
        1   -1    0    0  501    0  0.00000000000E+00  0.00000000000E+00 -0.86793274563E+03  0.86793274564E+03  0.50400001928E-02 0.  1.
    10030    2    1    2    0    0  0.00000000000E+00  0.00000000000E+00  0.10722468151E+04  0.28081123064E+04  0.25953384158E+04 0.  0.
        5    1    3    3  502    0 -0.91889335055E+03 -0.64835935257E+03  0.12366508100E+04  0.16715448410E+04  0.46999998093E+01 0. -1.
       -5    1    3    3    0  502  0.91889335055E+03  0.64835935257E+03 -0.16440399489E+03  0.11365674653E+04  0.46999998093E+01 0.  1.
</event>
<event>
 5   0  0.1088757E-06  0.2604750E+04  0.7818609E-02  0.8366589E-01
        1   -1    0    0  501    0  0.00000000000E+00  0.00000000000E+00  0.26454473692E+04  0.26454473692E+04  0.50400001928E-02 0. -1.
       -1   -1    0    0    0  501  0.00000000000E+00  0.00000000000E+00 -0.64116974568E+03  0.64116974570E+03  0.50400001928E-02 0.  1.
    10030    2    1    2    0    0  0.00000000000E+00  0.00000000000E+00  0.20042776236E+04  0.32866171149E+04  0.26047501354E+04 0.  0.
        5    1    3    3  502    0  0.36838475983E+02  0.31451469824E+03 -0.59184333535E+03  0.67125046914E+03  0.46999998093E+01 0.  1.
       -5    1    3    3    0  502 -0.36838475983E+02 -0.31451469824E+03  0.25961209589E+04  0.26153666458E+04  0.46999998093E+01 0. -1.
</event>
<event>
 5   0  0.2705807E-06  0.2601749E+04  0.7818609E-02  0.8367607E-01
        2   -1    0    0  501    0  0.00000000000E+00  0.00000000000E+00  0.10906176913E+04  0.10906176913E+04  0.25500000920E-02 0. -1.
       -2   -1    0    0    0  501  0.00000000000E+00  0.00000000000E+00 -0.15516663283E+04  0.15516663283E+04  0.25500000920E-02 0.  1.
    10030    2    1    2    0    0  0.00000000000E+00  0.00000000000E+00 -0.46104863702E+03  0.26422840196E+04  0.26017492183E+04 0.  0.
        4    1    3    3  502    0 -0.31432547491E+03 -0.54768858639E+03  0.92452076143E+03  0.11195997245E+04  0.12699999809E+01 0. -1.
       -4    1    3    3    0  502  0.31432547491E+03  0.54768858639E+03 -0.13855693985E+04  0.15226842951E+04  0.12699999809E+01 0.  1.
</event>
<event>
 5   0  0.1100104E-06  0.2600708E+04  0.7818609E-02  0.8367961E-01
       -1   -1    0    0    0  501  0.00000000000E+00  0.00000000000E+00  0.13026753791E+04  0.13026753791E+04  0.50400001928E-02 0. -1.
        1   -1    0    0  501    0  0.00000000000E+00  0.00000000000E+00 -0.12980368477E+04  0.12980368477E+04  0.50400001928E-02 0.  1.
    10030    2    1    2    0    0  0.00000000000E+00  0.00000000000E+00  0.46385313847E+01  0.26007122268E+04  0.26007080903E+04 0.  0.
        4    1    3    3  502    0  0.10626036731E+02  0.12155346765E+04 -0.45950564252E+03  0.12995324201E+04  0.12699999809E+01 0.  1.
       -4    1    3    3    0  502 -0.10626036731E+02 -0.12155346765E+04  0.46414417390E+03  0.13011798067E+04  0.12699999809E+01 0. -1.
</event>
<event>
 5   0  0.2820028E-06  0.2599105E+04  0.7818609E-02  0.8368505E-01
       -2   -1    0    0    0  501  0.00000000000E+00  0.00000000000E+00  0.89091295334E+03  0.89091295334E+03  0.25500000920E-02 0.  1.
        2   -1    0    0  501    0  0.00000000000E+00  0.00000000000E+00 -0.18956243649E+04  0.18956243649E+04  0.25500000920E-02 0. -1.
    10030    2    1    2    0    0  0.00000000000E+00  0.00000000000E+00 -0.10047114116E+04  0.27865373183E+04  0.25991046931E+04 0.  0.
        3    1    3    3  502    0 -0.99557949411E+03 -0.54763750519E+03 -0.11785113682E+04  0.16370627421E+04  0.10100000352E+00 0. -1.
       -3    1    3    3    0  502  0.99557949411E+03  0.54763750519E+03  0.17379995666E+03  0.11494745762E+04  0.10100000352E+00 0.  1.
</event>
<event>
 5   0  0.2586775E-06  0.2605362E+04  0.7818609E-02  0.8366382E-01
       -2   -1    0    0    0  501  0.00000000000E+00  0.00000000000E+00  0.10981982650E+04  0.10981982650E+04  0.25500000920E-02 0.  1.
        2   -1    0    0  501    0  0.00000000000E+00  0.00000000000E+00 -0.15452378683E+04  0.15452378683E+04  0.25500000920E-02 0. -1.
    10030    2    1    2    0    0  0.00000000000E+00  0.00000000000E+00 -0.44703960327E+03  0.26434361333E+04  0.26053618144E+04 0.  0.
        1    1    3    3  502    0  0.66420145807E+03  0.34286907899E+02 -0.13599952614E+04  0.15139109221E+04  0.50400001928E-02 0. -1.
       -1    1    3    3    0  502 -0.66420145807E+03 -0.34286907899E+02  0.91295565814E+03  0.11295252112E+04  0.50400001928E-02 0.  1.
</event>
<event>
 5   0  0.1100104E-06  0.2603811E+04  0.7818609E-02  0.8366908E-01
       -1   -1    0    0    0  501  0.00000000000E+00  0.00000000000E+00  0.15944873948E+04  0.15944873948E+04  0.50400001928E-02 0. -1.
        1   -1    0    0  501    0  0.00000000000E+00  0.00000000000E+00 -0.10630110352E+04  0.10630110352E+04  0.50400001928E-02 0.  1.
    10030    2    1    2    0    0  0.00000000000E+00  0.00000000000E+00  0.53147635966E+03  0.26574984300E+04  0.26038108197E+04 0.  0.
        4    1    3    3  502    0 -0.32243537351E+03 -0.12612116359E+04  0.28446653809E+03  0.13324947223E+04  0.12699999809E+01 0. -1.
       -4    1    3    3    0  502  0.32243537351E+03  0.12612116359E+04  0.24700982157E+03  0.13250037077E+04  0.12699999809E+01 0.  1.
</event>
<event>
 5   0  0.2586775E-06  0.2597622E+04  0.7818609E-02  0.8369009E-01
       -2   -1    0    0    0  501  0.00000000000E+00  0.00000000000E+00  0.11237595263E+04  0.11237595263E+04  0.25500000920E-02 0. -1.
        2   -1    0    0  501    0  0.00000000000E+00  0.00000000000E+00 -0.15011309387E+04  0.15011309387E+04  0.25500000920E-02 0.  1.
    10030    2    1    2    0    0  0.00000000000E+00  0.00000000000E+00 -0.37737141237E+03  0.26248904651E+04  0.25976221378E+04 0.  0.
        1    1    3    3  502    0 -0.26168211709E+03 -0.46586322818E+03 -0.13849218013E+04  0.14844239535E+04  0.50400001928E-02 0.  1.
       -1    1    3    3    0  502  0.26168211709E+03  0.46586322818E+03  0.10075503890E+04  0.11404665116E+04  0.50400001928E-02 0. -1.
</event>
<event>
 5   0  0.2586775E-06  0.2537783E+04  0.7818609E-02  0.8389648E-01
       -2   -1    0    0    0  501  0.00000000000E+00  0.00000000000E+00  0.12423192562E+04  0.12423192562E+04  0.25500000920E-02 0. -1.
        2   -1    0    0  501    0  0.00000000000E+00  0.00000000000E+00 -0.12960317905E+04  0.12960317905E+04  0.25500000920E-02 0.  1.
    10030    2    1    2    0    0  0.00000000000E+00  0.00000000000E+00 -0.53712534238E+02  0.25383510467E+04  0.25377826936E+04 0.  0.
        1    1    3    3  502    0  0.87131146984E+03  0.83381706957E+02 -0.94572901218E+03  0.12886192421E+04  0.50400001928E-02 0.  1.
       -1    1    3    3    0  502 -0.87131146984E+03 -0.83381706957E+02  0.89201647794E+03  0.12497318046E+04  0.50400001928E-02 0. -1.
</event>
<event>
 5   0  0.1122628E-06  0.2601045E+04  0.7818609E-02  0.8367846E-01
       -1   -1    0    0    0  501  0.00000000000E+00  0.00000000000E+00  0.74217686079E+03  0.74217686080E+03  0.50400001928E-02 0. -1.
        1   -1    0    0  501    0  0.00000000000E+00  0.00000000000E+00 -0.22789161995E+04  0.22789161995E+04  0.50400001928E-02 0.  1.
    10030    2    1    2    0    0  0.00000000000E+00  0.00000000000E+00 -0.15367393387E+04  0.30210930603E+04  0.26010450753E+04 0.  0.
        2    1    3    3  502    0 -0.10172503315E+04  0.78143234808E+03 -0.51946293696E+03  0.13839351482E+04  0.25500000920E-02 0.  1.
       -2    1    3    3    0  502  0.10172503315E+04 -0.78143234808E+03 -0.10172764017E+04  0.16371579121E+04  0.25500000920E-02 0. -1.
</event>
<event>
 5   0  0.2586775E-06  0.2600511E+04  0.7818609E-02  0.8368028E-01
        2   -1    0    0  501    0  0.00000000000E+00  0.00000000000E+00  0.17241790818E+04  0.17241790818E+04  0.25500000920E-02 0.  1.
       -2   -1    0    0    0  501  0.00000000000E+00  0.00000000000E+00 -0.98056191365E+03  0.98056191366E+03  0.25500000920E-02 0. -1.
    10030    2    1    2    0    0  0.00000000000E+00  0.00000000000E+00  0.74361716813E+03  0.27047409954E+04  0.26005109805E+04 0.  0.
        1    1    3    3  502    0  0.10503723847E+04 -0.20646283517E+03 -0.39584931003E+03  0.11413175391E+04  0.50400001928E-02 0. -1.
       -1    1    3    3    0  502 -0.10503723847E+04  0.20646283517E+03  0.11394664782E+04  0.15634234563E+04  0.50400001928E-02 0.  1.
</event>
<event>
 5   0  0.1100104E-06  0.2599380E+04  0.7818609E-02  0.8368412E-01
       -1   -1    0    0    0  501  0.00000000000E+00  0.00000000000E+00  0.14451388564E+04  0.14451388564E+04  0.50400001928E-02 0. -1.
        1   -1    0    0  501    0  0.00000000000E+00  0.00000000000E+00 -0.11688805429E+04  0.11688805429E+04  0.50400001928E-02 0.  1.
    10030    2    1    2    0    0  0.00000000000E+00  0.00000000000E+00  0.27625831350E+03  0.26140193993E+04  0.25993804577E+04 0.  0.
        4    1    3    3  502    0  0.12698110220E+04 -0.24026853009E+03 -0.64830950545E+00  0.12923432328E+04  0.12699999809E+01 0.  1.
       -4    1    3    3    0  502 -0.12698110220E+04  0.24026853009E+03  0.27690662301E+03  0.13216761665E+04  0.12699999809E+01 0. -1.
</event>
<event>
 5   0  0.1122628E-06  0.2603731E+04  0.7818609E-02  0.8366935E-01
        1   -1    0    0  501    0  0.00000000000E+00  0.00000000000E+00  0.14049033466E+04  0.14049033466E+04  0.50400001928E-02 0.  1.
       -1   -1    0    0    0  501  0.00000000000E+00  0.00000000000E+00 -0.12063848907E+04  0.12063848907E+04  0.50400001928E-02 0. -1.
    10030    2    1    2    0    0  0.00000000000E+00  0.00000000000E+00  0.19851845591E+03  0.26112882374E+04  0.26037312998E+04 0.  0.
        2    1    3    3  502    0 -0.33004419504E+03 -0.62512057875E+03 -0.99714252794E+03  0.12222921622E+04  0.25500000920E-02 0. -1.
       -2    1    3    3    0  502  0.33004419504E+03  0.62512057875E+03  0.11956609839E+04  0.13889960752E+04  0.25500000920E-02 0.  1.
</event>
<event>
 5   0  0.1032076E-06  0.2600620E+04  0.7818609E-02  0.8367991E-01
       -1   -1    0    0    0  501  0.00000000000E+00  0.00000000000E+00  0.96499933328E+03  0.96499933330E+03  0.50400001928E-02 0. -1.
        1   -1    0    0  501    0  0.00000000000E+00  0.00000000000E+00 -0.17521315121E+04  0.17521315121E+04  0.50400001928E-02 0.  1.
    10030    2    1    2    0    0  0.00000000000E+00  0.00000000000E+00 -0.78713217883E+03  0.27171308454E+04  0.26006197269E+04 0.  0.
        1    1    3    3  502    0 -0.76595302544E+03  0.12034133855E+03 -0.14841903454E+04  0.16745109902E+04  0.50400001928E-02 0.  1.
       -1    1    3    3    0  502  0.76595302544E+03 -0.12034133855E+03  0.69705816654E+03  0.10426198552E+04  0.50400001928E-02 0. -1.
</event>
<event>
 5   0  0.2586775E-06  0.2601447E+04  0.7818609E-02  0.8367710E-01
       -2   -1    0    0    0  501  0.00000000000E+00  0.00000000000E+00  0.24683854230E+04  0.24683854230E+04  0.25500000920E-02 0.  1.
        2   -1    0    0  501    0  0.00000000000E+00  0.00000000000E+00 -0.68542033001E+03  0.68542033002E+03  0.25500000920E-02 0. -1.
    10030    2    1    2    0    0  0.00000000000E+00  0.00000000000E+00  0.17829650929E+04  0.31538057530E+04  0.26014469445E+04 0.  0.
        1    1    3    3  502    0  0.10196614661E+04 -0.15038253936E+03  0.18533994223E+04  0.21207106904E+04  0.50400001928E-02 0.  1.
       -1    1    3    3    0  502 -0.10196614661E+04  0.15038253936E+03 -0.70434329352E+02  0.10330950626E+04  0.50400001928E-02 0. -1.
</event>
<event>
 5   0  0.1032076E-06  0.2598757E+04  0.7818609E-02  0.8368624E-01
        1   -1    0    0  501    0  0.00000000000E+00  0.00000000000E+00  0.91801163292E+03  0.91801163294E+03  0.50400001928E-02 0.  1.
       -1   -1    0    0    0  501  0.00000000000E+00  0.00000000000E+00 -0.18391752665E+04  0.18391752665E+04  0.50400001928E-02 0. -1.
    10030    2    1    2    0    0  0.00000000000E+00  0.00000000000E+00 -0.92116363359E+03  0.27571868995E+04  0.25987568487E+04 0.  0.
        1    1    3    3  502    0  0.32767229148E+03 -0.52159540408E+03 -0.16744251884E+04  0.17841330129E+04  0.50400001928E-02 0. -1.
       -1    1    3    3    0  502 -0.32767229148E+03  0.52159540408E+03  0.75326155481E+03  0.97305388656E+03  0.50400001928E-02 0.  1.
</event>
<event>
 5   0  0.1100104E-06  0.2606515E+04  0.7818609E-02  0.8365991E-01
       -1   -1    0    0    0  501  0.00000000000E+00  0.00000000000E+00  0.94580134309E+03  0.94580134310E+03  0.50400001928E-02 0. -1.
        1   -1    0    0  501    0  0.00000000000E+00  0.00000000000E+00 -0.17958111133E+04  0.17958111133E+04  0.50400001928E-02 0.  1.
    10030    2    1    2    0    0  0.00000000000E+00  0.00000000000E+00 -0.85000977018E+03  0.27416124564E+04  0.26065153465E+04 0.  0.
        4    1    3    3  502    0 -0.18845889506E+03  0.64186347742E+03  0.75143523901E+03  0.10060626273E+04  0.12699999809E+01 0. -1.
       -4    1    3    3    0  502  0.18845889506E+03 -0.64186347742E+03 -0.16014450092E+04  0.17355498290E+04  0.12699999809E+01 0.  1.
</event>
<event>
 5   0  0.2746631E-06  0.2601859E+04  0.7818609E-02  0.8367570E-01
       -2   -1    0    0    0  501  0.00000000000E+00  0.00000000000E+00  0.10071784654E+04  0.10071784654E+04  0.25500000920E-02 0.  1.
        2   -1    0    0  501    0  0.00000000000E+00  0.00000000000E+00 -0.16803557005E+04  0.16803557005E+04  0.25500000920E-02 0. -1.
    10030    2    1    2    0    0  0.00000000000E+00  0.00000000000E+00 -0.67317723506E+03  0.26875341659E+04  0.26018593934E+04 0.  0.
        2    1    3    3  502    0 -0.89441287087E-01 -0.11001864578E+04 -0.10537175023E+04  0.15233945072E+04  0.25500000920E-02 0. -1.
       -2    1    3    3    0  502  0.89441287087E-01  0.11001864578E+04  0.38054026721E+03  0.11641396587E+04  0.25500000920E-02 0.  1.
</event>
<event>
 5   0  0.2746631E-06  0.2601614E+04  0.7818609E-02  0.8367653E-01
       -2   -1    0    0    0  501  0.00000000000E+00  0.00000000000E+00  0.69030365454E+03  0.69030365455E+03  0.25500000920E-02 0.  1.
        2   -1    0    0  501    0  0.00000000000E+00  0.00000000000E+00 -0.24512380796E+04  0.24512380796E+04  0.25500000920E-02 0. -1.
    10030    2    1    2    0    0  0.00000000000E+00  0.00000000000E+00 -0.17609344250E+04  0.31415417341E+04  0.26016138103E+04 0.  0.
        2    1    3    3  502    0 -0.40498093270E+03 -0.12226540099E+04 -0.66042311220E+03  0.14474291247E+04  0.25500000920E-02 0. -1.
       -2    1    3    3    0  502  0.40498093270E+03  0.12226540099E+04 -0.11005113128E+04  0.16941126095E+04  0.25500000920E-02 0.  1.
</event>
<event>
 5   0  0.2623368E-06  0.2594180E+04  0.7818609E-02  0.8370181E-01
        2   -1    0    0  501    0  0.00000000000E+00  0.00000000000E+00  0.11652021729E+04  0.11652021729E+04  0.25500000920E-02 0. -1.
       -2   -1    0    0    0  501  0.00000000000E+00  0.00000000000E+00 -0.14439056875E+04  0.14439056875E+04  0.25500000920E-02 0.  1.
    10030    2    1    2    0    0  0.00000000000E+00  0.00000000000E+00 -0.27870351460E+03  0.26091078604E+04  0.25941796734E+04 0.  0.
        5    1    3    3  502    0 -0.68438877577E+03 -0.42536596662E+03 -0.11616138791E+04  0.14137514266E+04  0.46999998093E+01 0.  1.
       -5    1    3    3    0  502  0.68438877577E+03  0.42536596662E+03  0.88291036455E+03  0.11953564338E+04  0.46999998093E+01 0. -1.
</event>
<event>
 5   0  0.2586775E-06  0.2601076E+04  0.7818609E-02  0.8367836E-01
        2   -1    0    0  501    0  0.00000000000E+00  0.00000000000E+00  0.17704173856E+04  0.17704173856E+04  0.25500000920E-02 0. -1.
       -2   -1    0    0    0  501  0.00000000000E+00  0.00000000000E+00 -0.95536721743E+03  0.95536721743E+03  0.25500000920E-02 0.  1.
    10030    2    1    2    0    0  0.00000000000E+00  0.00000000000E+00  0.81505016819E+03  0.27257846031E+04  0.26010757247E+04 0.  0.
        1    1    3    3  502    0 -0.87665290301E+03  0.80858591955E+03 -0.13606176550E+03  0.12003517425E+04  0.50400001928E-02 0.  1.
       -1    1    3    3    0  502  0.87665290301E+03 -0.80858591955E+03  0.95111193370E+03  0.15254328606E+04  0.50400001928E-02 0. -1.
</event>
<event>
 5   0  0.1055179E-06  0.2599515E+04  0.7818609E-02  0.8368366E-01
       -1   -1    0    0    0  501  0.00000000000E+00  0.00000000000E+00  0.83095316504E+03  0.83095316506E+03  0.50400001928E-02 0. -1.
        1   -1    0    0  501    0  0.00000000000E+00  0.00000000000E+00 -0.20330499140E+04  0.20330499140E+04  0.50400001928E-02 0.  1.
    10030    2    1    2    0    0  0.00000000000E+00  0.00000000000E+00 -0.12020967489E+04  0.28640030790E+04  0.25995147707E+04 0.  0.
        3    1    3    3  502    0 -0.80855841219E+03 -0.91900203807E+03 -0.11949897725E+03  0.12298827048E+04  0.10100000352E+00 0.  1.
       -3    1    3    3    0  502  0.80855841219E+03  0.91900203807E+03 -0.10825977717E+04  0.16341203742E+04  0.10100000352E+00 0. -1.
</event>
<event>
 5   0  0.2705807E-06  0.2593277E+04  0.7818609E-02  0.8370488E-01
        2   -1    0    0  501    0  0.00000000000E+00  0.00000000000E+00  0.14376862887E+04  0.14376862887E+04  0.25500000920E-02 0. -1.
       -2   -1    0    0    0  501  0.00000000000E+00  0.00000000000E+00 -0.11694288326E+04  0.11694288327E+04  0.25500000920E-02 0.  1.
    10030    2    1    2    0    0  0.00000000000E+00  0.00000000000E+00  0.26825745601E+03  0.26071151213E+04  0.25932773074E+04 0.  0.
        4    1    3    3  502    0  0.12221681244E+04  0.22358746442E+03  0.50703103290E+03  0.13419271067E+04  0.12699999809E+01 0. -1.
       -4    1    3    3    0  502 -0.12221681244E+04 -0.22358746442E+03 -0.23877357689E+03  0.12651880146E+04  0.12699999809E+01 0.  1.
</event>
<event>
 5   0  0.2623368E-06  0.2594855E+04  0.7818609E-02  0.8369951E-01
        2   -1    0    0  501    0  0.00000000000E+00  0.00000000000E+00  0.13454933108E+04  0.13454933108E+04  0.25500000920E-02 0.  1.
       -2   -1    0    0    0  501  0.00000000000E+00  0.00000000000E+00 -0.12510784290E+04  0.12510784290E+04  0.25500000920E-02 0. -1.
    10030    2    1    2    0    0  0.00000000000E+00  0.00000000000E+00  0.94414881800E+02  0.25965717399E+04  0.25948546453E+04 0.  0.
        5    1    3    3  502    0 -0.79180925846E+03 -0.80043395097E+03 -0.59792000402E+03  0.12748281582E+04  0.46999998093E+01 0. -1.
       -5    1    3    3    0  502  0.79180925846E+03  0.80043395097E+03  0.69233488582E+03  0.13217435817E+04  0.46999998093E+01 0.  1.
</event>
<event>
 5   0  0.2586775E-06  0.2607268E+04  0.7818609E-02  0.8365737E-01
       -2   -1    0    0    0  501  0.00000000000E+00  0.00000000000E+00  0.16409113394E+04  0.16409113394E+04  0.25500000920E-02 0.  1.
        2   -1    0    0  501    0  0.00000000000E+00  0.00000000000E+00 -0.10356816322E+04  0.10356816322E+04  0.25500000920E-02 0. -1.
    10030    2    1    2    0    0  0.00000000000E+00  0.00000000000E+00  0.60522970721E+03  0.26765929717E+04  0.26072680985E+04 0.  0.
        1    1    3    3  502    0 -0.70381745916E+03  0.10808094159E+04  0.49727120923E+03  0.13823120722E+04  0.50400001928E-02 0. -1.
       -1    1    3    3    0  502  0.70381745916E+03 -0.10808094159E+04  0.10795849798E+03  0.12942808995E+04  0.50400001928E-02 0.  1.
</event>
<event>
 5   0  0.1032076E-06  0.2602519E+04  0.7818609E-02  0.8367346E-01
       -1   -1    0    0    0  501  0.00000000000E+00  0.00000000000E+00  0.16564173715E+04  0.16564173715E+04  0.50400001928E-02 0.  1.
        1   -1    0    0  501    0  0.00000000000E+00  0.00000000000E+00 -0.10222518709E+04  0.10222518710E+04  0.50400001928E-02 0. -1.
    10030    2    1    2    0    0  0.00000000000E+00  0.00000000000E+00  0.63416550053E+03  0.26786692424E+04  0.26025185933E+04 0.  0.
        1    1    3    3  502    0 -0.64819884015E+03 -0.30685953444E+03  0.14346487307E+04  0.16039144275E+04  0.50400001928E-02 0.  1.
       -1    1    3    3    0  502  0.64819884015E+03  0.30685953444E+03 -0.80048323021E+03  0.10747548149E+04  0.50400001928E-02 0. -1.
</event>
<event>
 5   0  0.1122628E-06  0.2600662E+04  0.7818609E-02  0.8367976E-01
       -1   -1    0    0    0  501  0.00000000000E+00  0.00000000000E+00  0.11739583649E+04  0.11739583649E+04  0.50400001928E-02 0. -1.
        1   -1    0    0  501    0  0.00000000000E+00  0.00000000000E+00 -0.14403074718E+04  0.14403074718E+04  0.50400001928E-02 0.  1.
    10030    2    1    2    0    0  0.00000000000E+00  0.00000000000E+00 -0.26634910691E+03  0.26142658366E+04  0.26006622268E+04 0.  0.
        2    1    3    3  502    0 -0.12130458290E+04  0.46516450608E+03 -0.18825903286E+03  0.13127450874E+04  0.25500000920E-02 0. -1.
       -2    1    3    3    0  502  0.12130458290E+04 -0.46516450608E+03 -0.78090074044E+02  0.13015207492E+04  0.25500000920E-02 0.  1.
</event>
<event>
 5   0  0.1122628E-06  0.2602788E+04  0.7818609E-02  0.8367255E-01
        1   -1    0    0  501    0  0.00000000000E+00  0.00000000000E+00  0.26772931173E+04  0.26772931173E+04  0.50400001928E-02 0. -1.
       -1   -1    0    0    0  501  0.00000000000E+00  0.00000000000E+00 -0.63258896411E+03  0.63258896413E+03  0.50400001928E-02 0.  1.
    10030    2    1    2    0    0  0.00000000000E+00  0.00000000000E+00  0.20447041532E+04  0.33098820815E+04  0.26027877975E+04 0.  0.
        2    1    3    3  502    0  0.27257983077E+03  0.93201302772E+03 -0.79442456368E+02  0.97429931328E+03  0.25500000920E-02 0.  1.
       -2    1    3    3    0  502 -0.27257983077E+03 -0.93201302772E+03  0.21241466096E+04  0.23355827682E+04  0.25500000920E-02 0. -1.
</event>
<event>
 5   0  0.2746631E-06  0.2606560E+04  0.7818609E-02  0.8365976E-01
       -2   -1    0    0    0  501  0.00000000000E+00  0.00000000000E+00  0.10036251152E+04  0.10036251152E+04  0.25500000920E-02 0.  1.
        2   -1    0    0  501    0  0.00000000000E+00  0.00000000000E+00 -0.16924038419E+04  0.16924038419E+04  0.25500000920E-02 0. -1.
    10030    2    1    2    0    0  0.00000000000E+00  0.00000000000E+00 -0.68877872667E+03  0.26960289571E+04  0.26065601860E+04 0.  0.
        2    1    3    3  502    0  0.13617508198E+03  0.10668000330E+04 -0.11058187060E+04  0.15425436700E+04  0.25500000920E-02 0. -1.
       -2    1    3    3    0  502 -0.13617508198E+03 -0.10668000330E+04  0.41703997933E+03  0.11534852871E+04  0.25500000920E-02 0.  1.
</event>
<event>
 5   0  0.2705807E-06  0.2611625E+04  0.7818609E-02  0.8364263E-01
        2   -1    0    0  501    0  0.00000000000E+00  0.00000000000E+00  0.12662512417E+04  0.12662512417E+04  0.25500000920E-02 0.  1.
       -2   -1    0    0    0  501  0.00000000000E+00  0.00000000000E+00 -0.13466094439E+04  0.13466094439E+04  0.25500000920E-02 0. -1.
    10030    2    1    2    0    0  0.00000000000E+00  0.00000000000E+00 -0.80358202175E+02  0.26128606856E+04  0.26116246900E+04 0.  0.
        4    1    3    3  502    0 -0.89175552166E+03 -0.71897351288E+03 -0.66736768075E+03  0.13257194488E+04  0.12699999809E+01 0. -1.
       -4    1    3    3    0  502  0.89175552166E+03  0.71897351288E+03  0.58700947858E+03  0.12871412368E+04  0.12699999809E+01 0.  1.
</event>
<event>
 5   0  0.2623368E-06  0.2601249E+04  0.7818609E-02  0.8367777E-01
       -2   -1    0    0    0  501  0.00000000000E+00  0.00000000000E+00  0.90396813468E+03  0.90396813468E+03  0.25500000920E-02 0. -1.
        2   -1    0    0  501    0  0.00000000000E+00  0.00000000000E+00 -0.18713315338E+04  0.18713315338E+04  0.25500000920E-02 0.  1.
    10030    2    1    2    0    0  0.00000000000E+00  0.00000000000E+00 -0.96736339912E+03  0.27752996685E+04  0.26012489892E+04 0.  0.
        5    1    3    3  502    0 -0.12895524595E+04  0.29288685959E+02 -0.66156677948E+03  0.14496537748E+04  0.46999998093E+01 0.  1.
       -5    1    3    3    0  502  0.12895524595E+04 -0.29288685959E+02 -0.30579661964E+03  0.13256458937E+04  0.46999998093E+01 0. -1.
</event>
<event>
 5   0  0.1032076E-06  0.2595297E+04  0.7818609E-02  0.8369801E-01
        1   -1    0    0  501    0  0.00000000000E+00  0.00000000000E+00  0.92479211873E+03  0.92479211874E+03  0.50400001928E-02 0.  1.
       -1   -1    0    0    0  501  0.00000000000E+00  0.00000000000E+00 -0.18208321614E+04  0.18208321614E+04  0.50400001928E-02 0. -1.
    10030    2    1    2    0    0  0.00000000000E+00  0.00000000000E+00 -0.89604004270E+03  0.27456242802E+04  0.25952966940E+04 0.  0.
        1    1    3    3  502    0 -0.10335323365E+04 -0.52537623572E+03  0.16856125148E+03  0.11715895934E+04  0.50400001928E-02 0.  1.
       -1    1    3    3    0  502  0.10335323365E+04  0.52537623572E+03 -0.10646012942E+04  0.15740346868E+04  0.50400001928E-02 0. -1.
</event>
<event>
 5   0  0.1100104E-06  0.2593835E+04  0.7818609E-02  0.8370298E-01
       -1   -1    0    0    0  501  0.00000000000E+00  0.00000000000E+00  0.11807118454E+04  0.11807118454E+04  0.50400001928E-02 0.  1.
        1   -1    0    0  501    0  0.00000000000E+00  0.00000000000E+00 -0.14245602955E+04  0.14245602955E+04  0.50400001928E-02 0. -1.
    10030    2    1    2    0    0  0.00000000000E+00  0.00000000000E+00 -0.24384845010E+03  0.26052721409E+04  0.25938351647E+04 0.  0.
        4    1    3    3  502    0  0.90309479396E+03  0.89585863991E+03  0.13187689187E+03  0.12788807752E+04  0.12699999809E+01 0. -1.
       -4    1    3    3    0  502 -0.90309479396E+03 -0.89585863991E+03 -0.37572534197E+03  0.13263913657E+04  0.12699999809E+01 0.  1.
</event>
<event>
 5   0  0.2746631E-06  0.2601422E+04  0.7818609E-02  0.8367718E-01
       -2   -1    0    0    0  501  0.00000000000E+00  0.00000000000E+00  0.14421981913E+04  0.14421981913E+04  0.25500000920E-02 0. -1.
        2   -1    0    0  501    0  0.00000000000E+00  0.00000000000E+00 -0.11731043198E+04  0.11731043198E+04  0.25500000920E-02 0.  1.
    10030    2    1    2    0    0  0.00000000000E+00  0.00000000000E+00  0.26909387153E+03  0.26153025111E+04  0.26014218637E+04 0.  0.
        2    1    3    3  502    0 -0.70455271297E+02 -0.76348752867E+03 -0.92175999696E+03  0.11989656558E+04  0.25500000920E-02 0.  1.
       -2    1    3    3    0  502  0.70455271297E+02  0.76348752867E+03  0.11908538685E+04  0.14163368553E+04  0.25500000920E-02 0. -1.
</event>
<event>
 5   0  0.2586775E-06  0.2604608E+04  0.7818609E-02  0.8366638E-01
       -2   -1    0    0    0  501  0.00000000000E+00  0.00000000000E+00  0.77355800034E+03  0.77355800034E+03  0.25500000920E-02 0.  1.
        2   -1    0    0  501    0  0.00000000000E+00  0.00000000000E+00 -0.21924613189E+04  0.21924613189E+04  0.25500000920E-02 0. -1.
    10030    2    1    2    0    0  0.00000000000E+00  0.00000000000E+00 -0.14189033186E+04  0.29660193193E+04  0.26046082191E+04 0.  0.
        1    1    3    3  502    0 -0.21172995685E+03 -0.19949158514E+03  0.73608510624E+03  0.79148452343E+03  0.50400001928E-02 0.  1.
       -1    1    3    3    0  502  0.21172995685E+03  0.19949158514E+03 -0.21549884248E+04  0.21745347958E+04  0.50400001928E-02 0. -1.
</event>
<event>
 5   0  0.2586775E-06  0.2605691E+04  0.7818609E-02  0.8366271E-01
        2   -1    0    0  501    0  0.00000000000E+00  0.00000000000E+00  0.17451654339E+04  0.17451654339E+04  0.25500000920E-02 0. -1.
       -2   -1    0    0    0  501  0.00000000000E+00  0.00000000000E+00 -0.97263325866E+03  0.97263325867E+03  0.25500000920E-02 0.  1.
    10030    2    1    2    0    0  0.00000000000E+00  0.00000000000E+00  0.77253217520E+03  0.27177986925E+04  0.26056906515E+04 0.  0.
        1    1    3    3  502    0 -0.10767678633E+04  0.89034255086E+02 -0.37310275402E+03  0.11430493407E+04  0.50400001928E-02 0.  1.
       -1    1    3    3    0  502  0.10767678633E+04 -0.89034255086E+02  0.11456349292E+04  0.15747493519E+04  0.50400001928E-02 0. -1.
</event>
<event>
 5   0  0.1122628E-06  0.2665935E+04  0.7818609E-02  0.8346143E-01
        1   -1    0    0  501    0  0.00000000000E+00  0.00000000000E+00  0.14453709847E+04  0.14453709847E+04  0.50400001928E-02 0. -1.
       -1   -1    0    0    0  501  0.00000000000E+00  0.00000000000E+00 -0.12293050541E+04  0.12293050541E+04  0.50400001928E-02 0.  1.
    10030    2    1    2    0    0  0.00000000000E+00  0.00000000000E+00  0.21606593061E+03  0.26746760389E+04  0.26659346253E+04 0.  0.
        2    1    3    3  502    0 -0.36490273617E+03 -0.10482541303E+04  0.84856640875E+03  0.13971598615E+04  0.25500000920E-02 0. -1.
       -2    1    3    3    0  502  0.36490273617E+03  0.10482541303E+04 -0.63250047814E+03  0.12775161774E+04  0.25500000920E-02 0.  1.
</event>
<event>
 5   0  0.2623368E-06  0.2604602E+04  0.7818609E-02  0.8366640E-01
        2   -1    0    0  501    0  0.00000000000E+00  0.00000000000E+00  0.23739270911E+04  0.23739270911E+04  0.25500000920E-02 0. -1.
       -2   -1    0    0    0  501  0.00000000000E+00  0.00000000000E+00 -0.71442317536E+03  0.71442317537E+03  0.25500000920E-02 0.  1.
    10030    2    1    2    0    0  0.00000000000E+00  0.00000000000E+00  0.16595039158E+04  0.30883502665E+04  0.26046024883E+04 0.  0.
        5    1    3    3  502    0 -0.91792027401E+03 -0.51821788949E+03 -0.77030840769E+02  0.10569215916E+04  0.46999998093E+01 0.  1.
       -5    1    3    3    0  502  0.91792027401E+03  0.51821788949E+03  0.17365347565E+04  0.20314286749E+04  0.46999998093E+01 0. -1.
</event>
<event>
 5   0  0.1100104E-06  0.2596631E+04  0.7818609E-02  0.8369347E-01
        1   -1    0    0  501    0  0.00000000000E+00  0.00000000000E+00  0.12927895096E+04  0.12927895096E+04  0.50400001928E-02 0.  1.
       -1   -1    0    0    0  501  0.00000000000E+00  0.00000000000E+00 -0.13038648760E+04  0.13038648760E+04  0.50400001928E-02 0. -1.
    10030    2    1    2    0    0  0.00000000000E+00  0.00000000000E+00 -0.11075366407E+02  0.25966543856E+04  0.25966307660E+04 0.  0.
        4    1    3    3  502    0 -0.19898391274E+03 -0.56933265386E+03  0.11442062018E+04  0.12934232538E+04  0.12699999809E+01 0.  1.
       -4    1    3    3    0  502  0.19898391274E+03  0.56933265386E+03 -0.11552815682E+04  0.13032311319E+04  0.12699999809E+01 0. -1.
</event>
<event>
 5   0  0.1032076E-06  0.2611462E+04  0.7818609E-02  0.8364318E-01
        1   -1    0    0  501    0  0.00000000000E+00  0.00000000000E+00  0.15283305984E+04  0.15283305984E+04  0.50400001928E-02 0.  1.
       -1   -1    0    0    0  501  0.00000000000E+00  0.00000000000E+00 -0.11155524921E+04  0.11155524921E+04  0.50400001928E-02 0. -1.
    10030    2    1    2    0    0  0.00000000000E+00  0.00000000000E+00  0.41277810631E+03  0.26438830905E+04  0.26114616656E+04 0.  0.
        1    1    3    3  502    0 -0.11123473027E+04  0.12171260987E+03  0.88764924550E+03  0.14283037717E+04  0.50400001928E-02 0.  1.
       -1    1    3    3    0  502  0.11123473027E+04 -0.12171260987E+03 -0.47487113919E+03  0.12155793187E+04  0.50400001928E-02 0. -1.
</event>
<event>
 5   0  0.1032076E-06  0.2545519E+04  0.7818609E-02  0.8386946E-01
        1   -1    0    0  501    0  0.00000000000E+00  0.00000000000E+00  0.20384416783E+04  0.20384416783E+04  0.50400001928E-02 0.  1.
       -1   -1    0    0    0  501  0.00000000000E+00  0.00000000000E+00 -0.79468358575E+03  0.79468358576E+03  0.50400001928E-02 0. -1.
    10030    2    1    2    0    0  0.00000000000E+00  0.00000000000E+00  0.12437580925E+04  0.28331252640E+04  0.25455185266E+04 0.  0.
        1    1    3    3  502    0 -0.94669985197E+02 -0.72976125148E+02 -0.78842259430E+03  0.79743219659E+03  0.50400001928E-02 0. -1.
       -1    1    3    3    0  502  0.94669985197E+02  0.72976125148E+02  0.20321806868E+04  0.20356930674E+04  0.50400001928E-02 0.  1.
</event>
<event>
 5   0  0.1122628E-06  0.2602908E+04  0.7818609E-02  0.8367214E-01
        1   -1    0    0  501    0  0.00000000000E+00  0.00000000000E+00  0.11010596521E+04  0.11010596521E+04  0.50400001928E-02 0.  1.
       -1   -1    0    0    0  501  0.00000000000E+00  0.00000000000E+00 -0.15383200288E+04  0.15383200288E+04  0.50400001928E-02 0. -1.
    10030    2    1    2    0    0  0.00000000000E+00  0.00000000000E+00 -0.43726037666E+03  0.26393796809E+04  0.26029076939E+04 0.  0.
        2    1    3    3  502    0  0.24883090537E+03 -0.20782389411E+03 -0.14967176303E+04  0.15314278486E+04  0.25500000920E-02 0. -1.
       -2    1    3    3    0  502 -0.24883090537E+03  0.20782389411E+03  0.10594572537E+04  0.11079518324E+04  0.25500000920E-02 0.  1.
</event>
<event>
 5   0  0.1032076E-06  0.2598675E+04  0.7818609E-02  0.8368651E-01
       -1   -1    0    0    0  501  0.00000000000E+00  0.00000000000E+00  0.12541908200E+04  0.12541908200E+04  0.50400001928E-02 0.  1.
        1   -1    0    0  501    0  0.00000000000E+00  0.00000000000E+00 -0.13461092068E+04  0.13461092068E+04  0.50400001928E-02 0. -1.
    10030    2    1    2    0    0  0.00000000000E+00  0.00000000000E+00 -0.91918386746E+02  0.26003000268E+04  0.25986749007E+04 0.  0.
        1    1    3    3  502    0 -0.98728132172E+03 -0.15759837475E+03 -0.87636742089E+03  0.13295042356E+04  0.50400001928E-02 0. -1.
       -1    1    3    3    0  502  0.98728132172E+03  0.15759837475E+03  0.78444903415E+03  0.12707957913E+04  0.50400001928E-02 0.  1.
</event>
<event>
 5   0  0.2820028E-06  0.2635432E+04  0.7818609E-02  0.8356264E-01
       -2   -1    0    0    0  501  0.00000000000E+00  0.00000000000E+00  0.16584788815E+04  0.16584788815E+04  0.25500000920E-02 0.  1.
        2   -1    0    0  501    0  0.00000000000E+00  0.00000000000E+00 -0.10469687713E+04  0.10469687713E+04  0.25500000920E-02 0. -1.
    10030    2    1    2    0    0  0.00000000000E+00  0.00000000000E+00  0.61151011022E+03  0.27054476528E+04  0.26354321063E+04 0.  0.
        3    1    3    3  502    0  0.11127127760E+04 -0.83906895915E+02 -0.41372525342E+03  0.11901002834E+04  0.10100000352E+00 0. -1.
       -3    1    3    3    0  502 -0.11127127760E+04  0.83906895915E+02  0.10252353636E+04  0.15153473694E+04  0.10100000352E+00 0.  1.
</event>
<event>
 5   0  0.1055179E-06  0.2593136E+04  0.7818609E-02  0.8370536E-01
       -1   -1    0    0    0  501  0.00000000000E+00  0.00000000000E+00  0.10513617629E+04  0.10513617629E+04  0.50400001928E-02 0. -1.
        1   -1    0    0  501    0  0.00000000000E+00  0.00000000000E+00 -0.15989636168E+04  0.15989636168E+04  0.50400001928E-02 0.  1.
    10030    2    1    2    0    0  0.00000000000E+00  0.00000000000E+00 -0.54760185392E+03  0.26503253797E+04  0.25931364846E+04 0.  0.
        3    1    3    3  502    0  0.94112389062E+03  0.68031039807E+03  0.31559090398E+03  0.12033844124E+04  0.10100000352E+00 0. -1.
       -3    1    3    3    0  502 -0.94112389062E+03 -0.68031039807E+03 -0.86319275790E+03  0.14469409672E+04  0.10100000352E+00 0.  1.
</event>
<event>
 5   0  0.2705807E-06  0.2612680E+04  0.7818609E-02  0.8363907E-01
       -2   -1    0    0    0  501  0.00000000000E+00  0.00000000000E+00  0.93372926300E+03  0.93372926300E+03  0.25500000920E-02 0.  1.
        2   -1    0    0  501    0  0.00000000000E+00  0.00000000000E+00 -0.18276438578E+04  0.18276438578E+04  0.25500000920E-02 0. -1.
    10030    2    1    2    0    0  0.00000000000E+00  0.00000000000E+00 -0.89391459478E+03  0.27613731208E+04  0.26126802731E+04 0.  0.
        4    1    3    3  502    0 -0.11020056000E+04 -0.66288151002E+03 -0.68957489519E+03  0.14592269829E+04  0.12699999809E+01 0. -1.
       -4    1    3    3    0  502  0.11020056000E+04  0.66288151002E+03 -0.20433969959E+03  0.13021461379E+04  0.12699999809E+01 0.  1.
</event>
<event>
 5   0  0.2820028E-06  0.2585693E+04  0.7818609E-02  0.8373077E-01
        2   -1    0    0  501    0  0.00000000000E+00  0.00000000000E+00  0.21665144489E+04  0.21665144489E+04  0.25500000920E-02 0. -1.
       -2   -1    0    0    0  501  0.00000000000E+00  0.00000000000E+00 -0.77149384631E+03  0.77149384632E+03  0.25500000920E-02 0.  1.
    10030    2    1    2    0    0  0.00000000000E+00  0.00000000000E+00  0.13950206026E+04  0.29380082953E+04  0.25856933811E+04 0.  0.
        3    1    3    3  502    0 -0.96930906718E+03 -0.53571641441E+03 -0.60381828553E+02  0.11091429664E+04  0.10100000352E+00 0.  1.
       -3    1    3    3    0  502  0.96930906718E+03  0.53571641441E+03  0.14554024312E+04  0.18288653289E+04  0.10100000352E+00 0. -1.
</event>
<event>
 5   0  0.2746631E-06  0.2593614E+04  0.7818609E-02  0.8370374E-01
       -2   -1    0    0    0  501  0.00000000000E+00  0.00000000000E+00  0.14212296370E+04  0.14212296370E+04  0.25500000920E-02 0.  1.
        2   -1    0    0  501    0  0.00000000000E+00  0.00000000000E+00 -0.11832771505E+04  0.11832771505E+04  0.25500000920E-02 0. -1.
    10030    2    1    2    0    0  0.00000000000E+00  0.00000000000E+00  0.23795248650E+03  0.26045067875E+04  0.25936141232E+04 0.  0.
        2    1    3    3  502    0 -0.38674199794E+03  0.31868852616E+03 -0.10821142260E+04  0.11925195796E+04  0.25500000920E-02 0. -1.
       -2    1    3    3    0  502  0.38674199794E+03 -0.31868852616E+03  0.13200667125E+04  0.14119872078E+04  0.25500000920E-02 0.  1.
</event>
<event>
 5   0  0.1088757E-06  0.2604400E+04  0.7818609E-02  0.8366708E-01
       -1   -1    0    0    0  501  0.00000000000E+00  0.00000000000E+00  0.14715253016E+04  0.14715253016E+04  0.50400001928E-02 0. -1.
        1   -1    0    0  501    0  0.00000000000E+00  0.00000000000E+00 -0.11523585296E+04  0.11523585296E+04  0.50400001928E-02 0.  1.
    10030    2    1    2    0    0  0.00000000000E+00  0.00000000000E+00  0.31916677200E+03  0.26238838311E+04  0.26043999176E+04 0.  0.
        5    1    3    3  502    0 -0.25646219183E+03  0.57610324135E+03 -0.98825331141E+03  0.11723201346E+04  0.46999998093E+01 0.  1.
       -5    1    3    3    0  502  0.25646219183E+03 -0.57610324135E+03  0.13074200834E+04  0.14515636965E+04  0.46999998093E+01 0. -1.
</event>
<event>
 5   0  0.1032076E-06  0.2597407E+04  0.7818609E-02  0.8369082E-01
        1   -1    0    0  501    0  0.00000000000E+00  0.00000000000E+00  0.11179132716E+04  0.11179132716E+04  0.50400001928E-02 0.  1.
       -1   -1    0    0    0  501  0.00000000000E+00  0.00000000000E+00 -0.15087314227E+04  0.15087314227E+04  0.50400001928E-02 0. -1.
    10030    2    1    2    0    0  0.00000000000E+00  0.00000000000E+00 -0.39081815113E+03  0.26266446943E+04  0.25974070768E+04 0.  0.
        1    1    3    3  502    0 -0.72654327183E+03 -0.91583190690E+03 -0.76747791430E+03  0.13984404015E+04  0.50400001928E-02 0. -1.
       -1    1    3    3    0  502  0.72654327183E+03  0.91583190690E+03  0.37665976317E+03  0.12282042928E+04  0.50400001928E-02 0.  1.
</event>
<event>
 5   0  0.2705807E-06  0.2619860E+04  0.7818609E-02  0.8361486E-01
       -2   -1    0    0    0  501  0.00000000000E+00  0.00000000000E+00  0.17899223695E+04  0.17899223695E+04  0.25500000920E-02 0. -1.
        2   -1    0    0  501    0  0.00000000000E+00  0.00000000000E+00 -0.95865450233E+03  0.95865450233E+03  0.25500000920E-02 0.  1.
    10030    2    1    2    0    0  0.00000000000E+00  0.00000000000E+00  0.83126786720E+03  0.27485768719E+04  0.26198604073E+04 0.  0.
        4    1    3    3  502    0 -0.18119053912E+03 -0.81518587972E+03 -0.64318697967E+03  0.10540631545E+04  0.12699999809E+01 0.  1.
       -4    1    3    3    0  502  0.18119053912E+03  0.81518587972E+03  0.14744548469E+04  0.16945137174E+04  0.12699999809E+01 0. -1.
</event>
<event>
 5   0  0.2705807E-06  0.2600692E+04  0.7818609E-02  0.8367966E-01
       -2   -1    0    0    0  501  0.00000000000E+00  0.00000000000E+00  0.14320144841E+04  0.14320144841E+04  0.25500000920E-02 0. -1.
        2   -1    0    0  501    0  0.00000000000E+00  0.00000000000E+00 -0.11807840439E+04  0.11807840439E+04  0.25500000920E-02 0.  1.
    10030    2    1    2    0    0  0.00000000000E+00  0.00000000000E+00  0.25123044019E+03  0.26127985280E+04  0.26006921029E+04 0.  0.
        4    1    3    3  502    0 -0.39661266293E+03  0.53841859242E+03 -0.99479009358E+03  0.11986680642E+04  0.12699999809E+01 0.  1.
       -4    1    3    3    0  502  0.39661266293E+03 -0.53841859242E+03  0.12460205338E+04  0.14141304638E+04  0.12699999809E+01 0. -1.
</event>
<event>
 5   0  0.2623368E-06  0.2599593E+04  0.7818609E-02  0.8368339E-01
        2   -1    0    0  501    0  0.00000000000E+00  0.00000000000E+00  0.18777614536E+04  0.18777614536E+04  0.25500000920E-02 0. -1.
       -2   -1    0    0    0  501  0.00000000000E+00  0.00000000000E+00 -0.89972600161E+03  0.89972600161E+03  0.25500000920E-02 0.  1.
    10030    2    1    2    0    0  0.00000000000E+00  0.00000000000E+00  0.97803545195E+03  0.27774874552E+04  0.25995928947E+04 0.  0.
        5    1    3    3  502    0  0.10442787969E+04  0.63517355931E+03  0.96141083003E+03  0.15550873063E+04  0.46999998093E+01 0. -1.
       -5    1    3    3    0  502 -0.10442787969E+04 -0.63517355931E+03  0.16624621920E+02  0.12224001489E+04  0.46999998093E+01 0.  1.
</event>
<event>
 5   0  0.2820028E-06  0.2539704E+04  0.7818609E-02  0.8388976E-01
       -2   -1    0    0    0  501  0.00000000000E+00  0.00000000000E+00  0.90429321554E+03  0.90429321555E+03  0.25500000920E-02 0. -1.
        2   -1    0    0  501    0  0.00000000000E+00  0.00000000000E+00 -0.17831879150E+04  0.17831879150E+04  0.25500000920E-02 0.  1.
    10030    2    1    2    0    0  0.00000000000E+00  0.00000000000E+00 -0.87889469945E+03  0.26874811305E+04  0.25397044974E+04 0.  0.
        3    1    3    3  502    0  0.22877963226E+03 -0.90936096653E+02  0.87879795495E+03  0.91263100410E+03  0.10100000352E+00 0. -1.
       -3    1    3    3    0  502 -0.22877963226E+03  0.90936096653E+02 -0.17576926544E+04  0.17748501265E+04  0.10100000352E+00 0.  1.
</event>
<event>
 5   0  0.2705807E-06  0.2599235E+04  0.7818609E-02  0.8368461E-01
        2   -1    0    0  501    0  0.00000000000E+00  0.00000000000E+00  0.16555050642E+04  0.16555050642E+04  0.25500000920E-02 0. -1.
       -2   -1    0    0    0  501  0.00000000000E+00  0.00000000000E+00 -0.10202357435E+04  0.10202357435E+04  0.25500000920E-02 0.  1.
    10030    2    1    2    0    0  0.00000000000E+00  0.00000000000E+00  0.63526932071E+03  0.26757408076E+04  0.25992348412E+04 0.  0.
        4    1    3    3  502    0  0.62042558594E+03  0.53941432112E+03  0.13537936950E+04  0.15838733217E+04  0.12699999809E+01 0. -1.
       -4    1    3    3    0  502 -0.62042558594E+03 -0.53941432112E+03 -0.71852437431E+03  0.10918674860E+04  0.12699999809E+01 0.  1.
</event>
<event>
 5   0  0.1088757E-06  0.2593697E+04  0.7818609E-02  0.8370345E-01
        1   -1    0    0  501    0  0.00000000000E+00  0.00000000000E+00  0.12124076260E+04  0.12124076260E+04  0.50400001928E-02 0. -1.
       -1   -1    0    0    0  501  0.00000000000E+00  0.00000000000E+00 -0.13871709114E+04  0.13871709114E+04  0.50400001928E-02 0.  1.
    10030    2    1    2    0    0  0.00000000000E+00  0.00000000000E+00 -0.17476328547E+03  0.25995785374E+04  0.25936974315E+04 0.  0.
        5    1    3    3  502    0  0.68671916082E+03  0.65636883463E+03  0.79745152412E+03  0.12403041063E+04  0.46999998093E+01 0. -1.
       -5    1    3    3    0  502 -0.68671916082E+03 -0.65636883463E+03 -0.97221480959E+03  0.13592744310E+04  0.46999998093E+01 0.  1.
</event>
<event>
 5   0  0.1122628E-06  0.2596622E+04  0.7818609E-02  0.8369349E-01
        1   -1    0    0  501    0  0.00000000000E+00  0.00000000000E+00  0.15601026898E+04  0.15601026898E+04  0.50400001928E-02 0. -1.
       -1   -1    0    0    0  501  0.00000000000E+00  0.00000000000E+00 -0.10804492875E+04  0.10804492875E+04  0.50400001928E-02 0.  1.
    10030    2    1    2    0    0  0.00000000000E+00  0.00000000000E+00  0.47965340231E+03  0.26405519773E+04  0.25966222980E+04 0.  0.
        2    1    3    3  502    0  0.20318445902E+03 -0.12123774937E+04 -0.18493439793E+03  0.12431185958E+04  0.25500000920E-02 0.  1.
       -2    1    3    3    0  502 -0.20318445902E+03  0.12123774937E+04  0.66458780024E+03  0.13974333815E+04  0.25500000920E-02 0. -1.
</event>
<event>
 5   0  0.2705807E-06  0.2601678E+04  0.7818609E-02  0.8367632E-01
        2   -1    0    0  501    0  0.00000000000E+00  0.00000000000E+00  0.14950269659E+04  0.14950269659E+04  0.25500000920E-02 0. -1.
       -2   -1    0    0    0  501  0.00000000000E+00  0.00000000000E+00 -0.11318735336E+04  0.11318735336E+04  0.25500000920E-02 0.  1.
    10030    2    1    2    0    0  0.00000000000E+00  0.00000000000E+00  0.36315343233E+03  0.26269004995E+04  0.26016775010E+04 0.  0.
        4    1    3    3  502    0 -0.44239859814E+03  0.89796057121E+03  0.10203713774E+04  0.14294086427E+04  0.12699999809E+01 0. -1.
       -4    1    3    3    0  502  0.44239859814E+03 -0.89796057121E+03 -0.65721794503E+03  0.11974918569E+04  0.12699999809E+01 0.  1.
</event>
<event>
 5   0  0.2820028E-06  0.2603796E+04  0.7818609E-02  0.8366913E-01
        2   -1    0    0  501    0  0.00000000000E+00  0.00000000000E+00  0.15091695684E+04  0.15091695684E+04  0.25500000920E-02 0. -1.
       -2   -1    0    0    0  501  0.00000000000E+00  0.00000000000E+00 -0.11230935224E+04  0.11230935224E+04  0.25500000920E-02 0.  1.
    10030    2    1    2    0    0  0.00000000000E+00  0.00000000000E+00  0.38607604600E+03  0.26322630907E+04  0.26037961260E+04 0.  0.
        3    1    3    3  502    0  0.42108065679E+03  0.77258233237E+03 -0.77700786646E+03  0.11738541709E+04  0.10100000352E+00 0.  1.
       -3    1    3    3    0  502 -0.42108065679E+03 -0.77258233237E+03  0.11630839125E+04  0.14584089198E+04  0.10100000352E+00 0. -1.
</event>
<event>
 5   0  0.9197000E-07  0.2601523E+04  0.7818609E-02  0.8367684E-01
        3   -1    0    0  501    0  0.00000000000E+00  0.00000000000E+00  0.16618419111E+04  0.16618419141E+04  0.10100000352E+00 0.  1.
       -3   -1    0    0    0  501  0.00000000000E+00  0.00000000000E+00 -0.10181353599E+04  0.10181353649E+04  0.10100000352E+00 0. -1.
    10030    2    1    2    0    0  0.00000000000E+00  0.00000000000E+00  0.64370655120E+03  0.26799772790E+04  0.26015226487E+04 0.  0.
        2    1    3    3  502    0 -0.15956858031E+03  0.26996023339E+03  0.16223178467E+04  0.16523485877E+04  0.25500000920E-02 0.  1.
       -2    1    3    3    0  502  0.15956858031E+03 -0.26996023339E+03 -0.97861129553E+03  0.10276286913E+04  0.25500000920E-02 0. -1.
</event>
<event>
 5   0  0.2746631E-06  0.2606720E+04  0.7818609E-02  0.8365922E-01
        2   -1    0    0  501    0  0.00000000000E+00  0.00000000000E+00  0.25567142954E+04  0.25567142954E+04  0.25500000920E-02 0.  1.
       -2   -1    0    0    0  501  0.00000000000E+00  0.00000000000E+00 -0.66442584924E+03  0.66442584925E+03  0.25500000920E-02 0. -1.
    10030    2    1    2    0    0  0.00000000000E+00  0.00000000000E+00  0.18922884461E+04  0.32211401446E+04  0.26067198292E+04 0.  0.
        2    1    3    3  502    0 -0.44474755791E+03 -0.56371887591E+03 -0.39797693785E+03  0.82095371636E+03  0.25500000920E-02 0. -1.
       -2    1    3    3    0  502  0.44474755791E+03  0.56371887591E+03  0.22902653840E+04  0.24001864283E+04  0.25500000920E-02 0.  1.
</event>
<event>
 5   0  0.2705807E-06  0.2603194E+04  0.7818609E-02  0.8367117E-01
       -2   -1    0    0    0  501  0.00000000000E+00  0.00000000000E+00  0.11124161109E+04  0.11124161109E+04  0.25500000920E-02 0. -1.
        2   -1    0    0  501    0  0.00000000000E+00  0.00000000000E+00 -0.15229509368E+04  0.15229509368E+04  0.25500000920E-02 0.  1.
    10030    2    1    2    0    0  0.00000000000E+00  0.00000000000E+00 -0.41053482591E+03  0.26353670476E+04  0.26031943132E+04 0.  0.
        4    1    3    3  502    0 -0.11120192316E+04  0.37125839372E+03 -0.77770602554E+03  0.14068574347E+04  0.12699999809E+01 0.  1.
       -4    1    3    3    0  502  0.11120192316E+04 -0.37125839372E+03  0.36717119962E+03  0.12285096130E+04  0.12699999809E+01 0. -1.
</event>
<event>
 5   0  0.1032076E-06  0.2588178E+04  0.7818609E-02  0.8372228E-01
        1   -1    0    0  501    0  0.00000000000E+00  0.00000000000E+00  0.21170820791E+04  0.21170820791E+04  0.50400001928E-02 0.  1.
       -1   -1    0    0    0  501  0.00000000000E+00  0.00000000000E+00 -0.79102582393E+03  0.79102582395E+03  0.50400001928E-02 0. -1.
    10030    2    1    2    0    0  0.00000000000E+00  0.00000000000E+00  0.13260562552E+04  0.29081079031E+04  0.25881781979E+04 0.  0.
        1    1    3    3  502    0 -0.92868763310E+03 -0.46818061266E+03  0.15282916043E+04  0.18486019133E+04  0.50400001928E-02 0.  1.
       -1    1    3    3    0  502  0.92868763310E+03  0.46818061266E+03 -0.20223534913E+03  0.10595059898E+04  0.50400001928E-02 0. -1.
</event>
<event>
 5   0  0.2746631E-06  0.2598793E+04  0.7818609E-02  0.8368611E-01
        2   -1    0    0  501    0  0.00000000000E+00  0.00000000000E+00  0.17396236334E+04  0.17396236334E+04  0.25500000920E-02 0.  1.
       -2   -1    0    0    0  501  0.00000000000E+00  0.00000000000E+00 -0.97057288942E+03  0.97057288942E+03  0.25500000920E-02 0. -1.
    10030    2    1    2    0    0  0.00000000000E+00  0.00000000000E+00  0.76905074395E+03  0.27101965228E+04  0.25987932094E+04 0.  0.
        2    1    3    3  502    0  0.49711914194E+03 -0.27621501221E+03  0.16029449687E+04  0.17008394242E+04  0.25500000920E-02 0.  1.
       -2    1    3    3    0  502 -0.49711914194E+03  0.27621501221E+03 -0.83389422479E+03  0.10093570985E+04  0.25500000920E-02 0. -1.
</event>
<event>
 5   0  0.1088757E-06  0.2602126E+04  0.7818609E-02  0.8367480E-01
       -1   -1    0    0    0  501  0.00000000000E+00  0.00000000000E+00  0.10991500952E+04  0.10991500952E+04  0.50400001928E-02 0. -1.
        1   -1    0    0  501    0  0.00000000000E+00  0.00000000000E+00 -0.15400667178E+04  0.15400667179E+04  0.50400001928E-02 0.  1.
    10030    2    1    2    0    0  0.00000000000E+00  0.00000000000E+00 -0.44091662268E+03  0.26392168130E+04  0.26021256538E+04 0.  0.
        5    1    3    3  502    0 -0.14193387350E+03 -0.59013927969E+03  0.94674193857E+03  0.11246119251E+04  0.46999998093E+01 0. -1.
       -5    1    3    3    0  502  0.14193387350E+03  0.59013927969E+03 -0.13876585613E+04  0.15146048879E+04  0.46999998093E+01 0.  1.
</event>
<event>
 5   0  0.1055179E-06  0.2601716E+04  0.7818609E-02  0.8367619E-01
       -1   -1    0    0    0  501  0.00000000000E+00  0.00000000000E+00  0.93631289979E+03  0.93631289980E+03  0.50400001928E-02 0. -1.
        1   -1    0    0  501    0  0.00000000000E+00  0.00000000000E+00 -0.18073351973E+04  0.18073351973E+04  0.50400001928E-02 0.  1.
    10030    2    1    2    0    0  0.00000000000E+00  0.00000000000E+00 -0.87102229753E+03  0.27436480971E+04  0.26017157873E+04 0.  0.
        3    1    3    3  502    0 -0.58188528389E+03 -0.28503895669E+02  0.79105194829E+03  0.98242870009E+03  0.10100000352E+00 0. -1.
       -3    1    3    3    0  502  0.58188528389E+03  0.28503895669E+02 -0.16620742458E+04  0.17612193970E+04  0.10100000352E+00 0.  1.
</event>
<event>
 5   0  0.2623368E-06  0.2596787E+04  0.7818609E-02  0.8369293E-01
       -2   -1    0    0    0  501  0.00000000000E+00  0.00000000000E+00  0.58488554752E+03  0.58488554753E+03  0.25500000920E-02 0. -1.
        2   -1    0    0  501    0  0.00000000000E+00  0.00000000000E+00 -0.28823170710E+04  0.28823170710E+04  0.25500000920E-02 0.  1.
    10030    2    1    2    0    0  0.00000000000E+00  0.00000000000E+00 -0.22974315235E+04  0.34672026185E+04  0.25967869364E+04 0.  0.
        5    1    3    3  502    0 -0.60941796752E+03  0.77989572864E+03 -0.26698984650E+02  0.99013258327E+03  0.46999998093E+01 0. -1.
       -5    1    3    3    0  502  0.60941796752E+03 -0.77989572864E+03 -0.22707325388E+04  0.24770700353E+04  0.46999998093E+01 0.  1.
</event>
<event>
 5   0  0.1088757E-06  0.2604227E+04  0.7818609E-02  0.8366767E-01
        1   -1    0    0  501    0  0.00000000000E+00  0.00000000000E+00  0.96251663738E+03  0.96251663740E+03  0.50400001928E-02 0. -1.
       -1   -1    0    0    0  501  0.00000000000E+00  0.00000000000E+00 -0.17615270198E+04  0.17615270198E+04  0.50400001928E-02 0.  1.
    10030    2    1    2    0    0  0.00000000000E+00  0.00000000000E+00 -0.79901038238E+03  0.27240436572E+04  0.26042266136E+04 0.  0.
        5    1    3    3  502    0  0.58919588149E+02 -0.55629553606E+03  0.83040743064E+03  0.10012666139E+04  0.46999998093E+01 0. -1.
       -5    1    3    3    0  502 -0.58919588149E+02  0.55629553606E+03 -0.16294178130E+04  0.17227770432E+04  0.46999998093E+01 0.  1.
</event>
<event>
 5   0  0.2820028E-06  0.2606783E+04  0.7818609E-02  0.8365901E-01
       -2   -1    0    0    0  501  0.00000000000E+00  0.00000000000E+00  0.90985782955E+03  0.90985782956E+03  0.25500000920E-02 0. -1.
        2   -1    0    0  501    0  0.00000000000E+00  0.00000000000E+00 -0.18671377365E+04  0.18671377365E+04  0.25500000920E-02 0.  1.
    10030    2    1    2    0    0  0.00000000000E+00  0.00000000000E+00 -0.95727990693E+03  0.27769955660E+04  0.26067833730E+04 0.  0.
        3    1    3    3  502    0 -0.37243725877E+03 -0.31252689389E+03  0.80964032252E+03  0.94440459189E+03  0.10100000352E+00 0. -1.
       -3    1    3    3    0  502  0.37243725877E+03  0.31252689389E+03 -0.17669202295E+04  0.18325909742E+04  0.10100000352E+00 0.  1.
</event>
<event>
 5   0  0.1032076E-06  0.2593780E+04  0.7818609E-02  0.8370317E-01
       -1   -1    0    0    0  501  0.00000000000E+00  0.00000000000E+00  0.10733556173E+04  0.10733556173E+04  0.50400001928E-02 0. -1.
        1   -1    0    0  501    0  0.00000000000E+00  0.00000000000E+00 -0.15669772796E+04  0.15669772796E+04  0.50400001928E-02 0.  1.
    10030    2    1    2    0    0  0.00000000000E+00  0.00000000000E+00 -0.49362166236E+03  0.26403328969E+04  0.25937801489E+04 0.  0.
        1    1    3    3  502    0  0.12945642419E+04  0.89334163274E+01 -0.16830677074E+03  0.13054897746E+04  0.50400001928E-02 0. -1.
       -1    1    3    3    0  502 -0.12945642419E+04 -0.89334163274E+01 -0.32531489162E+03  0.13348431223E+04  0.50400001928E-02 0.  1.
</event>
<event>
 5   0  0.1055179E-06  0.2593879E+04  0.7818609E-02  0.8370283E-01
        1   -1    0    0  501    0  0.00000000000E+00  0.00000000000E+00  0.28194197617E+04  0.28194197617E+04  0.50400001928E-02 0. -1.
       -1   -1    0    0    0  501  0.00000000000E+00  0.00000000000E+00 -0.59659511992E+03  0.59659511994E+03  0.50400001928E-02 0.  1.
    10030    2    1    2    0    0  0.00000000000E+00  0.00000000000E+00  0.22228246418E+04  0.34160148816E+04  0.25938790033E+04 0.  0.
        3    1    3    3  502    0  0.41204614747E+03 -0.44499982761E+03 -0.39834880190E+03  0.72559537788E+03  0.10100000352E+00 0.  1.
       -3    1    3    3    0  502 -0.41204614747E+03  0.44499982761E+03  0.26211734437E+04  0.26904195038E+04  0.10100000352E+00 0. -1.
</event>
<event>
 5   0  0.2820028E-06  0.2598150E+04  0.7818609E-02  0.8368830E-01
       -2   -1    0    0    0  501  0.00000000000E+00  0.00000000000E+00  0.12015051458E+04  0.12015051458E+04  0.25500000920E-02 0. -1.
        2   -1    0    0  501    0  0.00000000000E+00  0.00000000000E+00 -0.14045685420E+04  0.14045685420E+04  0.25500000920E-02 0.  1.
    10030    2    1    2    0    0  0.00000000000E+00  0.00000000000E+00 -0.20306339611E+03  0.26060736878E+04  0.25981503658E+04 0.  0.
        3    1    3    3  502    0 -0.12791788382E+04 -0.12629125286E+03  0.87053204489E+02  0.12883424433E+04  0.10100000352E+00 0.  1.
       -3    1    3    3    0  502  0.12791788382E+04  0.12629125286E+03 -0.29011660060E+03  0.13177312445E+04  0.10100000352E+00 0. -1.
</event>
<event>
 5   0  0.2623368E-06  0.2599323E+04  0.7818609E-02  0.8368431E-01
        2   -1    0    0  501    0  0.00000000000E+00  0.00000000000E+00  0.18467437400E+04  0.18467437400E+04  0.25500000920E-02 0. -1.
       -2   -1    0    0    0  501  0.00000000000E+00  0.00000000000E+00 -0.91464795838E+03  0.91464795839E+03  0.25500000920E-02 0.  1.
    10030    2    1    2    0    0  0.00000000000E+00  0.00000000000E+00  0.93209578158E+03  0.27613916984E+04  0.25993232900E+04 0.  0.
        5    1    3    3  502    0  0.11482182764E+04  0.52721836439E+03  0.14253845687E+03  0.12714966440E+04  0.46999998093E+01 0. -1.
       -5    1    3    3    0  502 -0.11482182764E+04 -0.52721836439E+03  0.78955732472E+03  0.14898950544E+04  0.46999998093E+01 0.  1.
</event>
<event>
 5   0  0.2623368E-06  0.2597131E+04  0.7818609E-02  0.8369176E-01
       -2   -1    0    0    0  501  0.00000000000E+00  0.00000000000E+00  0.13138794233E+04  0.13138794233E+04  0.25500000920E-02 0. -1.
        2   -1    0    0  501    0  0.00000000000E+00  0.00000000000E+00 -0.12834298025E+04  0.12834298025E+04  0.25500000920E-02 0.  1.
    10030    2    1    2    0    0  0.00000000000E+00  0.00000000000E+00  0.30449620796E+02  0.25973092257E+04  0.25971307311E+04 0.  0.
        5    1    3    3  502    0  0.16317812772E+03  0.10484252482E+04 -0.73344357578E+03  0.12898775800E+04  0.46999998093E+01 0. -1.
       -5    1    3    3    0  502 -0.16317812772E+03 -0.10484252482E+04  0.76389319658E+03  0.13074316457E+04  0.46999998093E+01 0.  1.
</event>
<event>
 5   0  0.1100104E-06  0.2581565E+04  0.7818609E-02  0.8374490E-01
        1   -1    0    0  501    0  0.00000000000E+00  0.00000000000E+00  0.25163466296E+04  0.25163466296E+04  0.50400001928E-02 0. -1.
       -1   -1    0    0    0  501  0.00000000000E+00  0.00000000000E+00 -0.66211851993E+03  0.66211851995E+03  0.50400001928E-02 0.  1.
    10030    2    1    2    0    0  0.00000000000E+00  0.00000000000E+00  0.18542281097E+04  0.31784651496E+04  0.25815651889E+04 0.  0.
        4    1    3    3  502    0 -0.95722664239E+03 -0.83574547413E+03  0.12061543678E+04  0.17520169275E+04  0.12699999809E+01 0. -1.
       -4    1    3    3    0  502  0.95722664239E+03  0.83574547413E+03  0.64807374189E+03  0.14264482221E+04  0.12699999809E+01 0.  1.
</event>
<event>
 5   0  0.1088757E-06  0.2611524E+04  0.7818609E-02  0.8364297E-01
       -1   -1    0    0    0  501  0.00000000000E+00  0.00000000000E+00  0.86651949240E+03  0.86651949241E+03  0.50400001928E-02 0. -1.
        1   -1    0    0  501    0  0.00000000000E+00  0.00000000000E+00 -0.19676578048E+04  0.19676578048E+04  0.50400001928E-02 0.  1.
    10030    2    1    2    0    0  0.00000000000E+00  0.00000000000E+00 -0.11011383124E+04  0.28341772972E+04  0.26115235724E+04 0.  0.
        5    1    3    3  502    0  0.41081062147E+03  0.66789256063E+03  0.58254947400E+03  0.97684789958E+03  0.46999998093E+01 0. -1.
       -5    1    3    3    0  502 -0.41081062147E+03 -0.66789256063E+03 -0.16836877864E+04  0.18573293977E+04  0.46999998093E+01 0.  1.
</event>
<event>
 5   0  0.1100104E-06  0.2606592E+04  0.7818609E-02  0.8365966E-01
       -1   -1    0    0    0  501  0.00000000000E+00  0.00000000000E+00  0.11404279614E+04  0.11404279614E+04  0.50400001928E-02 0. -1.
        1   -1    0    0  501    0  0.00000000000E+00  0.00000000000E+00 -0.14894235852E+04  0.14894235852E+04  0.50400001928E-02 0.  1.
    10030    2    1    2    0    0  0.00000000000E+00  0.00000000000E+00 -0.34899562383E+03  0.26298515466E+04  0.26065918767E+04 0.  0.
        4    1    3    3  502    0 -0.90501380099E+03  0.71056915132E+03  0.44302611080E+03  0.12329769854E+04  0.12699999809E+01 0. -1.
       -4    1    3    3    0  502  0.90501380099E+03 -0.71056915132E+03 -0.79202173463E+03  0.13968745612E+04  0.12699999809E+01 0.  1.
</event>
<event>
 5   0  0.1055179E-06  0.2599024E+04  0.7818609E-02  0.8368533E-01
       -1   -1    0    0    0  501  0.00000000000E+00  0.00000000000E+00  0.81490004118E+03  0.81490004119E+03  0.50400001928E-02 0. -1.
        1   -1    0    0  501    0  0.00000000000E+00  0.00000000000E+00 -0.20723175689E+04  0.20723175689E+04  0.50400001928E-02 0.  1.
    10030    2    1    2    0    0  0.00000000000E+00  0.00000000000E+00 -0.12574175277E+04  0.28872176101E+04  0.25990241802E+04 0.  0.
        3    1    3    3  502    0  0.63771641133E+03  0.79610132486E+03  0.26572435262E+03  0.10540725698E+04  0.10100000352E+00 0. -1.
       -3    1    3    3    0  502 -0.63771641133E+03 -0.79610132486E+03 -0.15231418803E+04  0.18331450402E+04  0.10100000352E+00 0.  1.
</event>
<event>
 5   0  0.1100104E-06  0.2590273E+04  0.7818609E-02  0.8371513E-01
       -1   -1    0    0    0  501  0.00000000000E+00  0.00000000000E+00  0.10227651978E+04  0.10227651978E+04  0.50400001928E-02 0.  1.
        1   -1    0    0  501    0  0.00000000000E+00  0.00000000000E+00 -0.16400427309E+04  0.16400427309E+04  0.50400001928E-02 0. -1.
    10030    2    1    2    0    0  0.00000000000E+00  0.00000000000E+00 -0.61727753311E+03  0.26628079287E+04  0.25902730575E+04 0.  0.
        4    1    3    3  502    0  0.14409588306E+03 -0.41197971167E+03  0.94488665295E+03  0.10408185750E+04  0.12699999809E+01 0.  1.
       -4    1    3    3    0  502 -0.14409588306E+03  0.41197971167E+03 -0.15621641861E+04  0.16219893537E+04  0.12699999809E+01 0. -1.
</event>
<event>
 5   0  0.2820028E-06  0.2600380E+04  0.7818609E-02  0.8368072E-01
        2   -1    0    0  501    0  0.00000000000E+00  0.00000000000E+00  0.12483584771E+04  0.12483584771E+04  0.25500000920E-02 0. -1.
       -2   -1    0    0    0  501  0.00000000000E+00  0.00000000000E+00 -0.13541740367E+04  0.13541740367E+04  0.25500000920E-02 0.  1.
    10030    2    1    2    0    0  0.00000000000E+00  0.00000000000E+00 -0.10581555966E+03  0.26025325138E+04  0.26003804631E+04 0.  0.
        3    1    3    3  502    0  0.10416825144E+04 -0.29859775458E+03  0.66617939050E+03  0.12720291154E+04  0.10100000352E+00 0. -1.
       -3    1    3    3    0  502 -0.10416825144E+04  0.29859775458E+03 -0.77199495016E+03  0.13305033984E+04  0.10100000352E+00 0.  1.
</event>
<event>
 5   0  0.2623368E-06  0.2598059E+04  0.7818609E-02  0.8368861E-01
       -2   -1    0    0    0  501  0.00000000000E+00  0.00000000000E+00  0.10453287587E+04  0.10453287587E+04  0.25500000920E-02 0.  1.
        2   -1    0    0  501    0  0.00000000000E+00  0.00000000000E+00 -0.16143037032E+04  0.16143037032E+04  0.25500000920E-02 0. -1.
    10030    2    1    2    0    0  0.00000000000E+00  0.00000000000E+00 -0.56897494454E+03  0.26596324619E+04  0.25980593421E+04 0.  0.
        5    1    3    3  502    0 -0.83419619641E+03  0.11934953485E+03 -0.12965161424E+04  0.15463194376E+04  0.46999998093E+01 0. -1.
       -5    1    3    3    0  502  0.83419619641E+03 -0.11934953485E+03  0.72754119787E+03  0.11133130243E+04  0.46999998093E+01 0.  1.
</event>
<event>
 5   0  0.2623368E-06  0.2597632E+04  0.7818609E-02  0.8369006E-01
        2   -1    0    0  501    0  0.00000000000E+00  0.00000000000E+00  0.62213052057E+03  0.62213052058E+03  0.25500000920E-02 0. -1.
       -2   -1    0    0    0  501  0.00000000000E+00  0.00000000000E+00 -0.27115248538E+04  0.27115248538E+04  0.25500000920E-02 0.  1.
    10030    2    1    2    0    0  0.00000000000E+00  0.00000000000E+00 -0.20893943332E+04  0.33336553744E+04  0.25976315126E+04 0.  0.
        5    1    3    3  502    0  0.11668350511E+04  0.28734288254E+03 -0.16771011614E+04  0.20631917904E+04  0.46999998093E+01 0.  1.
       -5    1    3    3    0  502 -0.11668350511E+04 -0.28734288254E+03 -0.41229317186E+03  0.12704635840E+04  0.46999998093E+01 0. -1.
</event>
<event>
 5   0  0.1032076E-06  0.2603216E+04  0.7818609E-02  0.8367110E-01
        1   -1    0    0  501    0  0.00000000000E+00  0.00000000000E+00  0.21227684658E+04  0.21227684658E+04  0.50400001928E-02 0. -1.
       -1   -1    0    0    0  501  0.00000000000E+00  0.00000000000E+00 -0.79810069782E+03  0.79810069783E+03  0.50400001928E-02 0.  1.
    10030    2    1    2    0    0  0.00000000000E+00  0.00000000000E+00  0.13246677680E+04  0.29208691636E+04  0.26032156990E+04 0.  0.
        1    1    3    3  502    0  0.51742236800E+03  0.28018202488E+02  0.20020468774E+04  0.20680190100E+04  0.50400001928E-02 0. -1.
       -1    1    3    3    0  502 -0.51742236800E+03 -0.28018202488E+02 -0.67737910942E+03  0.85285015359E+03  0.50400001928E-02 0.  1.
</event>
<event>
 5   0  0.2586775E-06  0.2594491E+04  0.7818609E-02  0.8370075E-01
        2   -1    0    0  501    0  0.00000000000E+00  0.00000000000E+00  0.15357462864E+04  0.15357462864E+04  0.25500000920E-02 0. -1.
       -2   -1    0    0    0  501  0.00000000000E+00  0.00000000000E+00 -0.10957840835E+04  0.10957840835E+04  0.25500000920E-02 0.  1.
    10030    2    1    2    0    0  0.00000000000E+00  0.00000000000E+00  0.43996220291E+03  0.26315303699E+04  0.25944913466E+04 0.  0.
        1    1    3    3  502    0  0.12599724148E+04 -0.11706636872E+03  0.50973637647E+03  0.13642089994E+04  0.50400001928E-02 0.  1.
       -1    1    3    3    0  502 -0.12599724148E+04  0.11706636872E+03 -0.69774173563E+02  0.12673213704E+04  0.50400001928E-02 0. -1.
</event>
<event>
 5   0  0.2586775E-06  0.2597577E+04  0.7818609E-02  0.8369025E-01
        2   -1    0    0  501    0  0.00000000000E+00  0.00000000000E+00  0.17629511816E+04  0.17629511816E+04  0.25500000920E-02 0. -1.
       -2   -1    0    0    0  501  0.00000000000E+00  0.00000000000E+00 -0.95683363125E+03  0.95683363125E+03  0.25500000920E-02 0.  1.
    10030    2    1    2    0    0  0.00000000000E+00  0.00000000000E+00  0.80611755036E+03  0.27197848129E+04  0.25975765481E+04 0.  0.
        1    1    3    3  502    0  0.83762793644E+03  0.92447123224E+03  0.24694510414E+02  0.12477489483E+04  0.50400001928E-02 0.  1.
       -1    1    3    3    0  502 -0.83762793644E+03 -0.92447123224E+03  0.78142303995E+03  0.14720358646E+04  0.50400001928E-02 0. -1.
</event>
<event>
 5   0  0.1055179E-06  0.2602774E+04  0.7818609E-02  0.8367260E-01
       -1   -1    0    0    0  501  0.00000000000E+00  0.00000000000E+00  0.14242015723E+04  0.14242015723E+04  0.50400001928E-02 0. -1.
        1   -1    0    0  501    0  0.00000000000E+00  0.00000000000E+00 -0.11891628441E+04  0.11891628441E+04  0.50400001928E-02 0.  1.
    10030    2    1    2    0    0  0.00000000000E+00  0.00000000000E+00  0.23503872822E+03  0.26133644164E+04  0.26027735916E+04 0.  0.
        3    1    3    3  502    0 -0.12896073403E+04  0.79785226646E+02  0.27356993917E+03  0.13207169630E+04  0.10100000352E+00 0. -1.
       -3    1    3    3    0  502  0.12896073403E+04 -0.79785226646E+02 -0.38531210954E+02  0.12926474534E+04  0.10100000352E+00 0.  1.
</event>
<event>
 5   0  0.2705807E-06  0.2599277E+04  0.7818609E-02  0.8368447E-01
       -2   -1    0    0    0  501  0.00000000000E+00  0.00000000000E+00  0.10231263478E+04  0.10231263478E+04  0.25500000920E-02 0.  1.
        2   -1    0    0  501    0  0.00000000000E+00  0.00000000000E+00 -0.16508817175E+04  0.16508817175E+04  0.25500000920E-02 0. -1.
    10030    2    1    2    0    0  0.00000000000E+00  0.00000000000E+00 -0.62775536968E+03  0.26740080653E+04  0.25992772705E+04 0.  0.
        4    1    3    3  502    0 -0.47997448901E+03  0.96457551293E+03 -0.10616014372E+04  0.15125411249E+04  0.12699999809E+01 0. -1.
       -4    1    3    3    0  502  0.47997448901E+03 -0.96457551293E+03  0.43384606754E+03  0.11614669403E+04  0.12699999809E+01 0.  1.
</event>
<event>
 5   0  0.1122628E-06  0.2606407E+04  0.7818609E-02  0.8366028E-01
        1   -1    0    0  501    0  0.00000000000E+00  0.00000000000E+00  0.26006973393E+04  0.26006973393E+04  0.50400001928E-02 0. -1.
       -1   -1    0    0    0  501  0.00000000000E+00  0.00000000000E+00 -0.65303226328E+03  0.65303226330E+03  0.50400001928E-02 0.  1.
    10030    2    1    2    0    0  0.00000000000E+00  0.00000000000E+00  0.19476650760E+04  0.32537296026E+04  0.26064069288E+04 0.  0.
        2    1    3    3  502    0 -0.47914260815E+02 -0.93874428858E+03 -0.15301576375E+03  0.95233945612E+03  0.25500000920E-02 0.  1.
       -2    1    3    3    0  502  0.47914260815E+02  0.93874428858E+03  0.21006808397E+04  0.23013901464E+04  0.25500000920E-02 0. -1.
</event>
<event>
 5   0  0.2746631E-06  0.2598097E+04  0.7818609E-02  0.8368848E-01
       -2   -1    0    0    0  501  0.00000000000E+00  0.00000000000E+00  0.71879098955E+03  0.71879098955E+03  0.25500000920E-02 0.  1.
        2   -1    0    0  501    0  0.00000000000E+00  0.00000000000E+00 -0.23477295938E+04  0.23477295938E+04  0.25500000920E-02 0. -1.
    10030    2    1    2    0    0  0.00000000000E+00  0.00000000000E+00 -0.16289386043E+04  0.30665205834E+04  0.25980969019E+04 0.  0.
        2    1    3    3  502    0  0.10515355769E+04  0.72045095612E+03 -0.51880547483E+03  0.13762033899E+04  0.25500000920E-02 0. -1.
       -2    1    3    3    0  502 -0.10515355769E+04 -0.72045095612E+03 -0.11101331294E+04  0.16903171935E+04  0.25500000920E-02 0.  1.
</event>
<event>
 5   0  0.1032076E-06  0.2603005E+04  0.7818609E-02  0.8367181E-01
        1   -1    0    0  501    0  0.00000000000E+00  0.00000000000E+00  0.87433719040E+03  0.87433719042E+03  0.50400001928E-02 0.  1.
       -1   -1    0    0    0  501  0.00000000000E+00  0.00000000000E+00 -0.19373637428E+04  0.19373637428E+04  0.50400001928E-02 0. -1.
    10030    2    1    2    0    0  0.00000000000E+00  0.00000000000E+00 -0.10630265524E+04  0.28117009332E+04  0.26030053182E+04 0.  0.
        1    1    3    3  502    0 -0.76967189572E+03  0.79073111880E+03  0.21393154929E+03  0.11240183438E+04  0.50400001928E-02 0.  1.
       -1    1    3    3    0  502  0.76967189572E+03 -0.79073111880E+03 -0.12769581017E+04  0.16876825895E+04  0.50400001928E-02 0. -1.
</event>
<event>
 5   0  0.2746631E-06  0.2521825E+04  0.7818609E-02  0.8395251E-01
        2   -1    0    0  501    0  0.00000000000E+00  0.00000000000E+00  0.18716146477E+04  0.18716146477E+04  0.25500000920E-02 0. -1.
       -2   -1    0    0    0  501  0.00000000000E+00  0.00000000000E+00 -0.84948084333E+03  0.84948084333E+03  0.25500000920E-02 0.  1.
    10030    2    1    2    0    0  0.00000000000E+00  0.00000000000E+00  0.10221338044E+04  0.27210954911E+04  0.25218253622E+04 0.  0.
        2    1    3    3  502    0 -0.11937797331E+04 -0.21523341727E+03  0.88245192035E+03  0.15000522880E+04  0.25500000920E-02 0. -1.
       -2    1    3    3    0  502  0.11937797331E+04  0.21523341727E+03  0.13968188406E+03  0.12210432031E+04  0.25500000920E-02 0.  1.
</event>
<event>
 5   0  0.2623368E-06  0.2600129E+04  0.7818609E-02  0.8368157E-01
        2   -1    0    0  501    0  0.00000000000E+00  0.00000000000E+00  0.11368866122E+04  0.11368866122E+04  0.25500000920E-02 0. -1.
       -2   -1    0    0    0  501  0.00000000000E+00  0.00000000000E+00 -0.14866636932E+04  0.14866636932E+04  0.25500000920E-02 0.  1.
    10030    2    1    2    0    0  0.00000000000E+00  0.00000000000E+00 -0.34977708096E+03  0.26235503054E+04  0.26001292658E+04 0.  0.
        5    1    3    3  502    0 -0.44129952533E+03 -0.34688536498E+03  0.10083084454E+04  0.11540289158E+04  0.46999998093E+01 0. -1.
       -5    1    3    3    0  502  0.44129952533E+03  0.34688536498E+03 -0.13580855264E+04  0.14695213896E+04  0.46999998093E+01 0.  1.
</event>
<event>
 5   0  0.2623368E-06  0.2589870E+04  0.7818609E-02  0.8371650E-01
       -2   -1    0    0    0  501  0.00000000000E+00  0.00000000000E+00  0.13938480909E+04  0.13938480909E+04  0.25500000920E-02 0.  1.
        2   -1    0    0  501    0  0.00000000000E+00  0.00000000000E+00 -0.12030410291E+04  0.12030410291E+04  0.25500000920E-02 0. -1.
    10030    2    1    2    0    0  0.00000000000E+00  0.00000000000E+00  0.19080706177E+03  0.25968891200E+04  0.25898698358E+04 0.  0.
        5    1    3    3  502    0 -0.80331463776E+01  0.12729713660E+04  0.33335181887E+03  0.13159278685E+04  0.46999998093E+01 0. -1.
       -5    1    3    3    0  502  0.80331463776E+01 -0.12729713660E+04 -0.14254475710E+03  0.12809612515E+04  0.46999998093E+01 0.  1.
</event>
<event>
 5   0  0.2623368E-06  0.2598598E+04  0.7818609E-02  0.8368678E-01
        2   -1    0    0  501    0  0.00000000000E+00  0.00000000000E+00  0.13674269872E+04  0.13674269872E+04  0.25500000920E-02 0. -1.
       -2   -1    0    0    0  501  0.00000000000E+00  0.00000000000E+00 -0.12345651475E+04  0.12345651475E+04  0.25500000920E-02 0.  1.
    10030    2    1    2    0    0  0.00000000000E+00  0.00000000000E+00  0.13286183971E+03  0.26019921347E+04  0.25985978528E+04 0.  0.
        5    1    3    3  502    0  0.11284928406E+03 -0.11018136642E+04 -0.61374076147E+03  0.12662654239E+04  0.46999998093E+01 0.  1.
       -5    1    3    3    0  502 -0.11284928406E+03  0.11018136642E+04  0.74660260118E+03  0.13357267107E+04  0.46999998093E+01 0. -1.
</event>
<event>
 5   0  0.1032076E-06  0.2604421E+04  0.7818609E-02  0.8366701E-01
       -1   -1    0    0    0  501  0.00000000000E+00  0.00000000000E+00  0.10958122687E+04  0.10958122687E+04  0.50400001928E-02 0. -1.
        1   -1    0    0  501    0  0.00000000000E+00  0.00000000000E+00 -0.15474846185E+04  0.15474846185E+04  0.50400001928E-02 0.  1.
    10030    2    1    2    0    0  0.00000000000E+00  0.00000000000E+00 -0.45167234980E+03  0.26432968872E+04  0.26044213412E+04 0.  0.
        1    1    3    3  502    0 -0.45946486176E+03 -0.49011003034E+03 -0.13580308996E+04  0.15151117864E+04  0.50400001928E-02 0.  1.
       -1    1    3    3    0  502  0.45946486176E+03  0.49011003034E+03  0.90635854976E+03  0.11281851008E+04  0.50400001928E-02 0. -1.
</event>
<event>
 5   0  0.1055179E-06  0.2596782E+04  0.7818609E-02  0.8369295E-01
       -1   -1    0    0    0  501  0.00000000000E+00  0.00000000000E+00  0.58454008476E+03  0.58454008478E+03  0.50400001928E-02 0.  1.
        1   -1    0    0  501    0  0.00000000000E+00  0.00000000000E+00 -0.28840094696E+04  0.28840094696E+04  0.50400001928E-02 0. -1.
    10030    2    1    2    0    0  0.00000000000E+00  0.00000000000E+00 -0.22994693849E+04  0.34685495544E+04  0.25967819623E+04 0.  0.
        3    1    3    3  502    0 -0.17945231783E+03  0.66149475766E+03  0.32321010125E+03  0.75778837979E+03  0.10100000352E+00 0.  1.
       -3    1    3    3    0  502  0.17945231783E+03 -0.66149475766E+03 -0.26226794861E+04  0.27107611746E+04  0.10100000352E+00 0. -1.
</event>
<event>
 5   0  0.1055179E-06  0.2599025E+04  0.7818609E-02  0.8368532E-01
        1   -1    0    0  501    0  0.00000000000E+00  0.00000000000E+00  0.20507996456E+04  0.20507996456E+04  0.50400001928E-02 0. -1.
       -1   -1    0    0    0  501  0.00000000000E+00  0.00000000000E+00 -0.82345082183E+03  0.82345082184E+03  0.50400001928E-02 0.  1.
    10030    2    1    2    0    0  0.00000000000E+00  0.00000000000E+00  0.12273488238E+04  0.28742504674E+04  0.25990249353E+04 0.  0.
        3    1    3    3  502    0  0.41203870226E+03  0.19557043016E+03 -0.73202795536E+03  0.86248978135E+03  0.10100000352E+00 0.  1.
       -3    1    3    3    0  502 -0.41203870226E+03 -0.19557043016E+03  0.19593767791E+04  0.20117606861E+04  0.10100000352E+00 0. -1.
</event>
<event>
 5   0  0.2586775E-06  0.2599134E+04  0.7818609E-02  0.8368495E-01
        2   -1    0    0  501    0  0.00000000000E+00  0.00000000000E+00  0.15890212563E+04  0.15890212563E+04  0.25500000920E-02 0. -1.
       -2   -1    0    0    0  501  0.00000000000E+00  0.00000000000E+00 -0.10628392399E+04  0.10628392399E+04  0.25500000920E-02 0.  1.
    10030    2    1    2    0    0  0.00000000000E+00  0.00000000000E+00  0.52618201641E+03  0.26518604961E+04  0.25991338127E+04 0.  0.
        1    1    3    3  502    0  0.12747859496E+04 -0.94950679831E+02  0.50188877166E+03  0.13733124874E+04  0.50400001928E-02 0. -1.
       -1    1    3    3    0  502 -0.12747859496E+04  0.94950679831E+02  0.24293244754E+02  0.12785480087E+04  0.50400001928E-02 0.  1.
</event>
<event>
 5   0  0.1088757E-06  0.2599845E+04  0.7818609E-02  0.8368254E-01
        1   -1    0    0  501    0  0.00000000000E+00  0.00000000000E+00  0.21602072206E+04  0.21602072207E+04  0.50400001928E-02 0. -1.
       -1   -1    0    0    0  501  0.00000000000E+00  0.00000000000E+00 -0.78223925889E+03  0.78223925890E+03  0.50400001928E-02 0.  1.
    10030    2    1    2    0    0  0.00000000000E+00  0.00000000000E+00  0.13779679618E+04  0.29424464796E+04  0.25998452995E+04 0.  0.
        5    1    3    3  502    0 -0.22291708182E+03 -0.74310426827E+03  0.18694452075E+04  0.20240413663E+04  0.46999998093E+01 0. -1.
       -5    1    3    3    0  502  0.22291708182E+03  0.74310426827E+03 -0.49147724573E+03  0.91840511321E+03  0.46999998093E+01 0.  1.
</event>
<event>
 5   0  0.2586775E-06  0.2599086E+04  0.7818609E-02  0.8368512E-01
        2   -1    0    0  501    0  0.00000000000E+00  0.00000000000E+00  0.22613980250E+04  0.22613980250E+04  0.25500000920E-02 0.  1.
       -2   -1    0    0    0  501  0.00000000000E+00  0.00000000000E+00 -0.74680007943E+03  0.74680007944E+03  0.25500000920E-02 0. -1.
    10030    2    1    2    0    0  0.00000000000E+00  0.00000000000E+00  0.15145979456E+04  0.30081981045E+04  0.25990861661E+04 0.  0.
        1    1    3    3  502    0 -0.40605383071E+03  0.39410517098E+03 -0.59672447541E+03  0.82236165937E+03  0.50400001928E-02 0. -1.
       -1    1    3    3    0  502  0.40605383071E+03 -0.39410517098E+03  0.21113224210E+04  0.21858364451E+04  0.50400001928E-02 0.  1.
</event>
<event>
 5   0  0.2820028E-06  0.2601197E+04  0.7818609E-02  0.8367795E-01
       -2   -1    0    0    0  501  0.00000000000E+00  0.00000000000E+00  0.99206186580E+03  0.99206186581E+03  0.25500000920E-02 0. -1.
        2   -1    0    0  501    0  0.00000000000E+00  0.00000000000E+00 -0.17050914283E+04  0.17050914283E+04  0.25500000920E-02 0.  1.
    10030    2    1    2    0    0  0.00000000000E+00  0.00000000000E+00 -0.71302956246E+03  0.26971532941E+04  0.26011967889E+04 0.  0.
        3    1    3    3  502    0  0.68566858510E+03 -0.46317885905E+03 -0.13969649910E+04  0.16236339675E+04  0.10100000352E+00 0.  1.
       -3    1    3    3    0  502 -0.68566858510E+03  0.46317885905E+03  0.68393542850E+03  0.10735193266E+04  0.10100000352E+00 0. -1.
</event>
<event>
 5   0  0.2746631E-06  0.2601516E+04  0.7818609E-02  0.8367686E-01
        2   -1    0    0  501    0  0.00000000000E+00  0.00000000000E+00  0.21886424175E+04  0.21886424175E+04  0.25500000920E-02 0.  1.
       -2   -1    0    0    0  501  0.00000000000E+00  0.00000000000E+00 -0.77306902239E+03  0.77306902240E+03  0.25500000920E-02 0. -1.
    10030    2    1    2    0    0  0.00000000000E+00  0.00000000000E+00  0.14155733952E+04  0.29617114399E+04  0.26015162149E+04 0.  0.
        2    1    3    3  502    0 -0.37549311986E+03 -0.12230640566E+04  0.44057462345E+03  0.13531395968E+04  0.25500000920E-02 0. -1.
       -2    1    3    3    0  502  0.37549311986E+03  0.12230640566E+04  0.97499877170E+03  0.16085718431E+04  0.25500000920E-02 0.  1.
</event>
<event>
 5   0  0.1122628E-06  0.2602061E+04  0.7818609E-02  0.8367502E-01
        1   -1    0    0  501    0  0.00000000000E+00  0.00000000000E+00  0.11075123660E+04  0.11075123660E+04  0.50400001928E-02 0.  1.
       -1   -1    0    0    0  501  0.00000000000E+00  0.00000000000E+00 -0.15283622696E+04  0.15283622696E+04  0.50400001928E-02 0. -1.
    10030    2    1    2    0    0  0.00000000000E+00  0.00000000000E+00 -0.42084990363E+03  0.26358746356E+04  0.26020608089E+04 0.  0.
        2    1    3    3  502    0 -0.24497739662E+02 -0.12456262667E+04  0.16927279366E+03  0.12573138885E+04  0.25500000920E-02 0.  1.
       -2    1    3    3    0  502  0.24497739662E+02  0.12456262667E+04 -0.59012269729E+03  0.13785607471E+04  0.25500000920E-02 0. -1.
</event>
<event>
 5   0  0.2623368E-06  0.2589951E+04  0.7818609E-02  0.8371623E-01
       -2   -1    0    0    0  501  0.00000000000E+00  0.00000000000E+00  0.12093453163E+04  0.12093453163E+04  0.25500000920E-02 0. -1.
        2   -1    0    0  501    0  0.00000000000E+00  0.00000000000E+00 -0.13866689102E+04  0.13866689102E+04  0.25500000920E-02 0.  1.
    10030    2    1    2    0    0  0.00000000000E+00  0.00000000000E+00 -0.17732359384E+03  0.25960142265E+04  0.25899510048E+04 0.  0.
        5    1    3    3  502    0 -0.20420178774E+03  0.45703896327E+03 -0.12857593941E+04  0.13797761752E+04  0.46999998093E+01 0.  1.
       -5    1    3    3    0  502  0.20420178774E+03 -0.45703896327E+03  0.11084358003E+04  0.12162380513E+04  0.46999998093E+01 0. -1.
</event>
<event>
 5   0  0.9197000E-07  0.2599455E+04  0.7818609E-02  0.8368386E-01
        3   -1    0    0  501    0  0.00000000000E+00  0.00000000000E+00  0.63967717446E+03  0.63967718244E+03  0.10100000352E+00 0.  1.
       -3   -1    0    0    0  501  0.00000000000E+00  0.00000000000E+00 -0.26408500728E+04  0.26408500748E+04  0.10100000352E+00 0. -1.
    10030    2    1    2    0    0  0.00000000000E+00  0.00000000000E+00 -0.20011728984E+04  0.32805272572E+04  0.25994549652E+04 0.  0.
        4    1    3    3  502    0  0.60345939598E+03  0.10206054201E+03  0.44643973107E+03  0.75755504302E+03  0.12699999809E+01 0.  1.
       -4    1    3    3    0  502 -0.60345939598E+03 -0.10206054201E+03 -0.24476126294E+04  0.25229722142E+04  0.12699999809E+01 0. -1.
</event>
<event>
 5   0  0.2623368E-06  0.2604814E+04  0.7818609E-02  0.8366568E-01
        2   -1    0    0  501    0  0.00000000000E+00  0.00000000000E+00  0.16552438151E+04  0.16552438151E+04  0.25500000920E-02 0.  1.
       -2   -1    0    0    0  501  0.00000000000E+00  0.00000000000E+00 -0.10247821788E+04  0.10247821788E+04  0.25500000920E-02 0. -1.
    10030    2    1    2    0    0  0.00000000000E+00  0.00000000000E+00  0.63046163633E+03  0.26800259939E+04  0.26048142838E+04 0.  0.
        5    1    3    3  502    0  0.17802852003E+03  0.26848694065E+03  0.16135961203E+04  0.16454464199E+04  0.46999998093E+01 0.  1.
       -5    1    3    3    0  502 -0.17802852003E+03 -0.26848694065E+03 -0.98313448400E+03  0.10345795740E+04  0.46999998093E+01 0. -1.
</event>
<event>
 5   0  0.2586775E-06  0.2596721E+04  0.7818609E-02  0.8369316E-01
       -2   -1    0    0    0  501  0.00000000000E+00  0.00000000000E+00  0.10070327579E+04  0.10070327579E+04  0.25500000920E-02 0.  1.
        2   -1    0    0  501    0  0.00000000000E+00  0.00000000000E+00 -0.16739671068E+04  0.16739671068E+04  0.25500000920E-02 0. -1.
    10030    2    1    2    0    0  0.00000000000E+00  0.00000000000E+00 -0.66693434892E+03  0.26809998646E+04  0.25967207875E+04 0.  0.
        1    1    3    3  502    0 -0.53954851560E+03  0.77664318062E+03  0.58504297579E+03  0.11120083247E+04  0.50400001928E-02 0.  1.
       -1    1    3    3    0  502  0.53954851560E+03 -0.77664318062E+03 -0.12519773247E+04  0.15689915399E+04  0.50400001928E-02 0. -1.
</event>
<event>
 5   0  0.2705807E-06  0.2602108E+04  0.7818609E-02  0.8367486E-01
        2   -1    0    0  501    0  0.00000000000E+00  0.00000000000E+00  0.18194951056E+04  0.18194951056E+04  0.25500000920E-02 0. -1.
       -2   -1    0    0    0  501  0.00000000000E+00  0.00000000000E+00 -0.93033572180E+03  0.93033572180E+03  0.25500000920E-02 0.  1.
    10030    2    1    2    0    0  0.00000000000E+00  0.00000000000E+00  0.88915938376E+03  0.27498308274E+04  0.26021078320E+04 0.  0.
        4    1    3    3  502    0  0.98248294319E+03  0.58112009272E+03 -0.21517559078E+03  0.11615831626E+04  0.12699999809E+01 0.  1.
       -4    1    3    3    0  502 -0.98248294319E+03 -0.58112009272E+03  0.11043349745E+04  0.15882476648E+04  0.12699999809E+01 0. -1.
</event>
<event>
 5   0  0.1122628E-06  0.2597324E+04  0.7818609E-02  0.8369111E-01
        1   -1    0    0  501    0  0.00000000000E+00  0.00000000000E+00  0.11321650891E+04  0.11321650891E+04  0.50400001928E-02 0.  1.
       -1   -1    0    0    0  501  0.00000000000E+00  0.00000000000E+00 -0.14896436182E+04  0.14896436182E+04  0.50400001928E-02 0. -1.
    10030    2    1    2    0    0  0.00000000000E+00  0.00000000000E+00 -0.35747852906E+03  0.26218087073E+04  0.25973236223E+04 0.  0.
        2    1    3    3  502    0  0.50277740040E+03 -0.11516247163E+04 -0.50969881848E+03  0.13560300465E+04  0.25500000920E-02 0. -1.
       -2    1    3    3    0  502 -0.50277740040E+03  0.11516247163E+04  0.15222028942E+03  0.12657786608E+04  0.25500000920E-02 0.  1.
</event>
<event>
 5   0  0.1122628E-06  0.2601962E+04  0.7818609E-02  0.8367535E-01
        1   -1    0    0  501    0  0.00000000000E+00  0.00000000000E+00  0.21477094511E+04  0.21477094512E+04  0.50400001928E-02 0. -1.
       -1   -1    0    0    0  501  0.00000000000E+00  0.00000000000E+00 -0.78807284733E+03  0.78807284734E+03  0.50400001928E-02 0.  1.
    10030    2    1    2    0    0  0.00000000000E+00  0.00000000000E+00  0.13596366038E+04  0.29357822985E+04  0.26019619539E+04 0.  0.
        2    1    3    3  502    0 -0.11470979073E+04 -0.42330758932E+03  0.17835647959E+03  0.12356512283E+04  0.25500000920E-02 0. -1.
       -2    1    3    3    0  502  0.11470979073E+04  0.42330758932E+03  0.11812801242E+04  0.17001310702E+04  0.25500000920E-02 0.  1.
</event>
<event>
 5   0  0.2623368E-06  0.2601534E+04  0.7818609E-02  0.8367680E-01
       -2   -1    0    0    0  501  0.00000000000E+00  0.00000000000E+00  0.13664860672E+04  0.13664860672E+04  0.25500000920E-02 0. -1.
        2   -1    0    0  501    0  0.00000000000E+00  0.00000000000E+00 -0.12382089292E+04  0.12382089293E+04  0.25500000920E-02 0.  1.
    10030    2    1    2    0    0  0.00000000000E+00  0.00000000000E+00  0.12827713797E+03  0.26046949965E+04  0.26015343551E+04 0.  0.
        5    1    3    3  502    0 -0.11275637557E+04  0.15368056530E+03 -0.56667086368E+03  0.12712811243E+04  0.46999998093E+01 0.  1.
       -5    1    3    3    0  502  0.11275637557E+04 -0.15368056530E+03  0.69494800166E+03  0.13334138721E+04  0.46999998093E+01 0. -1.
</event>
<event>
 5   0  0.2820028E-06  0.2594337E+04  0.7818609E-02  0.8370127E-01
       -2   -1    0    0    0  501  0.00000000000E+00  0.00000000000E+00  0.14339064312E+04  0.14339064312E+04  0.25500000920E-02 0.  1.
        2   -1    0    0  501    0  0.00000000000E+00  0.00000000000E+00 -0.11734697597E+04  0.11734697597E+04  0.25500000920E-02 0. -1.
    10030    2    1    2    0    0  0.00000000000E+00  0.00000000000E+00  0.26043667147E+03  0.26073761909E+04  0.25943367825E+04 0.  0.
        3    1    3    3  502    0  0.12578114367E+04  0.13964164395E+03  0.41635339086E+03  0.13322685748E+04  0.10100000352E+00 0.  1.
       -3    1    3    3    0  502 -0.12578114367E+04 -0.13964164395E+03 -0.15591671939E+03  0.12751076161E+04  0.10100000352E+00 0. -1.
</event>
<event>
 5   0  0.1122628E-06  0.2567127E+04  0.7818609E-02  0.8379454E-01
       -1   -1    0    0    0  501  0.00000000000E+00  0.00000000000E+00  0.75597760499E+03  0.75597760501E+03  0.50400001928E-02 0. -1.
        1   -1    0    0  501    0  0.00000000000E+00  0.00000000000E+00 -0.21793432719E+04  0.21793432719E+04  0.50400001928E-02 0.  1.
    10030    2    1    2    0    0  0.00000000000E+00  0.00000000000E+00 -0.14233656669E+04  0.29353208769E+04  0.25671265705E+04 0.  0.
        2    1    3    3  502    0  0.21501831383E+01  0.10478809166E+04 -0.15592664135E+04  0.18786619672E+04  0.25500000920E-02 0.  1.
       -2    1    3    3    0  502 -0.21501831383E+01 -0.10478809166E+04  0.13590074660E+03  0.10566589097E+04  0.25500000920E-02 0. -1.
</event>
<event>
 5   0  0.2705807E-06  0.2599642E+04  0.7818609E-02  0.8368323E-01
        2   -1    0    0  501    0  0.00000000000E+00  0.00000000000E+00  0.11701337303E+04  0.11701337303E+04  0.25500000920E-02 0.  1.
       -2   -1    0    0    0  501  0.00000000000E+00  0.00000000000E+00 -0.14438813186E+04  0.14438813186E+04  0.25500000920E-02 0. -1.
    10030    2    1    2    0    0  0.00000000000E+00  0.00000000000E+00 -0.27374758827E+03  0.26140150489E+04  0.25996416933E+04 0.  0.
        4    1    3    3  502    0 -0.35007023803E+03  0.42263554206E+03 -0.13216765354E+04  0.14310836628E+04  0.12699999809E+01 0. -1.
       -4    1    3    3    0  502  0.35007023803E+03 -0.42263554206E+03  0.10479289471E+04  0.11829313860E+04  0.12699999809E+01 0.  1.
</event>
<event>
 5   0  0.1100104E-06  0.2601530E+04  0.7818609E-02  0.8367682E-01
        1   -1    0    0  501    0  0.00000000000E+00  0.00000000000E+00  0.10546960236E+04  0.10546960236E+04  0.50400001928E-02 0. -1.
       -1   -1    0    0    0  501  0.00000000000E+00  0.00000000000E+00 -0.16042432988E+04  0.16042432988E+04  0.50400001928E-02 0.  1.
    10030    2    1    2    0    0  0.00000000000E+00  0.00000000000E+00 -0.54954727529E+03  0.26589393224E+04  0.26015295717E+04 0.  0.
        4    1    3    3  502    0  0.39042077707E+03 -0.38030500194E+03  0.93236019313E+03  0.10799802870E+04  0.12699999809E+01 0. -1.
       -4    1    3    3    0  502 -0.39042077707E+03  0.38030500194E+03 -0.14819074684E+04  0.15789590354E+04  0.12699999809E+01 0.  1.
</event>
<event>
 5   0  0.1055179E-06  0.2597215E+04  0.7818609E-02  0.8369148E-01
       -1   -1    0    0    0  501  0.00000000000E+00  0.00000000000E+00  0.79792222366E+03  0.79792222367E+03  0.50400001928E-02 0. -1.
        1   -1    0    0  501    0  0.00000000000E+00  0.00000000000E+00 -0.21134665717E+04  0.21134665717E+04  0.50400001928E-02 0.  1.
    10030    2    1    2    0    0  0.00000000000E+00  0.00000000000E+00 -0.13155443480E+04  0.29113887954E+04  0.25972153908E+04 0.  0.
        3    1    3    3  502    0  0.41144969556E+03 -0.93834747319E+02 -0.20344556711E+04  0.20777645920E+04  0.10100000352E+00 0.  1.
       -3    1    3    3    0  502 -0.41144969556E+03  0.93834747319E+02  0.71891132309E+03  0.83362420338E+03  0.10100000352E+00 0. -1.
</event>
<event>
 5   0  0.2586775E-06  0.2601288E+04  0.7818609E-02  0.8367764E-01
        2   -1    0    0  501    0  0.00000000000E+00  0.00000000000E+00  0.85437316991E+03  0.85437316991E+03  0.25500000920E-02 0.  1.
       -2   -1    0    0    0  501  0.00000000000E+00  0.00000000000E+00 -0.19800183078E+04  0.19800183078E+04  0.25500000920E-02 0. -1.
    10030    2    1    2    0    0  0.00000000000E+00  0.00000000000E+00 -0.11256451379E+04  0.28343914777E+04  0.26012877719E+04 0.  0.
        1    1    3    3  502    0  0.73418742615E+03 -0.88903996267E+02  0.60297931663E+03  0.95421127303E+03  0.50400001928E-02 0.  1.
       -1    1    3    3    0  502 -0.73418742615E+03  0.88903996267E+02 -0.17286244545E+04  0.18801802046E+04  0.50400001928E-02 0. -1.
</event>
<event>
 5   0  0.1122628E-06  0.2613549E+04  0.7818609E-02  0.8363613E-01
       -1   -1    0    0    0  501  0.00000000000E+00  0.00000000000E+00  0.10182351768E+04  0.10182351768E+04  0.50400001928E-02 0.  1.
        1   -1    0    0  501    0  0.00000000000E+00  0.00000000000E+00 -0.16770778598E+04  0.16770778598E+04  0.50400001928E-02 0. -1.
    10030    2    1    2    0    0  0.00000000000E+00  0.00000000000E+00 -0.65884268298E+03  0.26953130366E+04  0.26135490591E+04 0.  0.
        2    1    3    3  502    0  0.77042491089E+03 -0.10496256582E+04 -0.44421914518E+03  0.13757177089E+04  0.25500000920E-02 0. -1.
       -2    1    3    3    0  502 -0.77042491089E+03  0.10496256582E+04 -0.21462353780E+03  0.13195953276E+04  0.25500000920E-02 0.  1.
</event>
<event>
 5   0  0.2586775E-06  0.2615803E+04  0.7818609E-02  0.8362853E-01
        2   -1    0    0  501    0  0.00000000000E+00  0.00000000000E+00  0.14480668770E+04  0.14480668770E+04  0.25500000920E-02 0. -1.
       -2   -1    0    0    0  501  0.00000000000E+00  0.00000000000E+00 -0.11813033969E+04  0.11813033969E+04  0.25500000920E-02 0.  1.
    10030    2    1    2    0    0  0.00000000000E+00  0.00000000000E+00  0.26676348006E+03  0.26293702739E+04  0.26158029901E+04 0.  0.
        1    1    3    3  502    0 -0.92061702982E+03  0.58576177928E+03 -0.59143642914E+03  0.12411485114E+04  0.50400001928E-02 0.  1.
       -1    1    3    3    0  502  0.92061702982E+03 -0.58576177928E+03  0.85819990919E+03  0.13882217625E+04  0.50400001928E-02 0. -1.
</event>
<event>
 5   0  0.2820028E-06  0.2597244E+04  0.7818609E-02  0.8369138E-01
       -2   -1    0    0    0  501  0.00000000000E+00  0.00000000000E+00  0.60506436566E+03  0.60506436567E+03  0.25500000920E-02 0.  1.
        2   -1    0    0  501    0  0.00000000000E+00  0.00000000000E+00 -0.27871724332E+04  0.27871724332E+04  0.25500000920E-02 0. -1.
    10030    2    1    2    0    0  0.00000000000E+00  0.00000000000E+00 -0.21821080675E+04  0.33922367989E+04  0.25972437085E+04 0.  0.
        3    1    3    3  502    0  0.14766713651E+03 -0.10062176209E+04 -0.36318396682E+02  0.10176436115E+04  0.10100000352E+00 0.  1.
       -3    1    3    3    0  502 -0.14766713651E+03  0.10062176209E+04 -0.21457896709E+04  0.23745931874E+04  0.10100000352E+00 0. -1.
</event>
<event>
 5   0  0.1032076E-06  0.2608975E+04  0.7818609E-02  0.8365159E-01
        1   -1    0    0  501    0  0.00000000000E+00  0.00000000000E+00  0.13079632310E+04  0.13079632311E+04  0.50400001928E-02 0.  1.
       -1   -1    0    0    0  501  0.00000000000E+00  0.00000000000E+00 -0.13010214002E+04  0.13010214002E+04  0.50400001928E-02 0. -1.
    10030    2    1    2    0    0  0.00000000000E+00  0.00000000000E+00  0.69418308273E+01  0.26089846313E+04  0.26089753961E+04 0.  0.
        1    1    3    3  502    0 -0.75587672548E+03 -0.18615528662E+03  0.10502242275E+04  0.13072774545E+04  0.50400001928E-02 0.  1.
       -1    1    3    3    0  502  0.75587672548E+03  0.18615528662E+03 -0.10432823967E+04  0.13017071768E+04  0.50400001928E-02 0. -1.
</event>
<event>
 5   0  0.1032076E-06  0.2593420E+04  0.7818609E-02  0.8370440E-01
        1   -1    0    0  501    0  0.00000000000E+00  0.00000000000E+00  0.19786845775E+04  0.19786845775E+04  0.50400001928E-02 0. -1.
       -1   -1    0    0    0  501  0.00000000000E+00  0.00000000000E+00 -0.84978509896E+03  0.84978509898E+03  0.50400001928E-02 0.  1.
    10030    2    1    2    0    0  0.00000000000E+00  0.00000000000E+00  0.11288994786E+04  0.28284696765E+04  0.25934198808E+04 0.  0.
        1    1    3    3  502    0  0.21508484149E+03 -0.31931724102E+03  0.19149124083E+04  0.19532318144E+04  0.50400001928E-02 0. -1.
       -1    1    3    3    0  502 -0.21508484149E+03  0.31931724102E+03 -0.78601292974E+03  0.87523786207E+03  0.50400001928E-02 0.  1.
</event>
<event>
 5   0  0.2586775E-06  0.2599226E+04  0.7818609E-02  0.8368464E-01
        2   -1    0    0  501    0  0.00000000000E+00  0.00000000000E+00  0.10899812041E+04  0.10899812041E+04  0.25500000920E-02 0.  1.
       -2   -1    0    0    0  501  0.00000000000E+00  0.00000000000E+00 -0.15495629580E+04  0.15495629580E+04  0.25500000920E-02 0. -1.
    10030    2    1    2    0    0  0.00000000000E+00  0.00000000000E+00 -0.45958175391E+03  0.26395441620E+04  0.25992264224E+04 0.  0.
        1    1    3    3  502    0 -0.78409648514E+03 -0.84949578750E+03 -0.83275510778E+03  0.14247566320E+04  0.50400001928E-02 0. -1.
       -1    1    3    3    0  502  0.78409648514E+03  0.84949578750E+03  0.37317335387E+03  0.12147875300E+04  0.50400001928E-02 0.  1.
</event>
<event>
 5   0  0.1122628E-06  0.2600823E+04  0.7818609E-02  0.8367922E-01
       -1   -1    0    0    0  501  0.00000000000E+00  0.00000000000E+00  0.15286975474E+04  0.15286975474E+04  0.50400001928E-02 0. -1.
        1   -1    0    0  501    0  0.00000000000E+00  0.00000000000E+00 -0.11062158478E+04  0.11062158478E+04  0.50400001928E-02 0.  1.
    10030    2    1    2    0    0  0.00000000000E+00  0.00000000000E+00  0.42248169956E+03  0.26349133952E+04  0.26008225264E+04 0.  0.
        2    1    3    3  502    0 -0.41354062369E+03 -0.18842504234E+03  0.14456325268E+04  0.15153789119E+04  0.25500000920E-02 0. -1.
       -2    1    3    3    0  502  0.41354062369E+03  0.18842504234E+03 -0.10231508272E+04  0.11195344833E+04  0.25500000920E-02 0.  1.
</event>
<event>
 5   0  0.1032076E-06  0.2583588E+04  0.7818609E-02  0.8373797E-01
        1   -1    0    0  501    0  0.00000000000E+00  0.00000000000E+00  0.73714148776E+03  0.73714148778E+03  0.50400001928E-02 0.  1.
       -1   -1    0    0    0  501  0.00000000000E+00  0.00000000000E+00 -0.22637873777E+04  0.22637873777E+04  0.50400001928E-02 0. -1.
    10030    2    1    2    0    0  0.00000000000E+00  0.00000000000E+00 -0.15266458899E+04  0.30009288655E+04  0.25835878894E+04 0.  0.
        1    1    3    3  502    0 -0.31873699949E+03  0.27802865304E+03 -0.21810807314E+04  0.22217124844E+04  0.50400001928E-02 0. -1.
       -1    1    3    3    0  502  0.31873699949E+03 -0.27802865304E+03  0.65443484144E+03  0.77921638104E+03  0.50400001928E-02 0.  1.
</event>
<event>
 5   0  0.2820028E-06  0.2598111E+04  0.7818609E-02  0.8368843E-01
       -2   -1    0    0    0  501  0.00000000000E+00  0.00000000000E+00  0.67705761106E+03  0.67705761107E+03  0.25500000920E-02 0.  1.
        2   -1    0    0  501    0  0.00000000000E+00  0.00000000000E+00 -0.24924692982E+04  0.24924692982E+04  0.25500000920E-02 0. -1.
    10030    2    1    2    0    0  0.00000000000E+00  0.00000000000E+00 -0.18154116871E+04  0.31695269093E+04  0.25981110898E+04 0.  0.
        3    1    3    3  502    0  0.81559470669E+01 -0.53686946614E+03  0.53535411918E+03  0.75822119877E+03  0.10100000352E+00 0.  1.
       -3    1    3    3    0  502 -0.81559470669E+01  0.53686946614E+03 -0.23507658063E+04  0.24113057105E+04  0.10100000352E+00 0. -1.
</event>
<event>
 5   0  0.1100104E-06  0.2591357E+04  0.7818609E-02  0.8371143E-01
       -1   -1    0    0    0  501  0.00000000000E+00  0.00000000000E+00  0.10509845192E+04  0.10509845192E+04  0.50400001928E-02 0.  1.
        1   -1    0    0  501    0  0.00000000000E+00  0.00000000000E+00 -0.15973426178E+04  0.15973426178E+04  0.50400001928E-02 0. -1.
    10030    2    1    2    0    0  0.00000000000E+00  0.00000000000E+00 -0.54635809863E+03  0.26483271370E+04  0.25913566819E+04 0.  0.
        4    1    3    3  502    0 -0.54601033584E+03 -0.58009536628E+03 -0.13174769170E+04  0.15396054561E+04  0.12699999809E+01 0. -1.
       -4    1    3    3    0  502  0.54601033584E+03  0.58009536628E+03  0.77111881834E+03  0.11087216809E+04  0.12699999809E+01 0.  1.
</event>
<event>
 5   0  0.1032076E-06  0.2600906E+04  0.7818609E-02  0.8367893E-01
       -1   -1    0    0    0  501  0.00000000000E+00  0.00000000000E+00  0.97915518187E+03  0.97915518188E+03  0.50400001928E-02 0.  1.
        1   -1    0    0  501    0  0.00000000000E+00  0.00000000000E+00 -0.17271811648E+04  0.17271811648E+04  0.50400001928E-02 0. -1.
    10030    2    1    2    0    0  0.00000000000E+00  0.00000000000E+00 -0.74802598295E+03  0.27063363467E+04  0.26009062940E+04 0.  0.
        1    1    3    3  502    0 -0.71357272848E+02  0.70876748256E+03 -0.15061118240E+04  0.16660780388E+04  0.50400001928E-02 0. -1.
       -1    1    3    3    0  502  0.71357272848E+02 -0.70876748256E+03  0.75808584110E+03  0.10402583079E+04  0.50400001928E-02 0.  1.
</event>
<event>
 5   0  0.1032076E-06  0.2599351E+04  0.7818609E-02  0.8368422E-01
       -1   -1    0    0    0  501  0.00000000000E+00  0.00000000000E+00  0.16505404981E+04  0.16505404981E+04  0.50400001928E-02 0. -1.
        1   -1    0    0  501    0  0.00000000000E+00  0.00000000000E+00 -0.10233955886E+04  0.10233955886E+04  0.50400001928E-02 0.  1.
    10030    2    1    2    0    0  0.00000000000E+00  0.00000000000E+00  0.62714490947E+03  0.26739360867E+04  0.25993505839E+04 0.  0.
        1    1    3    3  502    0 -0.59912872136E+03 -0.11368077025E+04  0.11338934277E+03  0.12900171008E+04  0.50400001928E-02 0.  1.
       -1    1    3    3    0  502  0.59912872136E+03  0.11368077025E+04  0.51375556670E+03  0.13839189859E+04  0.50400001928E-02 0. -1.
</event>
<event>
 5   0  0.2746631E-06  0.2615774E+04  0.7818609E-02  0.8362863E-01
        2   -1    0    0  501    0  0.00000000000E+00  0.00000000000E+00  0.19443099126E+04  0.19443099126E+04  0.25500000920E-02 0. -1.
       -2   -1    0    0    0  501  0.00000000000E+00  0.00000000000E+00 -0.87978195770E+03  0.87978195771E+03  0.25500000920E-02 0.  1.
    10030    2    1    2    0    0  0.00000000000E+00  0.00000000000E+00  0.10645279549E+04  0.28240918703E+04  0.26157742879E+04 0.  0.
        2    1    3    3  502    0  0.99946432369E+03 -0.47284007270E+03 -0.22198738239E+03  0.11277344841E+04  0.25500000920E-02 0.  1.
       -2    1    3    3    0  502 -0.99946432369E+03  0.47284007270E+03  0.12865153373E+04  0.16963573862E+04  0.25500000920E-02 0. -1.
</event>
<event>
 5   0  0.2705807E-06  0.2599764E+04  0.7818609E-02  0.8368281E-01
        2   -1    0    0  501    0  0.00000000000E+00  0.00000000000E+00  0.91880440730E+03  0.91880440730E+03  0.25500000920E-02 0.  1.
       -2   -1    0    0    0  501  0.00000000000E+00  0.00000000000E+00 -0.18390133537E+04  0.18390133537E+04  0.25500000920E-02 0. -1.
    10030    2    1    2    0    0  0.00000000000E+00  0.00000000000E+00 -0.92020894637E+03  0.27578177610E+04  0.25997642773E+04 0.  0.
        4    1    3    3  502    0  0.10012082568E+04  0.76293250945E+02 -0.13357929819E+04  0.16711023718E+04  0.12699999809E+01 0. -1.
       -4    1    3    3    0  502 -0.10012082568E+04 -0.76293250945E+02  0.41558403549E+03  0.10867153892E+04  0.12699999809E+01 0.  1.
</event>
<event>
 5   0  0.2820028E-06  0.2604157E+04  0.7818609E-02  0.8366791E-01
        2   -1    0    0  501    0  0.00000000000E+00  0.00000000000E+00  0.10966602056E+04  0.10966602056E+04  0.25500000920E-02 0.  1.
       -2   -1    0    0    0  501  0.00000000000E+00  0.00000000000E+00 -0.15459738126E+04  0.15459738126E+04  0.25500000920E-02 0. -1.
    10030    2    1    2    0    0  0.00000000000E+00  0.00000000000E+00 -0.44931360695E+03  0.26426340182E+04  0.26041566460E+04 0.  0.
        3    1    3    3  502    0  0.39018802005E+03  0.68488545209E+02  0.10340208281E+04  0.11073104601E+04  0.10100000352E+00 0.  1.
       -3    1    3    3    0  502 -0.39018802005E+03 -0.68488545209E+02 -0.14833344351E+04  0.15353235582E+04  0.10100000352E+00 0. -1.
</event>
<event>
 5   0  0.1055179E-06  0.2594233E+04  0.7818609E-02  0.8370163E-01
        1   -1    0    0  501    0  0.00000000000E+00  0.00000000000E+00  0.57620218385E+03  0.57620218388E+03  0.50400001928E-02 0.  1.
       -1   -1    0    0    0  501  0.00000000000E+00  0.00000000000E+00 -0.29200017182E+04  0.29200017182E+04  0.50400001928E-02 0. -1.
    10030    2    1    2    0    0  0.00000000000E+00  0.00000000000E+00 -0.23437995344E+04  0.34962039021E+04  0.25942331175E+04 0.  0.
        3    1    3    3  502    0 -0.11914364478E+04 -0.39643281748E+02 -0.18609585830E+04  0.22100360307E+04  0.10100000352E+00 0. -1.
       -3    1    3    3    0  502  0.11914364478E+04  0.39643281748E+02 -0.48284095139E+03  0.12861678715E+04  0.10100000352E+00 0.  1.
</event>
<event>
 5   0  0.2623368E-06  0.2599709E+04  0.7818609E-02  0.8368300E-01
       -2   -1    0    0    0  501  0.00000000000E+00  0.00000000000E+00  0.99340329661E+03  0.99340329662E+03  0.25500000920E-02 0.  1.
        2   -1    0    0  501    0  0.00000000000E+00  0.00000000000E+00 -0.17008412705E+04  0.17008412705E+04  0.25500000920E-02 0. -1.
    10030    2    1    2    0    0  0.00000000000E+00  0.00000000000E+00 -0.70743797391E+03  0.26942445671E+04  0.25997086953E+04 0.  0.
        5    1    3    3  502    0  0.93550153411E+03  0.83021800330E+03 -0.72038420086E+03  0.14433989539E+04  0.46999998093E+01 0.  1.
       -5    1    3    3    0  502 -0.93550153411E+03 -0.83021800330E+03  0.12946226956E+02  0.12508456132E+04  0.46999998093E+01 0. -1.
</event>
<event>
 5   0  0.2746631E-06  0.2598827E+04  0.7818609E-02  0.8368600E-01
       -2   -1    0    0    0  501  0.00000000000E+00  0.00000000000E+00  0.11959617767E+04  0.11959617767E+04  0.25500000920E-02 0. -1.
        2   -1    0    0  501    0  0.00000000000E+00  0.00000000000E+00 -0.14118135818E+04  0.14118135818E+04  0.25500000920E-02 0.  1.
    10030    2    1    2    0    0  0.00000000000E+00  0.00000000000E+00 -0.21585180509E+03  0.26077753586E+04  0.25988267197E+04 0.  0.
        2    1    3    3  502    0 -0.11634927575E+03 -0.29283075878E+03  0.11570449028E+04  0.11991830195E+04  0.25500000920E-02 0. -1.
       -2    1    3    3    0  502  0.11634927575E+03  0.29283075878E+03 -0.13728967078E+04  0.14085923391E+04  0.25500000920E-02 0.  1.
</event>
<event>
 5   0  0.1055179E-06  0.2585976E+04  0.7818609E-02  0.8372980E-01
        1   -1    0    0  501    0  0.00000000000E+00  0.00000000000E+00  0.14153845791E+04  0.14153845791E+04  0.50400001928E-02 0. -1.
       -1   -1    0    0    0  501  0.00000000000E+00  0.00000000000E+00 -0.11811759035E+04  0.11811759035E+04  0.50400001928E-02 0.  1.
    10030    2    1    2    0    0  0.00000000000E+00  0.00000000000E+00  0.23420867557E+03  0.25965604826E+04  0.25859761476E+04 0.  0.
        3    1    3    3  502    0 -0.70203986571E+03  0.83507830253E+03  0.81392055844E+03  0.13611327746E+04  0.10100000352E+00 0. -1.
       -3    1    3    3    0  502  0.70203986571E+03 -0.83507830253E+03 -0.57971188287E+03  0.12354277080E+04  0.10100000352E+00 0.  1.
</event>
<event>
 5   0  0.2623368E-06  0.2602997E+04  0.7818609E-02  0.8367184E-01
       -2   -1    0    0    0  501  0.00000000000E+00  0.00000000000E+00  0.21200758754E+04  0.21200758754E+04  0.25500000920E-02 0. -1.
        2   -1    0    0  501    0  0.00000000000E+00  0.00000000000E+00 -0.79898019171E+03  0.79898019171E+03  0.25500000920E-02 0.  1.
    10030    2    1    2    0    0  0.00000000000E+00  0.00000000000E+00  0.13210956837E+04  0.29190560671E+04  0.26029972181E+04 0.  0.
        5    1    3    3  502    0  0.32034289317E+03 -0.82155831464E+03 -0.41291574365E+03  0.97370382299E+03  0.46999998093E+01 0.  1.
       -5    1    3    3    0  502 -0.32034289317E+03  0.82155831464E+03  0.17340114273E+04  0.19453522441E+04  0.46999998093E+01 0. -1.
</event>
<event>
 5   0  0.1088757E-06  0.2598248E+04  0.7818609E-02  0.8368797E-01
       -1   -1    0    0    0  501  0.00000000000E+00  0.00000000000E+00  0.10319874918E+04  0.10319874918E+04  0.50400001928E-02 0. -1.
        1   -1    0    0  501    0  0.00000000000E+00  0.00000000000E+00 -0.16354104546E+04  0.16354104546E+04  0.50400001928E-02 0.  1.
    10030    2    1    2    0    0  0.00000000000E+00  0.00000000000E+00 -0.60342296281E+03  0.26673979465E+04  0.25982479737E+04 0.  0.
        5    1    3    3  502    0  0.40992962693E+03 -0.10163978011E+04 -0.10178395618E+04  0.14957025950E+04  0.46999998093E+01 0.  1.
       -5    1    3    3    0  502 -0.40992962693E+03  0.10163978011E+04  0.41441659896E+03  0.11716953515E+04  0.46999998093E+01 0. -1.
</event>
<event>
 5   0  0.2623368E-06  0.2607781E+04  0.7818609E-02  0.8365563E-01
       -2   -1    0    0    0  501  0.00000000000E+00  0.00000000000E+00  0.14738101121E+04  0.14738101121E+04  0.25500000920E-02 0. -1.
        2   -1    0    0  501    0  0.00000000000E+00  0.00000000000E+00 -0.11535611746E+04  0.11535611746E+04  0.25500000920E-02 0.  1.
    10030    2    1    2    0    0  0.00000000000E+00  0.00000000000E+00  0.32024893749E+03  0.26273712867E+04  0.26077807607E+04 0.  0.
        5    1    3    3  502    0  0.42389269049E+03  0.12234271343E+04  0.51866679709E+01  0.12948003543E+04  0.46999998093E+01 0.  1.
       -5    1    3    3    0  502 -0.42389269049E+03 -0.12234271343E+04  0.31506226952E+03  0.13325709323E+04  0.46999998093E+01 0. -1.
</event>
<event>
 5   0  0.2586775E-06  0.2599885E+04  0.7818609E-02  0.8368240E-01
       -2   -1    0    0    0  501  0.00000000000E+00  0.00000000000E+00  0.10430713773E+04  0.10430713773E+04  0.25500000920E-02 0. -1.
        2   -1    0    0  501    0  0.00000000000E+00  0.00000000000E+00 -0.16200711763E+04  0.16200711763E+04  0.25500000920E-02 0.  1.
    10030    2    1    2    0    0  0.00000000000E+00  0.00000000000E+00 -0.57699979905E+03  0.26631425536E+04  0.25998845153E+04 0.  0.
        1    1    3    3  502    0 -0.64486174741E+03  0.13877297290E+03 -0.14359086006E+04  0.15801702822E+04  0.50400001928E-02 0.  1.
       -1    1    3    3    0  502  0.64486174741E+03 -0.13877297290E+03  0.85890880158E+03  0.10829722715E+04  0.50400001928E-02 0. -1.
</event>
<event>
 5   0  0.2705807E-06  0.2598960E+04  0.7818609E-02  0.8368555E-01
       -2   -1    0    0    0  501  0.00000000000E+00  0.00000000000E+00  0.14808071689E+04  0.14808071689E+04  0.25500000920E-02 0.  1.
        2   -1    0    0  501    0  0.00000000000E+00  0.00000000000E+00 -0.11403565598E+04  0.11403565599E+04  0.25500000920E-02 0. -1.
    10030    2    1    2    0    0  0.00000000000E+00  0.00000000000E+00  0.34045060908E+03  0.26211637288E+04  0.25989599219E+04 0.  0.
        4    1    3    3  502    0 -0.12901686665E+04  0.11677572690E+03  0.67004464722E+02  0.12971749958E+04  0.12699999809E+01 0.  1.
       -4    1    3    3    0  502  0.12901686665E+04 -0.11677572690E+03  0.27344614436E+03  0.13239887330E+04  0.12699999809E+01 0. -1.
</event>
<event>
 5   0  0.1055179E-06  0.2599111E+04  0.7818609E-02  0.8368503E-01
        1   -1    0    0  501    0  0.00000000000E+00  0.00000000000E+00  0.77287128136E+03  0.77287128137E+03  0.50400001928E-02 0.  1.
       -1   -1    0    0    0  501  0.00000000000E+00  0.00000000000E+00 -0.21851570310E+04  0.21851570310E+04  0.50400001928E-02 0. -1.
    10030    2    1    2    0    0  0.00000000000E+00  0.00000000000E+00 -0.14122857497E+04  0.29580283124E+04  0.25991114748E+04 0.  0.
        3    1    3    3  502    0  0.35758176520E+03  0.11450052936E+04 -0.12751243641E+04  0.17506695848E+04  0.10100000352E+00 0.  1.
       -3    1    3    3    0  502 -0.35758176520E+03 -0.11450052936E+04 -0.13716138559E+03  0.12073587276E+04  0.10100000352E+00 0. -1.
</event>
<event>
 5   0  0.1100104E-06  0.2602407E+04  0.7818609E-02  0.8367384E-01
        1   -1    0    0  501    0  0.00000000000E+00  0.00000000000E+00  0.23603084091E+04  0.23603084091E+04  0.50400001928E-02 0. -1.
       -1   -1    0    0    0  501  0.00000000000E+00  0.00000000000E+00 -0.71733466910E+03  0.71733466911E+03  0.50400001928E-02 0.  1.
    10030    2    1    2    0    0  0.00000000000E+00  0.00000000000E+00  0.16429737400E+04  0.30776430782E+04  0.26024073868E+04 0.  0.
        4    1    3    3  502    0  0.27770889916E+03  0.12479508187E+04  0.11078307815E+04  0.16916838156E+04  0.12699999809E+01 0. -1.
       -4    1    3    3    0  502 -0.27770889916E+03 -0.12479508187E+04  0.53514295848E+03  0.13859592626E+04  0.12699999809E+01 0.  1.
</event>
<event>
 5   0  0.2586775E-06  0.2588604E+04  0.7818609E-02  0.8372082E-01
       -2   -1    0    0    0  501  0.00000000000E+00  0.00000000000E+00  0.82758115072E+03  0.82758115072E+03  0.25500000920E-02 0. -1.
        2   -1    0    0  501    0  0.00000000000E+00  0.00000000000E+00 -0.20242337580E+04  0.20242337580E+04  0.25500000920E-02 0.  1.
    10030    2    1    2    0    0  0.00000000000E+00  0.00000000000E+00 -0.11966526072E+04  0.28518149087E+04  0.25886040275E+04 0.  0.
        1    1    3    3  502    0  0.18864202185E+03 -0.73694420026E+03  0.55531014508E+03  0.94182903118E+03  0.50400001928E-02 0. -1.
       -1    1    3    3    0  502 -0.18864202185E+03  0.73694420026E+03 -0.17519627523E+04  0.19099858775E+04  0.50400001928E-02 0.  1.
</event>
<event>
 5   0  0.1032076E-06  0.2602829E+04  0.7818609E-02  0.8367241E-01
       -1   -1    0    0    0  501  0.00000000000E+00  0.00000000000E+00  0.10718468948E+04  0.10718468948E+04  0.50400001928E-02 0.  1.
        1   -1    0    0  501    0  0.00000000000E+00  0.00000000000E+00 -0.15801510906E+04  0.15801510906E+04  0.50400001928E-02 0. -1.
    10030    2    1    2    0    0  0.00000000000E+00  0.00000000000E+00 -0.50830419578E+03  0.26519979855E+04  0.26028292605E+04 0.  0.
        1    1    3    3  502    0  0.12025018383E+04 -0.43463249019E+03 -0.50114419801E+03  0.13733395720E+04  0.50400001928E-02 0. -1.
       -1    1    3    3    0  502 -0.12025018383E+04  0.43463249019E+03 -0.71599977723E+01  0.12786584135E+04  0.50400001928E-02 0.  1.
</event>
<event>
 5   0  0.2705807E-06  0.2597956E+04  0.7818609E-02  0.8368896E-01
       -2   -1    0    0    0  501  0.00000000000E+00  0.00000000000E+00  0.17937592734E+04  0.17937592734E+04  0.25500000920E-02 0. -1.
        2   -1    0    0  501    0  0.00000000000E+00  0.00000000000E+00 -0.94067463854E+03  0.94067463854E+03  0.25500000920E-02 0.  1.
    10030    2    1    2    0    0  0.00000000000E+00  0.00000000000E+00  0.85308463490E+03  0.27344339120E+04  0.25979560090E+04 0.  0.
        4    1    3    3  502    0 -0.45420130721E+03 -0.91006451890E+03  0.12769640609E+04  0.16325302698E+04  0.12699999809E+01 0. -1.
       -4    1    3    3    0  502  0.45420130721E+03  0.91006451890E+03 -0.42387942599E+03  0.11019036422E+04  0.12699999809E+01 0.  1.
</event>
<event>
 5   0  0.2623368E-06  0.2605373E+04  0.7818609E-02  0.8366378E-01
       -2   -1    0    0    0  501  0.00000000000E+00  0.00000000000E+00  0.80586745215E+03  0.80586745216E+03  0.25500000920E-02 0. -1.
        2   -1    0    0  501    0  0.00000000000E+00  0.00000000000E+00 -0.21057953371E+04  0.21057953371E+04  0.25500000920E-02 0.  1.
    10030    2    1    2    0    0  0.00000000000E+00  0.00000000000E+00 -0.12999278849E+04  0.29116627892E+04  0.26053728509E+04 0.  0.
        5    1    3    3  502    0 -0.91786486094E+03 -0.47815380315E+03 -0.15340830708E+04  0.18505512477E+04  0.46999998093E+01 0.  1.
       -5    1    3    3    0  502  0.91786486094E+03  0.47815380315E+03  0.23415518587E+03  0.10611115415E+04  0.46999998093E+01 0. -1.
</event>
<event>
 5   0  0.2623368E-06  0.2597660E+04  0.7818609E-02  0.8368996E-01
       -2   -1    0    0    0  501  0.00000000000E+00  0.00000000000E+00  0.10242315163E+04  0.10242315163E+04  0.25500000920E-02 0. -1.
        2   -1    0    0  501    0  0.00000000000E+00  0.00000000000E+00 -0.16470489299E+04  0.16470489299E+04  0.25500000920E-02 0.  1.
    10030    2    1    2    0    0  0.00000000000E+00  0.00000000000E+00 -0.62281741358E+03  0.26712804463E+04  0.25976600416E+04 0.  0.
        5    1    3    3  502    0 -0.71223795755E+03 -0.15630245850E+03 -0.14166835017E+04  0.15933385079E+04  0.46999998093E+01 0.  1.
       -5    1    3    3    0  502  0.71223795755E+03  0.15630245850E+03  0.79386608810E+03  0.10779419384E+04  0.46999998093E+01 0. -1.
</event>
<event>
 5   0  0.1100104E-06  0.2600123E+04  0.7818609E-02  0.8368159E-01
       -1   -1    0    0    0  501  0.00000000000E+00  0.00000000000E+00  0.14045052173E+04  0.14045052173E+04  0.50400001928E-02 0.  1.
        1   -1    0    0  501    0  0.00000000000E+00  0.00000000000E+00 -0.12033846654E+04  0.12033846654E+04  0.50400001928E-02 0. -1.
    10030    2    1    2    0    0  0.00000000000E+00  0.00000000000E+00  0.20112055187E+03  0.26078898828E+04  0.26001231056E+04 0.  0.
        4    1    3    3  502    0  0.76541831966E+02 -0.85497972961E+03 -0.87873190125E+03  0.12284218971E+04  0.12699999809E+01 0. -1.
       -4    1    3    3    0  502 -0.76541831966E+02  0.85497972961E+03  0.10798524531E+04  0.13794679857E+04  0.12699999809E+01 0.  1.
</event>
<event>
 5   0  0.1100104E-06  0.2601037E+04  0.7818609E-02  0.8367849E-01
        1   -1    0    0  501    0  0.00000000000E+00  0.00000000000E+00  0.18937669848E+04  0.18937669848E+04  0.50400001928E-02 0. -1.
       -1   -1    0    0    0  501  0.00000000000E+00  0.00000000000E+00 -0.89311331259E+03  0.89311331260E+03  0.50400001928E-02 0.  1.
    10030    2    1    2    0    0  0.00000000000E+00  0.00000000000E+00  0.10006536722E+04  0.27868802974E+04  0.26010371047E+04 0.  0.
        4    1    3    3  502    0  0.34430205707E+03 -0.12232369154E+04  0.79666438651E+03  0.14998427302E+04  0.12699999809E+01 0. -1.
       -4    1    3    3    0  502 -0.34430205707E+03  0.12232369154E+04  0.20398928565E+03  0.12870375672E+04  0.12699999809E+01 0.  1.
</event>
<event>
 5   0  0.1032076E-06  0.2599416E+04  0.7818609E-02  0.8368400E-01
       -1   -1    0    0    0  501  0.00000000000E+00  0.00000000000E+00  0.19701145997E+04  0.19701145997E+04  0.50400001928E-02 0. -1.
        1   -1    0    0  501    0  0.00000000000E+00  0.00000000000E+00 -0.85743292595E+03  0.85743292597E+03  0.50400001928E-02 0.  1.
    10030    2    1    2    0    0  0.00000000000E+00  0.00000000000E+00  0.11126816738E+04  0.28275475257E+04  0.25994161850E+04 0.  0.
        1    1    3    3  502    0 -0.59073895964E+03  0.73635867935E+03  0.15280753990E+04  0.17961656517E+04  0.50400001928E-02 0. -1.
       -1    1    3    3    0  502  0.59073895964E+03 -0.73635867935E+03 -0.41539372525E+03  0.10313818740E+04  0.50400001928E-02 0.  1.
</event>
<event>
 5   0  0.2623368E-06  0.2600995E+04  0.7818609E-02  0.8367863E-01
       -2   -1    0    0    0  501  0.00000000000E+00  0.00000000000E+00  0.82993975765E+03  0.82993975765E+03  0.25500000920E-02 0. -1.
        2   -1    0    0  501    0  0.00000000000E+00  0.00000000000E+00 -0.20378506241E+04  0.20378506241E+04  0.25500000920E-02 0.  1.
    10030    2    1    2    0    0  0.00000000000E+00  0.00000000000E+00 -0.12079108665E+04  0.28677903818E+04  0.26009946199E+04 0.  0.
        5    1    3    3  502    0 -0.21359136172E+03  0.10640803966E+04  0.18604732640E+03  0.11011467013E+04  0.46999998093E+01 0. -1.
       -5    1    3    3    0  502  0.21359136172E+03 -0.10640803966E+04 -0.13939581929E+04  0.17666436805E+04  0.46999998093E+01 0.  1.
</event>
<event>
 5   0  0.2705807E-06  0.2593706E+04  0.7818609E-02  0.8370342E-01
       -2   -1    0    0    0  501  0.00000000000E+00  0.00000000000E+00  0.16779519588E+04  0.16779519588E+04  0.25500000920E-02 0.  1.
        2   -1    0    0  501    0  0.00000000000E+00  0.00000000000E+00 -0.10023095083E+04  0.10023095083E+04  0.25500000920E-02 0. -1.
    10030    2    1    2    0    0  0.00000000000E+00  0.00000000000E+00  0.67564245050E+03  0.26802614672E+04  0.25937056139E+04 0.  0.
        4    1    3    3  502    0 -0.10305432302E+04  0.27238911963E+03 -0.42548324176E+03  0.11477163341E+04  0.12699999809E+01 0. -1.
       -4    1    3    3    0  502  0.10305432302E+04 -0.27238911963E+03  0.11011256923E+04  0.15325451330E+04  0.12699999809E+01 0.  1.
</event>
<event>
 5   0  0.2586775E-06  0.2596346E+04  0.7818609E-02  0.8369443E-01
        2   -1    0    0  501    0  0.00000000000E+00  0.00000000000E+00  0.18868239906E+04  0.18868239906E+04  0.25500000920E-02 0.  1.
       -2   -1    0    0    0  501  0.00000000000E+00  0.00000000000E+00 -0.89316913952E+03  0.89316913953E+03  0.25500000920E-02 0. -1.
    10030    2    1    2    0    0  0.00000000000E+00  0.00000000000E+00  0.99365485107E+03  0.27799931301E+04  0.25963458630E+04 0.  0.
        1    1    3    3  502    0  0.12855201605E+04  0.10660317609E+02  0.69008578414E+03  0.14590730327E+04  0.50400001928E-02 0.  1.
       -1    1    3    3    0  502 -0.12855201605E+04 -0.10660317609E+02  0.30356906693E+03  0.13209200974E+04  0.50400001928E-02 0. -1.
</event>
<event>
 5   0  0.2586775E-06  0.2604480E+04  0.7818609E-02  0.8366681E-01
       -2   -1    0    0    0  501  0.00000000000E+00  0.00000000000E+00  0.83128060642E+03  0.83128060642E+03  0.25500000920E-02 0. -1.
        2   -1    0    0  501    0  0.00000000000E+00  0.00000000000E+00 -0.20400205142E+04  0.20400205142E+04  0.25500000920E-02 0.  1.
    10030    2    1    2    0    0  0.00000000000E+00  0.00000000000E+00 -0.12087399078E+04  0.28713011206E+04  0.26044803629E+04 0.  0.
        1    1    3    3  502    0  0.72746856801E+03 -0.97532515366E+03 -0.92758816456E+02  0.12202761453E+04  0.50400001928E-02 0. -1.
       -1    1    3    3    0  502 -0.72746856801E+03  0.97532515366E+03 -0.11159810913E+04  0.16510249753E+04  0.50400001928E-02 0.  1.
</event>
<event>
 5   0  0.1122628E-06  0.2604355E+04  0.7818609E-02  0.8366723E-01
        1   -1    0    0  501    0  0.00000000000E+00  0.00000000000E+00  0.13028991162E+04  0.13028991162E+04  0.50400001928E-02 0. -1.
       -1   -1    0    0    0  501  0.00000000000E+00  0.00000000000E+00 -0.13014567403E+04  0.13014567403E+04  0.50400001928E-02 0.  1.
    10030    2    1    2    0    0  0.00000000000E+00  0.00000000000E+00  0.14423758691E+01  0.26043558565E+04  0.26043554571E+04 0.  0.
        2    1    3    3  502    0  0.18259002483E+03  0.10635427565E+03  0.12856402492E+04  0.13028895577E+04  0.25500000920E-02 0. -1.
       -2    1    3    3    0  502 -0.18259002483E+03 -0.10635427565E+03 -0.12841978733E+04  0.13014662988E+04  0.25500000920E-02 0.  1.
</event>
<event>
 5   0  0.1088757E-06  0.2600880E+04  0.7818609E-02  0.8367902E-01
        1   -1    0    0  501    0  0.00000000000E+00  0.00000000000E+00  0.20330001303E+04  0.20330001303E+04  0.50400001928E-02 0. -1.
       -1   -1    0    0    0  501  0.00000000000E+00  0.00000000000E+00 -0.83184687598E+03  0.83184687600E+03  0.50400001928E-02 0.  1.
    10030    2    1    2    0    0  0.00000000000E+00  0.00000000000E+00  0.12011532543E+04  0.28648470063E+04  0.26008804719E+04 0.  0.
        5    1    3    3  502    0  0.10271325062E+04  0.77098492097E+03  0.82551770360E+03  0.15267352431E+04  0.46999998093E+01 0. -1.
       -5    1    3    3    0  502 -0.10271325062E+04 -0.77098492097E+03  0.37563555070E+03  0.13381117631E+04  0.46999998093E+01 0.  1.
</event>
<event>
 5   0  0.2623368E-06  0.2618870E+04  0.7818609E-02  0.8361820E-01
        2   -1    0    0  501    0  0.00000000000E+00  0.00000000000E+00  0.93581851303E+03  0.93581851304E+03  0.25500000920E-02 0. -1.
       -2   -1    0    0    0  501  0.00000000000E+00  0.00000000000E+00 -0.18322142197E+04  0.18322142197E+04  0.25500000920E-02 0.  1.
    10030    2    1    2    0    0  0.00000000000E+00  0.00000000000E+00 -0.89639570663E+03  0.27680327327E+04  0.26188699751E+04 0.  0.
        5    1    3    3  502    0 -0.20274210391E+03  0.80726987959E+03 -0.15166181277E+04  0.17300120389E+04  0.46999998093E+01 0.  1.
       -5    1    3    3    0  502  0.20274210391E+03 -0.80726987959E+03  0.62022242112E+03  0.10380206938E+04  0.46999998093E+01 0. -1.
</event>
<event>
 5   0  0.1100104E-06  0.2614136E+04  0.7818609E-02  0.8363415E-01
       -1   -1    0    0    0  501  0.00000000000E+00  0.00000000000E+00  0.11027823019E+04  0.11027823019E+04  0.50400001928E-02 0.  1.
        1   -1    0    0  501    0  0.00000000000E+00  0.00000000000E+00 -0.15491961933E+04  0.15491961933E+04  0.50400001928E-02 0. -1.
    10030    2    1    2    0    0  0.00000000000E+00  0.00000000000E+00 -0.44641389140E+03  0.26519784953E+04  0.26141355315E+04 0.  0.
        4    1    3    3  502    0 -0.57810424346E+03 -0.57943451062E+03  0.81060146130E+03  0.11519658026E+04  0.12699999809E+01 0.  1.
       -4    1    3    3    0  502  0.57810424346E+03  0.57943451062E+03 -0.12570153527E+04  0.15000126927E+04  0.12699999809E+01 0. -1.
</event>
<event>
 5   0  0.2746631E-06  0.2598700E+04  0.7818609E-02  0.8368643E-01
       -2   -1    0    0    0  501  0.00000000000E+00  0.00000000000E+00  0.10704812043E+04  0.10704812043E+04  0.25500000920E-02 0.  1.
        2   -1    0    0  501    0  0.00000000000E+00  0.00000000000E+00 -0.15771508093E+04  0.15771508093E+04  0.25500000920E-02 0. -1.
    10030    2    1    2    0    0  0.00000000000E+00  0.00000000000E+00 -0.50666960496E+03  0.26476320137E+04  0.25986999040E+04 0.  0.
        2    1    3    3  502    0  0.37090692142E+03 -0.94899720221E+03 -0.10748315086E+04  0.14810234320E+04  0.25500000920E-02 0. -1.
       -2    1    3    3    0  502 -0.37090692142E+03  0.94899720221E+03  0.56816190362E+03  0.11666085817E+04  0.25500000920E-02 0.  1.
</event>
<event>
 5   0  0.1032076E-06  0.2547203E+04  0.7818609E-02  0.8386360E-01
       -1   -1    0    0    0  501  0.00000000000E+00  0.00000000000E+00  0.84719111233E+03  0.84719111235E+03  0.50400001928E-02 0.  1.
        1   -1    0    0  501    0  0.00000000000E+00  0.00000000000E+00 -0.19146339213E+04  0.19146339213E+04  0.50400001928E-02 0. -1.
    10030    2    1    2    0    0  0.00000000000E+00  0.00000000000E+00 -0.10674428089E+04  0.27618250336E+04  0.25472030477E+04 0.  0.
        1    1    3    3  502    0 -0.69190571253E+02 -0.17950750512E+03  0.83134618796E+03  0.85331516089E+03  0.50400001928E-02 0.  1.
       -1    1    3    3    0  502  0.69190571253E+02  0.17950750512E+03 -0.18987889969E+04  0.19085098727E+04  0.50400001928E-02 0. -1.
</event>
<event>
 5   0  0.2820028E-06  0.2597634E+04  0.7818609E-02  0.8369005E-01
        2   -1    0    0  501    0  0.00000000000E+00  0.00000000000E+00  0.16569096504E+04  0.16569096504E+04  0.25500000920E-02 0. -1.
       -2   -1    0    0    0  501  0.00000000000E+00  0.00000000000E+00 -0.10181159318E+04  0.10181159318E+04  0.25500000920E-02 0.  1.
    10030    2    1    2    0    0  0.00000000000E+00  0.00000000000E+00  0.63879371864E+03  0.26750255822E+04  0.25976343951E+04 0.  0.
        3    1    3    3  502    0  0.42107331266E+03 -0.96639617918E+03 -0.46195869637E+03  0.11509257826E+04  0.10100000352E+00 0.  1.
       -3    1    3    3    0  502 -0.42107331266E+03  0.96639617918E+03  0.11007524150E+04  0.15240997996E+04  0.10100000352E+00 0. -1.
</event>
<event>
 5   0  0.2623368E-06  0.2589579E+04  0.7818609E-02  0.8371750E-01
        2   -1    0    0  501    0  0.00000000000E+00  0.00000000000E+00  0.21513756336E+04  0.21513756336E+04  0.25500000920E-02 0.  1.
       -2   -1    0    0    0  501  0.00000000000E+00  0.00000000000E+00 -0.77925929494E+03  0.77925929495E+03  0.25500000920E-02 0. -1.
    10030    2    1    2    0    0  0.00000000000E+00  0.00000000000E+00  0.13721163387E+04  0.29306349286E+04  0.25895786989E+04 0.  0.
        5    1    3    3  502    0 -0.12398044292E+04  0.36925638949E+03  0.74796209160E+03  0.14943007342E+04  0.46999998093E+01 0.  1.
       -5    1    3    3    0  502  0.12398044292E+04 -0.36925638949E+03  0.62415424707E+03  0.14363341944E+04  0.46999998093E+01 0. -1.
</event>
<event>
 5   0  0.1032076E-06  0.2618578E+04  0.7818609E-02  0.8361918E-01
       -1   -1    0    0    0  501  0.00000000000E+00  0.00000000000E+00  0.12514463274E+04  0.12514463274E+04  0.50400001928E-02 0. -1.
        1   -1    0    0  501    0  0.00000000000E+00  0.00000000000E+00 -0.13698046872E+04  0.13698046872E+04  0.50400001928E-02 0.  1.
    10030    2    1    2    0    0  0.00000000000E+00  0.00000000000E+00 -0.11835835979E+03  0.26212510146E+04  0.26185775109E+04 0.  0.
        1    1    3    3  502    0  0.46417122690E+03  0.11840576159E+04 -0.37060721359E+03  0.13246875376E+04  0.50400001928E-02 0. -1.
       -1    1    3    3    0  502 -0.46417122690E+03 -0.11840576159E+04  0.25224885380E+03  0.12965634770E+04  0.50400001928E-02 0.  1.
</event>
<event>
 5   0  0.1100104E-06  0.2598002E+04  0.7818609E-02  0.8368880E-01
        1   -1    0    0  501    0  0.00000000000E+00  0.00000000000E+00  0.65166394583E+03  0.65166394585E+03  0.50400001928E-02 0.  1.
       -1   -1    0    0    0  501  0.00000000000E+00  0.00000000000E+00 -0.25893775414E+04  0.25893775414E+04  0.50400001928E-02 0. -1.
    10030    2    1    2    0    0  0.00000000000E+00  0.00000000000E+00 -0.19377135956E+04  0.32410414873E+04  0.25980022986E+04 0.  0.
        4    1    3    3  502    0  0.12804525934E+03  0.10990589505E+04 -0.18177856489E+04  0.21280677723E+04  0.12699999809E+01 0. -1.
       -4    1    3    3    0  502 -0.12804525934E+03 -0.10990589505E+04 -0.11992794667E+03  0.11129737150E+04  0.12699999809E+01 0.  1.
</event>
<event>
 5   0  0.1088757E-06  0.2552449E+04  0.7818609E-02  0.8384535E-01
        1   -1    0    0  501    0  0.00000000000E+00  0.00000000000E+00  0.15861963423E+04  0.15861963423E+04  0.50400001928E-02 0. -1.
       -1   -1    0    0    0  501  0.00000000000E+00  0.00000000000E+00 -0.10268270938E+04  0.10268270938E+04  0.50400001928E-02 0.  1.
    10030    2    1    2    0    0  0.00000000000E+00  0.00000000000E+00  0.55936924857E+03  0.26130234361E+04  0.25524493181E+04 0.  0.
        5    1    3    3  502    0 -0.10441284779E+04  0.62948812598E+03  0.66581978530E+03  0.13891715717E+04  0.46999998093E+01 0. -1.
       -5    1    3    3    0  502  0.10441284779E+04 -0.62948812598E+03 -0.10645053674E+03  0.12238518644E+04  0.46999998093E+01 0.  1.
</event>
<event>
 5   0  0.1088757E-06  0.2628743E+04  0.7818609E-02  0.8358503E-01
       -1   -1    0    0    0  501  0.00000000000E+00  0.00000000000E+00  0.10878140164E+04  0.10878140164E+04  0.50400001928E-02 0. -1.
        1   -1    0    0  501    0  0.00000000000E+00  0.00000000000E+00 -0.15881141870E+04  0.15881141870E+04  0.50400001928E-02 0.  1.
    10030    2    1    2    0    0  0.00000000000E+00  0.00000000000E+00 -0.50030017059E+03  0.26759282035E+04  0.26287433289E+04 0.  0.
        5    1    3    3  502    0 -0.25237762069E+03 -0.85310660797E+03 -0.12350211488E+04  0.15220987734E+04  0.46999998093E+01 0.  1.
       -5    1    3    3    0  502  0.25237762069E+03  0.85310660797E+03  0.73472097818E+03  0.11538294301E+04  0.46999998093E+01 0. -1.
</event>
<event>
 5   0  0.2623368E-06  0.2597548E+04  0.7818609E-02  0.8369035E-01
        2   -1    0    0  501    0  0.00000000000E+00  0.00000000000E+00  0.17815980177E+04  0.17815980177E+04  0.25500000920E-02 0. -1.
       -2   -1    0    0    0  501  0.00000000000E+00  0.00000000000E+00 -0.94679826207E+03  0.94679826207E+03  0.25500000920E-02 0.  1.
    10030    2    1    2    0    0  0.00000000000E+00  0.00000000000E+00  0.83479975560E+03  0.27283962797E+04  0.25975480029E+04 0.  0.
        5    1    3    3  502    0  0.76335836907E+03  0.43677248337E+03  0.14212108315E+04  0.16713313613E+04  0.46999998093E+01 0. -1.
       -5    1    3    3    0  502 -0.76335836907E+03 -0.43677248337E+03 -0.58641107586E+03  0.10570649184E+04  0.46999998093E+01 0.  1.
</event>
<event>
 5   0  0.2623368E-06  0.2602396E+04  0.7818609E-02  0.8367388E-01
        2   -1    0    0  501    0  0.00000000000E+00  0.00000000000E+00  0.11353477708E+04  0.11353477708E+04  0.25500000920E-02 0.  1.
       -2   -1    0    0    0  501  0.00000000000E+00  0.00000000000E+00 -0.14912754053E+04  0.14912754053E+04  0.25500000920E-02 0. -1.
    10030    2    1    2    0    0  0.00000000000E+00  0.00000000000E+00 -0.35592763448E+03  0.26266231761E+04  0.26023959784E+04 0.  0.
        5    1    3    3  502    0 -0.11821284539E+04  0.42281743594E+03 -0.52304121267E+03  0.13600722282E+04  0.46999998093E+01 0. -1.
       -5    1    3    3    0  502  0.11821284539E+04 -0.42281743594E+03  0.16711357819E+03  0.12665509479E+04  0.46999998093E+01 0.  1.
</event>
<event>
 5   0  0.2820028E-06  0.2612051E+04  0.7818609E-02  0.8364119E-01
       -2   -1    0    0    0  501  0.00000000000E+00  0.00000000000E+00  0.10431926084E+04  0.10431926084E+04  0.25500000920E-02 0.  1.
        2   -1    0    0  501    0  0.00000000000E+00  0.00000000000E+00 -0.16350789171E+04  0.16350789171E+04  0.25500000920E-02 0. -1.
    10030    2    1    2    0    0  0.00000000000E+00  0.00000000000E+00 -0.59188630866E+03  0.26782715255E+04  0.26120507196E+04 0.  0.
        3    1    3    3  502    0 -0.12538942628E+04  0.56887573862E+02 -0.66594497352E+03  0.14209045486E+04  0.10100000352E+00 0. -1.
       -3    1    3    3    0  502  0.12538942628E+04 -0.56887573862E+02  0.74058664866E+02  0.12573669768E+04  0.10100000352E+00 0.  1.
</event>
<event>
 5   0  0.2623368E-06  0.2597250E+04  0.7818609E-02  0.8369136E-01
       -2   -1    0    0    0  501  0.00000000000E+00  0.00000000000E+00  0.98931773112E+03  0.98931773112E+03  0.25500000920E-02 0.  1.
        2   -1    0    0  501    0  0.00000000000E+00  0.00000000000E+00 -0.17046368515E+04  0.17046368515E+04  0.25500000920E-02 0. -1.
    10030    2    1    2    0    0  0.00000000000E+00  0.00000000000E+00 -0.71531912040E+03  0.26939545826E+04  0.25972504402E+04 0.  0.
        5    1    3    3  502    0 -0.56691793780E+03 -0.78894193861E+03 -0.12514754630E+04  0.15843100250E+04  0.46999998093E+01 0. -1.
       -5    1    3    3    0  502  0.56691793780E+03  0.78894193861E+03  0.53615634259E+03  0.11096445577E+04  0.46999998093E+01 0.  1.
</event>
<event>
 5   0  0.1122628E-06  0.2581915E+04  0.7818609E-02  0.8374370E-01
        1   -1    0    0  501    0  0.00000000000E+00  0.00000000000E+00  0.14233475231E+04  0.14233475231E+04  0.50400001928E-02 0.  1.
       -1   -1    0    0    0  501  0.00000000000E+00  0.00000000000E+00 -0.11708816355E+04  0.11708816355E+04  0.50400001928E-02 0. -1.
    10030    2    1    2    0    0  0.00000000000E+00  0.00000000000E+00  0.25246588758E+03  0.25942291586E+04  0.25819151618E+04 0.  0.
        2    1    3    3  502    0 -0.61671300772E+02 -0.10111416333E+04 -0.67780901319E+03  0.12188666089E+04  0.25500000920E-02 0. -1.
       -2    1    3    3    0  502  0.61671300772E+02  0.10111416333E+04  0.93027490076E+03  0.13753625497E+04  0.25500000920E-02 0.  1.
</event>
<event>
 5   0  0.2820028E-06  0.2576266E+04  0.7818609E-02  0.8376308E-01
       -2   -1    0    0    0  501  0.00000000000E+00  0.00000000000E+00  0.94178406839E+03  0.94178406840E+03  0.25500000920E-02 0.  1.
        2   -1    0    0  501    0  0.00000000000E+00  0.00000000000E+00 -0.17618540889E+04  0.17618540889E+04  0.25500000920E-02 0. -1.
    10030    2    1    2    0    0  0.00000000000E+00  0.00000000000E+00 -0.82007002047E+03  0.27036381573E+04  0.25762656010E+04 0.  0.
        3    1    3    3  502    0  0.30373924116E+03 -0.10419769444E+03  0.89910666752E+03  0.95472901701E+03  0.10100000352E+00 0.  1.
       -3    1    3    3    0  502 -0.30373924116E+03  0.10419769444E+03 -0.17191766880E+04  0.17489091403E+04  0.10100000352E+00 0. -1.
</event>
<event>
 5   0  0.2705807E-06  0.2607536E+04  0.7818609E-02  0.8365646E-01
       -2   -1    0    0    0  501  0.00000000000E+00  0.00000000000E+00  0.80293979285E+03  0.80293979285E+03  0.25500000920E-02 0. -1.
        2   -1    0    0  501    0  0.00000000000E+00  0.00000000000E+00 -0.21169836947E+04  0.21169836947E+04  0.25500000920E-02 0.  1.
    10030    2    1    2    0    0  0.00000000000E+00  0.00000000000E+00 -0.13140439018E+04  0.29199234875E+04  0.26075355792E+04 0.  0.
        4    1    3    3  502    0 -0.99753418438E+03 -0.62068994879E+03 -0.24082797552E+02  0.11751221450E+04  0.12699999809E+01 0. -1.
       -4    1    3    3    0  502  0.99753418438E+03  0.62068994879E+03 -0.12899611043E+04  0.17448013425E+04  0.12699999809E+01 0.  1.
</event>
<event>
 5   0  0.2820028E-06  0.2606576E+04  0.7818609E-02  0.8365971E-01
        2   -1    0    0  501    0  0.00000000000E+00  0.00000000000E+00  0.18947015883E+04  0.18947015883E+04  0.25500000920E-02 0.  1.
       -2   -1    0    0    0  501  0.00000000000E+00  0.00000000000E+00 -0.89647899886E+03  0.89647899887E+03  0.25500000920E-02 0. -1.
    10030    2    1    2    0    0  0.00000000000E+00  0.00000000000E+00  0.99822258947E+03  0.27911805872E+04  0.26065764390E+04 0.  0.
        3    1    3    3  502    0 -0.10056218223E+04 -0.32505234241E+03  0.13157676360E+04  0.16876548097E+04  0.10100000352E+00 0.  1.
       -3    1    3    3    0  502  0.10056218223E+04  0.32505234241E+03 -0.31754504651E+03  0.11035257775E+04  0.10100000352E+00 0. -1.
</event>
<event>
 5   0  0.1122628E-06  0.2602368E+04  0.7818609E-02  0.8367397E-01
        1   -1    0    0  501    0  0.00000000000E+00  0.00000000000E+00  0.20711272862E+04  0.20711272862E+04  0.50400001928E-02 0.  1.
       -1   -1    0    0    0  501  0.00000000000E+00  0.00000000000E+00 -0.81746775048E+03  0.81746775050E+03  0.50400001928E-02 0. -1.
    10030    2    1    2    0    0  0.00000000000E+00  0.00000000000E+00  0.12536595357E+04  0.28885950367E+04  0.26023679706E+04 0.  0.
        2    1    3    3  502    0 -0.20190314950E+03  0.36482140422E+03  0.19949627801E+04  0.20380716456E+04  0.25500000920E-02 0.  1.
       -2    1    3    3    0  502  0.20190314950E+03 -0.36482140422E+03 -0.74130324434E+03  0.85052339111E+03  0.25500000920E-02 0. -1.
</event>
<event>
 5   0  0.2746631E-06  0.2596239E+04  0.7818609E-02  0.8369480E-01
        2   -1    0    0  501    0  0.00000000000E+00  0.00000000000E+00  0.13489522573E+04  0.13489522573E+04  0.25500000920E-02 0. -1.
       -2   -1    0    0    0  501  0.00000000000E+00  0.00000000000E+00 -0.12492025742E+04  0.12492025742E+04  0.25500000920E-02 0.  1.
    10030    2    1    2    0    0  0.00000000000E+00  0.00000000000E+00  0.99749683114E+02  0.25981548315E+04  0.25962393051E+04 0.  0.
        2    1    3    3  502    0 -0.88786986922E+03  0.65351036518E+03 -0.63599637170E+03  0.12727450989E+04  0.25500000920E-02 0.  1.
       -2    1    3    3    0  502  0.88786986922E+03 -0.65351036518E+03  0.73574605481E+03  0.13254097326E+04  0.25500000920E-02 0. -1.
</event>
<event>
 5   0  0.1100104E-06  0.2600476E+04  0.7818609E-02  0.8368039E-01
        1   -1    0    0  501    0  0.00000000000E+00  0.00000000000E+00  0.14633427005E+04  0.14633427005E+04  0.50400001928E-02 0. -1.
       -1   -1    0    0    0  501  0.00000000000E+00  0.00000000000E+00 -0.11553132980E+04  0.11553132980E+04  0.50400001928E-02 0.  1.
    10030    2    1    2    0    0  0.00000000000E+00  0.00000000000E+00  0.30802940246E+03  0.26186559985E+04  0.26004763267E+04 0.  0.
        4    1    3    3  502    0  0.91587818396E+03 -0.27293910589E+03  0.10418181449E+04  0.14137592664E+04  0.12699999809E+01 0. -1.
       -4    1    3    3    0  502 -0.91587818396E+03  0.27293910589E+03 -0.73378874248E+03  0.12048967320E+04  0.12699999809E+01 0.  1.
</event>
<event>
 5   0  0.1100104E-06  0.2600639E+04  0.7818609E-02  0.8367984E-01
       -1   -1    0    0    0  501  0.00000000000E+00  0.00000000000E+00  0.84005155124E+03  0.84005155125E+03  0.50400001928E-02 0.  1.
        1   -1    0    0  501    0  0.00000000000E+00  0.00000000000E+00 -0.20127710161E+04  0.20127710161E+04  0.50400001928E-02 0. -1.
    10030    2    1    2    0    0  0.00000000000E+00  0.00000000000E+00 -0.11727194648E+04  0.28528225673E+04  0.26006394709E+04 0.  0.
        4    1    3    3  502    0  0.14916531843E+03  0.99716489345E+03  0.31438641051E+03  0.10561385065E+04  0.12699999809E+01 0.  1.
       -4    1    3    3    0  502 -0.14916531843E+03 -0.99716489345E+03 -0.14871058753E+04  0.17966840608E+04  0.12699999809E+01 0. -1.
</event>
<event>
 5   0  0.2705807E-06  0.2597948E+04  0.7818609E-02  0.8368898E-01
        2   -1    0    0  501    0  0.00000000000E+00  0.00000000000E+00  0.27148036076E+04  0.27148036076E+04  0.25500000920E-02 0. -1.
       -2   -1    0    0    0  501  0.00000000000E+00  0.00000000000E+00 -0.62153079427E+03  0.62153079427E+03  0.25500000920E-02 0.  1.
    10030    2    1    2    0    0  0.00000000000E+00  0.00000000000E+00  0.20932728133E+04  0.33363344018E+04  0.25979484541E+04 0.  0.
        4    1    3    3  502    0  0.95296228810E+03 -0.14499586438E+03  0.21648448649E+04  0.23697501610E+04  0.12699999809E+01 0. -1.
       -4    1    3    3    0  502 -0.95296228810E+03  0.14499586438E+03 -0.71572051646E+02  0.96658424087E+03  0.12699999809E+01 0.  1.
</event>
<event>
 5   0  0.1055179E-06  0.2600808E+04  0.7818609E-02  0.8367927E-01
        1   -1    0    0  501    0  0.00000000000E+00  0.00000000000E+00  0.10784786870E+04  0.10784786870E+04  0.50400001928E-02 0.  1.
       -1   -1    0    0    0  501  0.00000000000E+00  0.00000000000E+00 -0.15679965352E+04  0.15679965353E+04  0.50400001928E-02 0. -1.
    10030    2    1    2    0    0  0.00000000000E+00  0.00000000000E+00 -0.48951784822E+03  0.26464752223E+04  0.26008082164E+04 0.  0.
        3    1    3    3  502    0  0.81305746097E+03  0.10143976173E+04 -0.27670887087E+03  0.13291473847E+04  0.10100000352E+00 0.  1.
       -3    1    3    3    0  502 -0.81305746097E+03 -0.10143976173E+04 -0.21280897736E+03  0.13173278376E+04  0.10100000352E+00 0. -1.
</event>
<event>
 5   0  0.1122628E-06  0.2597473E+04  0.7818609E-02  0.8369060E-01
        1   -1    0    0  501    0  0.00000000000E+00  0.00000000000E+00  0.19856468631E+04  0.19856468631E+04  0.50400001928E-02 0. -1.
       -1   -1    0    0    0  501  0.00000000000E+00  0.00000000000E+00 -0.84945435394E+03  0.84945435396E+03  0.50400001928E-02 0.  1.
    10030    2    1    2    0    0  0.00000000000E+00  0.00000000000E+00  0.11361925091E+04  0.28351012170E+04  0.25974729052E+04 0.  0.
        2    1    3    3  502    0 -0.66981647170E+03  0.78231212516E+03  0.14317149883E+04  0.17636536436E+04  0.25500000920E-02 0. -1.
       -2    1    3    3    0  502  0.66981647170E+03 -0.78231212516E+03 -0.29552247915E+03  0.10714475734E+04  0.25500000920E-02 0.  1.
</event>
<event>
 5   0  0.2586775E-06  0.2594390E+04  0.7818609E-02  0.8370109E-01
        2   -1    0    0  501    0  0.00000000000E+00  0.00000000000E+00  0.15474048505E+04  0.15474048505E+04  0.25500000920E-02 0. -1.
       -2   -1    0    0    0  501  0.00000000000E+00  0.00000000000E+00 -0.10874432951E+04  0.10874432951E+04  0.25500000920E-02 0.  1.
    10030    2    1    2    0    0  0.00000000000E+00  0.00000000000E+00  0.45996155537E+03  0.26348481456E+04  0.25943901244E+04 0.  0.
        1    1    3    3  502    0  0.90914410591E+03 -0.21467012191E+03  0.11440658401E+04  0.14769945542E+04  0.50400001928E-02 0. -1.
       -1    1    3    3    0  502 -0.90914410591E+03  0.21467012191E+03 -0.68410428477E+03  0.11578535914E+04  0.50400001928E-02 0.  1.
</event>
<event>
 5   0  0.2820028E-06  0.2599454E+04  0.7818609E-02  0.8368387E-01
        2   -1    0    0  501    0  0.00000000000E+00  0.00000000000E+00  0.25292450786E+04  0.25292450786E+04  0.25500000920E-02 0. -1.
       -2   -1    0    0    0  501  0.00000000000E+00  0.00000000000E+00 -0.66790278479E+03  0.66790278479E+03  0.25500000920E-02 0.  1.
    10030    2    1    2    0    0  0.00000000000E+00  0.00000000000E+00  0.18613422938E+04  0.31971478633E+04  0.25994536590E+04 0.  0.
        3    1    3    3  502    0  0.35051382001E+03 -0.96564217324E+01 -0.60862859210E+03  0.70241153024E+03  0.10100000352E+00 0.  1.
       -3    1    3    3    0  502 -0.35051382001E+03  0.96564217324E+01  0.24699708859E+04  0.24947363331E+04  0.10100000352E+00 0. -1.
</event>
<event>
 5   0  0.2705807E-06  0.2612300E+04  0.7818609E-02  0.8364035E-01
       -2   -1    0    0    0  501  0.00000000000E+00  0.00000000000E+00  0.11138995825E+04  0.11138995825E+04  0.25500000920E-02 0.  1.
        2   -1    0    0  501    0  0.00000000000E+00  0.00000000000E+00 -0.15315814438E+04  0.15315814438E+04  0.25500000920E-02 0. -1.
    10030    2    1    2    0    0  0.00000000000E+00  0.00000000000E+00 -0.41768186136E+03  0.26454810263E+04  0.26123000829E+04 0.  0.
        4    1    3    3  502    0  0.12095025183E+04  0.49308099634E+03 -0.20990654779E+03  0.13229087581E+04  0.12699999809E+01 0. -1.
       -4    1    3    3    0  502 -0.12095025183E+04 -0.49308099634E+03 -0.20777531356E+03  0.13225722682E+04  0.12699999809E+01 0.  1.
</event>
<event>
 5   0  0.1032076E-06  0.2599844E+04  0.7818609E-02  0.8368254E-01
        1   -1    0    0  501    0  0.00000000000E+00  0.00000000000E+00  0.18120373745E+04  0.18120373745E+04  0.50400001928E-02 0.  1.
       -1   -1    0    0    0  501  0.00000000000E+00  0.00000000000E+00 -0.93254025994E+03  0.93254025995E+03  0.50400001928E-02 0. -1.
    10030    2    1    2    0    0  0.00000000000E+00  0.00000000000E+00  0.87949711457E+03  0.27445776345E+04  0.25998444602E+04 0.  0.
        1    1    3    3  502    0 -0.62881524842E+03  0.88969597117E+03  0.11883296592E+04  0.16121708708E+04  0.50400001928E-02 0. -1.
       -1    1    3    3    0  502  0.62881524842E+03 -0.88969597117E+03 -0.30883254460E+03  0.11324067637E+04  0.50400001928E-02 0.  1.
</event>
<event>
 5   0  0.2705807E-06  0.2584995E+04  0.7818609E-02  0.8373316E-01
        2   -1    0    0  501    0  0.00000000000E+00  0.00000000000E+00  0.23011306478E+04  0.23011306478E+04  0.25500000920E-02 0.  1.
       -2   -1    0    0    0  501  0.00000000000E+00  0.00000000000E+00 -0.72596913079E+03  0.72596913079E+03  0.25500000920E-02 0. -1.
    10030    2    1    2    0    0  0.00000000000E+00  0.00000000000E+00  0.15751615170E+04  0.30270997786E+04  0.25849950222E+04 0.  0.
        4    1    3    3  502    0  0.56965646203E+02 -0.12581121270E+04  0.11278986925E+04  0.16906354671E+04  0.12699999809E+01 0.  1.
       -4    1    3    3    0  502 -0.56965646203E+02  0.12581121270E+04  0.44726282452E+03  0.13364643116E+04  0.12699999809E+01 0. -1.
</event>
<event>
 5   0  0.1055179E-06  0.2600772E+04  0.7818609E-02  0.8367939E-01
        1   -1    0    0  501    0  0.00000000000E+00  0.00000000000E+00  0.25507358266E+04  0.25507358266E+04  0.50400001928E-02 0.  1.
       -1   -1    0    0    0  501  0.00000000000E+00  0.00000000000E+00 -0.66294755199E+03  0.66294755201E+03  0.50400001928E-02 0. -1.
    10030    2    1    2    0    0  0.00000000000E+00  0.00000000000E+00  0.18877882746E+04  0.32136833786E+04  0.26007722484E+04 0.  0.
        3    1    3    3  502    0 -0.74154396323E+03 -0.10651625717E+04  0.84392502906E+03  0.15481176371E+04  0.10100000352E+00 0.  1.
       -3    1    3    3    0  502  0.74154396323E+03  0.10651625717E+04  0.10438632456E+04  0.16655657415E+04  0.10100000352E+00 0. -1.
</event>
<event>
 5   0  0.2820028E-06  0.2577052E+04  0.7818609E-02  0.8376038E-01
       -2   -1    0    0    0  501  0.00000000000E+00  0.00000000000E+00  0.85126323070E+03  0.85126323071E+03  0.25500000920E-02 0. -1.
        2   -1    0    0  501    0  0.00000000000E+00  0.00000000000E+00 -0.19503951387E+04  0.19503951387E+04  0.25500000920E-02 0.  1.
    10030    2    1    2    0    0  0.00000000000E+00  0.00000000000E+00 -0.10991319080E+04  0.28016583694E+04  0.25770523215E+04 0.  0.
        3    1    3    3  502    0 -0.33637697090E+03  0.12148676388E+04 -0.83975074962E+03  0.15146729608E+04  0.10100000352E+00 0.  1.
       -3    1    3    3    0  502  0.33637697090E+03 -0.12148676388E+04 -0.25938115833E+03  0.12869854086E+04  0.10100000352E+00 0. -1.
</event>
<event>
 5   0  0.2820028E-06  0.2592298E+04  0.7818609E-02  0.8370822E-01
        2   -1    0    0  501    0  0.00000000000E+00  0.00000000000E+00  0.26850819183E+04  0.26850819183E+04  0.25500000920E-02 0. -1.
       -2   -1    0    0    0  501  0.00000000000E+00  0.00000000000E+00 -0.62567988397E+03  0.62567988398E+03  0.25500000920E-02 0.  1.
    10030    2    1    2    0    0  0.00000000000E+00  0.00000000000E+00  0.20594020343E+04  0.33107618023E+04  0.25922976242E+04 0.  0.
        3    1    3    3  502    0 -0.12011488401E+04 -0.40548207409E+03  0.68504114034E+03  0.14409911945E+04  0.10100000352E+00 0. -1.
       -3    1    3    3    0  502  0.12011488401E+04  0.40548207409E+03  0.13743608940E+04  0.18697706077E+04  0.10100000352E+00 0.  1.
</event>
<event>
 5   0  0.1100104E-06  0.2605613E+04  0.7818609E-02  0.8366297E-01
        1   -1    0    0  501    0  0.00000000000E+00  0.00000000000E+00  0.20060213382E+04  0.20060213382E+04  0.50400001928E-02 0.  1.
       -1   -1    0    0    0  501  0.00000000000E+00  0.00000000000E+00 -0.84610515200E+03  0.84610515202E+03  0.50400001928E-02 0. -1.
    10030    2    1    2    0    0  0.00000000000E+00  0.00000000000E+00  0.11599161862E+04  0.28521264902E+04  0.26056131634E+04 0.  0.
        4    1    3    3  502    0  0.10802104615E+04  0.70844527662E+03  0.76492435207E+03  0.15012861914E+04  0.12699999809E+01 0. -1.
       -4    1    3    3    0  502 -0.10802104615E+04 -0.70844527662E+03  0.39499183411E+03  0.13508402988E+04  0.12699999809E+01 0.  1.
</event>
<event>
 5   0  0.1032076E-06  0.2587248E+04  0.7818609E-02  0.8372546E-01
        1   -1    0    0  501    0  0.00000000000E+00  0.00000000000E+00  0.88547592427E+03  0.88547592428E+03  0.50400001928E-02 0. -1.
       -1   -1    0    0    0  501  0.00000000000E+00  0.00000000000E+00 -0.18899020884E+04  0.18899020884E+04  0.50400001928E-02 0.  1.
    10030    2    1    2    0    0  0.00000000000E+00  0.00000000000E+00 -0.10044261641E+04  0.27753780127E+04  0.25872478030E+04 0.  0.
        1    1    3    3  502    0  0.84964790433E+03 -0.72078779607E+03  0.20286814914E+03  0.11325158252E+04  0.50400001928E-02 0. -1.
       -1    1    3    3    0  502 -0.84964790433E+03  0.72078779607E+03 -0.12072943133E+04  0.16428621875E+04  0.50400001928E-02 0.  1.
</event>
<event>
 5   0  0.2586775E-06  0.2604858E+04  0.7818609E-02  0.8366553E-01
        2   -1    0    0  501    0  0.00000000000E+00  0.00000000000E+00  0.17421767511E+04  0.17421767511E+04  0.25500000920E-02 0.  1.
       -2   -1    0    0    0  501  0.00000000000E+00  0.00000000000E+00 -0.97367895437E+03  0.97367895437E+03  0.25500000920E-02 0. -1.
    10030    2    1    2    0    0  0.00000000000E+00  0.00000000000E+00  0.76849779672E+03  0.27158557055E+04  0.26048576447E+04 0.  0.
        1    1    3    3  502    0 -0.49492150274E+03  0.12045330409E+04  0.36155689041E+03  0.13515067612E+04  0.50400001928E-02 0. -1.
       -1    1    3    3    0  502  0.49492150274E+03 -0.12045330409E+04  0.40694090631E+03  0.13643489443E+04  0.50400001928E-02 0.  1.
</event>
<event>
 5   0  0.1100104E-06  0.2596848E+04  0.7818609E-02  0.8369273E-01
       -1   -1    0    0    0  501  0.00000000000E+00  0.00000000000E+00  0.15843736687E+04  0.15843736687E+04  0.50400001928E-02 0. -1.
        1   -1    0    0  501    0  0.00000000000E+00  0.00000000000E+00 -0.10640831291E+04  0.10640831291E+04  0.50400001928E-02 0.  1.
    10030    2    1    2    0    0  0.00000000000E+00  0.00000000000E+00  0.52029053955E+03  0.26484567978E+04  0.25968483137E+04 0.  0.
        4    1    3    3  502    0 -0.57838363770E+03 -0.37588705034E+03 -0.86175497850E+03  0.11038305861E+04  0.12699999809E+01 0.  1.
       -4    1    3    3    0  502  0.57838363770E+03  0.37588705034E+03  0.13820455181E+04  0.15446262117E+04  0.12699999809E+01 0. -1.
</event>
<event>
 5   0  0.2623368E-06  0.2595727E+04  0.7818609E-02  0.8369654E-01
       -2   -1    0    0    0  501  0.00000000000E+00  0.00000000000E+00  0.88024098959E+03  0.88024098960E+03  0.25500000920E-02 0.  1.
        2   -1    0    0  501    0  0.00000000000E+00  0.00000000000E+00 -0.19136226408E+04  0.19136226408E+04  0.25500000920E-02 0. -1.
    10030    2    1    2    0    0  0.00000000000E+00  0.00000000000E+00 -0.10333816512E+04  0.27938636304E+04  0.25957265550E+04 0.  0.
        5    1    3    3  502    0  0.44189852809E+03  0.95078855670E+03  0.30665309304E+03  0.10923970881E+04  0.46999998093E+01 0.  1.
       -5    1    3    3    0  502 -0.44189852809E+03 -0.95078855670E+03 -0.13400347443E+04  0.17014665423E+04  0.46999998093E+01 0. -1.
</event>
<event>
 5   0  0.1122628E-06  0.2603039E+04  0.7818609E-02  0.8367170E-01
       -1   -1    0    0    0  501  0.00000000000E+00  0.00000000000E+00  0.96754183732E+03  0.96754183733E+03  0.50400001928E-02 0. -1.
        1   -1    0    0  501    0  0.00000000000E+00  0.00000000000E+00 -0.17507803224E+04  0.17507803224E+04  0.50400001928E-02 0.  1.
    10030    2    1    2    0    0  0.00000000000E+00  0.00000000000E+00 -0.78323848511E+03  0.27183221598E+04  0.26030391545E+04 0.  0.
        2    1    3    3  502    0  0.36167508691E+03 -0.11771294749E+04 -0.83159859705E+03  0.14859336781E+04  0.25500000920E-02 0. -1.
       -2    1    3    3    0  502 -0.36167508691E+03  0.11771294749E+04  0.48360111940E+02  0.12323884816E+04  0.25500000920E-02 0.  1.
</event>
<event>
 5   0  0.1088757E-06  0.2540392E+04  0.7818609E-02  0.8388735E-01
        1   -1    0    0  501    0  0.00000000000E+00  0.00000000000E+00  0.15810755102E+04  0.15810755102E+04  0.50400001928E-02 0.  1.
       -1   -1    0    0    0  501  0.00000000000E+00  0.00000000000E+00 -0.10204431669E+04  0.10204431669E+04  0.50400001928E-02 0. -1.
    10030    2    1    2    0    0  0.00000000000E+00  0.00000000000E+00  0.56063234326E+03  0.26015186771E+04  0.25403918601E+04 0.  0.
        5    1    3    3  502    0 -0.46974459270E+03 -0.30126198880E+03  0.14488049066E+04  0.15525709374E+04  0.46999998093E+01 0.  1.
       -5    1    3    3    0  502  0.46974459270E+03  0.30126198880E+03 -0.88817256336E+03  0.10489477397E+04  0.46999998093E+01 0. -1.
</event>
<event>
 5   0  0.1032076E-06  0.2597657E+04  0.7818609E-02  0.8368997E-01
        1   -1    0    0  501    0  0.00000000000E+00  0.00000000000E+00  0.14611683442E+04  0.14611683442E+04  0.50400001928E-02 0.  1.
       -1   -1    0    0    0  501  0.00000000000E+00  0.00000000000E+00 -0.11545253272E+04  0.11545253272E+04  0.50400001928E-02 0. -1.
    10030    2    1    2    0    0  0.00000000000E+00  0.00000000000E+00  0.30664301696E+03  0.26156936714E+04  0.25976572989E+04 0.  0.
        1    1    3    3  502    0 -0.55063334220E+03  0.11740266907E+04  0.22745409922E+03  0.13165375480E+04  0.50400001928E-02 0.  1.
       -1    1    3    3    0  502  0.55063334220E+03 -0.11740266907E+04  0.79188917747E+02  0.12991561233E+04  0.50400001928E-02 0. -1.
</event>
<event>
 5   0  0.2623368E-06  0.2601792E+04  0.7818609E-02  0.8367593E-01
       -2   -1    0    0    0  501  0.00000000000E+00  0.00000000000E+00  0.70416867866E+03  0.70416867866E+03  0.25500000920E-02 0.  1.
        2   -1    0    0  501    0  0.00000000000E+00  0.00000000000E+00 -0.24033025774E+04  0.24033025774E+04  0.25500000920E-02 0. -1.
    10030    2    1    2    0    0  0.00000000000E+00  0.00000000000E+00 -0.16991338988E+04  0.31074712561E+04  0.26017919981E+04 0.  0.
        5    1    3    3  502    0  0.74942651106E+03 -0.10525843243E+04 -0.10296516514E+04  0.16522041244E+04  0.46999998093E+01 0. -1.
       -5    1    3    3    0  502 -0.74942651106E+03  0.10525843243E+04 -0.66948224734E+03  0.14552671317E+04  0.46999998093E+01 0.  1.
</event>
<event>
 5   0  0.1122628E-06  0.2590788E+04  0.7818609E-02  0.8371337E-01
       -1   -1    0    0    0  501  0.00000000000E+00  0.00000000000E+00  0.10899288881E+04  0.10899288881E+04  0.50400001928E-02 0. -1.
        1   -1    0    0  501    0  0.00000000000E+00  0.00000000000E+00 -0.15395919397E+04  0.15395919397E+04  0.50400001928E-02 0.  1.
    10030    2    1    2    0    0  0.00000000000E+00  0.00000000000E+00 -0.44966305163E+03  0.26295208278E+04  0.25907880894E+04 0.  0.
        2    1    3    3  502    0 -0.63225783034E+03  0.10127910239E+04 -0.73488828059E+03  0.14019830267E+04  0.25500000920E-02 0.  1.
       -2    1    3    3    0  502  0.63225783034E+03 -0.10127910239E+04  0.28522522895E+03  0.12275378012E+04  0.25500000920E-02 0. -1.
</event>
<event>
 5   0  0.1055179E-06  0.2604173E+04  0.7818609E-02  0.8366785E-01
       -1   -1    0    0    0  501  0.00000000000E+00  0.00000000000E+00  0.12634545770E+04  0.12634545770E+04  0.50400001928E-02 0.  1.
        1   -1    0    0  501    0  0.00000000000E+00  0.00000000000E+00 -0.13418999029E+04  0.13418999029E+04  0.50400001928E-02 0. -1.
    10030    2    1    2    0    0  0.00000000000E+00  0.00000000000E+00 -0.78445325838E+02  0.26053544799E+04  0.26041732463E+04 0.  0.
        3    1    3    3  502    0  0.65184696959E+03 -0.64470689671E+03  0.88579291435E+03  0.12748256946E+04  0.10100000352E+00 0.  1.
       -3    1    3    3    0  502 -0.65184696959E+03  0.64470689671E+03 -0.96423824018E+03  0.13305287853E+04  0.10100000352E+00 0. -1.
</event>
<event>
 5   0  0.2820028E-06  0.2620278E+04  0.7818609E-02  0.8361346E-01
        2   -1    0    0  501    0  0.00000000000E+00  0.00000000000E+00  0.12906571356E+04  0.12906571356E+04  0.25500000920E-02 0.  1.
       -2   -1    0    0    0  501  0.00000000000E+00  0.00000000000E+00 -0.13299150640E+04  0.13299150640E+04  0.25500000920E-02 0. -1.
    10030    2    1    2    0    0  0.00000000000E+00  0.00000000000E+00 -0.39257928434E+02  0.26205721996E+04  0.26202781280E+04 0.  0.
        3    1    3    3  502    0  0.20762018093E+03 -0.55524820985E+03  0.11488589726E+04  0.12927813671E+04  0.10100000352E+00 0.  1.
       -3    1    3    3    0  502 -0.20762018093E+03  0.55524820985E+03 -0.11881169010E+04  0.13277908325E+04  0.10100000352E+00 0. -1.
</event>
<event>
 5   0  0.2623368E-06  0.2600338E+04  0.7818609E-02  0.8368087E-01
       -2   -1    0    0    0  501  0.00000000000E+00  0.00000000000E+00  0.78598154282E+03  0.78598154283E+03  0.25500000920E-02 0.  1.
        2   -1    0    0  501    0  0.00000000000E+00  0.00000000000E+00 -0.21507360406E+04  0.21507360406E+04  0.25500000920E-02 0. -1.
    10030    2    1    2    0    0  0.00000000000E+00  0.00000000000E+00 -0.13647544977E+04  0.29367175834E+04  0.26003375407E+04 0.  0.
        5    1    3    3  502    0 -0.21028987409E+03  0.76965427431E+02  0.76402900818E+03  0.79618334792E+03  0.46999998093E+01 0.  1.
       -5    1    3    3    0  502  0.21028987409E+03 -0.76965427431E+02 -0.21287835059E+04  0.21405342355E+04  0.46999998093E+01 0. -1.
</event>
<event>
 5   0  0.2586775E-06  0.2600554E+04  0.7818609E-02  0.8368013E-01
        2   -1    0    0  501    0  0.00000000000E+00  0.00000000000E+00  0.14116449989E+04  0.14116449989E+04  0.25500000920E-02 0. -1.
       -2   -1    0    0    0  501  0.00000000000E+00  0.00000000000E+00 -0.11976952987E+04  0.11976952987E+04  0.25500000920E-02 0.  1.
    10030    2    1    2    0    0  0.00000000000E+00  0.00000000000E+00  0.21394970025E+03  0.26093402976E+04  0.26005542322E+04 0.  0.
        1    1    3    3  502    0 -0.12214473891E+04 -0.12161746219E+03  0.53737166916E+03  0.13399600152E+04  0.50400001928E-02 0. -1.
       -1    1    3    3    0  502  0.12214473891E+04  0.12161746219E+03 -0.32342196891E+03  0.12693802824E+04  0.50400001928E-02 0.  1.
</event>
<event>
 5   0  0.1100104E-06  0.2607787E+04  0.7818609E-02  0.8365561E-01
       -1   -1    0    0    0  501  0.00000000000E+00  0.00000000000E+00  0.21527928186E+04  0.21527928186E+04  0.50400001928E-02 0.  1.
        1   -1    0    0  501    0  0.00000000000E+00  0.00000000000E+00 -0.78973614675E+03  0.78973614676E+03  0.50400001928E-02 0. -1.
    10030    2    1    2    0    0  0.00000000000E+00  0.00000000000E+00  0.13630566719E+04  0.29425289654E+04  0.26077870353E+04 0.  0.
        4    1    3    3  502    0 -0.84773556644E+03  0.82909580080E+03  0.12934309326E+04  0.17547138308E+04  0.12699999809E+01 0.  1.
       -4    1    3    3    0  502  0.84773556644E+03 -0.82909580080E+03  0.69625739230E+02  0.11878151346E+04  0.12699999809E+01 0. -1.
</event>
<event>
 5   0  0.1055179E-06  0.2597615E+04  0.7818609E-02  0.8369012E-01
       -1   -1    0    0    0  501  0.00000000000E+00  0.00000000000E+00  0.11867098542E+04  0.11867098542E+04  0.50400001928E-02 0.  1.
        1   -1    0    0  501    0  0.00000000000E+00  0.00000000000E+00 -0.14214942400E+04  0.14214942400E+04  0.50400001928E-02 0. -1.
    10030    2    1    2    0    0  0.00000000000E+00  0.00000000000E+00 -0.23478438583E+03  0.26082040942E+04  0.25976152312E+04 0.  0.
        3    1    3    3  502    0 -0.12409380015E+04  0.22572463641E+03  0.19374591235E+03  0.12760941281E+04  0.10100000352E+00 0.  1.
       -3    1    3    3    0  502  0.12409380015E+04 -0.22572463641E+03 -0.42853029818E+03  0.13321099661E+04  0.10100000352E+00 0. -1.
</event>
<event>
 5   0  0.1032076E-06  0.2593250E+04  0.7818609E-02  0.8370498E-01
       -1   -1    0    0    0  501  0.00000000000E+00  0.00000000000E+00  0.18833277363E+04  0.18833277363E+04  0.50400001928E-02 0.  1.
        1   -1    0    0  501    0  0.00000000000E+00  0.00000000000E+00 -0.89269439252E+03  0.89269439254E+03  0.50400001928E-02 0. -1.
    10030    2    1    2    0    0  0.00000000000E+00  0.00000000000E+00  0.99063334376E+03  0.27760221288E+04  0.25932497832E+04 0.  0.
        1    1    3    3  502    0 -0.32417533774E+03 -0.72342022987E+03  0.15936989017E+04  0.17799726593E+04  0.50400001928E-02 0.  1.
       -1    1    3    3    0  502  0.32417533774E+03  0.72342022987E+03 -0.60306555792E+03  0.99604946953E+03  0.50400001928E-02 0. -1.
</event>
<event>
 5   0  0.2746631E-06  0.2601473E+04  0.7818609E-02  0.8367701E-01
        2   -1    0    0  501    0  0.00000000000E+00  0.00000000000E+00  0.30247966663E+04  0.30247966663E+04  0.25500000920E-02 0.  1.
       -2   -1    0    0    0  501  0.00000000000E+00  0.00000000000E+00 -0.55934840314E+03  0.55934840314E+03  0.25500000920E-02 0. -1.
    10030    2    1    2    0    0  0.00000000000E+00  0.00000000000E+00  0.24654482632E+04  0.35841450695E+04  0.26014728022E+04 0.  0.
        2    1    3    3  502    0  0.54654841754E+03  0.40123991043E+03  0.27620782104E+04  0.28440788806E+04  0.25500000920E-02 0.  1.
       -2    1    3    3    0  502 -0.54654841754E+03 -0.40123991043E+03 -0.29662994719E+03  0.74006618894E+03  0.25500000920E-02 0. -1.
</event>
<event>
 5   0  0.1032076E-06  0.2601078E+04  0.7818609E-02  0.8367835E-01
       -1   -1    0    0    0  501  0.00000000000E+00  0.00000000000E+00  0.10773440653E+04  0.10773440653E+04  0.50400001928E-02 0.  1.
        1   -1    0    0  501    0  0.00000000000E+00  0.00000000000E+00 -0.15699737846E+04  0.15699737846E+04  0.50400001928E-02 0. -1.
    10030    2    1    2    0    0  0.00000000000E+00  0.00000000000E+00 -0.49262971929E+03  0.26473178499E+04  0.26010781915E+04 0.  0.
        1    1    3    3  502    0 -0.58976829403E+03  0.99233323123E+03  0.36337530614E+03  0.12102039066E+04  0.50400001928E-02 0.  1.
       -1    1    3    3    0  502  0.58976829403E+03 -0.99233323123E+03 -0.85600502543E+03  0.14371139433E+04  0.50400001928E-02 0. -1.
</event>
<event>
 5   0  0.9197000E-07  0.2598107E+04  0.7818609E-02  0.8368844E-01
        4   -1    0    0  501    0  0.00000000000E+00  0.00000000000E+00  0.19387990824E+04  0.19387994984E+04  0.12699999809E+01 0. -1.
       -4   -1    0    0    0  501  0.00000000000E+00  0.00000000000E+00 -0.87040393111E+03  0.87040485763E+03  0.12699999809E+01 0.  1.
    10030    2    1    2    0    0  0.00000000000E+00  0.00000000000E+00  0.10683951513E+04  0.28092043560E+04  0.25981071792E+04 0.  0.
        5    1    3    3  502    0  0.55855463773E+03  0.10586012385E+04 -0.11698178842E+02  0.11969873863E+04  0.46999998093E+01 0.  1.
       -5    1    3    3    0  502 -0.55855463773E+03 -0.10586012385E+04  0.10800933302E+04  0.16122169697E+04  0.46999998093E+01 0. -1.
</event>
<event>
 5   0  0.1100104E-06  0.2594618E+04  0.7818609E-02  0.8370032E-01
        1   -1    0    0  501    0  0.00000000000E+00  0.00000000000E+00  0.12941755914E+04  0.12941755914E+04  0.50400001928E-02 0. -1.
       -1   -1    0    0    0  501  0.00000000000E+00  0.00000000000E+00 -0.13004497039E+04  0.13004497039E+04  0.50400001928E-02 0.  1.
    10030    2    1    2    0    0  0.00000000000E+00  0.00000000000E+00 -0.62741124731E+01  0.25946252953E+04  0.25946177095E+04 0.  0.
        4    1    3    3  502    0 -0.52309888205E+03  0.53694204369E+02  0.11828230476E+04  0.12944448551E+04  0.12699999809E+01 0. -1.
       -4    1    3    3    0  502  0.52309888205E+03 -0.53694204369E+02 -0.11890971601E+04  0.13001804402E+04  0.12699999809E+01 0.  1.
</event>
<event>
 5   0  0.2586775E-06  0.2600207E+04  0.7818609E-02  0.8368131E-01
       -2   -1    0    0    0  501  0.00000000000E+00  0.00000000000E+00  0.12074809202E+04  0.12074809202E+04  0.25500000920E-02 0. -1.
        2   -1    0    0  501    0  0.00000000000E+00  0.00000000000E+00 -0.13998306259E+04  0.13998306259E+04  0.25500000920E-02 0.  1.
    10030    2    1    2    0    0  0.00000000000E+00  0.00000000000E+00 -0.19234970570E+03  0.26073115462E+04  0.26002067397E+04 0.  0.
        1    1    3    3  502    0 -0.91088214697E+03  0.15998073804E+03 -0.10124378182E+04  0.13712514204E+04  0.50400001928E-02 0.  1.
       -1    1    3    3    0  502  0.91088214697E+03 -0.15998073804E+03  0.82008811249E+03  0.12360601258E+04  0.50400001928E-02 0. -1.
</event>
<event>
 5   0  0.2820028E-06  0.2596298E+04  0.7818609E-02  0.8369460E-01
       -2   -1    0    0    0  501  0.00000000000E+00  0.00000000000E+00  0.10282049144E+04  0.10282049144E+04  0.25500000920E-02 0. -1.
        2   -1    0    0  501    0  0.00000000000E+00  0.00000000000E+00 -0.16389643043E+04  0.16389643043E+04  0.25500000920E-02 0.  1.
    10030    2    1    2    0    0  0.00000000000E+00  0.00000000000E+00 -0.61075938993E+03  0.26671692186E+04  0.25962982511E+04 0.  0.
        3    1    3    3  502    0 -0.12456758912E+04 -0.17672592209E+03 -0.63387491838E+03  0.14088072614E+04  0.10100000352E+00 0.  1.
       -3    1    3    3    0  502  0.12456758912E+04  0.17672592209E+03  0.23115528450E+02  0.12583619572E+04  0.10100000352E+00 0. -1.
</event>
<event>
 5   0  0.1122628E-06  0.2624323E+04  0.7818609E-02  0.8359986E-01
       -1   -1    0    0    0  501  0.00000000000E+00  0.00000000000E+00  0.12188084866E+04  0.12188084867E+04  0.50400001928E-02 0.  1.
        1   -1    0    0  501    0  0.00000000000E+00  0.00000000000E+00 -0.14126644272E+04  0.14126644273E+04  0.50400001928E-02 0. -1.
    10030    2    1    2    0    0  0.00000000000E+00  0.00000000000E+00 -0.19385594060E+03  0.26314729139E+04  0.26243226880E+04 0.  0.
        2    1    3    3  502    0  0.67977987006E+03  0.41270004355E+03 -0.11434887853E+04  0.13928347353E+04  0.25500000920E-02 0. -1.
       -2    1    3    3    0  502 -0.67977987006E+03 -0.41270004355E+03  0.94963284473E+03  0.12386381786E+04  0.25500000920E-02 0.  1.
</event>
<event>
 5   0  0.9197000E-07  0.2618821E+04  0.7818609E-02  0.8361836E-01
       -3   -1    0    0    0  501  0.00000000000E+00  0.00000000000E+00  0.10407183269E+04  0.10407183318E+04  0.10100000352E+00 0. -1.
        3   -1    0    0  501    0  0.00000000000E+00  0.00000000000E+00 -0.16474735164E+04  0.16474735195E+04  0.10100000352E+00 0.  1.
    10030    2    1    2    0    0  0.00000000000E+00  0.00000000000E+00 -0.60675518957E+03  0.26881918513E+04  0.26188210266E+04 0.  0.
        5    1    3    3  502    0 -0.46626062064E+03  0.39457302528E+02  0.95195547238E+03  0.10607531082E+04  0.46999998093E+01 0. -1.
       -5    1    3    3    0  502  0.46626062064E+03 -0.39457302528E+02 -0.15587106619E+04  0.16274387432E+04  0.46999998093E+01 0.  1.
</event>
<event>
 5   0  0.1088757E-06  0.2601253E+04  0.7818609E-02  0.8367776E-01
        1   -1    0    0  501    0  0.00000000000E+00  0.00000000000E+00  0.12948095026E+04  0.12948095027E+04  0.50400001928E-02 0. -1.
       -1   -1    0    0    0  501  0.00000000000E+00  0.00000000000E+00 -0.13064700242E+04  0.13064700242E+04  0.50400001928E-02 0.  1.
    10030    2    1    2    0    0  0.00000000000E+00  0.00000000000E+00 -0.11660521591E+02  0.26012795269E+04  0.26012533920E+04 0.  0.
        5    1    3    3  502    0  0.48289022798E+03 -0.73032292122E+02  0.11996241029E+04  0.12952361817E+04  0.46999998093E+01 0. -1.
       -5    1    3    3    0  502 -0.48289022798E+03  0.73032292122E+02 -0.12112846245E+04  0.13060433452E+04  0.46999998093E+01 0.  1.
</event>
<event>
 5   0  0.2623368E-06  0.2605471E+04  0.7818609E-02  0.8366345E-01
        2   -1    0    0  501    0  0.00000000000E+00  0.00000000000E+00  0.11658231718E+04  0.11658231718E+04  0.25500000920E-02 0.  1.
       -2   -1    0    0    0  501  0.00000000000E+00  0.00000000000E+00 -0.14557262057E+04  0.14557262057E+04  0.25500000920E-02 0. -1.
    10030    2    1    2    0    0  0.00000000000E+00  0.00000000000E+00 -0.28990303390E+03  0.26215493774E+04  0.26054706617E+04 0.  0.
        5    1    3    3  502    0  0.32303689671E+03  0.10627912414E+04  0.53985065278E+03  0.12350461030E+04  0.46999998093E+01 0.  1.
       -5    1    3    3    0  502 -0.32303689671E+03 -0.10627912414E+04 -0.82975368668E+03  0.13865032744E+04  0.46999998093E+01 0. -1.
</event>
<event>
 5   0  0.2586775E-06  0.2601354E+04  0.7818609E-02  0.8367741E-01
       -2   -1    0    0    0  501  0.00000000000E+00  0.00000000000E+00  0.13252082015E+04  0.13252082015E+04  0.25500000920E-02 0. -1.
        2   -1    0    0  501    0  0.00000000000E+00  0.00000000000E+00 -0.12766000006E+04  0.12766000006E+04  0.25500000920E-02 0.  1.
    10030    2    1    2    0    0  0.00000000000E+00  0.00000000000E+00  0.48608200854E+02  0.26018082021E+04  0.26013541019E+04 0.  0.
        1    1    3    3  502    0 -0.63557312065E+03 -0.38608312278E+03  0.10916114707E+04  0.13208440378E+04  0.50400001928E-02 0. -1.
       -1    1    3    3    0  502  0.63557312065E+03  0.38608312278E+03 -0.10430032698E+04  0.12809641643E+04  0.50400001928E-02 0.  1.
</event>
<event>
 5   0  0.1088757E-06  0.2603427E+04  0.7818609E-02  0.8367038E-01
       -1   -1    0    0    0  501  0.00000000000E+00  0.00000000000E+00  0.13962736107E+04  0.13962736107E+04  0.50400001928E-02 0.  1.
        1   -1    0    0  501    0  0.00000000000E+00  0.00000000000E+00 -0.12135568672E+04  0.12135568672E+04  0.50400001928E-02 0. -1.
    10030    2    1    2    0    0  0.00000000000E+00  0.00000000000E+00  0.18271674344E+03  0.26098304779E+04  0.26034265334E+04 0.  0.
        5    1    3    3  502    0  0.41632027724E+03 -0.25557618637E+03  0.13008890035E+04  0.13895956425E+04  0.46999998093E+01 0.  1.
       -5    1    3    3    0  502 -0.41632027724E+03  0.25557618637E+03 -0.11181722601E+04  0.12202348354E+04  0.46999998093E+01 0. -1.
</event>
<event>
 5   0  0.1100104E-06  0.2605851E+04  0.7818609E-02  0.8366217E-01
        1   -1    0    0  501    0  0.00000000000E+00  0.00000000000E+00  0.14069595810E+04  0.14069595810E+04  0.50400001928E-02 0.  1.
       -1   -1    0    0    0  501  0.00000000000E+00  0.00000000000E+00 -0.12065838597E+04  0.12065838597E+04  0.50400001928E-02 0. -1.
    10030    2    1    2    0    0  0.00000000000E+00  0.00000000000E+00  0.20037572129E+03  0.26135434406E+04  0.26058508949E+04 0.  0.
        4    1    3    3  502    0 -0.89073712316E+03 -0.90995112735E+03  0.37702702450E+03  0.13279964860E+04  0.12699999809E+01 0.  1.
       -4    1    3    3    0  502  0.89073712316E+03  0.90995112735E+03 -0.17665130321E+03  0.12855469546E+04  0.12699999809E+01 0. -1.
</event>
<event>
 5   0  0.2705807E-06  0.2598824E+04  0.7818609E-02  0.8368601E-01
       -2   -1    0    0    0  501  0.00000000000E+00  0.00000000000E+00  0.63679801320E+03  0.63679801321E+03  0.25500000920E-02 0. -1.
        2   -1    0    0  501    0  0.00000000000E+00  0.00000000000E+00 -0.26515026315E+04  0.26515026315E+04  0.25500000920E-02 0.  1.
    10030    2    1    2    0    0  0.00000000000E+00  0.00000000000E+00 -0.20147046183E+04  0.32883006447E+04  0.25988240477E+04 0.  0.
        4    1    3    3  502    0  0.16151074673E+03 -0.25014512682E+03 -0.26077542658E+04  0.26246985026E+04  0.12699999809E+01 0.  1.
       -4    1    3    3    0  502 -0.16151074673E+03  0.25014512682E+03  0.59304964748E+03  0.66360214215E+03  0.12699999809E+01 0. -1.
</event>
<event>
 5   0  0.2586775E-06  0.2600413E+04  0.7818609E-02  0.8368061E-01
        2   -1    0    0  501    0  0.00000000000E+00  0.00000000000E+00  0.14319439542E+04  0.14319439542E+04  0.25500000920E-02 0. -1.
       -2   -1    0    0    0  501  0.00000000000E+00  0.00000000000E+00 -0.11805887794E+04  0.11805887794E+04  0.25500000920E-02 0.  1.
    10030    2    1    2    0    0  0.00000000000E+00  0.00000000000E+00  0.25135517486E+03  0.26125327336E+04  0.26004130173E+04 0.  0.
        1    1    3    3  502    0 -0.38888393830E+02  0.12880759289E+04 -0.48001076704E+02  0.12895565165E+04  0.50400001928E-02 0. -1.
       -1    1    3    3    0  502  0.38888393830E+02 -0.12880759289E+04  0.29935625156E+03  0.13229762172E+04  0.50400001928E-02 0.  1.
</event>
<event>
 5   0  0.2623368E-06  0.2601168E+04  0.7818609E-02  0.8367805E-01
        2   -1    0    0  501    0  0.00000000000E+00  0.00000000000E+00  0.11913796742E+04  0.11913796742E+04  0.25500000920E-02 0. -1.
       -2   -1    0    0    0  501  0.00000000000E+00  0.00000000000E+00 -0.14197981240E+04  0.14197981240E+04  0.25500000920E-02 0.  1.
    10030    2    1    2    0    0  0.00000000000E+00  0.00000000000E+00 -0.22841844978E+03  0.26111777981E+04  0.26011679118E+04 0.  0.
        5    1    3    3  502    0 -0.28184137604E+03 -0.10860232412E+04  0.54605701469E+03  0.12478306756E+04  0.46999998093E+01 0. -1.
       -5    1    3    3    0  502  0.28184137604E+03  0.10860232412E+04 -0.77447546446E+03  0.13633471226E+04  0.46999998093E+01 0.  1.
</event>
<event>
 5   0  0.2623368E-06  0.2601484E+04  0.7818609E-02  0.8367697E-01
        2   -1    0    0  501    0  0.00000000000E+00  0.00000000000E+00  0.16580447506E+04  0.16580447506E+04  0.25500000920E-02 0. -1.
       -2   -1    0    0    0  501  0.00000000000E+00  0.00000000000E+00 -0.10204366463E+04  0.10204366463E+04  0.25500000920E-02 0.  1.
    10030    2    1    2    0    0  0.00000000000E+00  0.00000000000E+00  0.63760810437E+03  0.26784813969E+04  0.26014839033E+04 0.  0.
        5    1    3    3  502    0 -0.70623605844E+03  0.36949137702E+03  0.13771453195E+04  0.15911771017E+04  0.46999998093E+01 0. -1.
       -5    1    3    3    0  502  0.70623605844E+03 -0.36949137702E+03 -0.73953721511E+03  0.10873042952E+04  0.46999998093E+01 0.  1.
</event>
<event>
 5   0  0.2623368E-06  0.2587882E+04  0.7818609E-02  0.8372329E-01
        2   -1    0    0  501    0  0.00000000000E+00  0.00000000000E+00  0.16003477737E+04  0.16003477737E+04  0.25500000920E-02 0. -1.
       -2   -1    0    0    0  501  0.00000000000E+00  0.00000000000E+00 -0.10461994681E+04  0.10461994681E+04  0.25500000920E-02 0.  1.
    10030    2    1    2    0    0  0.00000000000E+00  0.00000000000E+00  0.55414830558E+03  0.26465472418E+04  0.25878817512E+04 0.  0.
        5    1    3    3  502    0 -0.11401714035E+04 -0.22105665683E+02  0.90231029029E+03  0.14541889285E+04  0.46999998093E+01 0. -1.
       -5    1    3    3    0  502  0.11401714035E+04  0.22105665683E+02 -0.34816198470E+03  0.11923583133E+04  0.46999998093E+01 0.  1.
</event>
<event>
 5   0  0.1088757E-06  0.2604938E+04  0.7818609E-02  0.8366526E-01
        1   -1    0    0  501    0  0.00000000000E+00  0.00000000000E+00  0.15519517679E+04  0.15519517679E+04  0.50400001928E-02 0.  1.
       -1   -1    0    0    0  501  0.00000000000E+00  0.00000000000E+00 -0.10930912479E+04  0.10930912479E+04  0.50400001928E-02 0. -1.
    10030    2    1    2    0    0  0.00000000000E+00  0.00000000000E+00  0.45886052006E+03  0.26450430158E+04  0.26049375383E+04 0.  0.
        5    1    3    3  502    0  0.37156746699E+03 -0.11924825975E+04 -0.14547735024E+03  0.12574827543E+04  0.46999998093E+01 0. -1.
       -5    1    3    3    0  502 -0.37156746699E+03  0.11924825975E+04  0.60433787030E+03  0.13875602615E+04  0.46999998093E+01 0.  1.
</event>
<event>
 5   0  0.2586775E-06  0.2610433E+04  0.7818609E-02  0.8364666E-01
        2   -1    0    0  501    0  0.00000000000E+00  0.00000000000E+00  0.13257841646E+04  0.13257841646E+04  0.25500000920E-02 0.  1.
       -2   -1    0    0    0  501  0.00000000000E+00  0.00000000000E+00 -0.12849682441E+04  0.12849682441E+04  0.25500000920E-02 0. -1.
    10030    2    1    2    0    0  0.00000000000E+00  0.00000000000E+00  0.40815920435E+02  0.26107524087E+04  0.26104333357E+04 0.  0.
        1    1    3    3  502    0 -0.56547261743E+03  0.74016429226E+03 -0.89402764022E+03  0.12910801223E+04  0.50400001928E-02 0. -1.
       -1    1    3    3    0  502  0.56547261743E+03 -0.74016429226E+03  0.93484356066E+03  0.13196722864E+04  0.50400001928E-02 0.  1.
</event>
<event>
 5   0  0.1122628E-06  0.2599081E+04  0.7818609E-02  0.8368513E-01
       -1   -1    0    0    0  501  0.00000000000E+00  0.00000000000E+00  0.90080642304E+03  0.90080642306E+03  0.50400001928E-02 0. -1.
        1   -1    0    0  501    0  0.00000000000E+00  0.00000000000E+00 -0.18747710436E+04  0.18747710436E+04  0.50400001928E-02 0.  1.
    10030    2    1    2    0    0  0.00000000000E+00  0.00000000000E+00 -0.97396462053E+03  0.27755774666E+04  0.25990812206E+04 0.  0.
        2    1    3    3  502    0 -0.67884982155E+03 -0.88831950655E+03 -0.11944312528E+04  0.16360362599E+04  0.25500000920E-02 0.  1.
       -2    1    3    3    0  502  0.67884982155E+03  0.88831950655E+03  0.22046663228E+03  0.11395412068E+04  0.25500000920E-02 0. -1.
</event>
<event>
 5   0  0.1122628E-06  0.2596667E+04  0.7818609E-02  0.8369334E-01
        1   -1    0    0  501    0  0.00000000000E+00  0.00000000000E+00  0.27858631266E+04  0.27858631266E+04  0.50400001928E-02 0. -1.
       -1   -1    0    0    0  501  0.00000000000E+00  0.00000000000E+00 -0.60508002367E+03  0.60508002369E+03  0.50400001928E-02 0.  1.
    10030    2    1    2    0    0  0.00000000000E+00  0.00000000000E+00  0.21807831030E+04  0.33909431503E+04  0.25966671921E+04 0.  0.
        2    1    3    3  502    0  0.45866642609E+03  0.56158466571E+03 -0.31603754690E+03  0.79096899954E+03  0.25500000920E-02 0.  1.
       -2    1    3    3    0  502 -0.45866642609E+03 -0.56158466571E+03  0.24968206498E+04  0.25999741508E+04  0.25500000920E-02 0. -1.
</event>
<event>
 5   0  0.1055179E-06  0.2600586E+04  0.7818609E-02  0.8368002E-01
        1   -1    0    0  501    0  0.00000000000E+00  0.00000000000E+00  0.90248378375E+03  0.90248378377E+03  0.50400001928E-02 0. -1.
       -1   -1    0    0    0  501  0.00000000000E+00  0.00000000000E+00 -0.18734534788E+04  0.18734534788E+04  0.50400001928E-02 0.  1.
    10030    2    1    2    0    0  0.00000000000E+00  0.00000000000E+00 -0.97096969506E+03  0.27759372626E+04  0.26005856143E+04 0.  0.
        3    1    3    3  502    0 -0.95423288514E+03  0.43223425999E+03  0.33676336367E+03  0.11003619531E+04  0.10100000352E+00 0. -1.
       -3    1    3    3    0  502  0.95423288514E+03 -0.43223425999E+03 -0.13077330587E+04  0.16755753095E+04  0.10100000352E+00 0.  1.
</event>
<event>
 5   0  0.2586775E-06  0.2565578E+04  0.7818609E-02  0.8379988E-01
       -2   -1    0    0    0  501  0.00000000000E+00  0.00000000000E+00  0.12710710327E+04  0.12710710327E+04  0.25500000920E-02 0. -1.
        2   -1    0    0  501    0  0.00000000000E+00  0.00000000000E+00 -0.12946151055E+04  0.12946151055E+04  0.25500000920E-02 0.  1.
    10030    2    1    2    0    0  0.00000000000E+00  0.00000000000E+00 -0.23544072794E+02  0.25656861383E+04  0.25655781096E+04 0.  0.
        1    1    3    3  502    0 -0.13242776573E+03 -0.67499618508E+03 -0.10945875931E+04  0.12927795489E+04  0.50400001928E-02 0.  1.
       -1    1    3    3    0  502  0.13242776573E+03  0.67499618508E+03  0.10710435203E+04  0.12729065894E+04  0.50400001928E-02 0. -1.
</event>
<event>
 5   0  0.1100104E-06  0.2598123E+04  0.7818609E-02  0.8368839E-01
       -1   -1    0    0    0  501  0.00000000000E+00  0.00000000000E+00  0.12214581766E+04  0.12214581766E+04  0.50400001928E-02 0.  1.
        1   -1    0    0  501    0  0.00000000000E+00  0.00000000000E+00 -0.13815947700E+04  0.13815947700E+04  0.50400001928E-02 0. -1.
    10030    2    1    2    0    0  0.00000000000E+00  0.00000000000E+00 -0.16013659340E+03  0.26030529466E+04  0.25981225749E+04 0.  0.
        4    1    3    3  502    0 -0.71211444859E+03 -0.48426898051E+03  0.89436935077E+03  0.12415802760E+04  0.12699999809E+01 0.  1.
       -4    1    3    3    0  502  0.71211444859E+03  0.48426898051E+03 -0.10545059442E+04  0.13614726705E+04  0.12699999809E+01 0. -1.
</event>
<event>
 5   0  0.1100104E-06  0.2600832E+04  0.7818609E-02  0.8367919E-01
       -1   -1    0    0    0  501  0.00000000000E+00  0.00000000000E+00  0.11835005142E+04  0.11835005142E+04  0.50400001928E-02 0. -1.
        1   -1    0    0  501    0  0.00000000000E+00  0.00000000000E+00 -0.14288811736E+04  0.14288811736E+04  0.50400001928E-02 0.  1.
    10030    2    1    2    0    0  0.00000000000E+00  0.00000000000E+00 -0.24538065939E+03  0.26123816879E+04  0.26008318698E+04 0.  0.
        4    1    3    3  502    0 -0.38667211273E+03 -0.11471270307E+04 -0.59984120839E+03  0.13510095616E+04  0.12699999809E+01 0.  1.
       -4    1    3    3    0  502  0.38667211273E+03  0.11471270307E+04  0.35446054901E+03  0.12613721263E+04  0.12699999809E+01 0. -1.
</event>
<event>
 5   0  0.1088757E-06  0.2605005E+04  0.7818609E-02  0.8366503E-01
        1   -1    0    0  501    0  0.00000000000E+00  0.00000000000E+00  0.12347085448E+04  0.12347085448E+04  0.50400001928E-02 0. -1.
       -1   -1    0    0    0  501  0.00000000000E+00  0.00000000000E+00 -0.13740189953E+04  0.13740189953E+04  0.50400001928E-02 0.  1.
    10030    2    1    2    0    0  0.00000000000E+00  0.00000000000E+00 -0.13931045045E+03  0.26087275401E+04  0.26050051779E+04 0.  0.
        5    1    3    3  502    0  0.38105613224E+03  0.99753656921E+03  0.67720394364E+03  0.12644802308E+04  0.46999998093E+01 0. -1.
       -5    1    3    3    0  502 -0.38105613224E+03 -0.99753656921E+03 -0.81651439408E+03  0.13442473093E+04  0.46999998093E+01 0.  1.
</event>
<event>
 5   0  0.2746631E-06  0.2590973E+04  0.7818609E-02  0.8371274E-01
        2   -1    0    0  501    0  0.00000000000E+00  0.00000000000E+00  0.14922911777E+04  0.14922911777E+04  0.25500000920E-02 0. -1.
       -2   -1    0    0    0  501  0.00000000000E+00  0.00000000000E+00 -0.11246369010E+04  0.11246369010E+04  0.25500000920E-02 0.  1.
    10030    2    1    2    0    0  0.00000000000E+00  0.00000000000E+00  0.36765427670E+03  0.26169280786E+04  0.25909733502E+04 0.  0.
        2    1    3    3  502    0 -0.39803928606E+03  0.81950688294E+03  0.11140629589E+04  0.14391535988E+04  0.25500000920E-02 0. -1.
       -2    1    3    3    0  502  0.39803928606E+03 -0.81950688294E+03 -0.74640868223E+03  0.11777744798E+04  0.25500000920E-02 0.  1.
</event>
<event>
 5   0  0.2705807E-06  0.2598906E+04  0.7818609E-02  0.8368573E-01
       -2   -1    0    0    0  501  0.00000000000E+00  0.00000000000E+00  0.69203342546E+03  0.69203342547E+03  0.25500000920E-02 0. -1.
        2   -1    0    0  501    0  0.00000000000E+00  0.00000000000E+00 -0.24400235566E+04  0.24400235566E+04  0.25500000920E-02 0.  1.
    10030    2    1    2    0    0  0.00000000000E+00  0.00000000000E+00 -0.17479901312E+04  0.31320569821E+04  0.25989058160E+04 0.  0.
        4    1    3    3  502    0 -0.41667264705E+03 -0.56155862889E+03  0.44596114876E+03  0.82936550904E+03  0.12699999809E+01 0. -1.
       -4    1    3    3    0  502  0.41667264705E+03  0.56155862889E+03 -0.21939512799E+04  0.23026914730E+04  0.12699999809E+01 0.  1.
</event>
<event>
 5   0  0.2623368E-06  0.2608592E+04  0.7818609E-02  0.8365288E-01
        2   -1    0    0  501    0  0.00000000000E+00  0.00000000000E+00  0.16216539957E+04  0.16216539957E+04  0.25500000920E-02 0.  1.
       -2   -1    0    0    0  501  0.00000000000E+00  0.00000000000E+00 -0.10490453883E+04  0.10490453883E+04  0.25500000920E-02 0. -1.
    10030    2    1    2    0    0  0.00000000000E+00  0.00000000000E+00  0.57260860742E+03  0.26706993840E+04  0.26085924524E+04 0.  0.
        5    1    3    3  502    0  0.42871038058E+03  0.41545257055E+03  0.14735573260E+04  0.15899014786E+04  0.46999998093E+01 0.  1.
       -5    1    3    3    0  502 -0.42871038058E+03 -0.41545257055E+03 -0.90094871858E+03  0.10807979054E+04  0.46999998093E+01 0. -1.
</event>
<event>
 5   0  0.2820028E-06  0.2602326E+04  0.7818609E-02  0.8367412E-01
       -2   -1    0    0    0  501  0.00000000000E+00  0.00000000000E+00  0.68274853020E+03  0.68274853021E+03  0.25500000920E-02 0. -1.
        2   -1    0    0  501    0  0.00000000000E+00  0.00000000000E+00 -0.24797201821E+04  0.24797201821E+04  0.25500000920E-02 0.  1.
    10030    2    1    2    0    0  0.00000000000E+00  0.00000000000E+00 -0.17969716519E+04  0.31624687123E+04  0.26023261207E+04 0.  0.
        3    1    3    3  502    0  0.69677894518E+03 -0.62801168917E+03 -0.19943162798E+04  0.22039049467E+04  0.10100000352E+00 0.  1.
       -3    1    3    3    0  502 -0.69677894518E+03  0.62801168917E+03  0.19734462795E+03  0.95856376552E+03  0.10100000352E+00 0. -1.
</event>
<event>
 5   0  0.2623368E-06  0.2618147E+04  0.7818609E-02  0.8362063E-01
        2   -1    0    0  501    0  0.00000000000E+00  0.00000000000E+00  0.12548725003E+04  0.12548725003E+04  0.25500000920E-02 0. -1.
       -2   -1    0    0    0  501  0.00000000000E+00  0.00000000000E+00 -0.13656160790E+04  0.13656160790E+04  0.25500000920E-02 0.  1.
    10030    2    1    2    0    0  0.00000000000E+00  0.00000000000E+00 -0.11074357866E+03  0.26204885793E+04  0.26181474852E+04 0.  0.
        5    1    3    3  502    0  0.90947788974E+02  0.27611889693E+03  0.12221467491E+04  0.12562555122E+04  0.46999998093E+01 0. -1.
       -5    1    3    3    0  502 -0.90947788974E+02 -0.27611889693E+03 -0.13328903278E+04  0.13642330671E+04  0.46999998093E+01 0.  1.
</event>
<event>
 5   0  0.2746631E-06  0.2601916E+04  0.7818609E-02  0.8367551E-01
       -2   -1    0    0    0  501  0.00000000000E+00  0.00000000000E+00  0.70144484454E+03  0.70144484454E+03  0.25500000920E-02 0. -1.
        2   -1    0    0  501    0  0.00000000000E+00  0.00000000000E+00 -0.24128649529E+04  0.24128649529E+04  0.25500000920E-02 0.  1.
    10030    2    1    2    0    0  0.00000000000E+00  0.00000000000E+00 -0.17114201084E+04  0.31143097975E+04  0.26019159724E+04 0.  0.
        2    1    3    3  502    0 -0.96954864575E+03  0.67618221730E+03 -0.15060787221E+04  0.19145548006E+04  0.25500000920E-02 0.  1.
       -2    1    3    3    0  502  0.96954864575E+03 -0.67618221730E+03 -0.20534138628E+03  0.11997549968E+04  0.25500000920E-02 0. -1.
</event>
<event>
 5   0  0.1032076E-06  0.2598279E+04  0.7818609E-02  0.8368786E-01
        1   -1    0    0  501    0  0.00000000000E+00  0.00000000000E+00  0.26116126138E+04  0.26116126138E+04  0.50400001928E-02 0. -1.
       -1   -1    0    0    0  501  0.00000000000E+00  0.00000000000E+00 -0.64625349160E+03  0.64625349162E+03  0.50400001928E-02 0.  1.
    10030    2    1    2    0    0  0.00000000000E+00  0.00000000000E+00  0.19653591222E+04  0.32578661054E+04  0.25982792540E+04 0.  0.
        1    1    3    3  502    0  0.80635339090E+02 -0.17627582636E+03  0.25933778219E+04  0.26006121879E+04  0.50400001928E-02 0. -1.
       -1    1    3    3    0  502 -0.80635339090E+02  0.17627582636E+03 -0.62801869969E+03  0.65725391749E+03  0.50400001928E-02 0.  1.
</event>
<event>
 5   0  0.1100104E-06  0.2598321E+04  0.7818609E-02  0.8368772E-01
        1   -1    0    0  501    0  0.00000000000E+00  0.00000000000E+00  0.10931111070E+04  0.10931111070E+04  0.50400001928E-02 0. -1.
       -1   -1    0    0    0  501  0.00000000000E+00  0.00000000000E+00 -0.15440495565E+04  0.15440495565E+04  0.50400001928E-02 0.  1.
    10030    2    1    2    0    0  0.00000000000E+00  0.00000000000E+00 -0.45093844948E+03  0.26371606635E+04  0.25983207808E+04 0.  0.
        4    1    3    3  502    0 -0.11739641685E+04 -0.15534432720E+03  0.31683261965E+03  0.12258500115E+04  0.12699999809E+01 0. -1.
       -4    1    3    3    0  502  0.11739641685E+04  0.15534432720E+03 -0.76777106913E+03  0.14113106520E+04  0.12699999809E+01 0.  1.
</event>
<event>
 5   0  0.2705807E-06  0.2593325E+04  0.7818609E-02  0.8370472E-01
       -2   -1    0    0    0  501  0.00000000000E+00  0.00000000000E+00  0.92488679342E+03  0.92488679342E+03  0.25500000920E-02 0.  1.
        2   -1    0    0  501    0  0.00000000000E+00  0.00000000000E+00 -0.18178797860E+04  0.18178797860E+04  0.25500000920E-02 0. -1.
    10030    2    1    2    0    0  0.00000000000E+00  0.00000000000E+00 -0.89299299259E+03  0.27427665794E+04  0.25933245120E+04 0.  0.
        4    1    3    3  502    0  0.12363525166E+04 -0.25038282049E+03 -0.76391160031E+03  0.14747276522E+04  0.12699999809E+01 0. -1.
       -4    1    3    3    0  502 -0.12363525166E+04  0.25038282049E+03 -0.12908139228E+03  0.12680389272E+04  0.12699999809E+01 0.  1.
</event>
<event>
 5   0  0.2705807E-06  0.2594953E+04  0.7818609E-02  0.8369917E-01
        2   -1    0    0  501    0  0.00000000000E+00  0.00000000000E+00  0.14168264420E+04  0.14168264420E+04  0.25500000920E-02 0.  1.
       -2   -1    0    0    0  501  0.00000000000E+00  0.00000000000E+00 -0.11881807080E+04  0.11881807080E+04  0.25500000920E-02 0. -1.
    10030    2    1    2    0    0  0.00000000000E+00  0.00000000000E+00  0.22864573397E+03  0.26050071500E+04  0.25949534446E+04 0.  0.
        4    1    3    3  502    0 -0.86880615827E+03 -0.10927218814E+03 -0.84682045155E+03  0.12181424555E+04  0.12699999809E+01 0. -1.
       -4    1    3    3    0  502  0.86880615827E+03  0.10927218814E+03  0.10754661855E+04  0.13868646945E+04  0.12699999809E+01 0.  1.
</event>
<event>
 5   0  0.1122628E-06  0.2573694E+04  0.7818609E-02  0.8377192E-01
        1   -1    0    0  501    0  0.00000000000E+00  0.00000000000E+00  0.32669712090E+04  0.32669712090E+04  0.50400001928E-02 0.  1.
       -1   -1    0    0    0  501  0.00000000000E+00  0.00000000000E+00 -0.50688388628E+03  0.50688388630E+03  0.50400001928E-02 0. -1.
    10030    2    1    2    0    0  0.00000000000E+00  0.00000000000E+00  0.27600873227E+04  0.37738550953E+04  0.25736938923E+04 0.  0.
        2    1    3    3  502    0  0.28245191517E+03  0.12157893936E+04  0.92089127891E+03  0.15511169142E+04  0.25500000920E-02 0.  1.
       -2    1    3    3    0  502 -0.28245191517E+03 -0.12157893936E+04  0.18391960438E+04  0.22227381810E+04  0.25500000920E-02 0. -1.
</event>
<event>
 5   0  0.1122628E-06  0.2601670E+04  0.7818609E-02  0.8367634E-01
        1   -1    0    0  501    0  0.00000000000E+00  0.00000000000E+00  0.10620689556E+04  0.10620689556E+04  0.50400001928E-02 0.  1.
       -1   -1    0    0    0  501  0.00000000000E+00  0.00000000000E+00 -0.15932787651E+04  0.15932787651E+04  0.50400001928E-02 0. -1.
    10030    2    1    2    0    0  0.00000000000E+00  0.00000000000E+00 -0.53120980950E+03  0.26553477207E+04  0.26016701667E+04 0.  0.
        2    1    3    3  502    0  0.11688594575E+04  0.32334227986E+03 -0.74583285216E+03  0.14237448173E+04  0.25500000920E-02 0. -1.
       -2    1    3    3    0  502 -0.11688594575E+04 -0.32334227986E+03  0.21462304266E+03  0.12316029034E+04  0.25500000920E-02 0.  1.
</event>
<event>
 5   0  0.2746631E-06  0.2602780E+04  0.7818609E-02  0.8367257E-01
       -2   -1    0    0    0  501  0.00000000000E+00  0.00000000000E+00  0.17355447444E+04  0.17355447444E+04  0.25500000920E-02 0. -1.
        2   -1    0    0  501    0  0.00000000000E+00  0.00000000000E+00 -0.97584145129E+03  0.97584145129E+03  0.25500000920E-02 0.  1.
    10030    2    1    2    0    0  0.00000000000E+00  0.00000000000E+00  0.75970329307E+03  0.27113861956E+04  0.26027804380E+04 0.  0.
        2    1    3    3  502    0  0.11153564164E+04  0.54862606032E+03 -0.21728318137E+02  0.12431744083E+04  0.25500000920E-02 0.  1.
       -2    1    3    3    0  502 -0.11153564164E+04 -0.54862606032E+03  0.78143161120E+03  0.14682117874E+04  0.25500000920E-02 0. -1.
</event>
<event>
 5   0  0.2820028E-06  0.2601307E+04  0.7818609E-02  0.8367757E-01
       -2   -1    0    0    0  501  0.00000000000E+00  0.00000000000E+00  0.14187714713E+04  0.14187714713E+04  0.25500000920E-02 0.  1.
        2   -1    0    0  501    0  0.00000000000E+00  0.00000000000E+00 -0.11923691328E+04  0.11923691328E+04  0.25500000920E-02 0. -1.
    10030    2    1    2    0    0  0.00000000000E+00  0.00000000000E+00  0.22640233846E+03  0.26111406041E+04  0.26013068322E+04 0.  0.
        3    1    3    3  502    0 -0.17176499927E+03 -0.91668824324E+03  0.10232035993E+04  0.13844732450E+04  0.10100000352E+00 0. -1.
       -3    1    3    3    0  502  0.17176499927E+03  0.91668824324E+03 -0.79680126086E+03  0.12266673591E+04  0.10100000352E+00 0.  1.
</event>
<event>
 5   0  0.2746631E-06  0.2602782E+04  0.7818609E-02  0.8367257E-01
        2   -1    0    0  501    0  0.00000000000E+00  0.00000000000E+00  0.17311156378E+04  0.17311156378E+04  0.25500000920E-02 0.  1.
       -2   -1    0    0    0  501  0.00000000000E+00  0.00000000000E+00 -0.97833903367E+03  0.97833903367E+03  0.25500000920E-02 0. -1.
    10030    2    1    2    0    0  0.00000000000E+00  0.00000000000E+00  0.75277660417E+03  0.27094546715E+04  0.26027815892E+04 0.  0.
        2    1    3    3  502    0  0.64464128919E+03  0.19272235024E+03  0.15360063183E+04  0.16769077810E+04  0.25500000920E-02 0.  1.
       -2    1    3    3    0  502 -0.64464128919E+03 -0.19272235024E+03 -0.78322971415E+03  0.10325468905E+04  0.25500000920E-02 0. -1.
</event>
<event>
 5   0  0.2586775E-06  0.2599360E+04  0.7818609E-02  0.8368419E-01
        2   -1    0    0  501    0  0.00000000000E+00  0.00000000000E+00  0.23524483765E+04  0.23524483765E+04  0.25500000920E-02 0. -1.
       -2   -1    0    0    0  501  0.00000000000E+00  0.00000000000E+00 -0.71804688329E+03  0.71804688329E+03  0.25500000920E-02 0.  1.
    10030    2    1    2    0    0  0.00000000000E+00  0.00000000000E+00  0.16344014932E+04  0.30704952598E+04  0.25993600942E+04 0.  0.
        1    1    3    3  502    0 -0.12907569869E+04 -0.26782007012E+02  0.99398366521E+03  0.16293478456E+04  0.50400001928E-02 0.  1.
       -1    1    3    3    0  502  0.12907569869E+04  0.26782007012E+02  0.64041782798E+03  0.14411474142E+04  0.50400001928E-02 0. -1.
</event>
<event>
 5   0  0.1055179E-06  0.2597606E+04  0.7818609E-02  0.8369015E-01
        1   -1    0    0  501    0  0.00000000000E+00  0.00000000000E+00  0.21854394259E+04  0.21854394259E+04  0.50400001928E-02 0. -1.
       -1   -1    0    0    0  501  0.00000000000E+00  0.00000000000E+00 -0.77187668965E+03  0.77187668966E+03  0.50400001928E-02 0.  1.
    10030    2    1    2    0    0  0.00000000000E+00  0.00000000000E+00  0.14135627363E+04  0.29573161156E+04  0.25976063979E+04 0.  0.
        3    1    3    3  502    0 -0.22396220510E+03 -0.11403430320E+04  0.13670476402E+04  0.17942576629E+04  0.10100000352E+00 0. -1.
       -3    1    3    3    0  502  0.22396220510E+03  0.11403430320E+04  0.46515096065E+02  0.11630584527E+04  0.10100000352E+00 0.  1.
</event>
<event>
 5   0  0.2623368E-06  0.2604434E+04  0.7818609E-02  0.8366697E-01
       -2   -1    0    0    0  501  0.00000000000E+00  0.00000000000E+00  0.95582364178E+03  0.95582364178E+03  0.25500000920E-02 0.  1.
        2   -1    0    0  501    0  0.00000000000E+00  0.00000000000E+00 -0.17741448367E+04  0.17741448367E+04  0.25500000920E-02 0. -1.
    10030    2    1    2    0    0  0.00000000000E+00  0.00000000000E+00 -0.81832119488E+03  0.27299684784E+04  0.26044343561E+04 0.  0.
        5    1    3    3  502    0  0.12161993401E+04  0.26850870308E+03 -0.10693228443E+02  0.12455417269E+04  0.46999998093E+01 0.  1.
       -5    1    3    3    0  502 -0.12161993401E+04 -0.26850870308E+03 -0.80762796644E+03  0.14844267515E+04  0.46999998093E+01 0. -1.
</event>
<event>
 5   0  0.2705807E-06  0.2541630E+04  0.7818609E-02  0.8388303E-01
        2   -1    0    0  501    0  0.00000000000E+00  0.00000000000E+00  0.96062004174E+03  0.96062004175E+03  0.25500000920E-02 0.  1.
       -2   -1    0    0    0  501  0.00000000000E+00  0.00000000000E+00 -0.16811760012E+04  0.16811760012E+04  0.25500000920E-02 0. -1.
    10030    2    1    2    0    0  0.00000000000E+00  0.00000000000E+00 -0.72055595950E+03  0.26417960430E+04  0.25416304692E+04 0.  0.
        4    1    3    3  502    0  0.52262450771E+03  0.78151576493E+03  0.52844275569E+03  0.10784973926E+04  0.12699999809E+01 0.  1.
       -4    1    3    3    0  502 -0.52262450771E+03 -0.78151576493E+03 -0.12489987152E+04  0.15632986504E+04  0.12699999809E+01 0. -1.
</event>
<event>
 5   0  0.2746631E-06  0.2599237E+04  0.7818609E-02  0.8368460E-01
        2   -1    0    0  501    0  0.00000000000E+00  0.00000000000E+00  0.24111467613E+04  0.24111467613E+04  0.25500000920E-02 0. -1.
       -2   -1    0    0    0  501  0.00000000000E+00  0.00000000000E+00 -0.70049988257E+03  0.70049988257E+03  0.25500000920E-02 0.  1.
    10030    2    1    2    0    0  0.00000000000E+00  0.00000000000E+00  0.17106468788E+04  0.31116466439E+04  0.25992368289E+04 0.  0.
        2    1    3    3  502    0  0.61785117443E+03 -0.51696141072E+03  0.20761810821E+04  0.22269973192E+04  0.25500000920E-02 0. -1.
       -2    1    3    3    0  502 -0.61785117443E+03  0.51696141072E+03 -0.36553420334E+03  0.88464932473E+03  0.25500000920E-02 0.  1.
</event>
<event>
 5   0  0.1055179E-06  0.2600375E+04  0.7818609E-02  0.8368074E-01
        1   -1    0    0  501    0  0.00000000000E+00  0.00000000000E+00  0.12010547151E+04  0.12010547151E+04  0.50400001928E-02 0. -1.
       -1   -1    0    0    0  501  0.00000000000E+00  0.00000000000E+00 -0.14075027891E+04  0.14075027891E+04  0.50400001928E-02 0.  1.
    10030    2    1    2    0    0  0.00000000000E+00  0.00000000000E+00 -0.20644807395E+03  0.26085575042E+04  0.26003752509E+04 0.  0.
        3    1    3    3  502    0  0.41869615091E+03  0.57514657099E+03 -0.11949442587E+04  0.13906803502E+04  0.10100000352E+00 0.  1.
       -3    1    3    3    0  502 -0.41869615091E+03 -0.57514657099E+03  0.98849618471E+03  0.12178771540E+04  0.10100000352E+00 0. -1.
</event>
<event>
 5   0  0.1088757E-06  0.2609767E+04  0.7818609E-02  0.8364891E-01
        1   -1    0    0  501    0  0.00000000000E+00  0.00000000000E+00  0.10315275070E+04  0.10315275070E+04  0.50400001928E-02 0. -1.
       -1   -1    0    0    0  501  0.00000000000E+00  0.00000000000E+00 -0.16506793766E+04  0.16506793766E+04  0.50400001928E-02 0.  1.
    10030    2    1    2    0    0  0.00000000000E+00  0.00000000000E+00 -0.61915186961E+03  0.26822068837E+04  0.26097671791E+04 0.  0.
        5    1    3    3  502    0  0.66678373393E+03  0.19562907512E+03  0.82553883008E+03  0.10790772599E+04  0.46999998093E+01 0. -1.
       -5    1    3    3    0  502 -0.66678373393E+03 -0.19562907512E+03 -0.14446906997E+04  0.16031296238E+04  0.46999998093E+01 0.  1.
</event>
<event>
 5   0  0.2586775E-06  0.2608732E+04  0.7818609E-02  0.8365241E-01
        2   -1    0    0  501    0  0.00000000000E+00  0.00000000000E+00  0.21097364864E+04  0.21097364864E+04  0.25500000920E-02 0.  1.
       -2   -1    0    0    0  501  0.00000000000E+00  0.00000000000E+00 -0.80643776388E+03  0.80643776389E+03  0.25500000920E-02 0. -1.
    10030    2    1    2    0    0  0.00000000000E+00  0.00000000000E+00  0.13032987225E+04  0.29161742503E+04  0.26087323929E+04 0.  0.
        1    1    3    3  502    0  0.24141151705E+03  0.82983202498E+03 -0.44045762885E+03  0.97000187272E+03  0.50400001928E-02 0. -1.
       -1    1    3    3    0  502 -0.24141151705E+03 -0.82983202498E+03  0.17437563514E+04  0.19461723776E+04  0.50400001928E-02 0.  1.
</event>
<event>
 5   0  0.2623368E-06  0.2571322E+04  0.7818609E-02  0.8378008E-01
       -2   -1    0    0    0  501  0.00000000000E+00  0.00000000000E+00  0.81305742629E+03  0.81305742630E+03  0.25500000920E-02 0. -1.
        2   -1    0    0  501    0  0.00000000000E+00  0.00000000000E+00 -0.20329734061E+04  0.20329734061E+04  0.25500000920E-02 0.  1.
    10030    2    1    2    0    0  0.00000000000E+00  0.00000000000E+00 -0.12199159798E+04  0.28460308324E+04  0.25713219365E+04 0.  0.
        5    1    3    3  502    0 -0.62355364809E+03  0.60563525194E+03 -0.16584117348E+04  0.18724221699E+04  0.46999998093E+01 0.  1.
       -5    1    3    3    0  502  0.62355364809E+03 -0.60563525194E+03  0.43849575499E+03  0.97360866244E+03  0.46999998093E+01 0. -1.
</event>
<event>
 5   0  0.2623368E-06  0.2597296E+04  0.7818609E-02  0.8369120E-01
       -2   -1    0    0    0  501  0.00000000000E+00  0.00000000000E+00  0.15027096756E+04  0.15027096756E+04  0.25500000920E-02 0. -1.
        2   -1    0    0  501    0  0.00000000000E+00  0.00000000000E+00 -0.11222973376E+04  0.11222973376E+04  0.25500000920E-02 0.  1.
    10030    2    1    2    0    0  0.00000000000E+00  0.00000000000E+00  0.38041233800E+03  0.26250070131E+04  0.25972963389E+04 0.  0.
        5    1    3    3  502    0  0.12283689258E+04 -0.55782780442E+02  0.61235023084E+03  0.13736800325E+04  0.46999998093E+01 0. -1.
       -5    1    3    3    0  502 -0.12283689258E+04  0.55782780442E+02 -0.23193789284E+03  0.12513269807E+04  0.46999998093E+01 0.  1.
</event>
<event>
 5   0  0.1100104E-06  0.2601939E+04  0.7818609E-02  0.8367543E-01
       -1   -1    0    0    0  501  0.00000000000E+00  0.00000000000E+00  0.70855333410E+03  0.70855333412E+03  0.50400001928E-02 0.  1.
        1   -1    0    0  501    0  0.00000000000E+00  0.00000000000E+00 -0.23887004013E+04  0.23887004013E+04  0.50400001928E-02 0. -1.
    10030    2    1    2    0    0  0.00000000000E+00  0.00000000000E+00 -0.16801470672E+04  0.30972537354E+04  0.26019389951E+04 0.  0.
        4    1    3    3  502    0  0.92880428214E+03  0.91067743616E+03 -0.81321154835E+03  0.15340552215E+04  0.12699999809E+01 0. -1.
       -4    1    3    3    0  502 -0.92880428214E+03 -0.91067743616E+03 -0.86693551881E+03  0.15631985139E+04  0.12699999809E+01 0.  1.
</event>
<event>
 5   0  0.1100104E-06  0.2603549E+04  0.7818609E-02  0.8366997E-01
       -1   -1    0    0    0  501  0.00000000000E+00  0.00000000000E+00  0.57518024789E+03  0.57518024791E+03  0.50400001928E-02 0. -1.
        1   -1    0    0  501    0  0.00000000000E+00  0.00000000000E+00 -0.29462372538E+04  0.29462372538E+04  0.50400001928E-02 0.  1.
    10030    2    1    2    0    0  0.00000000000E+00  0.00000000000E+00 -0.23710570059E+04  0.35214175017E+04  0.26035494802E+04 0.  0.
        4    1    3    3  502    0 -0.57040993913E+03  0.58404250605E+03 -0.25569734653E+04  0.26841363719E+04  0.12699999809E+01 0.  1.
       -4    1    3    3    0  502  0.57040993913E+03 -0.58404250605E+03  0.18591645946E+03  0.83728112980E+03  0.12699999809E+01 0. -1.
</event>
<event>
 5   0  0.1122628E-06  0.2598658E+04  0.7818609E-02  0.8368657E-01
       -1   -1    0    0    0  501  0.00000000000E+00  0.00000000000E+00  0.18709715088E+04  0.18709715088E+04  0.50400001928E-02 0. -1.
        1   -1    0    0  501    0  0.00000000000E+00  0.00000000000E+00 -0.90234162167E+03  0.90234162169E+03  0.50400001928E-02 0.  1.
    10030    2    1    2    0    0  0.00000000000E+00  0.00000000000E+00  0.96862988717E+03  0.27733131305E+04  0.25986577038E+04 0.  0.
        2    1    3    3  502    0  0.12188286375E+04 -0.27843862067E+03  0.10672144644E+03  0.12547751911E+04  0.25500000920E-02 0.  1.
       -2    1    3    3    0  502 -0.12188286375E+04  0.27843862067E+03  0.86190844073E+03  0.15185379394E+04  0.25500000920E-02 0. -1.
</event>
<event>
 5   0  0.2586775E-06  0.2604055E+04  0.7818609E-02  0.8366825E-01
        2   -1    0    0  501    0  0.00000000000E+00  0.00000000000E+00  0.12578908795E+04  0.12578908795E+04  0.25500000920E-02 0.  1.
       -2   -1    0    0    0  501  0.00000000000E+00  0.00000000000E+00 -0.13477125699E+04  0.13477125699E+04  0.25500000920E-02 0. -1.
    10030    2    1    2    0    0  0.00000000000E+00  0.00000000000E+00 -0.89821690394E+02  0.26056034494E+04  0.26040547996E+04 0.  0.
        1    1    3    3  502    0 -0.11365651349E+04 -0.21238579130E+03 -0.64392146057E+03  0.13234511240E+04  0.50400001928E-02 0. -1.
       -1    1    3    3    0  502  0.11365651349E+04  0.21238579130E+03  0.55409977017E+03  0.12821523254E+04  0.50400001928E-02 0.  1.
</event>
<event>
 5   0  0.2623368E-06  0.2649757E+04  0.7818609E-02  0.8351494E-01
        2   -1    0    0  501    0  0.00000000000E+00  0.00000000000E+00  0.18868767159E+04  0.18868767159E+04  0.25500000920E-02 0.  1.
       -2   -1    0    0    0  501  0.00000000000E+00  0.00000000000E+00 -0.93026911393E+03  0.93026911393E+03  0.25500000920E-02 0. -1.
    10030    2    1    2    0    0  0.00000000000E+00  0.00000000000E+00  0.95660760195E+03  0.28171458298E+04  0.26497570686E+04 0.  0.
        5    1    3    3  502    0 -0.45806934133E+03 -0.98835087291E+03  0.12800055566E+04  0.16808037614E+04  0.46999998093E+01 0.  1.
       -5    1    3    3    0  502  0.45806934133E+03  0.98835087291E+03 -0.32339795461E+03  0.11363420684E+04  0.46999998093E+01 0. -1.
</event>
<event>
 5   0  0.2820028E-06  0.2598436E+04  0.7818609E-02  0.8368733E-01
       -2   -1    0    0    0  501  0.00000000000E+00  0.00000000000E+00  0.83420776527E+03  0.83420776527E+03  0.25500000920E-02 0. -1.
        2   -1    0    0  501    0  0.00000000000E+00  0.00000000000E+00 -0.20234377714E+04  0.20234377714E+04  0.25500000920E-02 0.  1.
    10030    2    1    2    0    0  0.00000000000E+00  0.00000000000E+00 -0.11892300061E+04  0.28576455367E+04  0.25984360692E+04 0.  0.
        3    1    3    3  502    0  0.15093904619E+03  0.41230068682E+03  0.75014553087E+03  0.86919087645E+03  0.10100000352E+00 0. -1.
       -3    1    3    3    0  502 -0.15093904619E+03 -0.41230068682E+03 -0.19393755370E+04  0.19884546602E+04  0.10100000352E+00 0.  1.
</event>
<event>
 5   0  0.1100104E-06  0.2599222E+04  0.7818609E-02  0.8368465E-01
       -1   -1    0    0    0  501  0.00000000000E+00  0.00000000000E+00  0.11232757141E+04  0.11232757141E+04  0.50400001928E-02 0.  1.
        1   -1    0    0  501    0  0.00000000000E+00  0.00000000000E+00 -0.15036283803E+04  0.15036283804E+04  0.50400001928E-02 0. -1.
    10030    2    1    2    0    0  0.00000000000E+00  0.00000000000E+00 -0.38035266625E+03  0.26269040945E+04  0.25992223781E+04 0.  0.
        4    1    3    3  502    0 -0.71311869866E+03  0.10222124756E+04 -0.56224244103E+03  0.13673239554E+04  0.12699999809E+01 0. -1.
       -4    1    3    3    0  502  0.71311869866E+03 -0.10222124756E+04  0.18188977478E+03  0.12595801391E+04  0.12699999809E+01 0.  1.
</event>
<event>
 5   0  0.2586775E-06  0.2596602E+04  0.7818609E-02  0.8369356E-01
       -2   -1    0    0    0  501  0.00000000000E+00  0.00000000000E+00  0.10662795784E+04  0.10662795784E+04  0.25500000920E-02 0. -1.
        2   -1    0    0  501    0  0.00000000000E+00  0.00000000000E+00 -0.15808105374E+04  0.15808105374E+04  0.25500000920E-02 0.  1.
    10030    2    1    2    0    0  0.00000000000E+00  0.00000000000E+00 -0.51453095894E+03  0.26470901158E+04  0.25966023903E+04 0.  0.
        1    1    3    3  502    0 -0.25042138102E+02 -0.11915396793E+03  0.10604464162E+04  0.10674134055E+04  0.50400001928E-02 0. -1.
       -1    1    3    3    0  502  0.25042138102E+02  0.11915396793E+03 -0.15749773751E+04  0.15796767102E+04  0.50400001928E-02 0.  1.
</event>
<event>
 5   0  0.1100104E-06  0.2603968E+04  0.7818609E-02  0.8366855E-01
        1   -1    0    0  501    0  0.00000000000E+00  0.00000000000E+00  0.12034228244E+04  0.12034228244E+04  0.50400001928E-02 0.  1.
       -1   -1    0    0    0  501  0.00000000000E+00  0.00000000000E+00 -0.14086170589E+04  0.14086170590E+04  0.50400001928E-02 0. -1.
    10030    2    1    2    0    0  0.00000000000E+00  0.00000000000E+00 -0.20519423453E+03  0.26120398834E+04  0.26039676800E+04 0.  0.
        4    1    3    3  502    0 -0.92055104050E+03  0.85437553517E+03 -0.44686437618E+03  0.13330645734E+04  0.12699999809E+01 0. -1.
       -4    1    3    3    0  502  0.92055104050E+03 -0.85437553517E+03  0.24167014165E+03  0.12789753100E+04  0.12699999809E+01 0.  1.
</event>
<event>
 5   0  0.2820028E-06  0.2603784E+04  0.7818609E-02  0.8366917E-01
       -2   -1    0    0    0  501  0.00000000000E+00  0.00000000000E+00  0.63692347635E+03  0.63692347635E+03  0.25500000920E-02 0. -1.
        2   -1    0    0  501    0  0.00000000000E+00  0.00000000000E+00 -0.26611091606E+04  0.26611091606E+04  0.25500000920E-02 0.  1.
    10030    2    1    2    0    0  0.00000000000E+00  0.00000000000E+00 -0.20241856843E+04  0.32980326370E+04  0.26037840905E+04 0.  0.
        3    1    3    3  502    0 -0.10031518603E+04 -0.72063342643E+03 -0.49092906521E+03  0.13291491818E+04  0.10100000352E+00 0. -1.
       -3    1    3    3    0  502  0.10031518603E+04  0.72063342643E+03 -0.15332566191E+04  0.19688834552E+04  0.10100000352E+00 0.  1.
</event>
<event>
 5   0  0.2705807E-06  0.2608680E+04  0.7818609E-02  0.8365259E-01
       -2   -1    0    0    0  501  0.00000000000E+00  0.00000000000E+00  0.11292718193E+04  0.11292718193E+04  0.25500000920E-02 0.  1.
        2   -1    0    0  501    0  0.00000000000E+00  0.00000000000E+00 -0.15065482638E+04  0.15065482638E+04  0.25500000920E-02 0. -1.
    10030    2    1    2    0    0  0.00000000000E+00  0.00000000000E+00 -0.37727644453E+03  0.26358200831E+04  0.26086797418E+04 0.  0.
        4    1    3    3  502    0 -0.82590586326E+03 -0.46826726079E+03  0.71504146132E+03  0.11885624202E+04  0.12699999809E+01 0.  1.
       -4    1    3    3    0  502  0.82590586326E+03  0.46826726079E+03 -0.10923179058E+04  0.14472576629E+04  0.12699999809E+01 0. -1.
</event>
<event>
 5   0  0.1032076E-06  0.2598615E+04  0.7818609E-02  0.8368672E-01
        1   -1    0    0  501    0  0.00000000000E+00  0.00000000000E+00  0.21281760387E+04  0.21281760388E+04  0.50400001928E-02 0.  1.
       -1   -1    0    0    0  501  0.00000000000E+00  0.00000000000E+00 -0.79326141613E+03  0.79326141615E+03  0.50400001928E-02 0. -1.
    10030    2    1    2    0    0  0.00000000000E+00  0.00000000000E+00  0.13349146226E+04  0.29214374549E+04  0.25986149683E+04 0.  0.
        1    1    3    3  502    0 -0.12156032362E+04  0.62595052155E+02  0.11784443732E+04  0.16942079297E+04  0.50400001928E-02 0. -1.
       -1    1    3    3    0  502  0.12156032362E+04 -0.62595052155E+02  0.15647024941E+03  0.12272295252E+04  0.50400001928E-02 0.  1.
</event>
<event>
 5   0  0.2586775E-06  0.2597719E+04  0.7818609E-02  0.8368976E-01
        2   -1    0    0  501    0  0.00000000000E+00  0.00000000000E+00  0.16907825640E+04  0.16907825640E+04  0.25500000920E-02 0. -1.
       -2   -1    0    0    0  501  0.00000000000E+00  0.00000000000E+00 -0.99778395495E+03  0.99778395495E+03  0.25500000920E-02 0.  1.
    10030    2    1    2    0    0  0.00000000000E+00  0.00000000000E+00  0.69299860907E+03  0.26885665190E+04  0.25977187790E+04 0.  0.
        1    1    3    3  502    0  0.45345320771E+03 -0.11098796882E+04 -0.17055497232E+03  0.12110085601E+04  0.50400001928E-02 0.  1.
       -1    1    3    3    0  502 -0.45345320771E+03  0.11098796882E+04  0.86355358139E+03  0.14775579589E+04  0.50400001928E-02 0. -1.
</event>
<event>
 5   0  0.1088757E-06  0.2595255E+04  0.7818609E-02  0.8369815E-01
        1   -1    0    0  501    0  0.00000000000E+00  0.00000000000E+00  0.14611422456E+04  0.14611422456E+04  0.50400001928E-02 0.  1.
       -1   -1    0    0    0  501  0.00000000000E+00  0.00000000000E+00 -0.11524117411E+04  0.11524117411E+04  0.50400001928E-02 0. -1.
    10030    2    1    2    0    0  0.00000000000E+00  0.00000000000E+00  0.30873050457E+03  0.26135539867E+04  0.25952552701E+04 0.  0.
        5    1    3    3  502    0 -0.10761869221E+04 -0.24064728525E+03 -0.53436179973E+03  0.12254199403E+04  0.46999998093E+01 0. -1.
       -5    1    3    3    0  502  0.10761869221E+04  0.24064728525E+03  0.84309230429E+03  0.13881340464E+04  0.46999998093E+01 0.  1.
</event>
<event>
 5   0  0.1088757E-06  0.2607818E+04  0.7818609E-02  0.8365550E-01
        1   -1    0    0  501    0  0.00000000000E+00  0.00000000000E+00  0.21097466136E+04  0.21097466136E+04  0.50400001928E-02 0.  1.
       -1   -1    0    0    0  501  0.00000000000E+00  0.00000000000E+00 -0.80586890931E+03  0.80586890933E+03  0.50400001928E-02 0. -1.
    10030    2    1    2    0    0  0.00000000000E+00  0.00000000000E+00  0.13038777043E+04  0.29156155230E+04  0.26078184005E+04 0.  0.
        5    1    3    3  502    0  0.12869268552E+03  0.67781469073E+03 -0.58506899062E+03  0.90461172669E+03  0.46999998093E+01 0. -1.
       -5    1    3    3    0  502 -0.12869268552E+03 -0.67781469073E+03  0.18889466949E+04  0.20110037963E+04  0.46999998093E+01 0.  1.
</event>
<event>
 5   0  0.1100104E-06  0.2598141E+04  0.7818609E-02  0.8368833E-01
       -1   -1    0    0    0  501  0.00000000000E+00  0.00000000000E+00  0.17652993494E+04  0.17652993494E+04  0.50400001928E-02 0. -1.
        1   -1    0    0  501    0  0.00000000000E+00  0.00000000000E+00 -0.95597592424E+03  0.95597592425E+03  0.50400001928E-02 0.  1.
    10030    2    1    2    0    0  0.00000000000E+00  0.00000000000E+00  0.80932342512E+03  0.27212752736E+04  0.25981406252E+04 0.  0.
        4    1    3    3  502    0  0.21027383139E+03  0.43844029057E+02  0.17465703470E+04  0.17597292329E+04  0.12699999809E+01 0. -1.
       -4    1    3    3    0  502 -0.21027383139E+03 -0.43844029057E+02 -0.93724692187E+03  0.96154604076E+03  0.12699999809E+01 0.  1.
</event>
<event>
 5   0  0.1055179E-06  0.2612772E+04  0.7818609E-02  0.8363876E-01
        1   -1    0    0  501    0  0.00000000000E+00  0.00000000000E+00  0.24001818049E+04  0.24001818049E+04  0.50400001928E-02 0. -1.
       -1   -1    0    0    0  501  0.00000000000E+00  0.00000000000E+00 -0.71104795956E+03  0.71104795958E+03  0.50400001928E-02 0.  1.
    10030    2    1    2    0    0  0.00000000000E+00  0.00000000000E+00  0.16891338454E+04  0.31112297645E+04  0.26127719954E+04 0.  0.
        3    1    3    3  502    0  0.75800187863E+03  0.58663310361E+03  0.19015715866E+04  0.21294787521E+04  0.10100000352E+00 0. -1.
       -3    1    3    3    0  502 -0.75800187863E+03 -0.58663310361E+03 -0.21243774128E+03  0.98175101241E+03  0.10100000352E+00 0.  1.
</event>
<event>
 5   0  0.1055179E-06  0.2582377E+04  0.7818609E-02  0.8374212E-01
        1   -1    0    0  501    0  0.00000000000E+00  0.00000000000E+00  0.14083711173E+04  0.14083711174E+04  0.50400001928E-02 0. -1.
       -1   -1    0    0    0  501  0.00000000000E+00  0.00000000000E+00 -0.11837556944E+04  0.11837556944E+04  0.50400001928E-02 0.  1.
    10030    2    1    2    0    0  0.00000000000E+00  0.00000000000E+00  0.22461542298E+03  0.25921268117E+04  0.25823766805E+04 0.  0.
        3    1    3    3  502    0 -0.29879581309E+03  0.61440443620E+03 -0.98745463192E+03  0.12007657596E+04  0.10100000352E+00 0.  1.
       -3    1    3    3    0  502  0.29879581309E+03 -0.61440443620E+03  0.12120700549E+04  0.13913610521E+04  0.10100000352E+00 0. -1.
</event>
<event>
 5   0  0.1100104E-06  0.2602454E+04  0.7818609E-02  0.8367368E-01
        1   -1    0    0  501    0  0.00000000000E+00  0.00000000000E+00  0.16052952374E+04  0.16052952374E+04  0.50400001928E-02 0.  1.
       -1   -1    0    0    0  501  0.00000000000E+00  0.00000000000E+00 -0.10547541524E+04  0.10547541524E+04  0.50400001928E-02 0. -1.
    10030    2    1    2    0    0  0.00000000000E+00  0.00000000000E+00  0.55054108505E+03  0.26600493898E+04  0.26024540860E+04 0.  0.
        4    1    3    3  502    0 -0.62797834695E+03 -0.25239088232E+03  0.14112313655E+04  0.15651305190E+04  0.12699999809E+01 0.  1.
       -4    1    3    3    0  502  0.62797834695E+03  0.25239088232E+03 -0.86069028046E+03  0.10949188707E+04  0.12699999809E+01 0. -1.
</event>
<event>
 5   0  0.1055179E-06  0.2600342E+04  0.7818609E-02  0.8368085E-01
        1   -1    0    0  501    0  0.00000000000E+00  0.00000000000E+00  0.13530451385E+04  0.13530451385E+04  0.50400001928E-02 0.  1.
       -1   -1    0    0    0  501  0.00000000000E+00  0.00000000000E+00 -0.12493626423E+04  0.12493626423E+04  0.50400001928E-02 0. -1.
    10030    2    1    2    0    0  0.00000000000E+00  0.00000000000E+00  0.10368249620E+03  0.26024077807E+04  0.26003415539E+04 0.  0.
        3    1    3    3  502    0  0.57702340157E+03  0.81991093277E+03  0.88028768553E+03  0.13342100146E+04  0.10100000352E+00 0.  1.
       -3    1    3    3    0  502 -0.57702340157E+03 -0.81991093277E+03 -0.77660518933E+03  0.12681977661E+04  0.10100000352E+00 0. -1.
</event>
<event>
 5   0  0.1032076E-06  0.2597303E+04  0.7818609E-02  0.8369118E-01
       -1   -1    0    0    0  501  0.00000000000E+00  0.00000000000E+00  0.88582008592E+03  0.88582008594E+03  0.50400001928E-02 0.  1.
        1   -1    0    0  501    0  0.00000000000E+00  0.00000000000E+00 -0.19038801208E+04  0.19038801208E+04  0.50400001928E-02 0. -1.
    10030    2    1    2    0    0  0.00000000000E+00  0.00000000000E+00 -0.10180600349E+04  0.27897002068E+04  0.25973026410E+04 0.  0.
        1    1    3    3  502    0  0.81246422204E+03  0.45945326346E+03 -0.14788556441E+04  0.17487736931E+04  0.50400001928E-02 0. -1.
       -1    1    3    3    0  502 -0.81246422204E+03 -0.45945326346E+03  0.46079560923E+03  0.10409265137E+04  0.50400001928E-02 0.  1.
</event>
<event>
 5   0  0.1088757E-06  0.2602819E+04  0.7818609E-02  0.8367244E-01
       -1   -1    0    0    0  501  0.00000000000E+00  0.00000000000E+00  0.10784096946E+04  0.10784096946E+04  0.50400001928E-02 0.  1.
        1   -1    0    0  501    0  0.00000000000E+00  0.00000000000E+00 -0.15705220424E+04  0.15705220425E+04  0.50400001928E-02 0. -1.
    10030    2    1    2    0    0  0.00000000000E+00  0.00000000000E+00 -0.49211234781E+03  0.26489317371E+04  0.26028186231E+04 0.  0.
        5    1    3    3  502    0  0.12251516142E+04 -0.40192449352E+03 -0.66567402124E+02  0.12911208640E+04  0.46999998093E+01 0. -1.
       -5    1    3    3    0  502 -0.12251516142E+04  0.40192449352E+03 -0.42554494569E+03  0.13578108731E+04  0.46999998093E+01 0.  1.
</event>
<event>
 5   0  0.2820028E-06  0.2597490E+04  0.7818609E-02  0.8369054E-01
       -2   -1    0    0    0  501  0.00000000000E+00  0.00000000000E+00  0.16168497092E+04  0.16168497092E+04  0.25500000920E-02 0.  1.
        2   -1    0    0  501    0  0.00000000000E+00  0.00000000000E+00 -0.10432256113E+04  0.10432256113E+04  0.25500000920E-02 0. -1.
    10030    2    1    2    0    0  0.00000000000E+00  0.00000000000E+00  0.57362409787E+03  0.26600753205E+04  0.25974903475E+04 0.  0.
        3    1    3    3  502    0  0.91788170902E+03 -0.66584266455E+03 -0.36159882657E+03  0.11902130092E+04  0.10100000352E+00 0. -1.
       -3    1    3    3    0  502 -0.91788170902E+03  0.66584266455E+03  0.93522292443E+03  0.14698623113E+04  0.10100000352E+00 0.  1.
</event>
<event>
 5   0  0.2746631E-06  0.2596969E+04  0.7818609E-02  0.8369231E-01
       -2   -1    0    0    0  501  0.00000000000E+00  0.00000000000E+00  0.84665371963E+03  0.84665371964E+03  0.25500000920E-02 0.  1.
        2   -1    0    0  501    0  0.00000000000E+00  0.00000000000E+00 -0.19914425276E+04  0.19914425276E+04  0.25500000920E-02 0. -1.
    10030    2    1    2    0    0  0.00000000000E+00  0.00000000000E+00 -0.11447888080E+04  0.28380962473E+04  0.25969691746E+04 0.  0.
        2    1    3    3  502    0  0.13830173379E+03 -0.12263032930E+04 -0.10137690593E+04  0.15970832294E+04  0.25500000920E-02 0. -1.
       -2    1    3    3    0  502 -0.13830173379E+03  0.12263032930E+04 -0.13101974872E+03  0.12410130179E+04  0.25500000920E-02 0.  1.
</event>
<event>
 5   0  0.1088757E-06  0.2596579E+04  0.7818609E-02  0.8369364E-01
       -1   -1    0    0    0  501  0.00000000000E+00  0.00000000000E+00  0.98721725212E+03  0.98721725213E+03  0.50400001928E-02 0. -1.
        1   -1    0    0  501    0  0.00000000000E+00  0.00000000000E+00 -0.17073801690E+04  0.17073801690E+04  0.50400001928E-02 0.  1.
    10030    2    1    2    0    0  0.00000000000E+00  0.00000000000E+00 -0.72016291685E+03  0.26945974211E+04  0.25965786403E+04 0.  0.
        5    1    3    3  502    0  0.81125327464E+03  0.87472688361E+03  0.17135767329E+03  0.12052653395E+04  0.46999998093E+01 0. -1.
       -5    1    3    3    0  502 -0.81125327464E+03 -0.87472688361E+03 -0.89152059014E+03  0.14893320816E+04  0.46999998093E+01 0.  1.
</event>
<event>
 5   0  0.2820028E-06  0.2602267E+04  0.7818609E-02  0.8367431E-01
       -2   -1    0    0    0  501  0.00000000000E+00  0.00000000000E+00  0.12907277701E+04  0.12907277701E+04  0.25500000920E-02 0. -1.
        2   -1    0    0  501    0  0.00000000000E+00  0.00000000000E+00 -0.13116233407E+04  0.13116233407E+04  0.25500000920E-02 0.  1.
    10030    2    1    2    0    0  0.00000000000E+00  0.00000000000E+00 -0.20895570671E+02  0.26023511108E+04  0.26022672190E+04 0.  0.
        3    1    3    3  502    0  0.10175886913E+04 -0.56000513741E+03  0.57596361615E+03  0.12964669667E+04  0.10100000352E+00 0. -1.
       -3    1    3    3    0  502 -0.10175886913E+04  0.56000513741E+03 -0.59685918683E+03  0.13058841440E+04  0.10100000352E+00 0.  1.
</event>
<event>
 5   0  0.2586775E-06  0.2602672E+04  0.7818609E-02  0.8367294E-01
        2   -1    0    0  501    0  0.00000000000E+00  0.00000000000E+00  0.55955424568E+03  0.55955424568E+03  0.25500000920E-02 0. -1.
       -2   -1    0    0    0  501  0.00000000000E+00  0.00000000000E+00 -0.30264713398E+04  0.30264713398E+04  0.25500000920E-02 0.  1.
    10030    2    1    2    0    0  0.00000000000E+00  0.00000000000E+00 -0.24669170941E+04  0.35860255855E+04  0.26026716179E+04 0.  0.
        1    1    3    3  502    0 -0.12228717972E+04 -0.38929064846E+03 -0.93630722632E+03  0.15885949337E+04  0.50400001928E-02 0.  1.
       -1    1    3    3    0  502  0.12228717972E+04  0.38929064846E+03 -0.15306098678E+04  0.19974306518E+04  0.50400001928E-02 0. -1.
</event>
<event>
 5   0  0.2705807E-06  0.2601506E+04  0.7818609E-02  0.8367690E-01
        2   -1    0    0  501    0  0.00000000000E+00  0.00000000000E+00  0.15509118111E+04  0.15509118111E+04  0.25500000920E-02 0.  1.
       -2   -1    0    0    0  501  0.00000000000E+00  0.00000000000E+00 -0.10909442171E+04  0.10909442171E+04  0.25500000920E-02 0. -1.
    10030    2    1    2    0    0  0.00000000000E+00  0.00000000000E+00  0.45996759399E+03  0.26418560283E+04  0.26015059267E+04 0.  0.
        4    1    3    3  502    0 -0.11891061031E+03 -0.59226423055E+03  0.13998234407E+04  0.15246061558E+04  0.12699999809E+01 0.  1.
       -4    1    3    3    0  502  0.11891061031E+03  0.59226423055E+03 -0.93985584675E+03  0.11172498725E+04  0.12699999809E+01 0. -1.
</event>
<event>
 5   0  0.2746631E-06  0.2596445E+04  0.7818609E-02  0.8369410E-01
       -2   -1    0    0    0  501  0.00000000000E+00  0.00000000000E+00  0.11045292863E+04  0.11045292863E+04  0.25500000920E-02 0.  1.
        2   -1    0    0  501    0  0.00000000000E+00  0.00000000000E+00 -0.15258823190E+04  0.15258823190E+04  0.25500000920E-02 0. -1.
    10030    2    1    2    0    0  0.00000000000E+00  0.00000000000E+00 -0.42135303278E+03  0.26304116053E+04  0.25964450379E+04 0.  0.
        2    1    3    3  502    0 -0.90745339754E+03 -0.90485839257E+03 -0.25442135580E+00  0.12814992954E+04  0.25500000920E-02 0.  1.
       -2    1    3    3    0  502  0.90745339754E+03  0.90485839257E+03 -0.42109861143E+03  0.13489123099E+04  0.25500000920E-02 0. -1.
</event>
<event>
 5   0  0.1088757E-06  0.2602063E+04  0.7818609E-02  0.8367501E-01
       -1   -1    0    0    0  501  0.00000000000E+00  0.00000000000E+00  0.70515282828E+03  0.70515282830E+03  0.50400001928E-02 0. -1.
        1   -1    0    0  501    0  0.00000000000E+00  0.00000000000E+00 -0.24004474894E+04  0.24004474894E+04  0.50400001928E-02 0.  1.
    10030    2    1    2    0    0  0.00000000000E+00  0.00000000000E+00 -0.16952946611E+04  0.31056003177E+04  0.26020625176E+04 0.  0.
        5    1    3    3  502    0 -0.63882468395E+03  0.44873084028E+03  0.39452812506E+03  0.87471759746E+03  0.46999998093E+01 0. -1.
       -5    1    3    3    0  502  0.63882468395E+03 -0.44873084028E+03 -0.20898227862E+04  0.22308827202E+04  0.46999998093E+01 0.  1.
</event>
<event>
 5   0  0.2746631E-06  0.2601633E+04  0.7818609E-02  0.8367647E-01
        2   -1    0    0  501    0  0.00000000000E+00  0.00000000000E+00  0.17596233304E+04  0.17596233304E+04  0.25500000920E-02 0.  1.
       -2   -1    0    0    0  501  0.00000000000E+00  0.00000000000E+00 -0.96163996007E+03  0.96163996007E+03  0.25500000920E-02 0. -1.
    10030    2    1    2    0    0  0.00000000000E+00  0.00000000000E+00  0.79798337031E+03  0.27212632905E+04  0.26016334170E+04 0.  0.
        2    1    3    3  502    0 -0.34848382615E+02 -0.10346524517E+04 -0.42488413437E+03  0.11190382627E+04  0.25500000920E-02 0.  1.
       -2    1    3    3    0  502  0.34848382615E+02  0.10346524517E+04  0.12228675047E+04  0.16022250278E+04  0.25500000920E-02 0. -1.
</event>
<event>
 5   0  0.1088757E-06  0.2598650E+04  0.7818609E-02  0.8368660E-01
        1   -1    0    0  501    0  0.00000000000E+00  0.00000000000E+00  0.69375953783E+03  0.69375953785E+03  0.50400001928E-02 0. -1.
       -1   -1    0    0    0  501  0.00000000000E+00  0.00000000000E+00 -0.24334734126E+04  0.24334734126E+04  0.50400001928E-02 0.  1.
    10030    2    1    2    0    0  0.00000000000E+00  0.00000000000E+00 -0.17397138747E+04  0.31272329504E+04  0.25986499495E+04 0.  0.
        5    1    3    3  502    0  0.10488954259E+03  0.27796026116E+03  0.65232637581E+03  0.71680925880E+03  0.46999998093E+01 0. -1.
       -5    1    3    3    0  502 -0.10488954259E+03 -0.27796026116E+03 -0.23920402505E+04  0.24104236916E+04  0.46999998093E+01 0.  1.
</event>
<event>
 5   0  0.1100104E-06  0.2597764E+04  0.7818609E-02  0.8368961E-01
       -1   -1    0    0    0  501  0.00000000000E+00  0.00000000000E+00  0.97972226192E+03  0.97972226193E+03  0.50400001928E-02 0. -1.
        1   -1    0    0  501    0  0.00000000000E+00  0.00000000000E+00 -0.17220135488E+04  0.17220135488E+04  0.50400001928E-02 0.  1.
    10030    2    1    2    0    0  0.00000000000E+00  0.00000000000E+00 -0.74229128688E+03  0.27017358107E+04  0.25977644305E+04 0.  0.
        4    1    3    3  502    0  0.79841943558E+03 -0.59453505890E+03  0.49660283535E+03  0.11124574241E+04  0.12699999809E+01 0. -1.
       -4    1    3    3    0  502 -0.79841943558E+03  0.59453505890E+03 -0.12388941222E+04  0.15892783867E+04  0.12699999809E+01 0.  1.
</event>
<event>
 5   0  0.1122628E-06  0.2604494E+04  0.7818609E-02  0.8366676E-01
       -1   -1    0    0    0  501  0.00000000000E+00  0.00000000000E+00  0.15529619398E+04  0.15529619398E+04  0.50400001928E-02 0.  1.
        1   -1    0    0  501    0  0.00000000000E+00  0.00000000000E+00 -0.10920086568E+04  0.10920086568E+04  0.50400001928E-02 0. -1.
    10030    2    1    2    0    0  0.00000000000E+00  0.00000000000E+00  0.46095328302E+03  0.26449705966E+04  0.26044944860E+04 0.  0.
        2    1    3    3  502    0  0.11935691465E+04 -0.51692370310E+03  0.29494916781E+03  0.13337212730E+04  0.25500000920E-02 0. -1.
       -2    1    3    3    0  502 -0.11935691465E+04  0.51692370310E+03  0.16600411521E+03  0.13112493236E+04  0.25500000920E-02 0.  1.
</event>
<event>
 5   0  0.1100104E-06  0.2601343E+04  0.7818609E-02  0.8367745E-01
       -1   -1    0    0    0  501  0.00000000000E+00  0.00000000000E+00  0.99249423363E+03  0.99249423364E+03  0.50400001928E-02 0. -1.
        1   -1    0    0  501    0  0.00000000000E+00  0.00000000000E+00 -0.17045396303E+04  0.17045396304E+04  0.50400001928E-02 0.  1.
    10030    2    1    2    0    0  0.00000000000E+00  0.00000000000E+00 -0.71204539672E+03  0.26970338640E+04  0.26013425412E+04 0.  0.
        4    1    3    3  502    0  0.83256771947E+03 -0.16835237664E+03  0.66521488717E+03  0.10788994343E+04  0.12699999809E+01 0. -1.
       -4    1    3    3    0  502 -0.83256771947E+03  0.16835237664E+03 -0.13772602839E+04  0.16181344297E+04  0.12699999809E+01 0.  1.
</event>
<event>
 5   0  0.2586775E-06  0.2597754E+04  0.7818609E-02  0.8368964E-01
       -2   -1    0    0    0  501  0.00000000000E+00  0.00000000000E+00  0.86633568506E+03  0.86633568507E+03  0.25500000920E-02 0.  1.
        2   -1    0    0  501    0  0.00000000000E+00  0.00000000000E+00 -0.19473762995E+04  0.19473762995E+04  0.25500000920E-02 0. -1.
    10030    2    1    2    0    0  0.00000000000E+00  0.00000000000E+00 -0.10810406145E+04  0.28137119846E+04  0.25977540919E+04 0.  0.
        1    1    3    3  502    0 -0.25574755006E+03  0.27517723887E+03 -0.18872475386E+04  0.19242745631E+04  0.50400001928E-02 0. -1.
       -1    1    3    3    0  502  0.25574755006E+03 -0.27517723887E+03  0.80620692416E+03  0.88943742149E+03  0.50400001928E-02 0.  1.
</event>
<event>
 5   0  0.2705807E-06  0.2597827E+04  0.7818609E-02  0.8368940E-01
        2   -1    0    0  501    0  0.00000000000E+00  0.00000000000E+00  0.21646514358E+04  0.21646514358E+04  0.25500000920E-02 0. -1.
       -2   -1    0    0    0  501  0.00000000000E+00  0.00000000000E+00 -0.77942194682E+03  0.77942194682E+03  0.25500000920E-02 0.  1.
    10030    2    1    2    0    0  0.00000000000E+00  0.00000000000E+00  0.13852294890E+04  0.29440733826E+04  0.25978274279E+04 0.  0.
        4    1    3    3  502    0  0.13574706348E+03 -0.10511867154E+04 -0.15829465994E+03  0.10716713993E+04  0.12699999809E+01 0.  1.
       -4    1    3    3    0  502 -0.13574706348E+03  0.10511867154E+04  0.15435241489E+04  0.18724019833E+04  0.12699999809E+01 0. -1.
</event>
<event>
 5   0  0.1055179E-06  0.2606322E+04  0.7818609E-02  0.8366057E-01
       -1   -1    0    0    0  501  0.00000000000E+00  0.00000000000E+00  0.93752187088E+03  0.93752187089E+03  0.50400001928E-02 0. -1.
        1   -1    0    0  501    0  0.00000000000E+00  0.00000000000E+00 -0.18114009571E+04  0.18114009571E+04  0.50400001928E-02 0.  1.
    10030    2    1    2    0    0  0.00000000000E+00  0.00000000000E+00 -0.87387908621E+03  0.27489228280E+04  0.26063215567E+04 0.  0.
        3    1    3    3  502    0 -0.62201963116E+03 -0.65579904319E+03  0.55317040977E+03  0.10597067137E+04  0.10100000352E+00 0. -1.
       -3    1    3    3    0  502  0.62201963116E+03  0.65579904319E+03 -0.14270494960E+04  0.16892161143E+04  0.10100000352E+00 0.  1.
</event>
<event>
 5   0  0.2820028E-06  0.2602173E+04  0.7818609E-02  0.8367463E-01
        2   -1    0    0  501    0  0.00000000000E+00  0.00000000000E+00  0.19533563956E+04  0.19533563956E+04  0.25500000920E-02 0. -1.
       -2   -1    0    0    0  501  0.00000000000E+00  0.00000000000E+00 -0.86662423922E+03  0.86662423922E+03  0.25500000920E-02 0.  1.
    10030    2    1    2    0    0  0.00000000000E+00  0.00000000000E+00  0.10867321564E+04  0.28199806349E+04  0.26021729384E+04 0.  0.
        3    1    3    3  502    0  0.11917264593E+04 -0.52211330003E+03  0.53965320235E+03  0.14085594914E+04  0.10100000352E+00 0. -1.
       -3    1    3    3    0  502 -0.11917264593E+04  0.52211330003E+03  0.54707895408E+03  0.14114211434E+04  0.10100000352E+00 0.  1.
</event>
<event>
 5   0  0.1055179E-06  0.2596502E+04  0.7818609E-02  0.8369390E-01
       -1   -1    0    0    0  501  0.00000000000E+00  0.00000000000E+00  0.78807149673E+03  0.78807149675E+03  0.50400001928E-02 0. -1.
        1   -1    0    0  501    0  0.00000000000E+00  0.00000000000E+00 -0.21387089327E+04  0.21387089327E+04  0.50400001928E-02 0.  1.
    10030    2    1    2    0    0  0.00000000000E+00  0.00000000000E+00 -0.13506374359E+04  0.29267804294E+04  0.25965019158E+04 0.  0.
        3    1    3    3  502    0  0.10726601073E+04  0.21812632885E+03  0.11152654528E+03  0.11002804105E+04  0.10100000352E+00 0. -1.
       -3    1    3    3    0  502 -0.10726601073E+04 -0.21812632885E+03 -0.14621639812E+04  0.18265000190E+04  0.10100000352E+00 0.  1.
</event>
<event>
 5   0  0.1122628E-06  0.2594631E+04  0.7818609E-02  0.8370027E-01
        1   -1    0    0  501    0  0.00000000000E+00  0.00000000000E+00  0.23015391510E+04  0.23015391510E+04  0.50400001928E-02 0. -1.
       -1   -1    0    0    0  501  0.00000000000E+00  0.00000000000E+00 -0.73126159452E+03  0.73126159454E+03  0.50400001928E-02 0.  1.
    10030    2    1    2    0    0  0.00000000000E+00  0.00000000000E+00  0.15702775564E+04  0.30328007455E+04  0.25946307556E+04 0.  0.
        2    1    3    3  502    0  0.97363188640E+03  0.44983405982E+03 -0.67994300277E+02  0.10746780711E+04  0.25500000920E-02 0. -1.
       -2    1    3    3    0  502 -0.97363188640E+03 -0.44983405982E+03  0.16382718567E+04  0.19581226744E+04  0.25500000920E-02 0.  1.
</event>
<event>
 5   0  0.2746631E-06  0.2597695E+04  0.7818609E-02  0.8368984E-01
        2   -1    0    0  501    0  0.00000000000E+00  0.00000000000E+00  0.16737649711E+04  0.16737649711E+04  0.25500000920E-02 0.  1.
       -2   -1    0    0    0  501  0.00000000000E+00  0.00000000000E+00 -0.10079105442E+04  0.10079105442E+04  0.25500000920E-02 0. -1.
    10030    2    1    2    0    0  0.00000000000E+00  0.00000000000E+00  0.66585442688E+03  0.26816755152E+04  0.25976954116E+04 0.  0.
        2    1    3    3  502    0  0.63769374500E+02  0.78725550534E+03  0.13973615260E+04  0.16051345732E+04  0.25500000920E-02 0.  1.
       -2    1    3    3    0  502 -0.63769374500E+02 -0.78725550534E+03 -0.73150709911E+03  0.10765409420E+04  0.25500000920E-02 0. -1.
</event>
<event>
 5   0  0.1088757E-06  0.2630331E+04  0.7818609E-02  0.8357971E-01
       -1   -1    0    0    0  501  0.00000000000E+00  0.00000000000E+00  0.10002213824E+04  0.10002213824E+04  0.50400001928E-02 0.  1.
        1   -1    0    0  501    0  0.00000000000E+00  0.00000000000E+00 -0.17292773104E+04  0.17292773104E+04  0.50400001928E-02 0. -1.
    10030    2    1    2    0    0  0.00000000000E+00  0.00000000000E+00 -0.72905592798E+03  0.27294986928E+04  0.26303308856E+04 0.  0.
        5    1    3    3  502    0 -0.43943145469E+03  0.64023820856E+03 -0.14659753497E+04  0.16589486981E+04  0.46999998093E+01 0. -1.
       -5    1    3    3    0  502  0.43943145469E+03 -0.64023820856E+03  0.73691942168E+03  0.10705499947E+04  0.46999998093E+01 0.  1.
</event>
<event>
 5   0  0.1032076E-06  0.2612045E+04  0.7818609E-02  0.8364121E-01
        1   -1    0    0  501    0  0.00000000000E+00  0.00000000000E+00  0.21334619410E+04  0.21334619410E+04  0.50400001928E-02 0.  1.
       -1   -1    0    0    0  501  0.00000000000E+00  0.00000000000E+00 -0.79949628359E+03  0.79949628361E+03  0.50400001928E-02 0. -1.
    10030    2    1    2    0    0  0.00000000000E+00  0.00000000000E+00  0.13339656574E+04  0.29329582246E+04  0.26120450938E+04 0.  0.
        1    1    3    3  502    0  0.58268168440E+03  0.27124414467E+03 -0.60962611020E+03  0.88585288035E+03  0.50400001928E-02 0. -1.
       -1    1    3    3    0  502 -0.58268168440E+03 -0.27124414467E+03  0.19435917676E+04  0.20471053443E+04  0.50400001928E-02 0.  1.
</event>
<event>
 5   0  0.2705807E-06  0.2597242E+04  0.7818609E-02  0.8369139E-01
        2   -1    0    0  501    0  0.00000000000E+00  0.00000000000E+00  0.10835368042E+04  0.10835368042E+04  0.25500000920E-02 0.  1.
       -2   -1    0    0    0  501  0.00000000000E+00  0.00000000000E+00 -0.15563995002E+04  0.15563995002E+04  0.25500000920E-02 0. -1.
    10030    2    1    2    0    0  0.00000000000E+00  0.00000000000E+00 -0.47286269601E+03  0.26399363043E+04  0.25972417218E+04 0.  0.
        4    1    3    3  502    0 -0.25543191900E+03 -0.10913886026E+03 -0.15258498133E+04  0.15509274714E+04  0.12699999809E+01 0. -1.
       -4    1    3    3    0  502  0.25543191900E+03  0.10913886026E+03  0.10529871173E+04  0.10890088329E+04  0.12699999809E+01 0.  1.
</event>
<event>
 5   0  0.1032076E-06  0.2578772E+04  0.7818609E-02  0.8375448E-01
       -1   -1    0    0    0  501  0.00000000000E+00  0.00000000000E+00  0.12548006187E+04  0.12548006187E+04  0.50400001928E-02 0. -1.
        1   -1    0    0  501    0  0.00000000000E+00  0.00000000000E+00 -0.13249246982E+04  0.13249246983E+04  0.50400001928E-02 0.  1.
    10030    2    1    2    0    0  0.00000000000E+00  0.00000000000E+00 -0.70124079540E+02  0.25797253170E+04  0.25787720575E+04 0.  0.
        1    1    3    3  502    0 -0.10655864627E+04 -0.64019409770E+03 -0.37752371259E+03  0.12991717153E+04  0.50400001928E-02 0. -1.
       -1    1    3    3    0  502  0.10655864627E+04  0.64019409770E+03  0.30739963305E+03  0.12805536017E+04  0.50400001928E-02 0.  1.
</event>
<event>
 5   0  0.2705807E-06  0.2644016E+04  0.7818609E-02  0.8353402E-01
        2   -1    0    0  501    0  0.00000000000E+00  0.00000000000E+00  0.11119488041E+04  0.11119488041E+04  0.25500000920E-02 0. -1.
       -2   -1    0    0    0  501  0.00000000000E+00  0.00000000000E+00 -0.15717492505E+04  0.15717492505E+04  0.25500000920E-02 0.  1.
    10030    2    1    2    0    0  0.00000000000E+00  0.00000000000E+00 -0.45980044634E+03  0.26836980546E+04  0.26440156576E+04 0.  0.
        4    1    3    3  502    0  0.27695669557E+03 -0.10356018918E+04 -0.10151565213E+04  0.14763877083E+04  0.12699999809E+01 0.  1.
       -4    1    3    3    0  502 -0.27695669557E+03  0.10356018918E+04  0.55535607497E+03  0.12073103463E+04  0.12699999809E+01 0. -1.
</event>
<event>
 5   0  0.2623368E-06  0.2610009E+04  0.7818609E-02  0.8364809E-01
        2   -1    0    0  501    0  0.00000000000E+00  0.00000000000E+00  0.17838640112E+04  0.17838640112E+04  0.25500000920E-02 0. -1.
       -2   -1    0    0    0  501  0.00000000000E+00  0.00000000000E+00 -0.95468995608E+03  0.95468995608E+03  0.25500000920E-02 0.  1.
    10030    2    1    2    0    0  0.00000000000E+00  0.00000000000E+00  0.82917405507E+03  0.27385539672E+04  0.26100092371E+04 0.  0.
        5    1    3    3  502    0  0.71733125699E+03 -0.61956684505E+02 -0.72741627588E+03  0.10235034399E+04  0.46999998093E+01 0.  1.
       -5    1    3    3    0  502 -0.71733125699E+03  0.61956684505E+02  0.15565903309E+04  0.17150505274E+04  0.46999998093E+01 0. -1.
</event>
<event>
 5   0  0.1100104E-06  0.2587935E+04  0.7818609E-02  0.8372311E-01
        1   -1    0    0  501    0  0.00000000000E+00  0.00000000000E+00  0.27599761587E+04  0.27599761587E+04  0.50400001928E-02 0.  1.
       -1   -1    0    0    0  501  0.00000000000E+00  0.00000000000E+00 -0.60665470869E+03  0.60665470871E+03  0.50400001928E-02 0. -1.
    10030    2    1    2    0    0  0.00000000000E+00  0.00000000000E+00  0.21533214500E+04  0.33666308674E+04  0.25879354958E+04 0.  0.
        4    1    3    3  502    0  0.97776826962E+03  0.70234551446E+02 -0.22104033914E+02  0.98053754773E+03  0.12699999809E+01 0. -1.
       -4    1    3    3    0  502 -0.97776826962E+03 -0.70234551446E+02  0.21754254839E+04  0.23860933197E+04  0.12699999809E+01 0.  1.
</event>
<event>
 5   0  0.2623368E-06  0.2594921E+04  0.7818609E-02  0.8369929E-01
        2   -1    0    0  501    0  0.00000000000E+00  0.00000000000E+00  0.10219935644E+04  0.10219935644E+04  0.25500000920E-02 0.  1.
       -2   -1    0    0    0  501  0.00000000000E+00  0.00000000000E+00 -0.16471761835E+04  0.16471761835E+04  0.25500000920E-02 0. -1.
    10030    2    1    2    0    0  0.00000000000E+00  0.00000000000E+00 -0.62518261913E+03  0.26691697479E+04  0.25949207764E+04 0.  0.
        5    1    3    3  502    0 -0.84018930513E+03 -0.25457545483E+03 -0.12952559373E+04  0.15647481470E+04  0.46999998093E+01 0. -1.
       -5    1    3    3    0  502  0.84018930513E+03  0.25457545483E+03  0.67007331814E+03  0.11044216008E+04  0.46999998093E+01 0.  1.
</event>
<event>
 5   0  0.1122628E-06  0.2594954E+04  0.7818609E-02  0.8369917E-01
        1   -1    0    0  501    0  0.00000000000E+00  0.00000000000E+00  0.21075692373E+04  0.21075692373E+04  0.50400001928E-02 0. -1.
       -1   -1    0    0    0  501  0.00000000000E+00  0.00000000000E+00 -0.79876212841E+03  0.79876212842E+03  0.50400001928E-02 0.  1.
    10030    2    1    2    0    0  0.00000000000E+00  0.00000000000E+00  0.13088071089E+04  0.29063313658E+04  0.25949539416E+04 0.  0.
        2    1    3    3  502    0  0.93361854682E+03  0.76123149406E+03  0.11942467908E+04  0.16962730841E+04  0.25500000920E-02 0. -1.
       -2    1    3    3    0  502 -0.93361854682E+03 -0.76123149406E+03  0.11456031814E+03  0.12100582817E+04  0.25500000920E-02 0.  1.
</event>
<event>
 5   0  0.2746631E-06  0.2600386E+04  0.7818609E-02  0.8368070E-01
       -2   -1    0    0    0  501  0.00000000000E+00  0.00000000000E+00  0.92207471920E+03  0.92207471920E+03  0.25500000920E-02 0. -1.
        2   -1    0    0  501    0  0.00000000000E+00  0.00000000000E+00 -0.18333668801E+04  0.18333668801E+04  0.25500000920E-02 0.  1.
    10030    2    1    2    0    0  0.00000000000E+00  0.00000000000E+00 -0.91129216086E+03  0.27554415993E+04  0.26003855492E+04 0.  0.
        2    1    3    3  502    0 -0.29994699546E+03 -0.12649191069E+04 -0.43165295649E+03  0.13697856847E+04  0.25500000920E-02 0.  1.
       -2    1    3    3    0  502  0.29994699546E+03  0.12649191069E+04 -0.47963920437E+03  0.13856559146E+04  0.25500000920E-02 0. -1.
</event>
<event>
 5   0  0.1088757E-06  0.2599893E+04  0.7818609E-02  0.8368237E-01
        1   -1    0    0  501    0  0.00000000000E+00  0.00000000000E+00  0.15636870983E+04  0.15636870983E+04  0.50400001928E-02 0.  1.
       -1   -1    0    0    0  501  0.00000000000E+00  0.00000000000E+00 -0.10806903229E+04  0.10806903229E+04  0.50400001928E-02 0. -1.
    10030    2    1    2    0    0  0.00000000000E+00  0.00000000000E+00  0.48299677535E+03  0.26443774212E+04  0.25998934711E+04 0.  0.
        5    1    3    3  502    0  0.51487690336E+03  0.39065033343E+03  0.13886854340E+04  0.15317229623E+04  0.46999998093E+01 0.  1.
       -5    1    3    3    0  502 -0.51487690336E+03 -0.39065033343E+03 -0.90568865864E+03  0.11126544589E+04  0.46999998093E+01 0. -1.
</event>
</LesHouchesEvents>
